<event>
 8    1  0.3011071E-007  0.9118800E+02  0.7816164E-02  0.1184000E+00
        -11   -1    0    0    0    0  0.00000000000E+00  0.00000000000E+00  0.45593999997E+02  0.45594000000E+02  0.51100000000E-03 0.  1.
         11   -1    0    0    0    0 -0.00000000000E+00 -0.00000000000E+00 -0.45593999997E+02  0.45594000000E+02  0.51100000000E-03 0. -1.
         23    2    1    2    0    0  0.00000000000E+00  0.00000000000E+00  0.00000000000E+00  0.91188000000E+02  0.91188000000E+02 0.  0.
    9900012    2    3    3    0    0 -0.23514920744E+02  0.14762189927E+02 -0.24184835882E+02  0.54367081547E+02  0.39999994003E+02 0.  0.
        -12    1    3    3    0    0  0.23514920744E+02 -0.14762189927E+02  0.24184835882E+02  0.36820918453E+02  0.00000000000E+00 0.  1.
         11    1    4    4    0    0 -0.14110900586E+02  0.40705343791E+01 -0.14583647558E+02  0.20697090178E+02  0.51100000000E-03 0. -1.
        -11    1    4    4    0    0 -0.55485968122E+01  0.18052543816E+02  0.24368536050E+01  0.19042571270E+02  0.51100000000E-03 0.  1.
        -12    1    4    4    0    0 -0.38554233460E+01 -0.73608882681E+01 -0.12038041929E+02  0.14627420099E+02  0.00000000000E+00 0.  1.
</event>
<event>
 8    1  0.3011071E-007  0.9118800E+02  0.7816164E-02  0.1184000E+00
        -11   -1    0    0    0    0  0.00000000000E+00  0.00000000000E+00  0.45593999997E+02  0.45594000000E+02  0.51100000000E-03 0. -1.
         11   -1    0    0    0    0 -0.00000000000E+00 -0.00000000000E+00 -0.45593999997E+02  0.45594000000E+02  0.51100000000E-03 0.  1.
         23    2    1    2    0    0  0.00000000000E+00  0.17763568394E-14  0.35527136788E-14  0.91188000000E+02  0.91188000000E+02 0.  0.
    9900012    2    3    3    0    0 -0.23523137898E+02  0.14476338836E+02  0.24349145661E+02  0.54367037260E+02  0.39999893042E+02 0.  0.
        -12    1    3    3    0    0  0.23523137898E+02 -0.14476338836E+02 -0.24349145661E+02  0.36820962740E+02  0.00000000000E+00 0.  1.
         11    1    4    4    0    0 -0.79295159117E+01  0.11548549510E+02  0.11825401577E+02  0.18332657775E+02  0.51100000000E-03 0. -1.
        -11    1    4    4    0    0 -0.13709021587E+02 -0.33853086272E+01  0.20995471647E+02  0.25302320394E+02  0.51100000000E-03 0.  1.
         12    1    4    4    0    0 -0.18846003990E+01  0.63130979530E+01 -0.84717275633E+01  0.10732059091E+02  0.00000000000E+00 0. -1.
</event>
<event>
 8    1  0.3011071E-007  0.9118800E+02  0.7816164E-02  0.1184000E+00
        -11   -1    0    0    0    0  0.00000000000E+00  0.00000000000E+00  0.45593999997E+02  0.45594000000E+02  0.51100000000E-03 0. -1.
         11   -1    0    0    0    0 -0.00000000000E+00 -0.00000000000E+00 -0.45593999997E+02  0.45594000000E+02  0.51100000000E-03 0.  1.
         23    2    1    2    0    0  0.00000000000E+00  0.00000000000E+00  0.00000000000E+00  0.91188000000E+02  0.91188000000E+02 0.  0.
    9900012    2    3    3    0    0  0.33658257269E+02  0.11227314997E+02  0.98412117930E+01  0.54367077496E+02  0.39999984768E+02 0.  0.
        -12    1    3    3    0    0 -0.33658257269E+02 -0.11227314997E+02 -0.98412117930E+01  0.36820922504E+02  0.00000000000E+00 0.  1.
         11    1    4    4    0    0 -0.56755255468E+01  0.62423466213E+01 -0.19293613765E+01  0.86545315965E+01  0.51100000000E-03 0. -1.
        -11    1    4    4    0    0  0.16870201097E+02  0.10412209568E+02  0.10815268358E+02  0.22582909977E+02  0.51100000000E-03 0.  1.
        -12    1    4    4    0    0  0.22463581720E+02 -0.54272411916E+01  0.95530481146E+00  0.23129635923E+02  0.00000000000E+00 0.  1.
</event>
<event>
 8    1  0.3011071E-007  0.9118800E+02  0.7816164E-02  0.1184000E+00
        -11   -1    0    0    0    0  0.00000000000E+00  0.00000000000E+00  0.45593999997E+02  0.45594000000E+02  0.51100000000E-03 0. -1.
         11   -1    0    0    0    0 -0.00000000000E+00 -0.00000000000E+00 -0.45593999997E+02  0.45594000000E+02  0.51100000000E-03 0.  1.
         23    2    1    2    0    0  0.00000000000E+00  0.35527136788E-14  0.00000000000E+00  0.91188000000E+02  0.91188000000E+02 0.  0.
    9900012    2    3    3    0    0 -0.91490221104E+01  0.13589957703E+02  0.32975500691E+02  0.54367147188E+02  0.40000143644E+02 0.  0.
        -12    1    3    3    0    0  0.91490221104E+01 -0.13589957703E+02 -0.32975500691E+02  0.36820852812E+02  0.00000000000E+00 0.  1.
         11    1    4    4    0    0  0.77895814068E+01  0.97255478660E+01  0.33048386886E+01  0.12891307878E+02  0.51100000000E-03 0. -1.
        -11    1    4    4    0    0  0.47476555208E+01 -0.29925145641E+01  0.28008421272E+01  0.62721681453E+01  0.51100000000E-03 0.  1.
         12    1    4    4    0    0 -0.21686259038E+02  0.68569244015E+01  0.26869819876E+02  0.35203671165E+02  0.00000000000E+00 0. -1.
</event>
<event>
 8    1  0.3011071E-007  0.9118800E+02  0.7816164E-02  0.1184000E+00
        -11   -1    0    0    0    0  0.00000000000E+00  0.00000000000E+00  0.45593999997E+02  0.45594000000E+02  0.51100000000E-03 0.  1.
         11   -1    0    0    0    0 -0.00000000000E+00 -0.00000000000E+00 -0.45593999997E+02  0.45594000000E+02  0.51100000000E-03 0. -1.
         23    2    1    2    0    0  0.35527136788E-14  0.00000000000E+00  0.44408920985E-15  0.91188000000E+02  0.91188000000E+02 0.  0.
    9900012    2    3    3    0    0 -0.31865691448E+02  0.18099262100E+02 -0.35737521866E+01  0.54367118904E+02  0.40000079165E+02 0.  0.
        -12    1    3    3    0    0  0.31865691448E+02 -0.18099262100E+02  0.35737521866E+01  0.36820881096E+02  0.00000000000E+00 0.  1.
         11    1    4    4    0    0 -0.33495108705E+02 -0.89289465765E+00  0.27492682445E+01  0.33619608032E+02  0.51100000000E-03 0. -1.
        -11    1    4    4    0    0  0.65139648636E+00  0.11161658859E+02 -0.99273857915E+00  0.11224637010E+02  0.51100000000E-03 0.  1.
         12    1    4    4    0    0  0.97802077115E+00  0.78304978986E+01 -0.53302818520E+01  0.95228738620E+01  0.00000000000E+00 0. -1.
</event>
<event>
 8    1  0.3011071E-007  0.9118800E+02  0.7816164E-02  0.1184000E+00
        -11   -1    0    0    0    0  0.00000000000E+00  0.00000000000E+00  0.45593999997E+02  0.45594000000E+02  0.51100000000E-03 0.  1.
         11   -1    0    0    0    0 -0.00000000000E+00 -0.00000000000E+00 -0.45593999997E+02  0.45594000000E+02  0.51100000000E-03 0. -1.
         23    2    1    2    0    0  0.00000000000E+00  0.00000000000E+00  0.00000000000E+00  0.91188000000E+02  0.91188000000E+02 0.  0.
    9900012    2    3    3    0    0 -0.17297691983E+02 -0.32279064267E+02  0.38251344607E+01  0.54367084863E+02  0.40000001562E+02 0.  0.
        -12    1    3    3    0    0  0.17297691983E+02  0.32279064267E+02 -0.38251344607E+01  0.36820915137E+02  0.00000000000E+00 0.  1.
         11    1    4    4    0    0 -0.64423477169E+01  0.41912708107E+01 -0.50873858978E+01  0.92169458417E+01  0.51100000000E-03 0.  1.
        -11    1    4    4    0    0 -0.82798231657E+01 -0.29694582973E+02  0.16239717213E+02  0.34843251068E+02  0.51100000000E-03 0. -1.
         12    1    4    4    0    0 -0.25755211002E+01 -0.67757521051E+01 -0.73271968550E+01  0.10306887953E+02  0.00000000000E+00 0. -1.
</event>
<event>
 8    1  0.3011071E-007  0.9118800E+02  0.7816164E-02  0.1184000E+00
        -11   -1    0    0    0    0  0.00000000000E+00  0.00000000000E+00  0.45593999997E+02  0.45594000000E+02  0.51100000000E-03 0. -1.
         11   -1    0    0    0    0 -0.00000000000E+00 -0.00000000000E+00 -0.45593999997E+02  0.45594000000E+02  0.51100000000E-03 0.  1.
         23    2    1    2    0    0  0.71054273576E-14  0.00000000000E+00  0.44408920985E-15  0.91188000000E+02  0.91188000000E+02 0.  0.
    9900012    2    3    3    0    0  0.32394936059E+02 -0.17128926949E+02  0.35982668840E+01  0.54367088207E+02  0.40000009186E+02 0.  0.
        -12    1    3    3    0    0 -0.32394936059E+02  0.17128926949E+02 -0.35982668840E+01  0.36820911793E+02  0.00000000000E+00 0.  1.
         11    1    4    4    0    0  0.29022042572E+02 -0.41152807696E+01 -0.58162294374E+01  0.29883825324E+02  0.51100000000E-03 0. -1.
        -11    1    4    4    0    0  0.75782149690E+01  0.10770317321E+01  0.15583037796E+01  0.78113795452E+01  0.51100000000E-03 0.  1.
         12    1    4    4    0    0 -0.42053214824E+01 -0.14090677912E+02  0.78561925418E+01  0.16671883338E+02  0.00000000000E+00 0. -1.
</event>
<event>
 8    1  0.3011071E-007  0.9118800E+02  0.7816164E-02  0.1184000E+00
        -11   -1    0    0    0    0  0.00000000000E+00  0.00000000000E+00  0.45593999997E+02  0.45594000000E+02  0.51100000000E-03 0.  1.
         11   -1    0    0    0    0 -0.00000000000E+00 -0.00000000000E+00 -0.45593999997E+02  0.45594000000E+02  0.51100000000E-03 0. -1.
         23    2    1    2    0    0 -0.71054273576E-14  0.00000000000E+00 -0.17763568394E-14  0.91188000000E+02  0.91188000000E+02 0.  0.
    9900012    2    3    3    0    0  0.28020789083E+02  0.19331488782E+02  0.14032387422E+02  0.54367095935E+02  0.40000026803E+02 0.  0.
         12    1    3    3    0    0 -0.28020789083E+02 -0.19331488782E+02 -0.14032387422E+02  0.36820904065E+02  0.00000000000E+00 0. -1.
         11    1    4    4    0    0  0.94134613925E+01  0.15471274275E+02  0.23504489216E+02  0.29672118169E+02  0.51100000000E-03 0. -1.
        -11    1    4    4    0    0  0.14574720455E+02 -0.19840448326E+01 -0.96502659815E+01  0.17592229648E+02  0.51100000000E-03 0.  1.
        -12    1    4    4    0    0  0.40326072363E+01  0.58442593396E+01  0.17816418839E+00  0.71027481181E+01  0.00000000000E+00 0.  1.
</event>
<event>
 8    1  0.3011071E-007  0.9118800E+02  0.7816164E-02  0.1184000E+00
        -11   -1    0    0    0    0  0.00000000000E+00  0.00000000000E+00  0.45593999997E+02  0.45594000000E+02  0.51100000000E-03 0.  1.
         11   -1    0    0    0    0 -0.00000000000E+00 -0.00000000000E+00 -0.45593999997E+02  0.45594000000E+02  0.51100000000E-03 0. -1.
         23    2    1    2    0    0  0.22204460493E-14  0.00000000000E+00  0.00000000000E+00  0.91188000000E+02  0.91188000000E+02 0.  0.
    9900012    2    3    3    0    0 -0.30026697091E+01 -0.17578399380E+02  0.32214364067E+02  0.54367062989E+02  0.39999951696E+02 0.  0.
         12    1    3    3    0    0  0.30026697091E+01  0.17578399380E+02 -0.32214364067E+02  0.36820937011E+02  0.00000000000E+00 0. -1.
         11    1    4    4    0    0 -0.13247141428E+02 -0.12997896328E+02  0.36998692800E+02  0.41392455038E+02  0.51100000000E-03 0.  1.
        -11    1    4    4    0    0  0.61579342479E-01 -0.66543946466E+00 -0.14013533663E+01  0.15525441104E+01  0.51100000000E-03 0. -1.
        -12    1    4    4    0    0  0.10182892376E+02 -0.39150635871E+01 -0.33829753662E+01  0.11422063840E+02  0.00000000000E+00 0.  1.
</event>
<event>
 8    1  0.3011071E-007  0.9118800E+02  0.7816164E-02  0.1184000E+00
        -11   -1    0    0    0    0  0.00000000000E+00  0.00000000000E+00  0.45593999997E+02  0.45594000000E+02  0.51100000000E-03 0.  1.
         11   -1    0    0    0    0 -0.00000000000E+00 -0.00000000000E+00 -0.45593999997E+02  0.45594000000E+02  0.51100000000E-03 0. -1.
         23    2    1    2    0    0  0.17763568394E-14  0.71054273576E-14 -0.77715611724E-15  0.91188000000E+02  0.91188000000E+02 0.  0.
    9900012    2    3    3    0    0  0.13154459610E+02  0.34378992374E+02 -0.90837676728E+00  0.54367081046E+02  0.39999992860E+02 0.  0.
        -12    1    3    3    0    0 -0.13154459610E+02 -0.34378992374E+02  0.90837676728E+00  0.36820918954E+02  0.00000000000E+00 0.  1.
         11    1    4    4    0    0  0.18280184566E+02  0.13797742627E+02  0.12716197007E+02  0.26196269122E+02  0.51100000000E-03 0. -1.
        -11    1    4    4    0    0 -0.66710970554E+01  0.12206487363E+02 -0.13879962602E+02  0.19650832852E+02  0.51100000000E-03 0.  1.
        -12    1    4    4    0    0  0.15453720998E+01  0.83747623847E+01  0.25538882844E+00  0.85199790716E+01  0.00000000000E+00 0.  1.
</event>
<event>
 8    1  0.3011071E-007  0.9118800E+02  0.7816164E-02  0.1184000E+00
        -11   -1    0    0    0    0  0.00000000000E+00  0.00000000000E+00  0.45593999997E+02  0.45594000000E+02  0.51100000000E-03 0.  1.
         11   -1    0    0    0    0 -0.00000000000E+00 -0.00000000000E+00 -0.45593999997E+02  0.45594000000E+02  0.51100000000E-03 0. -1.
         23    2    1    2    0    0  0.43021142204E-15 -0.35527136788E-14  0.00000000000E+00  0.91188000000E+02  0.91188000000E+02 0.  0.
    9900012    2    3    3    0    0  0.45597512321E-01 -0.29521397386E+02  0.22006008936E+02  0.54367090016E+02  0.40000013311E+02 0.  0.
         12    1    3    3    0    0 -0.45597512321E-01  0.29521397386E+02 -0.22006008936E+02  0.36820909984E+02  0.00000000000E+00 0. -1.
         11    1    4    4    0    0  0.26725925822E+01 -0.12006975684E+01 -0.26518698826E+01  0.39518147599E+01  0.51100000000E-03 0. -1.
        -11    1    4    4    0    0 -0.17606237549E+02 -0.14253046206E+02  0.17605528277E+02  0.28689432775E+02  0.51100000000E-03 0.  1.
        -12    1    4    4    0    0  0.14979242479E+02 -0.14067653611E+02  0.70523505417E+01  0.21725842482E+02  0.00000000000E+00 0.  1.
</event>
<event>
 8    1  0.3011071E-007  0.9118800E+02  0.7816164E-02  0.1184000E+00
        -11   -1    0    0    0    0  0.00000000000E+00  0.00000000000E+00  0.45593999997E+02  0.45594000000E+02  0.51100000000E-03 0.  1.
         11   -1    0    0    0    0 -0.00000000000E+00 -0.00000000000E+00 -0.45593999997E+02  0.45594000000E+02  0.51100000000E-03 0. -1.
         23    2    1    2    0    0  0.00000000000E+00 -0.35527136788E-14  0.44408920985E-15  0.91188000000E+02  0.91188000000E+02 0.  0.
    9900012    2    3    3    0    0  0.20368866152E+02 -0.30553705070E+02  0.27132446341E+01  0.54367064403E+02  0.39999954919E+02 0.  0.
        -12    1    3    3    0    0 -0.20368866152E+02  0.30553705070E+02 -0.27132446341E+01  0.36820935597E+02  0.00000000000E+00 0.  1.
         11    1    4    4    0    0  0.14726311491E+01 -0.21624157744E+02  0.84603989025E+01  0.23266954904E+02  0.51100000000E-03 0. -1.
        -11    1    4    4    0    0 -0.39871702210E+01 -0.15387604181E+00 -0.52402377166E+01  0.65864478891E+01  0.51100000000E-03 0.  1.
         12    1    4    4    0    0  0.22883405224E+02 -0.87756712838E+01 -0.50691655187E+00  0.24513661610E+02  0.00000000000E+00 0. -1.
</event>
<event>
 8    1  0.3011071E-007  0.9118800E+02  0.7816164E-02  0.1184000E+00
        -11   -1    0    0    0    0  0.00000000000E+00  0.00000000000E+00  0.45593999997E+02  0.45594000000E+02  0.51100000000E-03 0. -1.
         11   -1    0    0    0    0 -0.00000000000E+00 -0.00000000000E+00 -0.45593999997E+02  0.45594000000E+02  0.51100000000E-03 0.  1.
         23    2    1    2    0    0  0.00000000000E+00  0.00000000000E+00  0.00000000000E+00  0.91188000000E+02  0.91188000000E+02 0.  0.
    9900012    2    3    3    0    0 -0.67120027518E+01  0.86120341097E+01  0.35164733907E+02  0.54367127887E+02  0.40000099643E+02 0.  0.
        -12    1    3    3    0    0  0.67120027518E+01 -0.86120341097E+01 -0.35164733907E+02  0.36820872113E+02  0.00000000000E+00 0.  1.
         11    1    4    4    0    0 -0.44246116057E+01 -0.35978302402E+00  0.21801288323E+02  0.22248658487E+02  0.51100000000E-03 0. -1.
        -11    1    4    4    0    0 -0.10172745202E+02 -0.35013114291E+01 -0.18586009645E+01  0.10917798517E+02  0.51100000000E-03 0.  1.
         12    1    4    4    0    0  0.78853540555E+01  0.12473128563E+02  0.15222046549E+02  0.21200670882E+02  0.00000000000E+00 0. -1.
</event>
<event>
 8    1  0.3011071E-007  0.9118800E+02  0.7816164E-02  0.1184000E+00
        -11   -1    0    0    0    0  0.00000000000E+00  0.00000000000E+00  0.45593999997E+02  0.45594000000E+02  0.51100000000E-03 0.  1.
         11   -1    0    0    0    0 -0.00000000000E+00 -0.00000000000E+00 -0.45593999997E+02  0.45594000000E+02  0.51100000000E-03 0. -1.
         23    2    1    2    0    0  0.00000000000E+00  0.00000000000E+00  0.88817841970E-15  0.91188000000E+02  0.91188000000E+02 0.  0.
    9900012    2    3    3    0    0  0.35817012063E+02  0.34038627261E+01  0.78324807489E+01  0.54366913795E+02  0.39999611578E+02 0.  0.
         12    1    3    3    0    0 -0.35817012063E+02 -0.34038627261E+01 -0.78324807489E+01  0.36821086205E+02  0.00000000000E+00 0. -1.
         11    1    4    4    0    0 -0.35979661808E+01 -0.60129247672E+01  0.50929040307E+01  0.86624648121E+01  0.51100000000E-03 0. -1.
        -11    1    4    4    0    0  0.56714359762E+01  0.25873729811E+01 -0.75320678901E+01  0.97771024306E+01  0.51100000000E-03 0.  1.
         12    1    4    4    0    0  0.33743542268E+02  0.68294145122E+01  0.10271644608E+02  0.35927346553E+02  0.00000000000E+00 0. -1.
</event>
<event>
 8    1  0.3011071E-007  0.9118800E+02  0.7816164E-02  0.1184000E+00
        -11   -1    0    0    0    0  0.00000000000E+00  0.00000000000E+00  0.45593999997E+02  0.45594000000E+02  0.51100000000E-03 0. -1.
         11   -1    0    0    0    0 -0.00000000000E+00 -0.00000000000E+00 -0.45593999997E+02  0.45594000000E+02  0.51100000000E-03 0.  1.
         23    2    1    2    0    0  0.00000000000E+00  0.00000000000E+00  0.00000000000E+00  0.91188000000E+02  0.91188000000E+02 0.  0.
    9900012    2    3    3    0    0  0.67914925931E+01 -0.13710191589E+02  0.33491600839E+02  0.54367067750E+02  0.39999962549E+02 0.  0.
        -12    1    3    3    0    0 -0.67914925931E+01  0.13710191589E+02 -0.33491600839E+02  0.36820932250E+02  0.00000000000E+00 0.  1.
         11    1    4    4    0    0 -0.36187520879E+01 -0.10451720318E+02  0.13288696299E+02  0.17289397730E+02  0.51100000000E-03 0. -1.
        -11    1    4    4    0    0  0.19374721436E+02  0.25832337336E+01  0.17010830226E+02  0.25911797940E+02  0.51100000000E-03 0.  1.
        -12    1    4    4    0    0 -0.89644767553E+01 -0.58417050049E+01  0.31920743132E+01  0.11165872079E+02  0.00000000000E+00 0.  1.
</event>
<event>
 8    1  0.3011071E-007  0.9118800E+02  0.7816164E-02  0.1184000E+00
        -11   -1    0    0    0    0  0.00000000000E+00  0.00000000000E+00  0.45593999997E+02  0.45594000000E+02  0.51100000000E-03 0.  1.
         11   -1    0    0    0    0 -0.00000000000E+00 -0.00000000000E+00 -0.45593999997E+02  0.45594000000E+02  0.51100000000E-03 0. -1.
         23    2    1    2    0    0  0.88817841970E-15  0.00000000000E+00  0.00000000000E+00  0.91188000000E+02  0.91188000000E+02 0.  0.
    9900012    2    3    3    0    0  0.58243787680E+01 -0.61152566595E+01  0.35839391770E+02  0.54367058208E+02  0.39999940797E+02 0.  0.
         12    1    3    3    0    0 -0.58243787680E+01  0.61152566595E+01 -0.35839391770E+02  0.36820941792E+02  0.00000000000E+00 0. -1.
         11    1    4    4    0    0  0.68184551217E+01  0.52566752497E+01  0.44530300366E+00  0.86210358979E+01  0.51100000000E-03 0. -1.
        -11    1    4    4    0    0 -0.11121079619E+02 -0.10837829001E+02  0.10177332812E+02  0.18566503516E+02  0.51100000000E-03 0.  1.
        -12    1    4    4    0    0  0.10127003266E+02 -0.53410290782E+00  0.25216755954E+02  0.27179518794E+02  0.00000000000E+00 0.  1.
</event>
<event>
 8    1  0.3011071E-007  0.9118800E+02  0.7816164E-02  0.1184000E+00
        -11   -1    0    0    0    0  0.00000000000E+00  0.00000000000E+00  0.45593999997E+02  0.45594000000E+02  0.51100000000E-03 0. -1.
         11   -1    0    0    0    0 -0.00000000000E+00 -0.00000000000E+00 -0.45593999997E+02  0.45594000000E+02  0.51100000000E-03 0.  1.
         23    2    1    2    0    0  0.17763568394E-14  0.00000000000E+00  0.00000000000E+00  0.91188000000E+02  0.91188000000E+02 0.  0.
    9900012    2    3    3    0    0 -0.14903985375E+02  0.30738467107E+02  0.13740450114E+02  0.54367053386E+02  0.39999929805E+02 0.  0.
        -12    1    3    3    0    0  0.14903985375E+02 -0.30738467107E+02 -0.13740450114E+02  0.36820946614E+02  0.00000000000E+00 0.  1.
         11    1    4    4    0    0  0.17653265594E+01 -0.48137563651E+01 -0.11973830625E+01  0.52652022433E+01  0.51100000000E-03 0.  1.
        -11    1    4    4    0    0 -0.14720618583E+02  0.38853470064E+02  0.16828714519E+02  0.44827384266E+02  0.51100000000E-03 0. -1.
         12    1    4    4    0    0 -0.19486933511E+01 -0.33012465913E+01 -0.18908813425E+01  0.42744668772E+01  0.00000000000E+00 0. -1.
</event>
<event>
 8    1  0.3011071E-007  0.9118800E+02  0.7816164E-02  0.1184000E+00
        -11   -1    0    0    0    0  0.00000000000E+00  0.00000000000E+00  0.45593999997E+02  0.45594000000E+02  0.51100000000E-03 0.  1.
         11   -1    0    0    0    0 -0.00000000000E+00 -0.00000000000E+00 -0.45593999997E+02  0.45594000000E+02  0.51100000000E-03 0. -1.
         23    2    1    2    0    0  0.00000000000E+00  0.00000000000E+00  0.00000000000E+00  0.91188000000E+02  0.91188000000E+02 0.  0.
    9900012    2    3    3    0    0  0.13852274536E+02  0.75756860994E+01 -0.33264150579E+02  0.54367078727E+02  0.39999987574E+02 0.  0.
        -12    1    3    3    0    0 -0.13852274536E+02 -0.75756860994E+01  0.33264150579E+02  0.36820921273E+02  0.00000000000E+00 0.  1.
         11    1    4    4    0    0  0.62987085685E+01 -0.43760718690E+01 -0.65945888749E+01  0.10114956121E+02  0.51100000000E-03 0. -1.
        -11    1    4    4    0    0  0.15259693822E+02 -0.28831288874E+00 -0.16483442426E+01  0.15351169952E+02  0.51100000000E-03 0.  1.
         12    1    4    4    0    0 -0.77061278553E+01  0.12240070857E+02 -0.25021217461E+02  0.28900952655E+02  0.00000000000E+00 0. -1.
</event>
<event>
 8    1  0.3011071E-007  0.9118800E+02  0.7816164E-02  0.1184000E+00
        -11   -1    0    0    0    0  0.00000000000E+00  0.00000000000E+00  0.45593999997E+02  0.45594000000E+02  0.51100000000E-03 0. -1.
         11   -1    0    0    0    0 -0.00000000000E+00 -0.00000000000E+00 -0.45593999997E+02  0.45594000000E+02  0.51100000000E-03 0.  1.
         23    2    1    2    0    0  0.00000000000E+00  0.35527136788E-14 -0.35527136788E-14  0.91188000000E+02  0.91188000000E+02 0.  0.
    9900012    2    3    3    0    0  0.21827173175E+02 -0.20437693524E+02  0.21486140953E+02  0.54367094818E+02  0.40000024256E+02 0.  0.
        -12    1    3    3    0    0 -0.21827173175E+02  0.20437693524E+02 -0.21486140953E+02  0.36820905182E+02  0.00000000000E+00 0.  1.
         11    1    4    4    0    0  0.79838011865E+01 -0.11396978990E+01  0.24294657167E+02  0.25598249155E+02  0.51100000000E-03 0. -1.
        -11    1    4    4    0    0  0.13530010492E+02 -0.53609355948E+01 -0.28417254687E+01  0.14828223705E+02  0.51100000000E-03 0.  1.
         12    1    4    4    0    0  0.31336149651E+00 -0.13937060030E+02  0.33209255588E-01  0.13940621958E+02  0.00000000000E+00 0. -1.
</event>
<event>
 8    1  0.3011071E-007  0.9118800E+02  0.7816164E-02  0.1184000E+00
        -11   -1    0    0    0    0  0.00000000000E+00  0.00000000000E+00  0.45593999997E+02  0.45594000000E+02  0.51100000000E-03 0.  1.
         11   -1    0    0    0    0 -0.00000000000E+00 -0.00000000000E+00 -0.45593999997E+02  0.45594000000E+02  0.51100000000E-03 0. -1.
         23    2    1    2    0    0 -0.44408920985E-15 -0.88817841970E-15  0.00000000000E+00  0.91188000000E+02  0.91188000000E+02 0.  0.
    9900012    2    3    3    0    0  0.30300941321E+01  0.49346673006E+01 -0.36362709597E+02  0.54367094782E+02  0.40000024175E+02 0.  0.
        -12    1    3    3    0    0 -0.30300941321E+01 -0.49346673006E+01  0.36362709597E+02  0.36820905218E+02  0.00000000000E+00 0.  1.
         11    1    4    4    0    0 -0.59745366039E+01  0.54522797287E+01 -0.20568215860E+02  0.22101446690E+02  0.51100000000E-03 0. -1.
        -11    1    4    4    0    0  0.19293400886E+01  0.11475387909E+02 -0.14033302903E+02  0.18230207664E+02  0.51100000000E-03 0.  1.
        -12    1    4    4    0    0  0.70752906473E+01 -0.11993000337E+02 -0.17611908337E+01  0.14035440427E+02  0.00000000000E+00 0.  1.
</event>
<event>
 8    1  0.3011071E-007  0.9118800E+02  0.7816164E-02  0.1184000E+00
        -11   -1    0    0    0    0  0.00000000000E+00  0.00000000000E+00  0.45593999997E+02  0.45594000000E+02  0.51100000000E-03 0.  1.
         11   -1    0    0    0    0 -0.00000000000E+00 -0.00000000000E+00 -0.45593999997E+02  0.45594000000E+02  0.51100000000E-03 0. -1.
         23    2    1    2    0    0  0.17763568394E-14  0.00000000000E+00 -0.17763568394E-14  0.91188000000E+02  0.91188000000E+02 0.  0.
    9900012    2    3    3    0    0 -0.15690237498E+02  0.30354252308E+02  0.13719130459E+02  0.54367099326E+02  0.40000034532E+02 0.  0.
         12    1    3    3    0    0  0.15690237498E+02 -0.30354252308E+02 -0.13719130459E+02  0.36820900674E+02  0.00000000000E+00 0. -1.
         11    1    4    4    0    0 -0.58886501382E+01 -0.39134038643E+01 -0.62843539316E+01  0.94596001424E+01  0.51100000000E-03 0. -1.
        -11    1    4    4    0    0 -0.38933053618E+01  0.40926284432E+01  0.11802535174E+02  0.13084619636E+02  0.51100000000E-03 0.  1.
         12    1    4    4    0    0 -0.59082819978E+01  0.30175027729E+02  0.82009492167E+01  0.31822879547E+02  0.00000000000E+00 0. -1.
</event>
<event>
 8    1  0.3011071E-007  0.9118800E+02  0.7816164E-02  0.1184000E+00
        -11   -1    0    0    0    0  0.00000000000E+00  0.00000000000E+00  0.45593999997E+02  0.45594000000E+02  0.51100000000E-03 0. -1.
         11   -1    0    0    0    0 -0.00000000000E+00 -0.00000000000E+00 -0.45593999997E+02  0.45594000000E+02  0.51100000000E-03 0.  1.
         23    2    1    2    0    0 -0.35527136788E-14  0.00000000000E+00  0.00000000000E+00  0.91188000000E+02  0.91188000000E+02 0.  0.
    9900012    2    3    3    0    0  0.24738382077E+02 -0.17756515827E+02  0.20700445807E+02  0.54366948159E+02  0.39999689916E+02 0.  0.
         12    1    3    3    0    0 -0.24738382077E+02  0.17756515827E+02 -0.20700445807E+02  0.36821051841E+02  0.00000000000E+00 0. -1.
         11    1    4    4    0    0  0.21056464918E+02 -0.13859770010E+01  0.67174761350E+00  0.21112718731E+02  0.51100000000E-03 0. -1.
        -11    1    4    4    0    0  0.75367719605E+00 -0.13135040988E+02  0.41737928504E+00  0.13163264671E+02  0.51100000000E-03 0.  1.
         12    1    4    4    0    0  0.29282399629E+01 -0.32354978385E+01  0.19611318908E+02  0.20090964757E+02  0.00000000000E+00 0. -1.
</event>
<event>
 8    1  0.3011071E-007  0.9118800E+02  0.7816164E-02  0.1184000E+00
        -11   -1    0    0    0    0  0.00000000000E+00  0.00000000000E+00  0.45593999997E+02  0.45594000000E+02  0.51100000000E-03 0.  1.
         11   -1    0    0    0    0 -0.00000000000E+00 -0.00000000000E+00 -0.45593999997E+02  0.45594000000E+02  0.51100000000E-03 0. -1.
         23    2    1    2    0    0  0.35527136788E-14  0.00000000000E+00  0.35527136788E-14  0.91188000000E+02  0.91188000000E+02 0.  0.
    9900012    2    3    3    0    0 -0.17389219903E+02  0.24305526374E+02  0.21508925360E+02  0.54367116641E+02  0.40000074007E+02 0.  0.
         12    1    3    3    0    0  0.17389219903E+02 -0.24305526374E+02 -0.21508925360E+02  0.36820883359E+02  0.00000000000E+00 0. -1.
         11    1    4    4    0    0  0.66935960557E+00  0.67904428791E+00  0.66196698978E+01  0.66879872341E+01  0.51100000000E-03 0.  1.
        -11    1    4    4    0    0 -0.83192578144E+01  0.24760703113E+02 -0.39722767330E+01  0.26421231083E+02  0.51100000000E-03 0. -1.
         12    1    4    4    0    0 -0.97393216941E+01 -0.11342210272E+01  0.18861532195E+02  0.21257898324E+02  0.00000000000E+00 0. -1.
</event>
<event>
 8    1  0.3011071E-007  0.9118800E+02  0.7816164E-02  0.1184000E+00
        -11   -1    0    0    0    0  0.00000000000E+00  0.00000000000E+00  0.45593999997E+02  0.45594000000E+02  0.51100000000E-03 0.  1.
         11   -1    0    0    0    0 -0.00000000000E+00 -0.00000000000E+00 -0.45593999997E+02  0.45594000000E+02  0.51100000000E-03 0. -1.
         23    2    1    2    0    0  0.00000000000E+00 -0.66613381478E-15  0.00000000000E+00  0.91188000000E+02  0.91188000000E+02 0.  0.
    9900012    2    3    3    0    0  0.16242061224E+02 -0.19189385430E+01  0.32989408183E+02  0.54366974346E+02  0.39999749616E+02 0.  0.
         12    1    3    3    0    0 -0.16242061224E+02  0.19189385430E+01 -0.32989408183E+02  0.36821025654E+02  0.00000000000E+00 0. -1.
         11    1    4    4    0    0  0.74505789563E+01 -0.11619413460E+02  0.28667926970E+02  0.31817792710E+02  0.51100000000E-03 0. -1.
        -11    1    4    4    0    0  0.83728580978E+01 -0.29754977693E+01  0.42877285272E+01  0.98662533864E+01  0.51100000000E-03 0.  1.
         12    1    4    4    0    0  0.41862417017E+00  0.12675972686E+02  0.33752685997E-01  0.12682928250E+02  0.00000000000E+00 0. -1.
</event>
<event>
 8    1  0.3011071E-007  0.9118800E+02  0.7816164E-02  0.1184000E+00
        -11   -1    0    0    0    0  0.00000000000E+00  0.00000000000E+00  0.45593999997E+02  0.45594000000E+02  0.51100000000E-03 0.  1.
         11   -1    0    0    0    0 -0.00000000000E+00 -0.00000000000E+00 -0.45593999997E+02  0.45594000000E+02  0.51100000000E-03 0. -1.
         23    2    1    2    0    0  0.33306690739E-15  0.00000000000E+00  0.00000000000E+00  0.91188000000E+02  0.91188000000E+02 0.  0.
    9900012    2    3    3    0    0 -0.27656804675E+00  0.15395158845E+02 -0.33446863968E+02  0.54367080470E+02  0.39999991546E+02 0.  0.
        -12    1    3    3    0    0  0.27656804675E+00 -0.15395158845E+02  0.33446863968E+02  0.36820919530E+02  0.00000000000E+00 0.  1.
         11    1    4    4    0    0  0.69312412120E+01  0.15248923882E+02 -0.11813074604E+02  0.20496841615E+02  0.51100000000E-03 0. -1.
        -11    1    4    4    0    0 -0.34648617997E+01 -0.12165092312E+02 -0.14170936770E+02  0.18995004276E+02  0.51100000000E-03 0.  1.
        -12    1    4    4    0    0 -0.37429474590E+01  0.12311327274E+02 -0.74628525944E+01  0.14875234579E+02  0.00000000000E+00 0.  1.
</event>
<event>
 8    1  0.3011071E-007  0.9118800E+02  0.7816164E-02  0.1184000E+00
        -11   -1    0    0    0    0  0.00000000000E+00  0.00000000000E+00  0.45593999997E+02  0.45594000000E+02  0.51100000000E-03 0.  1.
         11   -1    0    0    0    0 -0.00000000000E+00 -0.00000000000E+00 -0.45593999997E+02  0.45594000000E+02  0.51100000000E-03 0. -1.
         23    2    1    2    0    0  0.00000000000E+00  0.88817841970E-15  0.00000000000E+00  0.91188000000E+02  0.91188000000E+02 0.  0.
    9900012    2    3    3    0    0 -0.14536595255E+02  0.57555032629E+01  0.33336747572E+02  0.54367120623E+02  0.40000083084E+02 0.  0.
         12    1    3    3    0    0  0.14536595255E+02 -0.57555032629E+01 -0.33336747572E+02  0.36820879377E+02  0.00000000000E+00 0. -1.
         11    1    4    4    0    0 -0.74424794859E-01 -0.26578273842E+01 -0.35343653565E+01  0.44228185797E+01  0.51100000000E-03 0. -1.
        -11    1    4    4    0    0 -0.75756314725E+01 -0.60556201052E+01 -0.46920836616E-01  0.96986044816E+01  0.51100000000E-03 0.  1.
        -12    1    4    4    0    0 -0.68865389879E+01  0.14468950752E+02  0.36918033765E+02  0.40245697561E+02  0.00000000000E+00 0.  1.
</event>
<event>
 8    1  0.3011071E-007  0.9118800E+02  0.7816164E-02  0.1184000E+00
        -11   -1    0    0    0    0  0.00000000000E+00  0.00000000000E+00  0.45593999997E+02  0.45594000000E+02  0.51100000000E-03 0.  1.
         11   -1    0    0    0    0 -0.00000000000E+00 -0.00000000000E+00 -0.45593999997E+02  0.45594000000E+02  0.51100000000E-03 0. -1.
         23    2    1    2    0    0  0.00000000000E+00  0.00000000000E+00  0.00000000000E+00  0.91188000000E+02  0.91188000000E+02 0.  0.
    9900012    2    3    3    0    0  0.98441227358E+00  0.33563519688E+02  0.15109585728E+02  0.54367102370E+02  0.40000041474E+02 0.  0.
         12    1    3    3    0    0 -0.98441227358E+00 -0.33563519688E+02 -0.15109585728E+02  0.36820897630E+02  0.00000000000E+00 0. -1.
         11    1    4    4    0    0  0.16224209705E+01 -0.63008336499E+01  0.58456123776E+01  0.87466530067E+01  0.51100000000E-03 0. -1.
        -11    1    4    4    0    0  0.77433741396E-01  0.31242663524E+02  0.15577012065E+02  0.34910647734E+02  0.51100000000E-03 0.  1.
        -12    1    4    4    0    0 -0.71544243828E+00  0.86216898144E+01 -0.63130387151E+01  0.10709801630E+02  0.00000000000E+00 0.  1.
</event>
<event>
 8    1  0.3011071E-007  0.9118800E+02  0.7816164E-02  0.1184000E+00
        -11   -1    0    0    0    0  0.00000000000E+00  0.00000000000E+00  0.45593999997E+02  0.45594000000E+02  0.51100000000E-03 0.  1.
         11   -1    0    0    0    0 -0.00000000000E+00 -0.00000000000E+00 -0.45593999997E+02  0.45594000000E+02  0.51100000000E-03 0. -1.
         23    2    1    2    0    0 -0.35527136788E-14 -0.35527136788E-14  0.00000000000E+00  0.91188000000E+02  0.91188000000E+02 0.  0.
    9900012    2    3    3    0    0  0.23908984631E+02  0.24894728685E+02  0.12821581262E+02  0.54367081918E+02  0.39999994848E+02 0.  0.
         12    1    3    3    0    0 -0.23908984631E+02 -0.24894728685E+02 -0.12821581262E+02  0.36820918082E+02  0.00000000000E+00 0. -1.
         11    1    4    4    0    0  0.14656936091E+02  0.10592245028E+02  0.46451178297E+01  0.18670794044E+02  0.51100000000E-03 0.  1.
        -11    1    4    4    0    0  0.10784572123E+02  0.22551938729E+02  0.16245961289E+01  0.25050673627E+02  0.51100000000E-03 0. -1.
        -12    1    4    4    0    0 -0.15325235834E+01 -0.82494550729E+01  0.65518673035E+01  0.10645614247E+02  0.00000000000E+00 0.  1.
</event>
<event>
 8    1  0.3011071E-007  0.9118800E+02  0.7816164E-02  0.1184000E+00
        -11   -1    0    0    0    0  0.00000000000E+00  0.00000000000E+00  0.45593999997E+02  0.45594000000E+02  0.51100000000E-03 0.  1.
         11   -1    0    0    0    0 -0.00000000000E+00 -0.00000000000E+00 -0.45593999997E+02  0.45594000000E+02  0.51100000000E-03 0. -1.
         23    2    1    2    0    0  0.00000000000E+00  0.35527136788E-14 -0.17763568394E-14  0.91188000000E+02  0.91188000000E+02 0.  0.
    9900012    2    3    3    0    0 -0.29767756329E+02 -0.18107780097E+02  0.11906670673E+02  0.54367084430E+02  0.40000000575E+02 0.  0.
        -12    1    3    3    0    0  0.29767756329E+02  0.18107780097E+02 -0.11906670673E+02  0.36820915570E+02  0.00000000000E+00 0.  1.
         11    1    4    4    0    0 -0.36677001551E+02 -0.18266611492E+02  0.42855187047E+01  0.41197538870E+02  0.51100000000E-03 0. -1.
        -11    1    4    4    0    0 -0.96573327143E+00 -0.22737391704E+01  0.21680036909E+01  0.32867568866E+01  0.51100000000E-03 0.  1.
        -12    1    4    4    0    0  0.78749784930E+01  0.24325705652E+01  0.54531482773E+01  0.98827886729E+01  0.00000000000E+00 0.  1.
</event>
<event>
 8    1  0.3011071E-007  0.9118800E+02  0.7816164E-02  0.1184000E+00
        -11   -1    0    0    0    0  0.00000000000E+00  0.00000000000E+00  0.45593999997E+02  0.45594000000E+02  0.51100000000E-03 0.  1.
         11   -1    0    0    0    0 -0.00000000000E+00 -0.00000000000E+00 -0.45593999997E+02  0.45594000000E+02  0.51100000000E-03 0. -1.
         23    2    1    2    0    0  0.88817841970E-15  0.00000000000E+00  0.71054273576E-14  0.91188000000E+02  0.91188000000E+02 0.  0.
    9900012    2    3    3    0    0  0.50613480231E+01 -0.32526031179E+02  0.16499132716E+02  0.54367063993E+02  0.39999953984E+02 0.  0.
         12    1    3    3    0    0 -0.50613480231E+01  0.32526031179E+02 -0.16499132716E+02  0.36820936007E+02  0.00000000000E+00 0. -1.
         11    1    4    4    0    0  0.56716261550E+01 -0.10721439672E+02  0.25128666365E+02  0.27902804257E+02  0.51100000000E-03 0.  1.
        -11    1    4    4    0    0 -0.12837540867E+01 -0.41865310677E+01 -0.76395561669E+01  0.88055599268E+01  0.51100000000E-03 0. -1.
         12    1    4    4    0    0  0.67347595478E+00 -0.17618060440E+02 -0.98997748199E+00  0.17658699809E+02  0.00000000000E+00 0. -1.
</event>
<event>
 8    1  0.3011071E-007  0.9118800E+02  0.7816164E-02  0.1184000E+00
        -11   -1    0    0    0    0  0.00000000000E+00  0.00000000000E+00  0.45593999997E+02  0.45594000000E+02  0.51100000000E-03 0. -1.
         11   -1    0    0    0    0 -0.00000000000E+00 -0.00000000000E+00 -0.45593999997E+02  0.45594000000E+02  0.51100000000E-03 0.  1.
         23    2    1    2    0    0  0.00000000000E+00 -0.44408920985E-15  0.00000000000E+00  0.91188000000E+02  0.91188000000E+02 0.  0.
    9900012    2    3    3    0    0  0.37808580779E+01  0.12099558812E+01 -0.36606272676E+02  0.54367108101E+02  0.40000054537E+02 0.  0.
         12    1    3    3    0    0 -0.37808580779E+01 -0.12099558812E+01  0.36606272676E+02  0.36820891899E+02  0.00000000000E+00 0. -1.
         11    1    4    4    0    0  0.35765494647E+01  0.15133021015E+01  0.31018968166E+00  0.38958962029E+01  0.51100000000E-03 0. -1.
        -11    1    4    4    0    0  0.47279603699E+01 -0.16479664703E+02 -0.14462216460E+02  0.22429638052E+02  0.51100000000E-03 0.  1.
         12    1    4    4    0    0 -0.45236517567E+01  0.16176318483E+02 -0.22454245898E+02  0.28041573845E+02  0.00000000000E+00 0. -1.
</event>
<event>
 8    1  0.3011071E-007  0.9118800E+02  0.7816164E-02  0.1184000E+00
        -11   -1    0    0    0    0  0.00000000000E+00  0.00000000000E+00  0.45593999997E+02  0.45594000000E+02  0.51100000000E-03 0. -1.
         11   -1    0    0    0    0 -0.00000000000E+00 -0.00000000000E+00 -0.45593999997E+02  0.45594000000E+02  0.51100000000E-03 0.  1.
         23    2    1    2    0    0  0.00000000000E+00  0.00000000000E+00  0.17763568394E-14  0.91188000000E+02  0.91188000000E+02 0.  0.
    9900012    2    3    3    0    0 -0.36609486829E+02 -0.18826463983E+01  0.34612620706E+01  0.54367092644E+02  0.40000019302E+02 0.  0.
        -12    1    3    3    0    0  0.36609486829E+02  0.18826463983E+01 -0.34612620706E+01  0.36820907356E+02  0.00000000000E+00 0.  1.
         11    1    4    4    0    0 -0.58568121237E+01 -0.33094918678E+01  0.11708345965E+02  0.13503345888E+02  0.51100000000E-03 0. -1.
        -11    1    4    4    0    0 -0.10131078681E+02 -0.17433155417E+01 -0.15650976875E+02  0.18725143036E+02  0.51100000000E-03 0.  1.
         12    1    4    4    0    0 -0.20621596025E+02  0.31701610112E+01  0.74038929803E+01  0.22138603721E+02  0.00000000000E+00 0. -1.
</event>
<event>
 8    1  0.3011071E-007  0.9118800E+02  0.7816164E-02  0.1184000E+00
        -11   -1    0    0    0    0  0.00000000000E+00  0.00000000000E+00  0.45593999997E+02  0.45594000000E+02  0.51100000000E-03 0.  1.
         11   -1    0    0    0    0 -0.00000000000E+00 -0.00000000000E+00 -0.45593999997E+02  0.45594000000E+02  0.51100000000E-03 0. -1.
         23    2    1    2    0    0  0.00000000000E+00  0.71054273576E-14  0.00000000000E+00  0.91188000000E+02  0.91188000000E+02 0.  0.
    9900012    2    3    3    0    0 -0.11739655726E+02 -0.32908155142E+02  0.11619299521E+02  0.54367159260E+02  0.40000171165E+02 0.  0.
         12    1    3    3    0    0  0.11739655726E+02  0.32908155142E+02 -0.11619299521E+02  0.36820840740E+02  0.00000000000E+00 0. -1.
         11    1    4    4    0    0 -0.54432842051E+01  0.24236264560E+01 -0.35389716797E+01  0.69301968909E+01  0.51100000000E-03 0. -1.
        -11    1    4    4    0    0 -0.14977671972E+02 -0.28639585311E+02  0.16680827479E+02  0.36370407065E+02  0.51100000000E-03 0.  1.
         12    1    4    4    0    0  0.86813004511E+01 -0.66921962873E+01 -0.15225562776E+01  0.11066555304E+02  0.00000000000E+00 0. -1.
</event>
<event>
 8    1  0.3011071E-007  0.9118800E+02  0.7816164E-02  0.1184000E+00
        -11   -1    0    0    0    0  0.00000000000E+00  0.00000000000E+00  0.45593999997E+02  0.45594000000E+02  0.51100000000E-03 0.  1.
         11   -1    0    0    0    0 -0.00000000000E+00 -0.00000000000E+00 -0.45593999997E+02  0.45594000000E+02  0.51100000000E-03 0. -1.
         23    2    1    2    0    0  0.00000000000E+00  0.35527136788E-14  0.00000000000E+00  0.91188000000E+02  0.91188000000E+02 0.  0.
    9900012    2    3    3    0    0  0.16851995494E+02  0.26211183693E+02 -0.19615400197E+02  0.54367084373E+02  0.40000000445E+02 0.  0.
        -12    1    3    3    0    0 -0.16851995494E+02 -0.26211183693E+02  0.19615400197E+02  0.36820915627E+02  0.00000000000E+00 0.  1.
         11    1    4    4    0    0 -0.32141011859E+01 -0.80613692350E+01 -0.43339019780E+01  0.97004549889E+01  0.51100000000E-03 0. -1.
        -11    1    4    4    0    0  0.96557480040E+01  0.27066519413E+02 -0.71304151506E+01  0.29608660273E+02  0.51100000000E-03 0.  1.
         12    1    4    4    0    0  0.10410348676E+02  0.72060335151E+01 -0.81510830685E+01  0.15057969111E+02  0.00000000000E+00 0. -1.
</event>
<event>
 8    1  0.3011071E-007  0.9118800E+02  0.7816164E-02  0.1184000E+00
        -11   -1    0    0    0    0  0.00000000000E+00  0.00000000000E+00  0.45593999997E+02  0.45594000000E+02  0.51100000000E-03 0.  1.
         11   -1    0    0    0    0 -0.00000000000E+00 -0.00000000000E+00 -0.45593999997E+02  0.45594000000E+02  0.51100000000E-03 0. -1.
         23    2    1    2    0    0  0.35527136788E-14  0.00000000000E+00  0.00000000000E+00  0.91188000000E+02  0.91188000000E+02 0.  0.
    9900012    2    3    3    0    0 -0.24693996318E+02 -0.16560801714E+02  0.21719268178E+02  0.54367079075E+02  0.39999988368E+02 0.  0.
         12    1    3    3    0    0  0.24693996318E+02  0.16560801714E+02 -0.21719268178E+02  0.36820920925E+02  0.00000000000E+00 0. -1.
         11    1    4    4    0    0 -0.75103332365E+01  0.52718579555E+01  0.31110876909E+00  0.91811971199E+01  0.51100000000E-03 0. -1.
        -11    1    4    4    0    0  0.31924635605E+01 -0.60994461262E+01 -0.48439497005E+01  0.84177737908E+01  0.51100000000E-03 0.  1.
        -12    1    4    4    0    0 -0.20376126642E+02 -0.15733213543E+02  0.26252109110E+02  0.36768108165E+02  0.00000000000E+00 0.  1.
</event>
<event>
 8    1  0.3011071E-007  0.9118800E+02  0.7816164E-02  0.1184000E+00
        -11   -1    0    0    0    0  0.00000000000E+00  0.00000000000E+00  0.45593999997E+02  0.45594000000E+02  0.51100000000E-03 0.  1.
         11   -1    0    0    0    0 -0.00000000000E+00 -0.00000000000E+00 -0.45593999997E+02  0.45594000000E+02  0.51100000000E-03 0. -1.
         23    2    1    2    0    0  0.00000000000E+00  0.00000000000E+00  0.00000000000E+00  0.91188000000E+02  0.91188000000E+02 0.  0.
    9900012    2    3    3    0    0 -0.18284383659E+02  0.62035775675E+01 -0.31352461678E+02  0.54367083204E+02  0.39999997780E+02 0.  0.
        -12    1    3    3    0    0  0.18284383659E+02 -0.62035775675E+01  0.31352461678E+02  0.36820916796E+02  0.00000000000E+00 0.  1.
         11    1    4    4    0    0 -0.46227292880E+00  0.21644347501E+01  0.50491447451E+01  0.55129245384E+01  0.51100000000E-03 0. -1.
        -11    1    4    4    0    0 -0.32731273046E+01 -0.60133182380E+01  0.15189353070E+01  0.70128826678E+01  0.51100000000E-03 0.  1.
         12    1    4    4    0    0 -0.14548983426E+02  0.10052461055E+02 -0.37920541730E+02  0.41841275998E+02  0.00000000000E+00 0. -1.
</event>
<event>
 8    1  0.3011071E-007  0.9118800E+02  0.7816164E-02  0.1184000E+00
        -11   -1    0    0    0    0  0.00000000000E+00  0.00000000000E+00  0.45593999997E+02  0.45594000000E+02  0.51100000000E-03 0. -1.
         11   -1    0    0    0    0 -0.00000000000E+00 -0.00000000000E+00 -0.45593999997E+02  0.45594000000E+02  0.51100000000E-03 0.  1.
         23    2    1    2    0    0  0.00000000000E+00  0.00000000000E+00 -0.35527136788E-14  0.91188000000E+02  0.91188000000E+02 0.  0.
    9900012    2    3    3    0    0 -0.19140645337E+02 -0.29236570047E+02  0.11603455810E+02  0.54367061408E+02  0.39999948092E+02 0.  0.
        -12    1    3    3    0    0  0.19140645337E+02  0.29236570047E+02 -0.11603455810E+02  0.36820938592E+02  0.00000000000E+00 0.  1.
         11    1    4    4    0    0 -0.84807319214E+01 -0.56732776873E+01  0.16329977775E+02  0.19255572389E+02  0.51100000000E-03 0. -1.
        -11    1    4    4    0    0 -0.54167404160E+00 -0.22564210800E+02  0.23959493008E+01  0.22697523942E+02  0.51100000000E-03 0.  1.
        -12    1    4    4    0    0 -0.10118239374E+02 -0.99908156004E+00 -0.71224712658E+01  0.12413965076E+02  0.00000000000E+00 0.  1.
</event>
<event>
 8    1  0.3011071E-007  0.9118800E+02  0.7816164E-02  0.1184000E+00
        -11   -1    0    0    0    0  0.00000000000E+00  0.00000000000E+00  0.45593999997E+02  0.45594000000E+02  0.51100000000E-03 0. -1.
         11   -1    0    0    0    0 -0.00000000000E+00 -0.00000000000E+00 -0.45593999997E+02  0.45594000000E+02  0.51100000000E-03 0.  1.
         23    2    1    2    0    0  0.00000000000E+00 -0.35527136788E-14 -0.13322676296E-14  0.91188000000E+02  0.91188000000E+02 0.  0.
    9900012    2    3    3    0    0  0.20365079389E+02  0.30658387271E+02  0.10515929119E+01  0.54367095391E+02  0.40000025562E+02 0.  0.
        -12    1    3    3    0    0 -0.20365079389E+02 -0.30658387271E+02 -0.10515929119E+01  0.36820904609E+02  0.00000000000E+00 0.  1.
         11    1    4    4    0    0  0.81472984235E+01  0.45693077910E+01  0.12880359413E+02  0.15911024610E+02  0.51100000000E-03 0. -1.
        -11    1    4    4    0    0  0.75838998013E+01 -0.22102712495E+01 -0.30258479260E+01  0.84591129042E+01  0.51100000000E-03 0.  1.
         12    1    4    4    0    0  0.46338811642E+01  0.28299350730E+02 -0.88029185749E+01  0.29996957876E+02  0.00000000000E+00 0. -1.
</event>
<event>
 8    1  0.3011071E-007  0.9118800E+02  0.7816164E-02  0.1184000E+00
        -11   -1    0    0    0    0  0.00000000000E+00  0.00000000000E+00  0.45593999997E+02  0.45594000000E+02  0.51100000000E-03 0. -1.
         11   -1    0    0    0    0 -0.00000000000E+00 -0.00000000000E+00 -0.45593999997E+02  0.45594000000E+02  0.51100000000E-03 0.  1.
         23    2    1    2    0    0  0.00000000000E+00  0.00000000000E+00  0.00000000000E+00  0.91188000000E+02  0.91188000000E+02 0.  0.
    9900012    2    3    3    0    0  0.35880024925E+02 -0.71669950096E+01  0.41276060325E+01  0.54367093742E+02  0.40000021804E+02 0.  0.
        -12    1    3    3    0    0 -0.35880024925E+02  0.71669950096E+01 -0.41276060325E+01  0.36820906258E+02  0.00000000000E+00 0.  1.
         11    1    4    4    0    0  0.98349869088E+01 -0.13071155903E+01  0.13633606941E+02  0.16861517047E+02  0.51100000000E-03 0. -1.
        -11    1    4    4    0    0 -0.28860770500E+01 -0.63916552191E+01 -0.39236230159E+01  0.80360136268E+01  0.51100000000E-03 0.  1.
        -12    1    4    4    0    0  0.28931115066E+02  0.53177579976E+00 -0.55823778923E+01  0.29469563068E+02  0.00000000000E+00 0.  1.
</event>
<event>
 8    1  0.3011071E-007  0.9118800E+02  0.7816164E-02  0.1184000E+00
        -11   -1    0    0    0    0  0.00000000000E+00  0.00000000000E+00  0.45593999997E+02  0.45594000000E+02  0.51100000000E-03 0.  1.
         11   -1    0    0    0    0 -0.00000000000E+00 -0.00000000000E+00 -0.45593999997E+02  0.45594000000E+02  0.51100000000E-03 0. -1.
         23    2    1    2    0    0  0.33306690739E-15  0.00000000000E+00  0.88817841970E-15  0.91188000000E+02  0.91188000000E+02 0.  0.
    9900012    2    3    3    0    0  0.11934639858E+00  0.36131561982E+02  0.70904574692E+01  0.54367101017E+02  0.40000038387E+02 0.  0.
        -12    1    3    3    0    0 -0.11934639858E+00 -0.36131561982E+02 -0.70904574692E+01  0.36820898983E+02  0.00000000000E+00 0.  1.
         11    1    4    4    0    0  0.43424850615E+01  0.16941566124E+02  0.47636420049E+01  0.18126393040E+02  0.51100000000E-03 0. -1.
        -11    1    4    4    0    0  0.38743273592E+01  0.39757893802E+01 -0.12390383808E+02  0.13577147154E+02  0.51100000000E-03 0.  1.
         12    1    4    4    0    0 -0.80974660220E+01  0.15214206478E+02  0.14717199272E+02  0.22663560822E+02  0.00000000000E+00 0. -1.
</event>
<event>
 8    1  0.3011071E-007  0.9118800E+02  0.7816164E-02  0.1184000E+00
        -11   -1    0    0    0    0  0.00000000000E+00  0.00000000000E+00  0.45593999997E+02  0.45594000000E+02  0.51100000000E-03 0. -1.
         11   -1    0    0    0    0 -0.00000000000E+00 -0.00000000000E+00 -0.45593999997E+02  0.45594000000E+02  0.51100000000E-03 0.  1.
         23    2    1    2    0    0  0.00000000000E+00  0.17763568394E-14  0.00000000000E+00  0.91188000000E+02  0.91188000000E+02 0.  0.
    9900012    2    3    3    0    0  0.32950456773E+02  0.13615049645E+02 -0.92019895581E+01  0.54367098460E+02  0.40000032559E+02 0.  0.
         12    1    3    3    0    0 -0.32950456773E+02 -0.13615049645E+02  0.92019895581E+01  0.36820901540E+02  0.00000000000E+00 0. -1.
         11    1    4    4    0    0 -0.50377072478E+00 -0.18139526760E+01  0.49338140287E+01  0.52807888032E+01  0.51100000000E-03 0. -1.
        -11    1    4    4    0    0 -0.37114015835E-01 -0.37439421685E+01 -0.95081212120E+01  0.10218749907E+02  0.51100000000E-03 0.  1.
        -12    1    4    4    0    0  0.33491341514E+02  0.19172944489E+02 -0.46276823748E+01  0.38867559750E+02  0.00000000000E+00 0.  1.
</event>
<event>
 8    1  0.3011071E-007  0.9118800E+02  0.7816164E-02  0.1184000E+00
        -11   -1    0    0    0    0  0.00000000000E+00  0.00000000000E+00  0.45593999997E+02  0.45594000000E+02  0.51100000000E-03 0. -1.
         11   -1    0    0    0    0 -0.00000000000E+00 -0.00000000000E+00 -0.45593999997E+02  0.45594000000E+02  0.51100000000E-03 0.  1.
         23    2    1    2    0    0  0.00000000000E+00  0.00000000000E+00  0.00000000000E+00  0.91188000000E+02  0.91188000000E+02 0.  0.
    9900012    2    3    3    0    0  0.22138455841E+02 -0.22761923940E+02 -0.18643048062E+02  0.54367086791E+02  0.40000005958E+02 0.  0.
         12    1    3    3    0    0 -0.22138455841E+02  0.22761923940E+02  0.18643048062E+02  0.36820913209E+02  0.00000000000E+00 0. -1.
         11    1    4    4    0    0  0.15787688720E+02 -0.12099443284E+02  0.11360571437E+01  0.19923309690E+02  0.51100000000E-03 0. -1.
        -11    1    4    4    0    0  0.82371122728E+01  0.58948957704E+01 -0.24896213989E+01  0.10430629401E+02  0.51100000000E-03 0.  1.
         12    1    4    4    0    0 -0.18863451517E+01 -0.16557376426E+02 -0.17289483807E+02  0.24013147700E+02  0.00000000000E+00 0. -1.
</event>
<event>
 8    1  0.3011071E-007  0.9118800E+02  0.7816164E-02  0.1184000E+00
        -11   -1    0    0    0    0  0.00000000000E+00  0.00000000000E+00  0.45593999997E+02  0.45594000000E+02  0.51100000000E-03 0.  1.
         11   -1    0    0    0    0 -0.00000000000E+00 -0.00000000000E+00 -0.45593999997E+02  0.45594000000E+02  0.51100000000E-03 0. -1.
         23    2    1    2    0    0  0.17763568394E-14  0.00000000000E+00  0.17763568394E-14  0.91188000000E+02  0.91188000000E+02 0.  0.
    9900012    2    3    3    0    0  0.47068725645E+01  0.35021570900E+02  0.10349696317E+02  0.54367064494E+02  0.39999955128E+02 0.  0.
         12    1    3    3    0    0 -0.47068725645E+01 -0.35021570900E+02 -0.10349696317E+02  0.36820935506E+02  0.00000000000E+00 0. -1.
         11    1    4    4    0    0 -0.45089635955E+01  0.26530999525E+02  0.59088103714E+00  0.26917909078E+02  0.51100000000E-03 0. -1.
        -11    1    4    4    0    0  0.16435520160E+02  0.56222864610E+01  0.41274354978E+01  0.17854191442E+02  0.51100000000E-03 0.  1.
         12    1    4    4    0    0 -0.72196840003E+01  0.28682849145E+01  0.56313797819E+01  0.95949639740E+01  0.00000000000E+00 0. -1.
</event>
<event>
 8    1  0.3011071E-007  0.9118800E+02  0.7816164E-02  0.1184000E+00
        -11   -1    0    0    0    0  0.00000000000E+00  0.00000000000E+00  0.45593999997E+02  0.45594000000E+02  0.51100000000E-03 0.  1.
         11   -1    0    0    0    0 -0.00000000000E+00 -0.00000000000E+00 -0.45593999997E+02  0.45594000000E+02  0.51100000000E-03 0. -1.
         23    2    1    2    0    0  0.35527136788E-14 -0.35527136788E-14  0.35527136788E-14  0.91188000000E+02  0.91188000000E+02 0.  0.
    9900012    2    3    3    0    0 -0.21001223648E+02  0.15196150436E+02 -0.26149678714E+02  0.54367080951E+02  0.39999992643E+02 0.  0.
        -12    1    3    3    0    0  0.21001223648E+02 -0.15196150436E+02  0.26149678714E+02  0.36820919049E+02  0.00000000000E+00 0.  1.
         11    1    4    4    0    0 -0.23385331672E+02  0.69815192185E+00 -0.28538037226E+01  0.23569160984E+02  0.51100000000E-03 0. -1.
        -11    1    4    4    0    0  0.42774979640E+01  0.13833229237E+02 -0.10600876304E+02  0.17945300183E+02  0.51100000000E-03 0.  1.
        -12    1    4    4    0    0 -0.18933899397E+01  0.66476927746E+00 -0.12694998687E+02  0.12852619784E+02  0.00000000000E+00 0.  1.
</event>
<event>
 8    1  0.3011071E-007  0.9118800E+02  0.7816164E-02  0.1184000E+00
        -11   -1    0    0    0    0  0.00000000000E+00  0.00000000000E+00  0.45593999997E+02  0.45594000000E+02  0.51100000000E-03 0.  1.
         11   -1    0    0    0    0 -0.00000000000E+00 -0.00000000000E+00 -0.45593999997E+02  0.45594000000E+02  0.51100000000E-03 0. -1.
         23    2    1    2    0    0  0.88817841970E-15  0.00000000000E+00  0.00000000000E+00  0.91188000000E+02  0.91188000000E+02 0.  0.
    9900012    2    3    3    0    0  0.32776218187E+01  0.25463346624E+02 -0.26394219407E+02  0.54367086864E+02  0.40000006124E+02 0.  0.
         12    1    3    3    0    0 -0.32776218187E+01 -0.25463346624E+02  0.26394219407E+02  0.36820913136E+02  0.00000000000E+00 0. -1.
         11    1    4    4    0    0 -0.52038865963E+01  0.37206731229E+01 -0.76404367181E+01  0.99649444403E+01  0.51100000000E-03 0. -1.
        -11    1    4    4    0    0  0.15839663655E+02  0.24621812327E+02 -0.21182142764E+02  0.36136017480E+02  0.51100000000E-03 0.  1.
        -12    1    4    4    0    0 -0.73581552405E+01 -0.28791388258E+01  0.24283600756E+01  0.82661249433E+01  0.00000000000E+00 0.  1.
</event>
<event>
 8    1  0.3011071E-007  0.9118800E+02  0.7816164E-02  0.1184000E+00
        -11   -1    0    0    0    0  0.00000000000E+00  0.00000000000E+00  0.45593999997E+02  0.45594000000E+02  0.51100000000E-03 0. -1.
         11   -1    0    0    0    0 -0.00000000000E+00 -0.00000000000E+00 -0.45593999997E+02  0.45594000000E+02  0.51100000000E-03 0.  1.
         23    2    1    2    0    0 -0.35527136788E-14  0.83266726847E-16 -0.71054273576E-14  0.91188000000E+02  0.91188000000E+02 0.  0.
    9900012    2    3    3    0    0 -0.28467448065E+02 -0.56903364807E-01 -0.23353414657E+02  0.54367070986E+02  0.39999969926E+02 0.  0.
         12    1    3    3    0    0  0.28467448065E+02  0.56903364807E-01  0.23353414657E+02  0.36820929014E+02  0.00000000000E+00 0. -1.
         11    1    4    4    0    0  0.52297362041E+01  0.96845715630E+00 -0.16726739722E+02  0.17551976299E+02  0.51100000000E-03 0. -1.
        -11    1    4    4    0    0 -0.29654849347E+02  0.38087938724E+01 -0.58568372914E+01  0.30466695651E+02  0.51100000000E-03 0.  1.
        -12    1    4    4    0    0 -0.40423349215E+01 -0.48341543935E+01 -0.76983764425E+00  0.63483990357E+01  0.00000000000E+00 0.  1.
</event>
<event>
 8    1  0.3011071E-007  0.9118800E+02  0.7816164E-02  0.1184000E+00
        -11   -1    0    0    0    0  0.00000000000E+00  0.00000000000E+00  0.45593999997E+02  0.45594000000E+02  0.51100000000E-03 0.  1.
         11   -1    0    0    0    0 -0.00000000000E+00 -0.00000000000E+00 -0.45593999997E+02  0.45594000000E+02  0.51100000000E-03 0. -1.
         23    2    1    2    0    0 -0.17763568394E-14  0.00000000000E+00 -0.44408920985E-15  0.91188000000E+02  0.91188000000E+02 0.  0.
    9900012    2    3    3    0    0  0.10670179139E+02  0.35107020337E+02  0.30698021251E+01  0.54367091743E+02  0.40000017246E+02 0.  0.
        -12    1    3    3    0    0 -0.10670179139E+02 -0.35107020337E+02 -0.30698021251E+01  0.36820908257E+02  0.00000000000E+00 0.  1.
         11    1    4    4    0    0 -0.68813905261E+01 -0.17757736080E+01 -0.68133827099E+01  0.98452573198E+01  0.51100000000E-03 0.  1.
        -11    1    4    4    0    0  0.11849080628E+02  0.15968201046E+02 -0.16755217230E+01  0.19954737024E+02  0.51100000000E-03 0. -1.
        -12    1    4    4    0    0  0.57024890364E+01  0.20914592898E+02  0.11558706558E+02  0.24567097399E+02  0.00000000000E+00 0.  1.
</event>
<event>
 8    1  0.3011071E-007  0.9118800E+02  0.7816164E-02  0.1184000E+00
        -11   -1    0    0    0    0  0.00000000000E+00  0.00000000000E+00  0.45593999997E+02  0.45594000000E+02  0.51100000000E-03 0. -1.
         11   -1    0    0    0    0 -0.00000000000E+00 -0.00000000000E+00 -0.45593999997E+02  0.45594000000E+02  0.51100000000E-03 0.  1.
         23    2    1    2    0    0  0.00000000000E+00  0.00000000000E+00  0.35527136788E-14  0.91188000000E+02  0.91188000000E+02 0.  0.
    9900012    2    3    3    0    0  0.20348064870E+02  0.20338456811E+02  0.22980062772E+02  0.54367084009E+02  0.39999999615E+02 0.  0.
        -12    1    3    3    0    0 -0.20348064870E+02 -0.20338456811E+02 -0.22980062772E+02  0.36820915991E+02  0.00000000000E+00 0.  1.
         11    1    4    4    0    0 -0.72707022437E-01 -0.16216011211E+01 -0.30080966622E+01  0.34181167765E+01  0.51100000000E-03 0.  1.
        -11    1    4    4    0    0  0.28916507435E+02  0.18825466486E+02  0.18228716451E+02  0.39023694013E+02  0.51100000000E-03 0. -1.
         12    1    4    4    0    0 -0.84957355430E+01  0.31345914468E+01  0.77594429833E+01  0.11925273220E+02  0.00000000000E+00 0. -1.
</event>
<event>
 8    1  0.3011071E-007  0.9118800E+02  0.7816164E-02  0.1184000E+00
        -11   -1    0    0    0    0  0.00000000000E+00  0.00000000000E+00  0.45593999997E+02  0.45594000000E+02  0.51100000000E-03 0. -1.
         11   -1    0    0    0    0 -0.00000000000E+00 -0.00000000000E+00 -0.45593999997E+02  0.45594000000E+02  0.51100000000E-03 0.  1.
         23    2    1    2    0    0  0.17763568394E-14  0.00000000000E+00  0.00000000000E+00  0.91188000000E+02  0.91188000000E+02 0.  0.
    9900012    2    3    3    0    0  0.11339231124E+02 -0.30680173427E+02  0.16909477902E+02  0.54367059668E+02  0.39999944125E+02 0.  0.
         12    1    3    3    0    0 -0.11339231124E+02  0.30680173427E+02 -0.16909477902E+02  0.36820940332E+02  0.00000000000E+00 0. -1.
         11    1    4    4    0    0  0.34391008774E+01 -0.12617530723E+02  0.16424112511E+02  0.20994784315E+02  0.51100000000E-03 0. -1.
        -11    1    4    4    0    0  0.14260972946E+02 -0.40142091929E+00 -0.21104806651E+01  0.14421879802E+02  0.51100000000E-03 0.  1.
         12    1    4    4    0    0 -0.63608426990E+01 -0.17661221785E+02  0.25958460558E+01  0.18950395551E+02  0.00000000000E+00 0. -1.
</event>
<event>
 8    1  0.3011071E-007  0.9118800E+02  0.7816164E-02  0.1184000E+00
        -11   -1    0    0    0    0  0.00000000000E+00  0.00000000000E+00  0.45593999997E+02  0.45594000000E+02  0.51100000000E-03 0. -1.
         11   -1    0    0    0    0 -0.00000000000E+00 -0.00000000000E+00 -0.45593999997E+02  0.45594000000E+02  0.51100000000E-03 0.  1.
         23    2    1    2    0    0 -0.35527136788E-14  0.44408920985E-15  0.00000000000E+00  0.91188000000E+02  0.91188000000E+02 0.  0.
    9900012    2    3    3    0    0 -0.24754035276E+02  0.24193625487E+01 -0.27150760051E+02  0.54367090873E+02  0.40000015264E+02 0.  0.
        -12    1    3    3    0    0  0.24754035276E+02 -0.24193625487E+01  0.27150760051E+02  0.36820909127E+02  0.00000000000E+00 0.  1.
         11    1    4    4    0    0 -0.56988742560E+01 -0.11835937660E+02 -0.15030797176E+02  0.19962250676E+02  0.51100000000E-03 0. -1.
        -11    1    4    4    0    0 -0.14274038106E+02 -0.26126722489E+01 -0.38117914724E+01  0.15003465421E+02  0.51100000000E-03 0.  1.
         12    1    4    4    0    0 -0.47811229133E+01  0.16867972457E+02 -0.83081714029E+01  0.19401374776E+02  0.00000000000E+00 0. -1.
</event>
<event>
 8    1  0.3011071E-007  0.9118800E+02  0.7816164E-02  0.1184000E+00
        -11   -1    0    0    0    0  0.00000000000E+00  0.00000000000E+00  0.45593999997E+02  0.45594000000E+02  0.51100000000E-03 0. -1.
         11   -1    0    0    0    0 -0.00000000000E+00 -0.00000000000E+00 -0.45593999997E+02  0.45594000000E+02  0.51100000000E-03 0.  1.
         23    2    1    2    0    0  0.49960036108E-15  0.00000000000E+00  0.00000000000E+00  0.91188000000E+02  0.91188000000E+02 0.  0.
    9900012    2    3    3    0    0 -0.41514850818E+00  0.22295959930E+02  0.29300136311E+02  0.54367079787E+02  0.39999989990E+02 0.  0.
        -12    1    3    3    0    0  0.41514850818E+00 -0.22295959930E+02 -0.29300136311E+02  0.36820920213E+02  0.00000000000E+00 0.  1.
         11    1    4    4    0    0 -0.11850799026E+02  0.18041996808E+02  0.45166877628E+01  0.22053470361E+02  0.51100000000E-03 0. -1.
        -11    1    4    4    0    0  0.13095322151E+01 -0.50169113436E+01  0.13767099657E+02  0.14711128688E+02  0.51100000000E-03 0.  1.
         12    1    4    4    0    0  0.10126118302E+02  0.92708744652E+01  0.11016348892E+02  0.17602480738E+02  0.00000000000E+00 0. -1.
</event>
<event>
 8    1  0.3011071E-007  0.9118800E+02  0.7816164E-02  0.1184000E+00
        -11   -1    0    0    0    0  0.00000000000E+00  0.00000000000E+00  0.45593999997E+02  0.45594000000E+02  0.51100000000E-03 0. -1.
         11   -1    0    0    0    0 -0.00000000000E+00 -0.00000000000E+00 -0.45593999997E+02  0.45594000000E+02  0.51100000000E-03 0.  1.
         23    2    1    2    0    0  0.00000000000E+00 -0.26645352591E-14  0.00000000000E+00  0.91188000000E+02  0.91188000000E+02 0.  0.
    9900012    2    3    3    0    0  0.30232256743E+02 -0.59201598522E+01  0.20167852430E+02  0.54367083226E+02  0.39999997830E+02 0.  0.
        -12    1    3    3    0    0 -0.30232256743E+02  0.59201598522E+01 -0.20167852430E+02  0.36820916774E+02  0.00000000000E+00 0.  1.
         11    1    4    4    0    0  0.70325722551E+01  0.37895729676E+01 -0.38139671608E+01  0.88523602256E+01  0.51100000000E-03 0. -1.
        -11    1    4    4    0    0  0.58401442670E+01  0.10052694797E+02  0.33929199080E+01  0.12110981112E+02  0.51100000000E-03 0.  1.
         12    1    4    4    0    0  0.17359540221E+02 -0.19762427617E+02  0.20588899683E+02  0.33403741888E+02  0.00000000000E+00 0. -1.
</event>
<event>
 8    1  0.3011071E-007  0.9118800E+02  0.7816164E-02  0.1184000E+00
        -11   -1    0    0    0    0  0.00000000000E+00  0.00000000000E+00  0.45593999997E+02  0.45594000000E+02  0.51100000000E-03 0.  1.
         11   -1    0    0    0    0 -0.00000000000E+00 -0.00000000000E+00 -0.45593999997E+02  0.45594000000E+02  0.51100000000E-03 0. -1.
         23    2    1    2    0    0  0.00000000000E+00  0.00000000000E+00  0.00000000000E+00  0.91188000000E+02  0.91188000000E+02 0.  0.
    9900012    2    3    3    0    0  0.28920143592E+02 -0.22016183587E+02 -0.58899413141E+01  0.54367103028E+02  0.40000042974E+02 0.  0.
        -12    1    3    3    0    0 -0.28920143592E+02  0.22016183587E+02  0.58899413141E+01  0.36820896972E+02  0.00000000000E+00 0.  1.
         11    1    4    4    0    0  0.50833778040E+01  0.30563510216E+01 -0.24879488898E+01  0.64320992999E+01  0.51100000000E-03 0. -1.
        -11    1    4    4    0    0 -0.38103416392E+00 -0.23400360903E+02 -0.34709165359E+01  0.23659445034E+02  0.51100000000E-03 0.  1.
         12    1    4    4    0    0  0.24217799952E+02 -0.16721737054E+01  0.68924111582E-01  0.24275558695E+02  0.00000000000E+00 0. -1.
</event>
<event>
 8    1  0.3011071E-007  0.9118800E+02  0.7816164E-02  0.1184000E+00
        -11   -1    0    0    0    0  0.00000000000E+00  0.00000000000E+00  0.45593999997E+02  0.45594000000E+02  0.51100000000E-03 0.  1.
         11   -1    0    0    0    0 -0.00000000000E+00 -0.00000000000E+00 -0.45593999997E+02  0.45594000000E+02  0.51100000000E-03 0. -1.
         23    2    1    2    0    0  0.00000000000E+00  0.00000000000E+00 -0.17763568394E-14  0.91188000000E+02  0.91188000000E+02 0.  0.
    9900012    2    3    3    0    0 -0.79555843495E+01  0.35351197060E+02 -0.65407678580E+01  0.54367080673E+02  0.39999992011E+02 0.  0.
        -12    1    3    3    0    0  0.79555843495E+01 -0.35351197060E+02  0.65407678580E+01  0.36820919327E+02  0.00000000000E+00 0.  1.
         11    1    4    4    0    0 -0.21114283456E+01 -0.50352031142E+01 -0.18595617801E+01  0.57679606738E+01  0.51100000000E-03 0. -1.
        -11    1    4    4    0    0 -0.90768030540E+00  0.15998669715E+02  0.10772156870E+02  0.19308564941E+02  0.51100000000E-03 0.  1.
        -12    1    4    4    0    0 -0.49364756985E+01  0.24387730459E+02 -0.15453362948E+02  0.29290555059E+02  0.00000000000E+00 0.  1.
</event>
<event>
 8    1  0.3011071E-007  0.9118800E+02  0.7816164E-02  0.1184000E+00
        -11   -1    0    0    0    0  0.00000000000E+00  0.00000000000E+00  0.45593999997E+02  0.45594000000E+02  0.51100000000E-03 0.  1.
         11   -1    0    0    0    0 -0.00000000000E+00 -0.00000000000E+00 -0.45593999997E+02  0.45594000000E+02  0.51100000000E-03 0. -1.
         23    2    1    2    0    0  0.00000000000E+00  0.00000000000E+00  0.00000000000E+00  0.91188000000E+02  0.91188000000E+02 0.  0.
    9900012    2    3    3    0    0  0.34202805485E+01  0.11519801409E+02  0.34804810691E+02  0.54367095737E+02  0.40000026351E+02 0.  0.
         12    1    3    3    0    0 -0.34202805485E+01 -0.11519801409E+02 -0.34804810691E+02  0.36820904263E+02  0.00000000000E+00 0. -1.
         11    1    4    4    0    0  0.18861235237E+01 -0.14356044665E+01  0.64877793217E+01  0.69072210707E+01  0.51100000000E-03 0. -1.
        -11    1    4    4    0    0  0.17147764398E+01 -0.11744292532E+02  0.33347993629E+01  0.12328412403E+02  0.51100000000E-03 0.  1.
         12    1    4    4    0    0 -0.18061941498E+00  0.24699698407E+02  0.24982232006E+02  0.35131462264E+02  0.00000000000E+00 0. -1.
</event>
<event>
 8    1  0.3011071E-007  0.9118800E+02  0.7816164E-02  0.1184000E+00
        -11   -1    0    0    0    0  0.00000000000E+00  0.00000000000E+00  0.45593999997E+02  0.45594000000E+02  0.51100000000E-03 0. -1.
         11   -1    0    0    0    0 -0.00000000000E+00 -0.00000000000E+00 -0.45593999997E+02  0.45594000000E+02  0.51100000000E-03 0.  1.
         23    2    1    2    0    0 -0.17763568394E-14  0.00000000000E+00  0.17763568394E-14  0.91188000000E+02  0.91188000000E+02 0.  0.
    9900012    2    3    3    0    0  0.56947019363E+01  0.33537908959E+02 -0.14091077166E+02  0.54367089864E+02  0.40000012964E+02 0.  0.
         12    1    3    3    0    0 -0.56947019363E+01 -0.33537908959E+02  0.14091077166E+02  0.36820910136E+02  0.00000000000E+00 0. -1.
         11    1    4    4    0    0 -0.35567712520E+01  0.23282515437E+01  0.17171869853E+01  0.45847691756E+01  0.51100000000E-03 0. -1.
        -11    1    4    4    0    0 -0.82677980094E+01  0.87464175229E+01 -0.17506388758E+02  0.21244527555E+02  0.51100000000E-03 0.  1.
         12    1    4    4    0    0  0.17519271198E+02  0.22463239893E+02  0.16981246070E+01  0.28537793134E+02  0.00000000000E+00 0. -1.
</event>
<event>
 8    1  0.3011071E-007  0.9118800E+02  0.7816164E-02  0.1184000E+00
        -11   -1    0    0    0    0  0.00000000000E+00  0.00000000000E+00  0.45593999997E+02  0.45594000000E+02  0.51100000000E-03 0.  1.
         11   -1    0    0    0    0 -0.00000000000E+00 -0.00000000000E+00 -0.45593999997E+02  0.45594000000E+02  0.51100000000E-03 0. -1.
         23    2    1    2    0    0  0.35527136788E-14  0.00000000000E+00  0.53290705182E-14  0.91188000000E+02  0.91188000000E+02 0.  0.
    9900012    2    3    3    0    0 -0.92279243868E+01 -0.32088746339E+02 -0.15521817550E+02  0.54367230723E+02  0.40000334077E+02 0.  0.
        -12    1    3    3    0    0  0.92279243868E+01  0.32088746339E+02  0.15521817550E+02  0.36820769277E+02  0.00000000000E+00 0.  1.
         11    1    4    4    0    0 -0.15753483574E+02 -0.22712538960E+02 -0.13230766395E+02  0.30644491354E+02  0.51100000000E-03 0. -1.
        -11    1    4    4    0    0 -0.15792435280E+01 -0.36431535874E+01 -0.10254168283E+02  0.10996115024E+02  0.51100000000E-03 0.  1.
        -12    1    4    4    0    0  0.81048027149E+01 -0.57330537922E+01  0.79631171276E+01  0.12726624345E+02  0.00000000000E+00 0.  1.
</event>
<event>
 8    1  0.3011071E-007  0.9118800E+02  0.7816164E-02  0.1184000E+00
        -11   -1    0    0    0    0  0.00000000000E+00  0.00000000000E+00  0.45593999997E+02  0.45594000000E+02  0.51100000000E-03 0.  1.
         11   -1    0    0    0    0 -0.00000000000E+00 -0.00000000000E+00 -0.45593999997E+02  0.45594000000E+02  0.51100000000E-03 0. -1.
         23    2    1    2    0    0  0.00000000000E+00  0.17763568394E-14  0.00000000000E+00  0.91188000000E+02  0.91188000000E+02 0.  0.
    9900012    2    3    3    0    0  0.27742567327E+02 -0.14327490912E+02 -0.19515455873E+02  0.54367081276E+02  0.39999993385E+02 0.  0.
        -12    1    3    3    0    0 -0.27742567327E+02  0.14327490912E+02  0.19515455873E+02  0.36820918724E+02  0.00000000000E+00 0.  1.
         11    1    4    4    0    0 -0.46214636047E+01 -0.10580492174E+02  0.92176077390E+00  0.11582503343E+02  0.51100000000E-03 0. -1.
        -11    1    4    4    0    0  0.20034743523E+02 -0.60314393215E+01 -0.21746261627E+02  0.30177294500E+02  0.51100000000E-03 0.  1.
        -12    1    4    4    0    0  0.12329287409E+02  0.22844405843E+01  0.13090449803E+01  0.12607283433E+02  0.00000000000E+00 0.  1.
</event>
<event>
 8    1  0.3011071E-007  0.9118800E+02  0.7816164E-02  0.1184000E+00
        -11   -1    0    0    0    0  0.00000000000E+00  0.00000000000E+00  0.45593999997E+02  0.45594000000E+02  0.51100000000E-03 0.  1.
         11   -1    0    0    0    0 -0.00000000000E+00 -0.00000000000E+00 -0.45593999997E+02  0.45594000000E+02  0.51100000000E-03 0. -1.
         23    2    1    2    0    0 -0.17763568394E-14 -0.17763568394E-14  0.00000000000E+00  0.91188000000E+02  0.91188000000E+02 0.  0.
    9900012    2    3    3    0    0 -0.86413956181E+01 -0.86771877968E+01  0.34724810251E+02  0.54367085382E+02  0.40000002746E+02 0.  0.
         12    1    3    3    0    0  0.86413956181E+01  0.86771877968E+01 -0.34724810251E+02  0.36820914618E+02  0.00000000000E+00 0. -1.
         11    1    4    4    0    0 -0.13294320145E+00 -0.11577730163E+02 -0.63378472714E+00  0.11595826532E+02  0.51100000000E-03 0. -1.
        -11    1    4    4    0    0  0.22418705855E+01  0.33711598937E+01  0.30833065558E+02  0.31097727164E+02  0.51100000000E-03 0.  1.
         12    1    4    4    0    0 -0.10750323002E+02 -0.47061752769E+00  0.45255294203E+01  0.11673531687E+02  0.00000000000E+00 0. -1.
</event>
<event>
 8    1  0.3011071E-007  0.9118800E+02  0.7816164E-02  0.1184000E+00
        -11   -1    0    0    0    0  0.00000000000E+00  0.00000000000E+00  0.45593999997E+02  0.45594000000E+02  0.51100000000E-03 0.  1.
         11   -1    0    0    0    0 -0.00000000000E+00 -0.00000000000E+00 -0.45593999997E+02  0.45594000000E+02  0.51100000000E-03 0. -1.
         23    2    1    2    0    0  0.35527136788E-14  0.35527136788E-14 -0.17763568394E-14  0.91188000000E+02  0.91188000000E+02 0.  0.
    9900012    2    3    3    0    0  0.21225619620E+02  0.28016463178E+02 -0.10969553565E+02  0.54367078737E+02  0.39999987596E+02 0.  0.
        -12    1    3    3    0    0 -0.21225619620E+02 -0.28016463178E+02  0.10969553565E+02  0.36820921263E+02  0.00000000000E+00 0.  1.
         11    1    4    4    0    0  0.17825400312E+00  0.34825255155E+01 -0.13970656831E+02  0.14399271197E+02  0.51100000000E-03 0. -1.
        -11    1    4    4    0    0  0.12980607207E+02 -0.82815902574E+00 -0.10407699908E+01  0.13048571312E+02  0.51100000000E-03 0.  1.
        -12    1    4    4    0    0  0.80667584096E+01  0.25362096689E+02  0.40418732568E+01  0.26919236228E+02  0.00000000000E+00 0.  1.
</event>
<event>
 8    1  0.3011071E-007  0.9118800E+02  0.7816164E-02  0.1184000E+00
        -11   -1    0    0    0    0  0.00000000000E+00  0.00000000000E+00  0.45593999997E+02  0.45594000000E+02  0.51100000000E-03 0.  1.
         11   -1    0    0    0    0 -0.00000000000E+00 -0.00000000000E+00 -0.45593999997E+02  0.45594000000E+02  0.51100000000E-03 0. -1.
         23    2    1    2    0    0  0.35527136788E-14  0.00000000000E+00  0.35527136788E-14  0.91188000000E+02  0.91188000000E+02 0.  0.
    9900012    2    3    3    0    0  0.12344886568E+02 -0.27397395975E+02 -0.21278267583E+02  0.54367106449E+02  0.40000050771E+02 0.  0.
        -12    1    3    3    0    0 -0.12344886568E+02  0.27397395975E+02  0.21278267583E+02  0.36820893551E+02  0.00000000000E+00 0.  1.
         11    1    4    4    0    0  0.10618078475E+02 -0.29845802037E+02 -0.30722496113E+02  0.44129210931E+02  0.51100000000E-03 0. -1.
        -11    1    4    4    0    0  0.14015483636E+01  0.18935330742E+01  0.32698199434E+01  0.40300779201E+01  0.51100000000E-03 0.  1.
         12    1    4    4    0    0  0.32525972934E+00  0.55487298824E+00  0.61744085869E+01  0.62078175974E+01  0.00000000000E+00 0. -1.
</event>
<event>
 8    1  0.3011071E-007  0.9118800E+02  0.7816164E-02  0.1184000E+00
        -11   -1    0    0    0    0  0.00000000000E+00  0.00000000000E+00  0.45593999997E+02  0.45594000000E+02  0.51100000000E-03 0.  1.
         11   -1    0    0    0    0 -0.00000000000E+00 -0.00000000000E+00 -0.45593999997E+02  0.45594000000E+02  0.51100000000E-03 0. -1.
         23    2    1    2    0    0  0.00000000000E+00  0.00000000000E+00  0.13322676296E-14  0.91188000000E+02  0.91188000000E+02 0.  0.
    9900012    2    3    3    0    0 -0.28185034266E+02  0.23423694870E+02 -0.35655746493E+01  0.54367096147E+02  0.40000027286E+02 0.  0.
         12    1    3    3    0    0  0.28185034266E+02 -0.23423694870E+02  0.35655746493E+01  0.36820903853E+02  0.00000000000E+00 0. -1.
         11    1    4    4    0    0 -0.10909742834E+02  0.14059820792E+02 -0.61389814669E+01  0.18825199683E+02  0.51100000000E-03 0. -1.
        -11    1    4    4    0    0 -0.30801718155E+01  0.14675480416E+02 -0.80631950653E+01  0.17025636516E+02  0.51100000000E-03 0.  1.
         12    1    4    4    0    0 -0.14195119617E+02 -0.53116063379E+01  0.10636601883E+02  0.18516259947E+02  0.00000000000E+00 0. -1.
</event>
<event>
 8    1  0.3011071E-007  0.9118800E+02  0.7816164E-02  0.1184000E+00
        -11   -1    0    0    0    0  0.00000000000E+00  0.00000000000E+00  0.45593999997E+02  0.45594000000E+02  0.51100000000E-03 0.  1.
         11   -1    0    0    0    0 -0.00000000000E+00 -0.00000000000E+00 -0.45593999997E+02  0.45594000000E+02  0.51100000000E-03 0. -1.
         23    2    1    2    0    0 -0.17763568394E-14  0.00000000000E+00 -0.35527136788E-14  0.91188000000E+02  0.91188000000E+02 0.  0.
    9900012    2    3    3    0    0 -0.79451868262E+01 -0.24600065768E+02  0.26220029347E+02  0.54367093324E+02  0.40000020850E+02 0.  0.
         12    1    3    3    0    0  0.79451868262E+01  0.24600065768E+02 -0.26220029347E+02  0.36820906676E+02  0.00000000000E+00 0. -1.
         11    1    4    4    0    0 -0.17594609824E+02 -0.46325896564E+01  0.10327427882E+02  0.20920969114E+02  0.51100000000E-03 0.  1.
        -11    1    4    4    0    0  0.19890080036E+01 -0.11851659906E+01 -0.42626187669E+01  0.48508442850E+01  0.51100000000E-03 0. -1.
        -12    1    4    4    0    0  0.76604149938E+01 -0.18782310121E+02  0.20155220232E+02  0.28595279925E+02  0.00000000000E+00 0.  1.
</event>
<event>
 8    1  0.3011071E-007  0.9118800E+02  0.7816164E-02  0.1184000E+00
        -11   -1    0    0    0    0  0.00000000000E+00  0.00000000000E+00  0.45593999997E+02  0.45594000000E+02  0.51100000000E-03 0.  1.
         11   -1    0    0    0    0 -0.00000000000E+00 -0.00000000000E+00 -0.45593999997E+02  0.45594000000E+02  0.51100000000E-03 0. -1.
         23    2    1    2    0    0  0.88817841970E-15  0.00000000000E+00  0.00000000000E+00  0.91188000000E+02  0.91188000000E+02 0.  0.
    9900012    2    3    3    0    0  0.55626841242E+01 -0.30300868843E+02  0.20166642598E+02  0.54367087722E+02  0.40000008081E+02 0.  0.
         12    1    3    3    0    0 -0.55626841242E+01  0.30300868843E+02 -0.20166642598E+02  0.36820912278E+02  0.00000000000E+00 0. -1.
         11    1    4    4    0    0  0.91156695632E+01 -0.16008828044E+02  0.17887481455E+02  0.25677616712E+02  0.51100000000E-03 0. -1.
        -11    1    4    4    0    0 -0.46855530364E+01 -0.19801064168E+02  0.68205952390E+01  0.21460593401E+02  0.51100000000E-03 0.  1.
         12    1    4    4    0    0  0.11325675973E+01  0.55090233690E+01 -0.45414340965E+01  0.72288776097E+01  0.00000000000E+00 0. -1.
</event>
<event>
 8    1  0.3011071E-007  0.9118800E+02  0.7816164E-02  0.1184000E+00
        -11   -1    0    0    0    0  0.00000000000E+00  0.00000000000E+00  0.45593999997E+02  0.45594000000E+02  0.51100000000E-03 0.  1.
         11   -1    0    0    0    0 -0.00000000000E+00 -0.00000000000E+00 -0.45593999997E+02  0.45594000000E+02  0.51100000000E-03 0. -1.
         23    2    1    2    0    0  0.35527136788E-14  0.00000000000E+00  0.00000000000E+00  0.91188000000E+02  0.91188000000E+02 0.  0.
    9900012    2    3    3    0    0  0.16977339305E+02 -0.31897203444E+02 -0.70791090065E+01  0.54367144201E+02  0.40000136835E+02 0.  0.
        -12    1    3    3    0    0 -0.16977339305E+02  0.31897203444E+02  0.70791090065E+01  0.36820855799E+02  0.00000000000E+00 0.  1.
         11    1    4    4    0    0  0.15516658379E+02 -0.12884829225E+02 -0.61598763480E+01  0.21088612763E+02  0.51100000000E-03 0. -1.
        -11    1    4    4    0    0 -0.11940310662E+02 -0.11360488273E+02  0.42210808043E+01  0.17013207691E+02  0.51100000000E-03 0.  1.
        -12    1    4    4    0    0  0.13400991588E+02 -0.76518859463E+01 -0.51403134628E+01  0.16265323747E+02  0.00000000000E+00 0.  1.
</event>
<event>
 8    1  0.3011071E-007  0.9118800E+02  0.7816164E-02  0.1184000E+00
        -11   -1    0    0    0    0  0.00000000000E+00  0.00000000000E+00  0.45593999997E+02  0.45594000000E+02  0.51100000000E-03 0.  1.
         11   -1    0    0    0    0 -0.00000000000E+00 -0.00000000000E+00 -0.45593999997E+02  0.45594000000E+02  0.51100000000E-03 0. -1.
         23    2    1    2    0    0  0.00000000000E+00  0.44408920985E-15  0.00000000000E+00  0.91188000000E+02  0.91188000000E+02 0.  0.
    9900012    2    3    3    0    0 -0.17819301168E+02 -0.36705951095E+01  0.32012177073E+02  0.54367078725E+02  0.39999987569E+02 0.  0.
         12    1    3    3    0    0  0.17819301168E+02  0.36705951095E+01 -0.32012177073E+02  0.36820921275E+02  0.00000000000E+00 0. -1.
         11    1    4    4    0    0 -0.94323427412E+00 -0.99910492145E+01  0.33105471413E+02  0.34593106149E+02  0.51100000000E-03 0. -1.
        -11    1    4    4    0    0 -0.10473442685E+02  0.58593965347E+01 -0.41045524634E+01  0.12683567346E+02  0.51100000000E-03 0.  1.
         12    1    4    4    0    0 -0.64026242090E+01  0.46105757037E+00  0.30112581240E+01  0.70904052306E+01  0.00000000000E+00 0. -1.
</event>
<event>
 8    1  0.3011071E-007  0.9118800E+02  0.7816164E-02  0.1184000E+00
        -11   -1    0    0    0    0  0.00000000000E+00  0.00000000000E+00  0.45593999997E+02  0.45594000000E+02  0.51100000000E-03 0. -1.
         11   -1    0    0    0    0 -0.00000000000E+00 -0.00000000000E+00 -0.45593999997E+02  0.45594000000E+02  0.51100000000E-03 0.  1.
         23    2    1    2    0    0  0.17763568394E-14 -0.44408920985E-15  0.00000000000E+00  0.91188000000E+02  0.91188000000E+02 0.  0.
    9900012    2    3    3    0    0 -0.11035842447E+02 -0.31001442448E+01 -0.34991122700E+02  0.54367090442E+02  0.40000014281E+02 0.  0.
         12    1    3    3    0    0  0.11035842447E+02  0.31001442448E+01  0.34991122700E+02  0.36820909558E+02  0.00000000000E+00 0. -1.
         11    1    4    4    0    0 -0.97536547655E+01 -0.64838646632E+01 -0.15938815571E+02  0.19779285233E+02  0.51100000000E-03 0. -1.
        -11    1    4    4    0    0 -0.10061385882E+02 -0.22678039179E+01 -0.21515839102E+02  0.23860128939E+02  0.51100000000E-03 0.  1.
        -12    1    4    4    0    0  0.87791982003E+01  0.56515243364E+01  0.24635319730E+01  0.10727676270E+02  0.00000000000E+00 0.  1.
</event>
<event>
 8    1  0.3011071E-007  0.9118800E+02  0.7816164E-02  0.1184000E+00
        -11   -1    0    0    0    0  0.00000000000E+00  0.00000000000E+00  0.45593999997E+02  0.45594000000E+02  0.51100000000E-03 0. -1.
         11   -1    0    0    0    0 -0.00000000000E+00 -0.00000000000E+00 -0.45593999997E+02  0.45594000000E+02  0.51100000000E-03 0.  1.
         23    2    1    2    0    0 -0.35527136788E-14  0.55511151231E-16  0.00000000000E+00  0.91188000000E+02  0.91188000000E+02 0.  0.
    9900012    2    3    3    0    0  0.26081111099E+02 -0.36061734315E+00 -0.25988777993E+02  0.54367204482E+02  0.40000274256E+02 0.  0.
         12    1    3    3    0    0 -0.26081111099E+02  0.36061734315E+00  0.25988777993E+02  0.36820795518E+02  0.00000000000E+00 0. -1.
         11    1    4    4    0    0 -0.80099700736E+01 -0.18786061499E+01  0.22630642669E+01  0.85328917597E+01  0.51100000000E-03 0. -1.
        -11    1    4    4    0    0  0.42076293888E-01  0.29851409659E+00 -0.40053572698E+01  0.40166862213E+01  0.51100000000E-03 0.  1.
        -12    1    4    4    0    0  0.34049004878E+02  0.12194747102E+01 -0.24246484991E+02  0.41817626501E+02  0.00000000000E+00 0.  1.
</event>
<event>
 8    1  0.3011071E-007  0.9118800E+02  0.7816164E-02  0.1184000E+00
        -11   -1    0    0    0    0  0.00000000000E+00  0.00000000000E+00  0.45593999997E+02  0.45594000000E+02  0.51100000000E-03 0.  1.
         11   -1    0    0    0    0 -0.00000000000E+00 -0.00000000000E+00 -0.45593999997E+02  0.45594000000E+02  0.51100000000E-03 0. -1.
         23    2    1    2    0    0  0.26645352591E-14  0.17763568394E-14  0.00000000000E+00  0.91188000000E+02  0.91188000000E+02 0.  0.
    9900012    2    3    3    0    0 -0.73329045116E+01 -0.10352215099E+02  0.34566434726E+02  0.54367105718E+02  0.40000049106E+02 0.  0.
         12    1    3    3    0    0  0.73329045116E+01  0.10352215099E+02 -0.34566434726E+02  0.36820894282E+02  0.00000000000E+00 0. -1.
         11    1    4    4    0    0  0.52843237038E+01  0.54204919459E+01  0.78383635196E+01  0.10897052485E+02  0.51100000000E-03 0. -1.
        -11    1    4    4    0    0  0.73333315075E+01 -0.11804719948E+02  0.11931151442E+02  0.18316155138E+02  0.51100000000E-03 0.  1.
         12    1    4    4    0    0 -0.19950559723E+02 -0.39679870970E+01  0.14796919765E+02  0.25153898095E+02  0.00000000000E+00 0. -1.
</event>
<event>
 8    1  0.3011071E-007  0.9118800E+02  0.7816164E-02  0.1184000E+00
        -11   -1    0    0    0    0  0.00000000000E+00  0.00000000000E+00  0.45593999997E+02  0.45594000000E+02  0.51100000000E-03 0. -1.
         11   -1    0    0    0    0 -0.00000000000E+00 -0.00000000000E+00 -0.45593999997E+02  0.45594000000E+02  0.51100000000E-03 0.  1.
         23    2    1    2    0    0  0.17763568394E-14  0.00000000000E+00  0.00000000000E+00  0.91188000000E+02  0.91188000000E+02 0.  0.
    9900012    2    3    3    0    0 -0.11804979939E+02 -0.28792929149E+02  0.19682201214E+02  0.54367090655E+02  0.40000014766E+02 0.  0.
        -12    1    3    3    0    0  0.11804979939E+02  0.28792929149E+02 -0.19682201214E+02  0.36820909345E+02  0.00000000000E+00 0.  1.
         11    1    4    4    0    0 -0.20915387644E+01 -0.14722043621E+02  0.27443180186E+02  0.31212837772E+02  0.51100000000E-03 0. -1.
        -11    1    4    4    0    0 -0.97756307697E+01 -0.31060128483E+01 -0.10793716035E+01  0.10313840995E+02  0.51100000000E-03 0.  1.
        -12    1    4    4    0    0  0.62189594768E-01 -0.10964872679E+02 -0.66816073685E+01  0.12840411888E+02  0.00000000000E+00 0.  1.
</event>
<event>
 8    1  0.3011071E-007  0.9118800E+02  0.7816164E-02  0.1184000E+00
        -11   -1    0    0    0    0  0.00000000000E+00  0.00000000000E+00  0.45593999997E+02  0.45594000000E+02  0.51100000000E-03 0. -1.
         11   -1    0    0    0    0 -0.00000000000E+00 -0.00000000000E+00 -0.45593999997E+02  0.45594000000E+02  0.51100000000E-03 0.  1.
         23    2    1    2    0    0  0.00000000000E+00  0.00000000000E+00 -0.88817841970E-15  0.91188000000E+02  0.91188000000E+02 0.  0.
    9900012    2    3    3    0    0 -0.32393247053E+02  0.17039449334E+02  0.40142834713E+01  0.54367085291E+02  0.40000002537E+02 0.  0.
         12    1    3    3    0    0  0.32393247053E+02 -0.17039449334E+02 -0.40142834713E+01  0.36820914709E+02  0.00000000000E+00 0. -1.
         11    1    4    4    0    0 -0.47353100743E+00 -0.94446674428E+01  0.73637759189E+01  0.11985456636E+02  0.51100000000E-03 0. -1.
        -11    1    4    4    0    0 -0.21640580513E+02  0.12973732287E+02 -0.10830423824E+01  0.25254810145E+02  0.51100000000E-03 0.  1.
         12    1    4    4    0    0 -0.10279135532E+02  0.13510384490E+02 -0.22664500653E+01  0.17126818510E+02  0.00000000000E+00 0. -1.
</event>
<event>
 8    1  0.3011071E-007  0.9118800E+02  0.7816164E-02  0.1184000E+00
        -11   -1    0    0    0    0  0.00000000000E+00  0.00000000000E+00  0.45593999997E+02  0.45594000000E+02  0.51100000000E-03 0.  1.
         11   -1    0    0    0    0 -0.00000000000E+00 -0.00000000000E+00 -0.45593999997E+02  0.45594000000E+02  0.51100000000E-03 0. -1.
         23    2    1    2    0    0  0.35527136788E-14  0.44408920985E-15  0.00000000000E+00  0.91188000000E+02  0.91188000000E+02 0.  0.
    9900012    2    3    3    0    0  0.31607488301E+02 -0.31754869750E+01  0.18618866145E+02  0.54367092749E+02  0.40000019540E+02 0.  0.
         12    1    3    3    0    0 -0.31607488301E+02  0.31754869750E+01 -0.18618866145E+02  0.36820907251E+02  0.00000000000E+00 0. -1.
         11    1    4    4    0    0  0.95203166814E+01 -0.71162477647E+01  0.15945818310E+02  0.19888351711E+02  0.51100000000E-03 0. -1.
        -11    1    4    4    0    0  0.94454438520E+01  0.21402478897E+01  0.14258733747E+02  0.17236837266E+02  0.51100000000E-03 0.  1.
         12    1    4    4    0    0  0.12641727768E+02  0.18005128999E+01 -0.11585685911E+02  0.17241903772E+02  0.00000000000E+00 0. -1.
</event>
<event>
 8    1  0.3011071E-007  0.9118800E+02  0.7816164E-02  0.1184000E+00
        -11   -1    0    0    0    0  0.00000000000E+00  0.00000000000E+00  0.45593999997E+02  0.45594000000E+02  0.51100000000E-03 0.  1.
         11   -1    0    0    0    0 -0.00000000000E+00 -0.00000000000E+00 -0.45593999997E+02  0.45594000000E+02  0.51100000000E-03 0. -1.
         23    2    1    2    0    0 -0.35527136788E-14  0.35527136788E-14 -0.35527136788E-14  0.91188000000E+02  0.91188000000E+02 0.  0.
    9900012    2    3    3    0    0 -0.72806714192E+01  0.26539897253E+02 -0.24462330112E+02  0.54367083159E+02  0.39999997677E+02 0.  0.
        -12    1    3    3    0    0  0.72806714192E+01 -0.26539897253E+02  0.24462330112E+02  0.36820916841E+02  0.00000000000E+00 0.  1.
         11    1    4    4    0    0 -0.69466763003E+01  0.65377215453E+01 -0.24140779531E+02  0.25957183037E+02  0.51100000000E-03 0. -1.
        -11    1    4    4    0    0 -0.80832183445E+01  0.18590468225E+02  0.14935916271E+01  0.20326700269E+02  0.51100000000E-03 0.  1.
        -12    1    4    4    0    0  0.77492232255E+01  0.14117074829E+01 -0.18151422083E+01  0.80831998523E+01  0.00000000000E+00 0.  1.
</event>
<event>
 8    1  0.3011071E-007  0.9118800E+02  0.7816164E-02  0.1184000E+00
        -11   -1    0    0    0    0  0.00000000000E+00  0.00000000000E+00  0.45593999997E+02  0.45594000000E+02  0.51100000000E-03 0.  1.
         11   -1    0    0    0    0 -0.00000000000E+00 -0.00000000000E+00 -0.45593999997E+02  0.45594000000E+02  0.51100000000E-03 0. -1.
         23    2    1    2    0    0  0.17763568394E-14  0.88817841970E-15  0.00000000000E+00  0.91188000000E+02  0.91188000000E+02 0.  0.
    9900012    2    3    3    0    0  0.15358930915E+02  0.47735287117E+01 -0.33122453753E+02  0.54367078259E+02  0.39999986508E+02 0.  0.
        -12    1    3    3    0    0 -0.15358930915E+02 -0.47735287117E+01  0.33122453753E+02  0.36820921741E+02  0.00000000000E+00 0.  1.
         11    1    4    4    0    0  0.76433725374E+01  0.25928705706E+01  0.58901483025E+01  0.99918951569E+01  0.51100000000E-03 0. -1.
        -11    1    4    4    0    0  0.56518784191E+01 -0.66230750390E+01 -0.71868802580E+01  0.11289822883E+02  0.51100000000E-03 0.  1.
         12    1    4    4    0    0  0.20636799581E+01  0.88037331801E+01 -0.31825721798E+02  0.33085360219E+02  0.00000000000E+00 0. -1.
</event>
<event>
 8    1  0.3011071E-007  0.9118800E+02  0.7816164E-02  0.1184000E+00
        -11   -1    0    0    0    0  0.00000000000E+00  0.00000000000E+00  0.45593999997E+02  0.45594000000E+02  0.51100000000E-03 0. -1.
         11   -1    0    0    0    0 -0.00000000000E+00 -0.00000000000E+00 -0.45593999997E+02  0.45594000000E+02  0.51100000000E-03 0.  1.
         23    2    1    2    0    0  0.22204460493E-15  0.00000000000E+00  0.00000000000E+00  0.91188000000E+02  0.91188000000E+02 0.  0.
    9900012    2    3    3    0    0  0.11763521849E+01 -0.17172891159E+02  0.32549751899E+02  0.54367104520E+02  0.40000046375E+02 0.  0.
        -12    1    3    3    0    0 -0.11763521849E+01  0.17172891159E+02 -0.32549751899E+02  0.36820895480E+02  0.00000000000E+00 0.  1.
         11    1    4    4    0    0 -0.65453459849E+01 -0.93576949318E+01  0.32267428656E+01  0.11866755171E+02  0.51100000000E-03 0. -1.
        -11    1    4    4    0    0  0.15232937227E+02  0.42009568975E+01  0.20202954727E+02  0.25648582717E+02  0.51100000000E-03 0.  1.
        -12    1    4    4    0    0 -0.75112390575E+01 -0.12016153125E+02  0.91200543069E+01  0.16851766633E+02  0.00000000000E+00 0.  1.
</event>
<event>
 8    1  0.3011071E-007  0.9118800E+02  0.7816164E-02  0.1184000E+00
        -11   -1    0    0    0    0  0.00000000000E+00  0.00000000000E+00  0.45593999997E+02  0.45594000000E+02  0.51100000000E-03 0. -1.
         11   -1    0    0    0    0 -0.00000000000E+00 -0.00000000000E+00 -0.45593999997E+02  0.45594000000E+02  0.51100000000E-03 0.  1.
         23    2    1    2    0    0  0.00000000000E+00  0.00000000000E+00  0.00000000000E+00  0.91188000000E+02  0.91188000000E+02 0.  0.
    9900012    2    3    3    0    0  0.24521305056E+02 -0.11343924716E+02 -0.25016007048E+02  0.54367086945E+02  0.40000006308E+02 0.  0.
         12    1    3    3    0    0 -0.24521305056E+02  0.11343924716E+02  0.25016007048E+02  0.36820913055E+02  0.00000000000E+00 0. -1.
         11    1    4    4    0    0  0.33853143743E+00  0.71012150440E+01 -0.12514032189E+02  0.14392458460E+02  0.51100000000E-03 0. -1.
        -11    1    4    4    0    0  0.48388544916E+01  0.53996996403E+01 -0.19599759172E+01  0.75108438177E+01  0.51100000000E-03 0.  1.
        -12    1    4    4    0    0  0.19343919127E+02 -0.23844839400E+02 -0.10541998942E+02  0.32463784667E+02  0.00000000000E+00 0.  1.
</event>
<event>
 8    1  0.3011071E-007  0.9118800E+02  0.7816164E-02  0.1184000E+00
        -11   -1    0    0    0    0  0.00000000000E+00  0.00000000000E+00  0.45593999997E+02  0.45594000000E+02  0.51100000000E-03 0. -1.
         11   -1    0    0    0    0 -0.00000000000E+00 -0.00000000000E+00 -0.45593999997E+02  0.45594000000E+02  0.51100000000E-03 0.  1.
         23    2    1    2    0    0 -0.17763568394E-14  0.00000000000E+00  0.35527136788E-14  0.91188000000E+02  0.91188000000E+02 0.  0.
    9900012    2    3    3    0    0 -0.13391375767E+02  0.17615033773E+02  0.29430601305E+02  0.54367100324E+02  0.40000036809E+02 0.  0.
        -12    1    3    3    0    0  0.13391375767E+02 -0.17615033773E+02 -0.29430601305E+02  0.36820899676E+02  0.00000000000E+00 0.  1.
         11    1    4    4    0    0 -0.15662102959E+02 -0.31065896557E+00  0.13677264661E+02  0.20795805995E+02  0.51100000000E-03 0.  1.
        -11    1    4    4    0    0  0.82251659785E+01  0.21113428530E+02  0.10298346306E+02  0.24889478833E+02  0.51100000000E-03 0. -1.
         12    1    4    4    0    0 -0.59544387862E+01 -0.31877357916E+01  0.54549903382E+01  0.86818154970E+01  0.00000000000E+00 0. -1.
</event>
<event>
 8    1  0.3011071E-007  0.9118800E+02  0.7816164E-02  0.1184000E+00
        -11   -1    0    0    0    0  0.00000000000E+00  0.00000000000E+00  0.45593999997E+02  0.45594000000E+02  0.51100000000E-03 0. -1.
         11   -1    0    0    0    0 -0.00000000000E+00 -0.00000000000E+00 -0.45593999997E+02  0.45594000000E+02  0.51100000000E-03 0.  1.
         23    2    1    2    0    0  0.00000000000E+00  0.35527136788E-14  0.00000000000E+00  0.91188000000E+02  0.91188000000E+02 0.  0.
    9900012    2    3    3    0    0  0.15685150788E+02  0.24572673049E+02  0.22493103109E+02  0.54367083343E+02  0.39999998098E+02 0.  0.
        -12    1    3    3    0    0 -0.15685150788E+02 -0.24572673049E+02 -0.22493103109E+02  0.36820916657E+02  0.00000000000E+00 0.  1.
         11    1    4    4    0    0  0.14883959347E+02 -0.95883073288E+00  0.20424175169E+02  0.25290285364E+02  0.51100000000E-03 0.  1.
        -11    1    4    4    0    0 -0.48706220530E+01  0.42868800071E+01  0.28210813345E+01  0.70752243453E+01  0.51100000000E-03 0. -1.
         12    1    4    4    0    0  0.56718134943E+01  0.21244623774E+02 -0.75215339523E+00  0.22001573634E+02  0.00000000000E+00 0. -1.
</event>
<event>
 8    1  0.3011071E-007  0.9118800E+02  0.7816164E-02  0.1184000E+00
        -11   -1    0    0    0    0  0.00000000000E+00  0.00000000000E+00  0.45593999997E+02  0.45594000000E+02  0.51100000000E-03 0.  1.
         11   -1    0    0    0    0 -0.00000000000E+00 -0.00000000000E+00 -0.45593999997E+02  0.45594000000E+02  0.51100000000E-03 0. -1.
         23    2    1    2    0    0  0.44408920985E-15  0.00000000000E+00 -0.35527136788E-14  0.91188000000E+02  0.91188000000E+02 0.  0.
    9900012    2    3    3    0    0  0.10059195870E+01 -0.26371271200E+02 -0.25677325641E+02  0.54367070205E+02  0.39999968146E+02 0.  0.
        -12    1    3    3    0    0 -0.10059195870E+01  0.26371271200E+02  0.25677325641E+02  0.36820929795E+02  0.00000000000E+00 0.  1.
         11    1    4    4    0    0 -0.14142209498E+02 -0.44181797508E+01 -0.18120828105E+02  0.23406982148E+02  0.51100000000E-03 0. -1.
        -11    1    4    4    0    0  0.10514073840E+02 -0.54782018926E+01 -0.71423349266E+01  0.13840859553E+02  0.51100000000E-03 0.  1.
         12    1    4    4    0    0  0.46340552450E+01 -0.16474889556E+02 -0.41416260920E+00  0.17119228504E+02  0.00000000000E+00 0. -1.
</event>
<event>
 8    1  0.3011071E-007  0.9118800E+02  0.7816164E-02  0.1184000E+00
        -11   -1    0    0    0    0  0.00000000000E+00  0.00000000000E+00  0.45593999997E+02  0.45594000000E+02  0.51100000000E-03 0. -1.
         11   -1    0    0    0    0 -0.00000000000E+00 -0.00000000000E+00 -0.45593999997E+02  0.45594000000E+02  0.51100000000E-03 0.  1.
         23    2    1    2    0    0  0.17763568394E-14  0.00000000000E+00  0.00000000000E+00  0.91188000000E+02  0.91188000000E+02 0.  0.
    9900012    2    3    3    0    0 -0.72348482817E+01 -0.15943890339E+02 -0.32391793747E+02  0.54367096005E+02  0.40000026963E+02 0.  0.
         12    1    3    3    0    0  0.72348482817E+01  0.15943890339E+02  0.32391793747E+02  0.36820903995E+02  0.00000000000E+00 0. -1.
         11    1    4    4    0    0 -0.63015135736E+01 -0.81685450834E+01 -0.25418013676E+00  0.10319826060E+02  0.51100000000E-03 0. -1.
        -11    1    4    4    0    0  0.12338056299E+02 -0.51358043783E+01 -0.25905813999E+02  0.29149876827E+02  0.51100000000E-03 0.  1.
        -12    1    4    4    0    0 -0.13271391008E+02 -0.26395408777E+01 -0.62317996119E+01  0.14897393118E+02  0.00000000000E+00 0.  1.
</event>
<event>
 8    1  0.3011071E-007  0.9118800E+02  0.7816164E-02  0.1184000E+00
        -11   -1    0    0    0    0  0.00000000000E+00  0.00000000000E+00  0.45593999997E+02  0.45594000000E+02  0.51100000000E-03 0.  1.
         11   -1    0    0    0    0 -0.00000000000E+00 -0.00000000000E+00 -0.45593999997E+02  0.45594000000E+02  0.51100000000E-03 0. -1.
         23    2    1    2    0    0 -0.81878948066E-15 -0.17763568394E-14  0.00000000000E+00  0.91188000000E+02  0.91188000000E+02 0.  0.
    9900012    2    3    3    0    0 -0.70472943965E-01  0.14458667051E+02 -0.33863287146E+02  0.54367078832E+02  0.39999987814E+02 0.  0.
        -12    1    3    3    0    0  0.70472943965E-01 -0.14458667051E+02  0.33863287146E+02  0.36820921168E+02  0.00000000000E+00 0.  1.
         11    1    4    4    0    0  0.16664178611E+01  0.82606088880E+01 -0.15424458524E+02  0.17576362784E+02  0.51100000000E-03 0. -1.
        -11    1    4    4    0    0  0.11421696329E+02 -0.49035462939E+01 -0.12992409753E+01  0.12497517380E+02  0.51100000000E-03 0.  1.
        -12    1    4    4    0    0 -0.13158587134E+02  0.11101604456E+02 -0.17139587646E+02  0.24293198669E+02  0.00000000000E+00 0.  1.
</event>
<event>
 8    1  0.3011071E-007  0.9118800E+02  0.7816164E-02  0.1184000E+00
        -11   -1    0    0    0    0  0.00000000000E+00  0.00000000000E+00  0.45593999997E+02  0.45594000000E+02  0.51100000000E-03 0. -1.
         11   -1    0    0    0    0 -0.00000000000E+00 -0.00000000000E+00 -0.45593999997E+02  0.45594000000E+02  0.51100000000E-03 0.  1.
         23    2    1    2    0    0  0.22204460493E-14  0.17763568394E-14 -0.71054273576E-14  0.91188000000E+02  0.91188000000E+02 0.  0.
    9900012    2    3    3    0    0 -0.30168613790E+01 -0.11706826314E+02  0.34779639852E+02  0.54367155589E+02  0.40000162795E+02 0.  0.
        -12    1    3    3    0    0  0.30168613790E+01  0.11706826314E+02 -0.34779639852E+02  0.36820844411E+02  0.00000000000E+00 0.  1.
         11    1    4    4    0    0 -0.82728393281E+01 -0.21143746703E+02  0.18538186483E+02  0.29311469658E+02  0.51100000000E-03 0. -1.
        -11    1    4    4    0    0 -0.97241799700E+00  0.11571620093E+02  0.13794717050E+02  0.18031700061E+02  0.51100000000E-03 0.  1.
        -12    1    4    4    0    0  0.62283959460E+01 -0.21346997033E+01  0.24467363186E+01  0.70239858696E+01  0.00000000000E+00 0.  1.
</event>
<event>
 8    1  0.3011071E-007  0.9118800E+02  0.7816164E-02  0.1184000E+00
        -11   -1    0    0    0    0  0.00000000000E+00  0.00000000000E+00  0.45593999997E+02  0.45594000000E+02  0.51100000000E-03 0.  1.
         11   -1    0    0    0    0 -0.00000000000E+00 -0.00000000000E+00 -0.45593999997E+02  0.45594000000E+02  0.51100000000E-03 0. -1.
         23    2    1    2    0    0 -0.17763568394E-14  0.00000000000E+00  0.00000000000E+00  0.91188000000E+02  0.91188000000E+02 0.  0.
    9900012    2    3    3    0    0  0.12210382075E+02 -0.94515138947E+01 -0.33426887493E+02  0.54367063662E+02  0.39999953231E+02 0.  0.
        -12    1    3    3    0    0 -0.12210382075E+02  0.94515138947E+01  0.33426887493E+02  0.36820936338E+02  0.00000000000E+00 0.  1.
         11    1    4    4    0    0  0.47538161031E+01 -0.15384972946E+02 -0.14537877406E+02  0.21694378069E+02  0.51100000000E-03 0. -1.
        -11    1    4    4    0    0  0.10490716638E+02 -0.38871463919E+01 -0.22306655833E-01  0.11187740634E+02  0.51100000000E-03 0.  1.
        -12    1    4    4    0    0 -0.30341506656E+01  0.98206054428E+01 -0.18866703432E+02  0.21484944959E+02  0.00000000000E+00 0.  1.
</event>
<event>
 8    1  0.3011071E-007  0.9118800E+02  0.7816164E-02  0.1184000E+00
        -11   -1    0    0    0    0  0.00000000000E+00  0.00000000000E+00  0.45593999997E+02  0.45594000000E+02  0.51100000000E-03 0.  1.
         11   -1    0    0    0    0 -0.00000000000E+00 -0.00000000000E+00 -0.45593999997E+02  0.45594000000E+02  0.51100000000E-03 0. -1.
         23    2    1    2    0    0  0.00000000000E+00 -0.17763568394E-14 -0.35527136788E-14  0.91188000000E+02  0.91188000000E+02 0.  0.
    9900012    2    3    3    0    0 -0.17531316319E+02  0.14836732138E+02  0.28780275550E+02  0.54367082940E+02  0.39999997178E+02 0.  0.
         12    1    3    3    0    0  0.17531316319E+02 -0.14836732138E+02 -0.28780275550E+02  0.36820917060E+02  0.00000000000E+00 0. -1.
         11    1    4    4    0    0 -0.98553487149E+01 -0.45352599175E+00  0.14430455838E+02  0.17480607543E+02  0.51100000000E-03 0. -1.
        -11    1    4    4    0    0  0.30063261846E+01 -0.31925365889E+01  0.14899752391E+02  0.15531674364E+02  0.51100000000E-03 0.  1.
        -12    1    4    4    0    0 -0.10682293789E+02  0.18482794718E+02 -0.54993267871E+00  0.21354801033E+02  0.00000000000E+00 0.  1.
</event>
<event>
 8    1  0.3011071E-007  0.9118800E+02  0.7816164E-02  0.1184000E+00
        -11   -1    0    0    0    0  0.00000000000E+00  0.00000000000E+00  0.45593999997E+02  0.45594000000E+02  0.51100000000E-03 0.  1.
         11   -1    0    0    0    0 -0.00000000000E+00 -0.00000000000E+00 -0.45593999997E+02  0.45594000000E+02  0.51100000000E-03 0. -1.
         23    2    1    2    0    0  0.00000000000E+00  0.88817841970E-15  0.00000000000E+00  0.91188000000E+02  0.91188000000E+02 0.  0.
    9900012    2    3    3    0    0 -0.64444869753E+01  0.58870089328E+01  0.35771393286E+02  0.54367070297E+02  0.39999968356E+02 0.  0.
         12    1    3    3    0    0  0.64444869753E+01 -0.58870089328E+01 -0.35771393286E+02  0.36820929703E+02  0.00000000000E+00 0. -1.
         11    1    4    4    0    0 -0.18173298205E+02  0.39265069780E+01  0.97047765451E+01  0.20973052060E+02  0.51100000000E-03 0. -1.
        -11    1    4    4    0    0  0.14471656934E+02  0.15445787177E+01  0.11454280422E+02  0.18520667323E+02  0.51100000000E-03 0.  1.
        -12    1    4    4    0    0 -0.27428457052E+01  0.41592323713E+00  0.14612336319E+02  0.14873350913E+02  0.00000000000E+00 0.  1.
</event>
<event>
 8    1  0.3011071E-007  0.9118800E+02  0.7816164E-02  0.1184000E+00
        -11   -1    0    0    0    0  0.00000000000E+00  0.00000000000E+00  0.45593999997E+02  0.45594000000E+02  0.51100000000E-03 0.  1.
         11   -1    0    0    0    0 -0.00000000000E+00 -0.00000000000E+00 -0.45593999997E+02  0.45594000000E+02  0.51100000000E-03 0. -1.
         23    2    1    2    0    0 -0.17763568394E-14  0.88817841970E-15 -0.71054273576E-14  0.91188000000E+02  0.91188000000E+02 0.  0.
    9900012    2    3    3    0    0 -0.92778557743E+01  0.69192060699E+01 -0.34954625243E+02  0.54367084120E+02  0.39999999867E+02 0.  0.
        -12    1    3    3    0    0  0.92778557743E+01 -0.69192060699E+01  0.34954625243E+02  0.36820915880E+02  0.00000000000E+00 0.  1.
         11    1    4    4    0    0 -0.44096985479E+01  0.12882395535E+02 -0.32584808751E+02  0.35315312792E+02  0.51100000000E-03 0. -1.
        -11    1    4    4    0    0 -0.14584830081E+01 -0.10955817658E+02 -0.53864086431E+01  0.12295141787E+02  0.51100000000E-03 0.  1.
        -12    1    4    4    0    0 -0.34096742183E+01  0.49926281923E+01  0.30165921510E+01  0.67566295405E+01  0.00000000000E+00 0.  1.
</event>
<event>
 8    1  0.3011071E-007  0.9118800E+02  0.7816164E-02  0.1184000E+00
        -11   -1    0    0    0    0  0.00000000000E+00  0.00000000000E+00  0.45593999997E+02  0.45594000000E+02  0.51100000000E-03 0.  1.
         11   -1    0    0    0    0 -0.00000000000E+00 -0.00000000000E+00 -0.45593999997E+02  0.45594000000E+02  0.51100000000E-03 0. -1.
         23    2    1    2    0    0  0.00000000000E+00  0.00000000000E+00  0.00000000000E+00  0.91188000000E+02  0.91188000000E+02 0.  0.
    9900012    2    3    3    0    0  0.50502253641E+00  0.11471608233E+02 -0.34984771078E+02  0.54366986291E+02  0.39999776847E+02 0.  0.
        -12    1    3    3    0    0 -0.50502253641E+00 -0.11471608233E+02  0.34984771078E+02  0.36821013709E+02  0.00000000000E+00 0.  1.
         11    1    4    4    0    0 -0.39316003667E+01  0.17736874878E+02 -0.41848367986E+01  0.18643150784E+02  0.51100000000E-03 0. -1.
        -11    1    4    4    0    0  0.62105725308E+01  0.25312217252E+01 -0.22578527453E+02  0.23553517715E+02  0.51100000000E-03 0.  1.
         12    1    4    4    0    0 -0.17739496276E+01 -0.87964883702E+01 -0.82214068264E+01  0.12170317791E+02  0.00000000000E+00 0. -1.
</event>
<event>
 8    1  0.3011071E-007  0.9118800E+02  0.7816164E-02  0.1184000E+00
        -11   -1    0    0    0    0  0.00000000000E+00  0.00000000000E+00  0.45593999997E+02  0.45594000000E+02  0.51100000000E-03 0.  1.
         11   -1    0    0    0    0 -0.00000000000E+00 -0.00000000000E+00 -0.45593999997E+02  0.45594000000E+02  0.51100000000E-03 0. -1.
         23    2    1    2    0    0  0.00000000000E+00  0.00000000000E+00  0.00000000000E+00  0.91188000000E+02  0.91188000000E+02 0.  0.
    9900012    2    3    3    0    0 -0.55915113635E+01  0.31642859125E+02 -0.17978975665E+02  0.54367094268E+02  0.40000023004E+02 0.  0.
        -12    1    3    3    0    0  0.55915113635E+01 -0.31642859125E+02  0.17978975665E+02  0.36820905732E+02  0.00000000000E+00 0.  1.
         11    1    4    4    0    0  0.32588116546E+01 -0.44298941092E+01 -0.10690343225E+02  0.12021948833E+02  0.51100000000E-03 0. -1.
        -11    1    4    4    0    0 -0.14776186410E+01  0.29399990847E+02 -0.11423276266E+02  0.31575846141E+02  0.51100000000E-03 0.  1.
         12    1    4    4    0    0 -0.73727043772E+01  0.66727623876E+01  0.41346438259E+01  0.10769299294E+02  0.00000000000E+00 0. -1.
</event>
<event>
 8    1  0.3011071E-007  0.9118800E+02  0.7816164E-02  0.1184000E+00
        -11   -1    0    0    0    0  0.00000000000E+00  0.00000000000E+00  0.45593999997E+02  0.45594000000E+02  0.51100000000E-03 0. -1.
         11   -1    0    0    0    0 -0.00000000000E+00 -0.00000000000E+00 -0.45593999997E+02  0.45594000000E+02  0.51100000000E-03 0.  1.
         23    2    1    2    0    0 -0.88817841970E-15  0.17763568394E-14 -0.71054273576E-14  0.91188000000E+02  0.91188000000E+02 0.  0.
    9900012    2    3    3    0    0  0.68825889586E+01  0.86007841240E+01 -0.35134607879E+02  0.54367025147E+02  0.39999865427E+02 0.  0.
         12    1    3    3    0    0 -0.68825889586E+01 -0.86007841240E+01  0.35134607879E+02  0.36820974853E+02  0.00000000000E+00 0. -1.
         11    1    4    4    0    0  0.21953361464E+01 -0.37116694318E+01  0.26424480728E+01  0.50575214132E+01  0.51100000000E-03 0. -1.
        -11    1    4    4    0    0 -0.74833128721E+01  0.16895547523E+02 -0.24904044200E+02  0.31010819328E+02  0.51100000000E-03 0.  1.
         12    1    4    4    0    0  0.12170565684E+02 -0.45830939676E+01 -0.12873011752E+02  0.18298684405E+02  0.00000000000E+00 0. -1.
</event>
<event>
 8    1  0.3011071E-007  0.9118800E+02  0.7816164E-02  0.1184000E+00
        -11   -1    0    0    0    0  0.00000000000E+00  0.00000000000E+00  0.45593999997E+02  0.45594000000E+02  0.51100000000E-03 0.  1.
         11   -1    0    0    0    0 -0.00000000000E+00 -0.00000000000E+00 -0.45593999997E+02  0.45594000000E+02  0.51100000000E-03 0. -1.
         23    2    1    2    0    0  0.71054273576E-14 -0.17763568394E-14  0.00000000000E+00  0.91188000000E+02  0.91188000000E+02 0.  0.
    9900012    2    3    3    0    0  0.19960200916E+02 -0.44708139206E+01 -0.30616692992E+02  0.54367086276E+02  0.40000004783E+02 0.  0.
        -12    1    3    3    0    0 -0.19960200916E+02  0.44708139206E+01  0.30616692992E+02  0.36820913724E+02  0.00000000000E+00 0.  1.
         11    1    4    4    0    0  0.79887517228E+01 -0.15238702663E+02 -0.75855758439E+01  0.18803701074E+02  0.51100000000E-03 0. -1.
        -11    1    4    4    0    0  0.18410052702E+02  0.78101930475E+01 -0.16485071859E+02  0.25916920156E+02  0.51100000000E-03 0.  1.
         12    1    4    4    0    0 -0.64386035079E+01  0.29576956946E+01 -0.65460452893E+01  0.96464650459E+01  0.00000000000E+00 0. -1.
</event>
<event>
 8    1  0.3011071E-007  0.9118800E+02  0.7816164E-02  0.1184000E+00
        -11   -1    0    0    0    0  0.00000000000E+00  0.00000000000E+00  0.45593999997E+02  0.45594000000E+02  0.51100000000E-03 0.  1.
         11   -1    0    0    0    0 -0.00000000000E+00 -0.00000000000E+00 -0.45593999997E+02  0.45594000000E+02  0.51100000000E-03 0. -1.
         23    2    1    2    0    0  0.13322676296E-14  0.00000000000E+00  0.00000000000E+00  0.91188000000E+02  0.91188000000E+02 0.  0.
    9900012    2    3    3    0    0  0.22748203614E+01 -0.36135878934E+02  0.66934775652E+01  0.54367092950E+02  0.40000019999E+02 0.  0.
         12    1    3    3    0    0 -0.22748203614E+01  0.36135878934E+02 -0.66934775652E+01  0.36820907050E+02  0.00000000000E+00 0. -1.
         11    1    4    4    0    0  0.12728044649E+01 -0.20322832840E+02 -0.12290363260E+01  0.20399708243E+02  0.51100000000E-03 0. -1.
        -11    1    4    4    0    0  0.13425692585E+02 -0.14726253900E+02  0.16179103651E+01  0.19993234094E+02  0.51100000000E-03 0.  1.
        -12    1    4    4    0    0 -0.12423676689E+02 -0.10867921943E+01  0.63046035261E+01  0.13974150613E+02  0.00000000000E+00 0.  1.
</event>
<event>
 8    1  0.3011071E-007  0.9118800E+02  0.7816164E-02  0.1184000E+00
        -11   -1    0    0    0    0  0.00000000000E+00  0.00000000000E+00  0.45593999997E+02  0.45594000000E+02  0.51100000000E-03 0.  1.
         11   -1    0    0    0    0 -0.00000000000E+00 -0.00000000000E+00 -0.45593999997E+02  0.45594000000E+02  0.51100000000E-03 0. -1.
         23    2    1    2    0    0 -0.35527136788E-14  0.00000000000E+00 -0.17763568394E-14  0.91188000000E+02  0.91188000000E+02 0.  0.
    9900012    2    3    3    0    0 -0.23152324667E+02  0.26372185552E+02 -0.11146784375E+02  0.54367175591E+02  0.40000208394E+02 0.  0.
        -12    1    3    3    0    0  0.23152324667E+02 -0.26372185552E+02  0.11146784375E+02  0.36820824409E+02  0.00000000000E+00 0.  1.
         11    1    4    4    0    0 -0.13875138038E+02  0.74381833497E+01 -0.48307194241E+01  0.16467600843E+02  0.51100000000E-03 0. -1.
        -11    1    4    4    0    0  0.40002538390E+01  0.46316460466E+01 -0.15253220081E+02  0.16435172618E+02  0.51100000000E-03 0.  1.
         12    1    4    4    0    0 -0.13277440468E+02  0.14302356155E+02  0.89371551296E+01  0.21464402130E+02  0.00000000000E+00 0. -1.
</event>
<event>
 8    1  0.3011071E-007  0.9118800E+02  0.7816164E-02  0.1184000E+00
        -11   -1    0    0    0    0  0.00000000000E+00  0.00000000000E+00  0.45593999997E+02  0.45594000000E+02  0.51100000000E-03 0.  1.
         11   -1    0    0    0    0 -0.00000000000E+00 -0.00000000000E+00 -0.45593999997E+02  0.45594000000E+02  0.51100000000E-03 0. -1.
         23    2    1    2    0    0  0.88817841970E-15 -0.17763568394E-14  0.00000000000E+00  0.91188000000E+02  0.91188000000E+02 0.  0.
    9900012    2    3    3    0    0  0.37836449621E+01 -0.15913821352E+02  0.32988082012E+02  0.54367092433E+02  0.40000018820E+02 0.  0.
         12    1    3    3    0    0 -0.37836449621E+01  0.15913821352E+02 -0.32988082012E+02  0.36820907567E+02  0.00000000000E+00 0. -1.
         11    1    4    4    0    0  0.20750664128E+01 -0.32196191508E+01  0.22986966322E+02  0.23303915316E+02  0.51100000000E-03 0. -1.
        -11    1    4    4    0    0  0.13258712905E+01 -0.13096686992E+02  0.18412170433E+02  0.22633805803E+02  0.51100000000E-03 0.  1.
         12    1    4    4    0    0  0.38270725875E+00  0.40248479039E+00 -0.84110547431E+01  0.84293713137E+01  0.00000000000E+00 0. -1.
</event>
<event>
 8    1  0.3011071E-007  0.9118800E+02  0.7816164E-02  0.1184000E+00
        -11   -1    0    0    0    0  0.00000000000E+00  0.00000000000E+00  0.45593999997E+02  0.45594000000E+02  0.51100000000E-03 0.  1.
         11   -1    0    0    0    0 -0.00000000000E+00 -0.00000000000E+00 -0.45593999997E+02  0.45594000000E+02  0.51100000000E-03 0. -1.
         23    2    1    2    0    0  0.00000000000E+00  0.00000000000E+00  0.35527136788E-14  0.91188000000E+02  0.91188000000E+02 0.  0.
    9900012    2    3    3    0    0 -0.12811412220E+02  0.29002188208E+02  0.18722295934E+02  0.54367033569E+02  0.39999884627E+02 0.  0.
         12    1    3    3    0    0  0.12811412220E+02 -0.29002188208E+02 -0.18722295934E+02  0.36820966431E+02  0.00000000000E+00 0. -1.
         11    1    4    4    0    0 -0.63467919160E+01  0.15096110048E+01 -0.64117371095E+01  0.91471889690E+01  0.51100000000E-03 0. -1.
        -11    1    4    4    0    0  0.70934851751E+01  0.18935008360E+02  0.19859266788E+02  0.28341534029E+02  0.51100000000E-03 0.  1.
        -12    1    4    4    0    0 -0.13558105479E+02  0.85575688434E+01  0.52747662554E+01  0.16878310571E+02  0.00000000000E+00 0.  1.
</event>
<event>
 8    1  0.3011071E-007  0.9118800E+02  0.7816164E-02  0.1184000E+00
        -11   -1    0    0    0    0  0.00000000000E+00  0.00000000000E+00  0.45593999997E+02  0.45594000000E+02  0.51100000000E-03 0.  1.
         11   -1    0    0    0    0 -0.00000000000E+00 -0.00000000000E+00 -0.45593999997E+02  0.45594000000E+02  0.51100000000E-03 0. -1.
         23    2    1    2    0    0  0.00000000000E+00  0.35527136788E-14  0.00000000000E+00  0.91188000000E+02  0.91188000000E+02 0.  0.
    9900012    2    3    3    0    0 -0.16915388123E+02 -0.27500122046E+02  0.17702901980E+02  0.54367084661E+02  0.40000001101E+02 0.  0.
         12    1    3    3    0    0  0.16915388123E+02  0.27500122046E+02 -0.17702901980E+02  0.36820915339E+02  0.00000000000E+00 0. -1.
         11    1    4    4    0    0 -0.20284816400E+01  0.29848693751E+01 -0.85290267570E+01  0.92611273954E+01  0.51100000000E-03 0. -1.
        -11    1    4    4    0    0 -0.34961929026E+01 -0.18132946406E+02  0.19904257850E+02  0.27151548593E+02  0.51100000000E-03 0.  1.
         12    1    4    4    0    0 -0.11390713580E+02 -0.12352045015E+02  0.63276708873E+01  0.17954408673E+02  0.00000000000E+00 0. -1.
</event>
<event>
 8    1  0.3011071E-007  0.9118800E+02  0.7816164E-02  0.1184000E+00
        -11   -1    0    0    0    0  0.00000000000E+00  0.00000000000E+00  0.45593999997E+02  0.45594000000E+02  0.51100000000E-03 0.  1.
         11   -1    0    0    0    0 -0.00000000000E+00 -0.00000000000E+00 -0.45593999997E+02  0.45594000000E+02  0.51100000000E-03 0. -1.
         23    2    1    2    0    0 -0.33306690739E-15  0.00000000000E+00  0.35527136788E-14  0.91188000000E+02  0.91188000000E+02 0.  0.
    9900012    2    3    3    0    0  0.83622503512E+00  0.25759603150E+02 -0.26296829502E+02  0.54367086532E+02  0.40000005368E+02 0.  0.
        -12    1    3    3    0    0 -0.83622503512E+00 -0.25759603150E+02  0.26296829502E+02  0.36820913468E+02  0.00000000000E+00 0.  1.
         11    1    4    4    0    0  0.68837512462E+01  0.11078538093E+02 -0.57770851226E+01  0.14265158614E+02  0.51100000000E-03 0. -1.
        -11    1    4    4    0    0  0.41297889591E+01 -0.61125741868E+01 -0.14362880880E+02  0.16146549708E+02  0.51100000000E-03 0.  1.
         12    1    4    4    0    0 -0.10177315170E+02  0.20793639244E+02 -0.61568634988E+01  0.23955378211E+02  0.00000000000E+00 0. -1.
</event>
<event>
 8    1  0.3011071E-007  0.9118800E+02  0.7816164E-02  0.1184000E+00
        -11   -1    0    0    0    0  0.00000000000E+00  0.00000000000E+00  0.45593999997E+02  0.45594000000E+02  0.51100000000E-03 0.  1.
         11   -1    0    0    0    0 -0.00000000000E+00 -0.00000000000E+00 -0.45593999997E+02  0.45594000000E+02  0.51100000000E-03 0. -1.
         23    2    1    2    0    0  0.00000000000E+00 -0.13322676296E-14  0.71054273576E-14  0.91188000000E+02  0.91188000000E+02 0.  0.
    9900012    2    3    3    0    0  0.58627214660E+01 -0.39722740005E+01 -0.36133487413E+02  0.54367090501E+02  0.40000014415E+02 0.  0.
        -12    1    3    3    0    0 -0.58627214660E+01  0.39722740005E+01  0.36133487413E+02  0.36820909499E+02  0.00000000000E+00 0.  1.
         11    1    4    4    0    0  0.42969620658E+01  0.11559095747E+02 -0.12938576714E+02  0.17874097044E+02  0.51100000000E-03 0. -1.
        -11    1    4    4    0    0 -0.23063734610E+01 -0.95340462315E+01 -0.26768968576E+02  0.28509561115E+02  0.51100000000E-03 0.  1.
         12    1    4    4    0    0  0.38721328613E+01 -0.59973235162E+01  0.35740578771E+01  0.79834323422E+01  0.00000000000E+00 0. -1.
</event>
<event>
 8    1  0.3011071E-007  0.9118800E+02  0.7816164E-02  0.1184000E+00
        -11   -1    0    0    0    0  0.00000000000E+00  0.00000000000E+00  0.45593999997E+02  0.45594000000E+02  0.51100000000E-03 0.  1.
         11   -1    0    0    0    0 -0.00000000000E+00 -0.00000000000E+00 -0.45593999997E+02  0.45594000000E+02  0.51100000000E-03 0. -1.
         23    2    1    2    0    0 -0.17763568394E-14  0.00000000000E+00  0.71054273576E-14  0.91188000000E+02  0.91188000000E+02 0.  0.
    9900012    2    3    3    0    0 -0.78455954404E+01 -0.12943133550E+02 -0.33566374174E+02  0.54367088155E+02  0.40000009067E+02 0.  0.
        -12    1    3    3    0    0  0.78455954404E+01  0.12943133550E+02  0.33566374174E+02  0.36820911845E+02  0.00000000000E+00 0.  1.
         11    1    4    4    0    0  0.10090934746E+01 -0.10143859696E+02  0.26743055234E+01  0.10538883691E+02  0.51100000000E-03 0.  1.
        -11    1    4    4    0    0 -0.15183257717E+02  0.31864270478E+01 -0.19149910820E+02  0.24645561809E+02  0.51100000000E-03 0. -1.
         12    1    4    4    0    0  0.63285688020E+01 -0.59857009023E+01 -0.17090768878E+02  0.19182642654E+02  0.00000000000E+00 0. -1.
</event>
<event>
 8    1  0.3011071E-007  0.9118800E+02  0.7816164E-02  0.1184000E+00
        -11   -1    0    0    0    0  0.00000000000E+00  0.00000000000E+00  0.45593999997E+02  0.45594000000E+02  0.51100000000E-03 0.  1.
         11   -1    0    0    0    0 -0.00000000000E+00 -0.00000000000E+00 -0.45593999997E+02  0.45594000000E+02  0.51100000000E-03 0. -1.
         23    2    1    2    0    0 -0.35527136788E-14  0.00000000000E+00  0.35527136788E-14  0.91188000000E+02  0.91188000000E+02 0.  0.
    9900012    2    3    3    0    0 -0.12942410568E+02  0.27285356080E+02  0.21066147644E+02  0.54367092566E+02  0.40000019123E+02 0.  0.
        -12    1    3    3    0    0  0.12942410568E+02 -0.27285356080E+02 -0.21066147644E+02  0.36820907434E+02  0.00000000000E+00 0.  1.
         11    1    4    4    0    0  0.26831317056E+01  0.11944487369E+02  0.89014101806E+01  0.15136217418E+02  0.51100000000E-03 0. -1.
        -11    1    4    4    0    0  0.10075505541E+01  0.60502443992E+01  0.18232100496E+02  0.19236166566E+02  0.51100000000E-03 0.  1.
        -12    1    4    4    0    0 -0.16633092827E+02  0.92906243115E+01 -0.60673630327E+01  0.19994708582E+02  0.00000000000E+00 0.  1.
</event>
<event>
 8    1  0.3011071E-007  0.9118800E+02  0.7816164E-02  0.1184000E+00
        -11   -1    0    0    0    0  0.00000000000E+00  0.00000000000E+00  0.45593999997E+02  0.45594000000E+02  0.51100000000E-03 0.  1.
         11   -1    0    0    0    0 -0.00000000000E+00 -0.00000000000E+00 -0.45593999997E+02  0.45594000000E+02  0.51100000000E-03 0. -1.
         23    2    1    2    0    0 -0.13322676296E-14  0.31086244690E-14  0.00000000000E+00  0.91188000000E+02  0.91188000000E+02 0.  0.
    9900012    2    3    3    0    0  0.20861293181E+01  0.25743041392E+01  0.36671526252E+02  0.54367084544E+02  0.40000000836E+02 0.  0.
         12    1    3    3    0    0 -0.20861293181E+01 -0.25743041392E+01 -0.36671526252E+02  0.36820915456E+02  0.00000000000E+00 0. -1.
         11    1    4    4    0    0  0.94271603685E+01 -0.60540493836E+01 -0.28430785647E+01  0.11558804546E+02  0.51100000000E-03 0. -1.
        -11    1    4    4    0    0  0.16080783724E+01 -0.20034879160E+01  0.60338186851E+01  0.65579606638E+01  0.51100000000E-03 0.  1.
        -12    1    4    4    0    0 -0.89491094228E+01  0.10631841439E+02  0.33480786132E+02  0.36250319334E+02  0.00000000000E+00 0.  1.
</event>
<event>
 8    1  0.3011071E-007  0.9118800E+02  0.7816164E-02  0.1184000E+00
        -11   -1    0    0    0    0  0.00000000000E+00  0.00000000000E+00  0.45593999997E+02  0.45594000000E+02  0.51100000000E-03 0.  1.
         11   -1    0    0    0    0 -0.00000000000E+00 -0.00000000000E+00 -0.45593999997E+02  0.45594000000E+02  0.51100000000E-03 0. -1.
         23    2    1    2    0    0  0.00000000000E+00 -0.71054273576E-14  0.88817841970E-15  0.91188000000E+02  0.91188000000E+02 0.  0.
    9900012    2    3    3    0    0  0.98618169432E+01  0.35118260910E+02 -0.50231981882E+01  0.54367079278E+02  0.39999988830E+02 0.  0.
        -12    1    3    3    0    0 -0.98618169432E+01 -0.35118260910E+02  0.50231981882E+01  0.36820920722E+02  0.00000000000E+00 0.  1.
         11    1    4    4    0    0 -0.19573073290E+01 -0.11448280594E+01  0.30588979410E+01  0.38076948591E+01  0.51100000000E-03 0. -1.
        -11    1    4    4    0    0  0.15156211218E+02  0.27328604360E+02  0.76402548036E+01  0.32170434384E+02  0.51100000000E-03 0.  1.
        -12    1    4    4    0    0 -0.33370869459E+01  0.89344846099E+01 -0.15722350933E+02  0.18388950035E+02  0.00000000000E+00 0.  1.
</event>
<event>
 8    1  0.3011071E-007  0.9118800E+02  0.7816164E-02  0.1184000E+00
        -11   -1    0    0    0    0  0.00000000000E+00  0.00000000000E+00  0.45593999997E+02  0.45594000000E+02  0.51100000000E-03 0.  1.
         11   -1    0    0    0    0 -0.00000000000E+00 -0.00000000000E+00 -0.45593999997E+02  0.45594000000E+02  0.51100000000E-03 0. -1.
         23    2    1    2    0    0  0.00000000000E+00 -0.17763568394E-14  0.00000000000E+00  0.91188000000E+02  0.91188000000E+02 0.  0.
    9900012    2    3    3    0    0 -0.90014848802E+01 -0.69172362593E+01 -0.35027200780E+02  0.54367086350E+02  0.40000004952E+02 0.  0.
        -12    1    3    3    0    0  0.90014848802E+01  0.69172362593E+01  0.35027200780E+02  0.36820913650E+02  0.00000000000E+00 0.  1.
         11    1    4    4    0    0 -0.56122852133E+01 -0.23420315403E+01 -0.49642464116E+00  0.61015813308E+01  0.51100000000E-03 0.  1.
        -11    1    4    4    0    0  0.10848884924E+02  0.86283841605E+01 -0.10614715119E+02  0.17459080579E+02  0.51100000000E-03 0. -1.
         12    1    4    4    0    0 -0.14238084591E+02 -0.13203588879E+02 -0.23916061020E+02  0.30806424441E+02  0.00000000000E+00 0. -1.
</event>
<event>
 8    1  0.3011071E-007  0.9118800E+02  0.7816164E-02  0.1184000E+00
        -11   -1    0    0    0    0  0.00000000000E+00  0.00000000000E+00  0.45593999997E+02  0.45594000000E+02  0.51100000000E-03 0.  1.
         11   -1    0    0    0    0 -0.00000000000E+00 -0.00000000000E+00 -0.45593999997E+02  0.45594000000E+02  0.51100000000E-03 0. -1.
         23    2    1    2    0    0  0.00000000000E+00  0.00000000000E+00  0.00000000000E+00  0.91188000000E+02  0.91188000000E+02 0.  0.
    9900012    2    3    3    0    0 -0.26150821370E+02  0.12960107940E+02  0.22448839203E+02  0.54367078804E+02  0.39999987750E+02 0.  0.
         12    1    3    3    0    0  0.26150821370E+02 -0.12960107940E+02 -0.22448839203E+02  0.36820921196E+02  0.00000000000E+00 0. -1.
         11    1    4    4    0    0  0.91675263718E+01  0.52401778594E+01  0.97241523450E+00  0.10604178206E+02  0.51100000000E-03 0. -1.
        -11    1    4    4    0    0 -0.24362366595E+02  0.10221453109E+02  0.11808579556E+02  0.28938651681E+02  0.51100000000E-03 0.  1.
        -12    1    4    4    0    0 -0.10955981147E+02 -0.25015230282E+01  0.96678444125E+01  0.14824248917E+02  0.00000000000E+00 0.  1.
</event>
<event>
 8    1  0.3011071E-007  0.9118800E+02  0.7816164E-02  0.1184000E+00
        -11   -1    0    0    0    0  0.00000000000E+00  0.00000000000E+00  0.45593999997E+02  0.45594000000E+02  0.51100000000E-03 0.  1.
         11   -1    0    0    0    0 -0.00000000000E+00 -0.00000000000E+00 -0.45593999997E+02  0.45594000000E+02  0.51100000000E-03 0. -1.
         23    2    1    2    0    0  0.17763568394E-14  0.35527136788E-14  0.35527136788E-14  0.91188000000E+02  0.91188000000E+02 0.  0.
    9900012    2    3    3    0    0  0.11214559707E+02  0.22293097265E+02  0.27074554233E+02  0.54367081733E+02  0.39999994428E+02 0.  0.
         12    1    3    3    0    0 -0.11214559707E+02 -0.22293097265E+02 -0.27074554233E+02  0.36820918267E+02  0.00000000000E+00 0. -1.
         11    1    4    4    0    0  0.12551407224E+02 -0.21113282270E+00  0.25783757722E+01  0.12815241795E+02  0.51100000000E-03 0. -1.
        -11    1    4    4    0    0 -0.19555693417E+01 -0.42104783180E+01 -0.85194890266E+00  0.47199784226E+01  0.51100000000E-03 0.  1.
        -12    1    4    4    0    0  0.61872182434E+00  0.26714708406E+02  0.25348127363E+02  0.36831861516E+02  0.00000000000E+00 0.  1.
</event>
<event>
 8    1  0.3011071E-007  0.9118800E+02  0.7816164E-02  0.1184000E+00
        -11   -1    0    0    0    0  0.00000000000E+00  0.00000000000E+00  0.45593999997E+02  0.45594000000E+02  0.51100000000E-03 0.  1.
         11   -1    0    0    0    0 -0.00000000000E+00 -0.00000000000E+00 -0.45593999997E+02  0.45594000000E+02  0.51100000000E-03 0. -1.
         23    2    1    2    0    0  0.17763568394E-14  0.00000000000E+00 -0.17763568394E-14  0.91188000000E+02  0.91188000000E+02 0.  0.
    9900012    2    3    3    0    0  0.15149094682E+02 -0.31685287166E+02 -0.11060141874E+02  0.54367092478E+02  0.40000018921E+02 0.  0.
        -12    1    3    3    0    0 -0.15149094682E+02  0.31685287166E+02  0.11060141874E+02  0.36820907522E+02  0.00000000000E+00 0.  1.
         11    1    4    4    0    0  0.87670188788E+01 -0.12102736865E+02 -0.67966933731E+01  0.16417426739E+02  0.51100000000E-03 0. -1.
        -11    1    4    4    0    0 -0.20081692622E+01 -0.25220009388E+02 -0.89121926247E+01  0.26823661103E+02  0.51100000000E-03 0.  1.
        -12    1    4    4    0    0  0.83902450656E+01  0.56374590876E+01  0.46487441238E+01  0.11126004636E+02  0.00000000000E+00 0.  1.
</event>
<event>
 8    1  0.3011071E-007  0.9118800E+02  0.7816164E-02  0.1184000E+00
        -11   -1    0    0    0    0  0.00000000000E+00  0.00000000000E+00  0.45593999997E+02  0.45594000000E+02  0.51100000000E-03 0. -1.
         11   -1    0    0    0    0 -0.00000000000E+00 -0.00000000000E+00 -0.45593999997E+02  0.45594000000E+02  0.51100000000E-03 0.  1.
         23    2    1    2    0    0  0.00000000000E+00  0.35527136788E-14  0.00000000000E+00  0.91188000000E+02  0.91188000000E+02 0.  0.
    9900012    2    3    3    0    0  0.17358914835E+02 -0.21609354785E+02 -0.24238045080E+02  0.54367096049E+02  0.40000027063E+02 0.  0.
         12    1    3    3    0    0 -0.17358914835E+02  0.21609354785E+02  0.24238045080E+02  0.36820903951E+02  0.00000000000E+00 0. -1.
         11    1    4    4    0    0 -0.68488707050E+01 -0.18536160928E+02 -0.20179651910E+02  0.28243842574E+02  0.51100000000E-03 0. -1.
        -11    1    4    4    0    0  0.18943970223E+02  0.97421961802E+00 -0.15757844617E+01  0.19034342873E+02  0.51100000000E-03 0.  1.
         12    1    4    4    0    0  0.52638153168E+01 -0.40474134745E+01 -0.24826087088E+01  0.70889106021E+01  0.00000000000E+00 0. -1.
</event>
<event>
 8    1  0.3011071E-007  0.9118800E+02  0.7816164E-02  0.1184000E+00
        -11   -1    0    0    0    0  0.00000000000E+00  0.00000000000E+00  0.45593999997E+02  0.45594000000E+02  0.51100000000E-03 0.  1.
         11   -1    0    0    0    0 -0.00000000000E+00 -0.00000000000E+00 -0.45593999997E+02  0.45594000000E+02  0.51100000000E-03 0. -1.
         23    2    1    2    0    0  0.00000000000E+00  0.22204460493E-15  0.00000000000E+00  0.91188000000E+02  0.91188000000E+02 0.  0.
    9900012    2    3    3    0    0 -0.28706199993E+02 -0.15191127317E+01 -0.23009259175E+02  0.54367087066E+02  0.40000006585E+02 0.  0.
        -12    1    3    3    0    0  0.28706199993E+02  0.15191127317E+01  0.23009259175E+02  0.36820912934E+02  0.00000000000E+00 0.  1.
         11    1    4    4    0    0 -0.11856186144E+02 -0.43157815955E+01 -0.10169162784E+02  0.16205153275E+02  0.51100000000E-03 0. -1.
        -11    1    4    4    0    0 -0.10874094084E+02  0.12239776852E+02 -0.19256372583E+02  0.25275797610E+02  0.51100000000E-03 0.  1.
        -12    1    4    4    0    0 -0.59759197647E+01 -0.94431079883E+01  0.64162761920E+01  0.12886136181E+02  0.00000000000E+00 0.  1.
</event>
<event>
 8    1  0.3011071E-007  0.9118800E+02  0.7816164E-02  0.1184000E+00
        -11   -1    0    0    0    0  0.00000000000E+00  0.00000000000E+00  0.45593999997E+02  0.45594000000E+02  0.51100000000E-03 0.  1.
         11   -1    0    0    0    0 -0.00000000000E+00 -0.00000000000E+00 -0.45593999997E+02  0.45594000000E+02  0.51100000000E-03 0. -1.
         23    2    1    2    0    0  0.00000000000E+00  0.00000000000E+00  0.33306690739E-15  0.91188000000E+02  0.91188000000E+02 0.  0.
    9900012    2    3    3    0    0 -0.27129303474E+02  0.24889245744E+02 -0.55425828493E+00  0.54367070315E+02  0.39999968396E+02 0.  0.
         12    1    3    3    0    0  0.27129303474E+02 -0.24889245744E+02  0.55425828493E+00  0.36820929685E+02  0.00000000000E+00 0. -1.
         11    1    4    4    0    0 -0.15073018612E+02  0.29479079205E+01 -0.13723269530E+02  0.20596460327E+02  0.51100000000E-03 0. -1.
        -11    1    4    4    0    0 -0.11010750307E+02  0.55205245437E+01  0.12124521765E+02  0.17283426797E+02  0.51100000000E-03 0.  1.
        -12    1    4    4    0    0 -0.10455345551E+01  0.16420813279E+02  0.10444894792E+01  0.16487183190E+02  0.00000000000E+00 0.  1.
</event>
<event>
 8    1  0.3011071E-007  0.9118800E+02  0.7816164E-02  0.1184000E+00
        -11   -1    0    0    0    0  0.00000000000E+00  0.00000000000E+00  0.45593999997E+02  0.45594000000E+02  0.51100000000E-03 0.  1.
         11   -1    0    0    0    0 -0.00000000000E+00 -0.00000000000E+00 -0.45593999997E+02  0.45594000000E+02  0.51100000000E-03 0. -1.
         23    2    1    2    0    0 -0.78409501114E-15  0.00000000000E+00  0.35527136788E-14  0.91188000000E+02  0.91188000000E+02 0.  0.
    9900012    2    3    3    0    0  0.56483455164E-01 -0.24546169567E+02 -0.27445614955E+02  0.54367090030E+02  0.40000013340E+02 0.  0.
        -12    1    3    3    0    0 -0.56483455164E-01  0.24546169567E+02  0.27445614955E+02  0.36820909970E+02  0.00000000000E+00 0.  1.
         11    1    4    4    0    0  0.21095592243E+01 -0.27703108665E+02 -0.15756555494E+02  0.31940280386E+02  0.51100000000E-03 0. -1.
        -11    1    4    4    0    0  0.56665368727E+01  0.81572186112E+01 -0.64283771980E+01  0.11831056135E+02  0.51100000000E-03 0.  1.
        -12    1    4    4    0    0 -0.77196126418E+01 -0.50002795128E+01 -0.52606822632E+01  0.10595753509E+02  0.00000000000E+00 0.  1.
</event>
<event>
 8    1  0.3011071E-007  0.9118800E+02  0.7816164E-02  0.1184000E+00
        -11   -1    0    0    0    0  0.00000000000E+00  0.00000000000E+00  0.45593999997E+02  0.45594000000E+02  0.51100000000E-03 0.  1.
         11   -1    0    0    0    0 -0.00000000000E+00 -0.00000000000E+00 -0.45593999997E+02  0.45594000000E+02  0.51100000000E-03 0. -1.
         23    2    1    2    0    0 -0.35527136788E-14  0.35527136788E-14  0.35527136788E-14  0.91188000000E+02  0.91188000000E+02 0.  0.
    9900012    2    3    3    0    0  0.29630991662E+02  0.10242118777E+02  0.19310149859E+02  0.54367101702E+02  0.40000039950E+02 0.  0.
         12    1    3    3    0    0 -0.29630991662E+02 -0.10242118777E+02 -0.19310149859E+02  0.36820898298E+02  0.00000000000E+00 0. -1.
         11    1    4    4    0    0  0.19209343818E+02  0.53501269703E+01  0.12068062398E+02  0.23307957414E+02  0.51100000000E-03 0. -1.
        -11    1    4    4    0    0  0.18829866977E+02  0.61027591716E+01  0.99351126757E+01  0.22147551197E+02  0.51100000000E-03 0.  1.
        -12    1    4    4    0    0 -0.84082191331E+01 -0.12107673649E+01 -0.26930252151E+01  0.89115930906E+01  0.00000000000E+00 0.  1.
</event>
<event>
 8    1  0.3011071E-007  0.9118800E+02  0.7816164E-02  0.1184000E+00
        -11   -1    0    0    0    0  0.00000000000E+00  0.00000000000E+00  0.45593999997E+02  0.45594000000E+02  0.51100000000E-03 0. -1.
         11   -1    0    0    0    0 -0.00000000000E+00 -0.00000000000E+00 -0.45593999997E+02  0.45594000000E+02  0.51100000000E-03 0.  1.
         23    2    1    2    0    0  0.71054273576E-14  0.22204460493E-15  0.00000000000E+00  0.91188000000E+02  0.91188000000E+02 0.  0.
    9900012    2    3    3    0    0  0.35646879400E+02 -0.12625880687E+01  0.91370587272E+01  0.54367082279E+02  0.39999995673E+02 0.  0.
         12    1    3    3    0    0 -0.35646879400E+02  0.12625880687E+01 -0.91370587272E+01  0.36820917721E+02  0.00000000000E+00 0. -1.
         11    1    4    4    0    0  0.15779917014E+02 -0.87557915015E+00 -0.12728410738E+02  0.20292482845E+02  0.51100000000E-03 0.  1.
        -11    1    4    4    0    0  0.17758887165E+02  0.17953474780E+01  0.24323202295E+02  0.30169844482E+02  0.51100000000E-03 0. -1.
         12    1    4    4    0    0  0.21080752211E+01 -0.21823563966E+01 -0.24577328299E+01  0.39047549530E+01  0.00000000000E+00 0. -1.
</event>
<event>
 8    1  0.3011071E-007  0.9118800E+02  0.7816164E-02  0.1184000E+00
        -11   -1    0    0    0    0  0.00000000000E+00  0.00000000000E+00  0.45593999997E+02  0.45594000000E+02  0.51100000000E-03 0. -1.
         11   -1    0    0    0    0 -0.00000000000E+00 -0.00000000000E+00 -0.45593999997E+02  0.45594000000E+02  0.51100000000E-03 0.  1.
         23    2    1    2    0    0 -0.44408920985E-15  0.00000000000E+00  0.00000000000E+00  0.91188000000E+02  0.91188000000E+02 0.  0.
    9900012    2    3    3    0    0  0.32761449199E+01 -0.36914644451E+01 -0.36488631919E+02  0.54367078032E+02  0.39999985989E+02 0.  0.
         12    1    3    3    0    0 -0.32761449199E+01  0.36914644451E+01  0.36488631919E+02  0.36820921968E+02  0.00000000000E+00 0. -1.
         11    1    4    4    0    0 -0.10497197033E-01  0.24167519253E+00 -0.85646234869E+01  0.85680390303E+01  0.51100000000E-03 0.  1.
        -11    1    4    4    0    0 -0.66938809504E+01  0.29555734759E+01  0.61958571554E+01  0.95881230124E+01  0.51100000000E-03 0. -1.
         12    1    4    4    0    0  0.99805230674E+01 -0.68887131135E+01 -0.34119865587E+02  0.36210915989E+02  0.00000000000E+00 0. -1.
</event>
<event>
 8    1  0.3011071E-007  0.9118800E+02  0.7816164E-02  0.1184000E+00
        -11   -1    0    0    0    0  0.00000000000E+00  0.00000000000E+00  0.45593999997E+02  0.45594000000E+02  0.51100000000E-03 0.  1.
         11   -1    0    0    0    0 -0.00000000000E+00 -0.00000000000E+00 -0.45593999997E+02  0.45594000000E+02  0.51100000000E-03 0. -1.
         23    2    1    2    0    0  0.00000000000E+00  0.00000000000E+00  0.00000000000E+00  0.91188000000E+02  0.91188000000E+02 0.  0.
    9900012    2    3    3    0    0  0.24320988977E+02 -0.23640957243E+02 -0.14330882733E+02  0.54367087951E+02  0.40000008602E+02 0.  0.
        -12    1    3    3    0    0 -0.24320988977E+02  0.23640957243E+02  0.14330882733E+02  0.36820912049E+02  0.00000000000E+00 0.  1.
         11    1    4    4    0    0 -0.57764100487E+01 -0.74584644048E+01 -0.11927334362E+01  0.95088494382E+01  0.51100000000E-03 0. -1.
        -11    1    4    4    0    0  0.46264259599E+01 -0.35130484458E+01  0.76634533617E+01  0.96163321611E+01  0.51100000000E-03 0.  1.
         12    1    4    4    0    0  0.25470973066E+02 -0.12669444393E+02 -0.20801602659E+02  0.35241906352E+02  0.00000000000E+00 0. -1.
</event>
<event>
 8    1  0.3011071E-007  0.9118800E+02  0.7816164E-02  0.1184000E+00
        -11   -1    0    0    0    0  0.00000000000E+00  0.00000000000E+00  0.45593999997E+02  0.45594000000E+02  0.51100000000E-03 0.  1.
         11   -1    0    0    0    0 -0.00000000000E+00 -0.00000000000E+00 -0.45593999997E+02  0.45594000000E+02  0.51100000000E-03 0. -1.
         23    2    1    2    0    0  0.00000000000E+00 -0.88817841970E-15  0.00000000000E+00  0.91188000000E+02  0.91188000000E+02 0.  0.
    9900012    2    3    3    0    0 -0.40874916552E+01 -0.52045152388E+01  0.36221333749E+02  0.54367087662E+02  0.40000007942E+02 0.  0.
         12    1    3    3    0    0  0.40874916552E+01  0.52045152388E+01 -0.36221333749E+02  0.36820912338E+02  0.00000000000E+00 0. -1.
         11    1    4    4    0    0  0.72390587535E+01  0.55010043329E+01  0.64355168469E+01  0.11139160545E+02  0.51100000000E-03 0. -1.
        -11    1    4    4    0    0 -0.38400156111E+01 -0.13302536160E+01  0.30911575068E+02  0.31177568347E+02  0.51100000000E-03 0.  1.
        -12    1    4    4    0    0 -0.74865347976E+01 -0.93752659557E+01 -0.11257581667E+01  0.12050358769E+02  0.00000000000E+00 0.  1.
</event>
<event>
 8    1  0.3011071E-007  0.9118800E+02  0.7816164E-02  0.1184000E+00
        -11   -1    0    0    0    0  0.00000000000E+00  0.00000000000E+00  0.45593999997E+02  0.45594000000E+02  0.51100000000E-03 0.  1.
         11   -1    0    0    0    0 -0.00000000000E+00 -0.00000000000E+00 -0.45593999997E+02  0.45594000000E+02  0.51100000000E-03 0. -1.
         23    2    1    2    0    0  0.35527136788E-14  0.00000000000E+00  0.00000000000E+00  0.91188000000E+02  0.91188000000E+02 0.  0.
    9900012    2    3    3    0    0 -0.19351660970E+02 -0.25858649427E+02  0.17681181521E+02  0.54367072358E+02  0.39999973053E+02 0.  0.
         12    1    3    3    0    0  0.19351660970E+02  0.25858649427E+02 -0.17681181521E+02  0.36820927642E+02  0.00000000000E+00 0. -1.
         11    1    4    4    0    0  0.60400230110E+01  0.14536101912E+01  0.62843682222E+01  0.88367496725E+01  0.51100000000E-03 0. -1.
        -11    1    4    4    0    0 -0.17953013830E+02 -0.27254120527E+02  0.87894495060E+00  0.32647669684E+02  0.51100000000E-03 0.  1.
         12    1    4    4    0    0 -0.74386701508E+01 -0.58139091016E-01  0.10517868348E+02  0.12882653001E+02  0.00000000000E+00 0. -1.
</event>
<event>
 8    1  0.3011071E-007  0.9118800E+02  0.7816164E-02  0.1184000E+00
        -11   -1    0    0    0    0  0.00000000000E+00  0.00000000000E+00  0.45593999997E+02  0.45594000000E+02  0.51100000000E-03 0.  1.
         11   -1    0    0    0    0 -0.00000000000E+00 -0.00000000000E+00 -0.45593999997E+02  0.45594000000E+02  0.51100000000E-03 0. -1.
         23    2    1    2    0    0 -0.22204460493E-15 -0.17763568394E-14  0.71054273576E-14  0.91188000000E+02  0.91188000000E+02 0.  0.
    9900012    2    3    3    0    0  0.14009416293E+01  0.12171748501E+02 -0.34722700836E+02  0.54367081321E+02  0.39999993488E+02 0.  0.
        -12    1    3    3    0    0 -0.14009416293E+01 -0.12171748501E+02  0.34722700836E+02  0.36820918679E+02  0.00000000000E+00 0.  1.
         11    1    4    4    0    0  0.18207485454E+01  0.28083137414E+01 -0.39899341202E+02  0.40039470276E+02  0.51100000000E-03 0. -1.
        -11    1    4    4    0    0 -0.31769088385E+01  0.91622475650E+01  0.60483446192E+01  0.11428998342E+02  0.51100000000E-03 0.  1.
        -12    1    4    4    0    0  0.27571019224E+01  0.20118719445E+00 -0.87170425281E+00  0.28986127031E+01  0.00000000000E+00 0.  1.
</event>
<event>
 8    1  0.3011071E-007  0.9118800E+02  0.7816164E-02  0.1184000E+00
        -11   -1    0    0    0    0  0.00000000000E+00  0.00000000000E+00  0.45593999997E+02  0.45594000000E+02  0.51100000000E-03 0. -1.
         11   -1    0    0    0    0 -0.00000000000E+00 -0.00000000000E+00 -0.45593999997E+02  0.45594000000E+02  0.51100000000E-03 0.  1.
         23    2    1    2    0    0  0.00000000000E+00 -0.35527136788E-14 -0.11102230246E-14  0.91188000000E+02  0.91188000000E+02 0.  0.
    9900012    2    3    3    0    0  0.19088052116E+02 -0.31447448667E+02 -0.15762131506E+01  0.54367079192E+02  0.39999988634E+02 0.  0.
        -12    1    3    3    0    0 -0.19088052116E+02  0.31447448667E+02  0.15762131506E+01  0.36820920808E+02  0.00000000000E+00 0.  1.
         11    1    4    4    0    0  0.58468314850E+00 -0.40227227337E+01 -0.79516530182E+00  0.41420334010E+01  0.51100000000E-03 0. -1.
        -11    1    4    4    0    0  0.16644400173E+02 -0.12225176390E+00  0.11498746246E+02  0.20230476220E+02  0.51100000000E-03 0.  1.
         12    1    4    4    0    0  0.18589687951E+01 -0.27302474169E+02 -0.12279794095E+02  0.29994569571E+02  0.00000000000E+00 0. -1.
</event>
<event>
 8    1  0.3011071E-007  0.9118800E+02  0.7816164E-02  0.1184000E+00
        -11   -1    0    0    0    0  0.00000000000E+00  0.00000000000E+00  0.45593999997E+02  0.45594000000E+02  0.51100000000E-03 0.  1.
         11   -1    0    0    0    0 -0.00000000000E+00 -0.00000000000E+00 -0.45593999997E+02  0.45594000000E+02  0.51100000000E-03 0. -1.
         23    2    1    2    0    0  0.35527136788E-14  0.00000000000E+00  0.00000000000E+00  0.91188000000E+02  0.91188000000E+02 0.  0.
    9900012    2    3    3    0    0 -0.23902300229E+02  0.14199006461E+02  0.24142320768E+02  0.54367035961E+02  0.39999890080E+02 0.  0.
         12    1    3    3    0    0  0.23902300229E+02 -0.14199006461E+02 -0.24142320768E+02  0.36820964039E+02  0.00000000000E+00 0. -1.
         11    1    4    4    0    0  0.10280006597E+02 -0.48220921490E+00  0.42143500331E+01  0.11120782699E+02  0.51100000000E-03 0. -1.
        -11    1    4    4    0    0 -0.21653211023E+02  0.12811701439E+02  0.96992493026E+01  0.26964359415E+02  0.51100000000E-03 0.  1.
         12    1    4    4    0    0 -0.12529095803E+02  0.18695142369E+01  0.10228721432E+02  0.16281893848E+02  0.00000000000E+00 0. -1.
</event>
<event>
 8    1  0.3011071E-007  0.9118800E+02  0.7816164E-02  0.1184000E+00
        -11   -1    0    0    0    0  0.00000000000E+00  0.00000000000E+00  0.45593999997E+02  0.45594000000E+02  0.51100000000E-03 0.  1.
         11   -1    0    0    0    0 -0.00000000000E+00 -0.00000000000E+00 -0.45593999997E+02  0.45594000000E+02  0.51100000000E-03 0. -1.
         23    2    1    2    0    0 -0.88817841970E-15  0.00000000000E+00  0.00000000000E+00  0.91188000000E+02  0.91188000000E+02 0.  0.
    9900012    2    3    3    0    0 -0.78735348849E+01 -0.22707594606E+02  0.27895388537E+02  0.54367080593E+02  0.39999991827E+02 0.  0.
         12    1    3    3    0    0  0.78735348849E+01  0.22707594606E+02 -0.27895388537E+02  0.36820919407E+02  0.00000000000E+00 0. -1.
         11    1    4    4    0    0 -0.37941346639E+01 -0.27011012764E+02  0.52750805853E+01  0.27781590016E+02  0.51100000000E-03 0. -1.
        -11    1    4    4    0    0 -0.62809489486E+01 -0.20568516187E+01  0.72739497355E+01  0.98280874686E+01  0.51100000000E-03 0.  1.
         12    1    4    4    0    0  0.22015487276E+01  0.63602697764E+01  0.15346358216E+02  0.16757403108E+02  0.00000000000E+00 0. -1.
</event>
<event>
 8    1  0.3011071E-007  0.9118800E+02  0.7816164E-02  0.1184000E+00
        -11   -1    0    0    0    0  0.00000000000E+00  0.00000000000E+00  0.45593999997E+02  0.45594000000E+02  0.51100000000E-03 0.  1.
         11   -1    0    0    0    0 -0.00000000000E+00 -0.00000000000E+00 -0.45593999997E+02  0.45594000000E+02  0.51100000000E-03 0. -1.
         23    2    1    2    0    0 -0.35527136788E-14 -0.17763568394E-14  0.00000000000E+00  0.91188000000E+02  0.91188000000E+02 0.  0.
    9900012    2    3    3    0    0 -0.30085446076E+02 -0.10910745776E+02 -0.18209932211E+02  0.54367081080E+02  0.39999992938E+02 0.  0.
         12    1    3    3    0    0  0.30085446076E+02  0.10910745776E+02  0.18209932211E+02  0.36820918920E+02  0.00000000000E+00 0. -1.
         11    1    4    4    0    0 -0.47385848161E+01  0.22484488748E+01 -0.83460910397E+01  0.98573294713E+01  0.51100000000E-03 0.  1.
        -11    1    4    4    0    0 -0.92825869109E+01  0.88951590191E+01 -0.11398587279E+02  0.17181911010E+02  0.51100000000E-03 0. -1.
        -12    1    4    4    0    0 -0.16064274349E+02 -0.22054353670E+02  0.15347461080E+01  0.27327840599E+02  0.00000000000E+00 0.  1.
</event>
<event>
 8    1  0.3011071E-007  0.9118800E+02  0.7816164E-02  0.1184000E+00
        -11   -1    0    0    0    0  0.00000000000E+00  0.00000000000E+00  0.45593999997E+02  0.45594000000E+02  0.51100000000E-03 0.  1.
         11   -1    0    0    0    0 -0.00000000000E+00 -0.00000000000E+00 -0.45593999997E+02  0.45594000000E+02  0.51100000000E-03 0. -1.
         23    2    1    2    0    0 -0.17763568394E-14  0.00000000000E+00  0.17763568394E-14  0.91188000000E+02  0.91188000000E+02 0.  0.
    9900012    2    3    3    0    0  0.81039361212E+01 -0.34229403058E+02 -0.10883655846E+02  0.54367085034E+02  0.40000001952E+02 0.  0.
         12    1    3    3    0    0 -0.81039361212E+01  0.34229403058E+02  0.10883655846E+02  0.36820914966E+02  0.00000000000E+00 0. -1.
         11    1    4    4    0    0  0.13495897633E+01 -0.35764478519E+02  0.48544134722E+01  0.36117650071E+02  0.51100000000E-03 0.  1.
        -11    1    4    4    0    0  0.39454814001E+01  0.19941265783E+01 -0.33718608285E+01  0.55599289561E+01  0.51100000000E-03 0. -1.
        -12    1    4    4    0    0  0.28088649578E+01 -0.45905111772E+00 -0.12366208490E+02  0.12689506007E+02  0.00000000000E+00 0.  1.
</event>
<event>
 8    1  0.3011071E-007  0.9118800E+02  0.7816164E-02  0.1184000E+00
        -11   -1    0    0    0    0  0.00000000000E+00  0.00000000000E+00  0.45593999997E+02  0.45594000000E+02  0.51100000000E-03 0.  1.
         11   -1    0    0    0    0 -0.00000000000E+00 -0.00000000000E+00 -0.45593999997E+02  0.45594000000E+02  0.51100000000E-03 0. -1.
         23    2    1    2    0    0  0.44408920985E-15  0.13322676296E-14  0.00000000000E+00  0.91188000000E+02  0.91188000000E+02 0.  0.
    9900012    2    3    3    0    0 -0.25334258983E+01  0.33865925570E+01 -0.36577212081E+02  0.54367086112E+02  0.40000004410E+02 0.  0.
        -12    1    3    3    0    0  0.25334258983E+01 -0.33865925570E+01  0.36577212081E+02  0.36820913888E+02  0.00000000000E+00 0.  1.
         11    1    4    4    0    0 -0.57118099080E+01  0.89697671906E+01 -0.39957309461E+01  0.11359901493E+02  0.51100000000E-03 0. -1.
        -11    1    4    4    0    0  0.14378330813E+02  0.11434085851E+01 -0.21421608721E+02  0.25824970486E+02  0.51100000000E-03 0.  1.
         12    1    4    4    0    0 -0.11199946804E+02 -0.67265832187E+01 -0.11159872414E+02  0.17182214133E+02  0.00000000000E+00 0. -1.
</event>
<event>
 8    1  0.3011071E-007  0.9118800E+02  0.7816164E-02  0.1184000E+00
        -11   -1    0    0    0    0  0.00000000000E+00  0.00000000000E+00  0.45593999997E+02  0.45594000000E+02  0.51100000000E-03 0.  1.
         11   -1    0    0    0    0 -0.00000000000E+00 -0.00000000000E+00 -0.45593999997E+02  0.45594000000E+02  0.51100000000E-03 0. -1.
         23    2    1    2    0    0  0.00000000000E+00  0.00000000000E+00  0.00000000000E+00  0.91188000000E+02  0.91188000000E+02 0.  0.
    9900012    2    3    3    0    0 -0.21034274684E+02  0.11770248601E+02  0.27835250056E+02  0.54367073758E+02  0.39999976247E+02 0.  0.
         12    1    3    3    0    0  0.21034274684E+02 -0.11770248601E+02 -0.27835250056E+02  0.36820926242E+02  0.00000000000E+00 0. -1.
         11    1    4    4    0    0 -0.12226898737E+02  0.66697334469E+01  0.13091644191E+02  0.19114746791E+02  0.51100000000E-03 0. -1.
        -11    1    4    4    0    0 -0.12781215000E+02  0.15685953317E+02  0.12317617125E+02  0.23688230838E+02  0.51100000000E-03 0.  1.
         12    1    4    4    0    0  0.39738390529E+01 -0.10585438163E+02  0.24259887400E+01  0.11564096130E+02  0.00000000000E+00 0. -1.
</event>
<event>
 8    1  0.3011071E-007  0.9118800E+02  0.7816164E-02  0.1184000E+00
        -11   -1    0    0    0    0  0.00000000000E+00  0.00000000000E+00  0.45593999997E+02  0.45594000000E+02  0.51100000000E-03 0. -1.
         11   -1    0    0    0    0 -0.00000000000E+00 -0.00000000000E+00 -0.45593999997E+02  0.45594000000E+02  0.51100000000E-03 0.  1.
         23    2    1    2    0    0 -0.44408920985E-15 -0.88817841970E-15  0.00000000000E+00  0.91188000000E+02  0.91188000000E+02 0.  0.
    9900012    2    3    3    0    0  0.14177686148E+01  0.48738270519E+01 -0.36469383742E+02  0.54367079201E+02  0.39999988653E+02 0.  0.
         12    1    3    3    0    0 -0.14177686148E+01 -0.48738270519E+01  0.36469383742E+02  0.36820920799E+02  0.00000000000E+00 0. -1.
         11    1    4    4    0    0 -0.13716672846E+02  0.48256361760E+00 -0.25750633899E+02  0.29180046746E+02  0.51100000000E-03 0. -1.
        -11    1    4    4    0    0  0.12077062734E+02  0.10054937679E+02 -0.47702295225E+01  0.16422920142E+02  0.51100000000E-03 0.  1.
        -12    1    4    4    0    0  0.30573787268E+01 -0.56636742448E+01 -0.59485203210E+01  0.87641123133E+01  0.00000000000E+00 0.  1.
</event>
<event>
 8    1  0.3011071E-007  0.9118800E+02  0.7816164E-02  0.1184000E+00
        -11   -1    0    0    0    0  0.00000000000E+00  0.00000000000E+00  0.45593999997E+02  0.45594000000E+02  0.51100000000E-03 0.  1.
         11   -1    0    0    0    0 -0.00000000000E+00 -0.00000000000E+00 -0.45593999997E+02  0.45594000000E+02  0.51100000000E-03 0. -1.
         23    2    1    2    0    0 -0.17763568394E-14  0.71054273576E-14  0.00000000000E+00  0.91188000000E+02  0.91188000000E+02 0.  0.
    9900012    2    3    3    0    0  0.14166284835E+02 -0.29462371689E+02 -0.16942988081E+02  0.54367084522E+02  0.40000000784E+02 0.  0.
         12    1    3    3    0    0 -0.14166284835E+02  0.29462371689E+02  0.16942988081E+02  0.36820915478E+02  0.00000000000E+00 0. -1.
         11    1    4    4    0    0  0.59707981725E+00 -0.54442218042E+01 -0.94244439179E+01  0.10900284344E+02  0.51100000000E-03 0. -1.
        -11    1    4    4    0    0  0.13028972252E+02 -0.31688069165E+02 -0.94453053724E+01  0.35540141237E+02  0.51100000000E-03 0.  1.
         12    1    4    4    0    0  0.54023276562E+00  0.76699192796E+01  0.19267612095E+01  0.79266589402E+01  0.00000000000E+00 0. -1.
</event>
<event>
 8    1  0.3011071E-007  0.9118800E+02  0.7816164E-02  0.1184000E+00
        -11   -1    0    0    0    0  0.00000000000E+00  0.00000000000E+00  0.45593999997E+02  0.45594000000E+02  0.51100000000E-03 0. -1.
         11   -1    0    0    0    0 -0.00000000000E+00 -0.00000000000E+00 -0.45593999997E+02  0.45594000000E+02  0.51100000000E-03 0.  1.
         23    2    1    2    0    0 -0.27755575616E-16  0.35527136788E-14  0.00000000000E+00  0.91188000000E+02  0.91188000000E+02 0.  0.
    9900012    2    3    3    0    0  0.92227193872E-01 -0.24884121687E+02 -0.27139471030E+02  0.54367096891E+02  0.40000028982E+02 0.  0.
         12    1    3    3    0    0 -0.92227193872E-01  0.24884121687E+02  0.27139471030E+02  0.36820903109E+02  0.00000000000E+00 0. -1.
         11    1    4    4    0    0  0.11760876214E+02 -0.46098443408E+01  0.47047225673E+01  0.13479736231E+02  0.51100000000E-03 0. -1.
        -11    1    4    4    0    0  0.11739941247E+01 -0.56165637712E-01 -0.39474354388E+01  0.41186968314E+01  0.51100000000E-03 0.  1.
         12    1    4    4    0    0 -0.12842643145E+02 -0.20218111709E+02 -0.27896758158E+02  0.36768663829E+02  0.00000000000E+00 0. -1.
</event>
<event>
 8    1  0.3011071E-007  0.9118800E+02  0.7816164E-02  0.1184000E+00
        -11   -1    0    0    0    0  0.00000000000E+00  0.00000000000E+00  0.45593999997E+02  0.45594000000E+02  0.51100000000E-03 0.  1.
         11   -1    0    0    0    0 -0.00000000000E+00 -0.00000000000E+00 -0.45593999997E+02  0.45594000000E+02  0.51100000000E-03 0. -1.
         23    2    1    2    0    0  0.00000000000E+00  0.00000000000E+00  0.35527136788E-14  0.91188000000E+02  0.91188000000E+02 0.  0.
    9900012    2    3    3    0    0  0.20757061712E+02 -0.22492022186E+02 -0.20470289661E+02  0.54367089749E+02  0.40000012700E+02 0.  0.
        -12    1    3    3    0    0 -0.20757061712E+02  0.22492022186E+02  0.20470289661E+02  0.36820910251E+02  0.00000000000E+00 0.  1.
         11    1    4    4    0    0  0.10983392376E+01  0.10300741468E+02  0.82772345845E+00  0.10392148490E+02  0.51100000000E-03 0. -1.
        -11    1    4    4    0    0  0.10466906543E+02 -0.15892254590E+02 -0.12860277171E+02  0.22967512223E+02  0.51100000000E-03 0.  1.
        -12    1    4    4    0    0  0.91918159306E+01 -0.16900509064E+02 -0.84377359485E+01  0.21007429035E+02  0.00000000000E+00 0.  1.
</event>
<event>
 8    1  0.3011071E-007  0.9118800E+02  0.7816164E-02  0.1184000E+00
        -11   -1    0    0    0    0  0.00000000000E+00  0.00000000000E+00  0.45593999997E+02  0.45594000000E+02  0.51100000000E-03 0.  1.
         11   -1    0    0    0    0 -0.00000000000E+00 -0.00000000000E+00 -0.45593999997E+02  0.45594000000E+02  0.51100000000E-03 0. -1.
         23    2    1    2    0    0  0.00000000000E+00  0.00000000000E+00 -0.35527136788E-14  0.91188000000E+02  0.91188000000E+02 0.  0.
    9900012    2    3    3    0    0 -0.53773979426E+01  0.19171169435E+02 -0.30973055858E+02  0.54367077479E+02  0.39999984729E+02 0.  0.
        -12    1    3    3    0    0  0.53773979426E+01 -0.19171169435E+02  0.30973055858E+02  0.36820922521E+02  0.00000000000E+00 0.  1.
         11    1    4    4    0    0  0.53915381399E+01  0.42072883359E+01  0.53290945794E+01  0.86700177596E+01  0.51100000000E-03 0. -1.
        -11    1    4    4    0    0  0.18669198059E+00  0.16070320995E+02 -0.26296641098E+02  0.30818880643E+02  0.51100000000E-03 0.  1.
        -12    1    4    4    0    0 -0.10955628063E+02 -0.11064398964E+01 -0.10005509339E+02  0.14878179077E+02  0.00000000000E+00 0.  1.
</event>
<event>
 8    1  0.3011071E-007  0.9118800E+02  0.7816164E-02  0.1184000E+00
        -11   -1    0    0    0    0  0.00000000000E+00  0.00000000000E+00  0.45593999997E+02  0.45594000000E+02  0.51100000000E-03 0. -1.
         11   -1    0    0    0    0 -0.00000000000E+00 -0.00000000000E+00 -0.45593999997E+02  0.45594000000E+02  0.51100000000E-03 0.  1.
         23    2    1    2    0    0  0.00000000000E+00  0.00000000000E+00  0.00000000000E+00  0.91188000000E+02  0.91188000000E+02 0.  0.
    9900012    2    3    3    0    0 -0.85947380262E+01  0.28619092570E+02 -0.21514120763E+02  0.54367090540E+02  0.40000014504E+02 0.  0.
         12    1    3    3    0    0  0.85947380262E+01 -0.28619092570E+02  0.21514120763E+02  0.36820909460E+02  0.00000000000E+00 0. -1.
         11    1    4    4    0    0 -0.40418201490E+01  0.34701671451E+01 -0.91667540377E+01  0.10602252118E+02  0.51100000000E-03 0.  1.
        -11    1    4    4    0    0 -0.93441289154E+01  0.30918065180E+02 -0.15256440894E+02  0.35721121044E+02  0.51100000000E-03 0. -1.
         12    1    4    4    0    0  0.47912110382E+01 -0.57691397553E+01  0.29090741690E+01  0.80437173775E+01  0.00000000000E+00 0. -1.
</event>
<event>
 8    1  0.3011071E-007  0.9118800E+02  0.7816164E-02  0.1184000E+00
        -11   -1    0    0    0    0  0.00000000000E+00  0.00000000000E+00  0.45593999997E+02  0.45594000000E+02  0.51100000000E-03 0.  1.
         11   -1    0    0    0    0 -0.00000000000E+00 -0.00000000000E+00 -0.45593999997E+02  0.45594000000E+02  0.51100000000E-03 0. -1.
         23    2    1    2    0    0  0.35527136788E-14  0.00000000000E+00  0.00000000000E+00  0.91188000000E+02  0.91188000000E+02 0.  0.
    9900012    2    3    3    0    0 -0.25091362168E+02  0.23603396944E+02  0.13003204170E+02  0.54367080383E+02  0.39999991350E+02 0.  0.
         12    1    3    3    0    0  0.25091362168E+02 -0.23603396944E+02 -0.13003204170E+02  0.36820919617E+02  0.00000000000E+00 0. -1.
         11    1    4    4    0    0  0.50685088080E+01  0.21293468607E+02  0.23476458501E+01  0.22013928050E+02  0.51100000000E-03 0. -1.
        -11    1    4    4    0    0 -0.24080848567E+02  0.17870383045E+01  0.10267582862E+02  0.26239360352E+02  0.51100000000E-03 0.  1.
         12    1    4    4    0    0 -0.60790224094E+01  0.52289003159E+00  0.38797545790E+00  0.61137919817E+01  0.00000000000E+00 0. -1.
</event>
<event>
 8    1  0.3011071E-007  0.9118800E+02  0.7816164E-02  0.1184000E+00
        -11   -1    0    0    0    0  0.00000000000E+00  0.00000000000E+00  0.45593999997E+02  0.45594000000E+02  0.51100000000E-03 0.  1.
         11   -1    0    0    0    0 -0.00000000000E+00 -0.00000000000E+00 -0.45593999997E+02  0.45594000000E+02  0.51100000000E-03 0. -1.
         23    2    1    2    0    0 -0.35527136788E-14  0.35527136788E-14 -0.88817841970E-15  0.91188000000E+02  0.91188000000E+02 0.  0.
    9900012    2    3    3    0    0 -0.22465220516E+02  0.28159434093E+02 -0.76249308297E+01  0.54367089753E+02  0.40000012709E+02 0.  0.
         12    1    3    3    0    0  0.22465220516E+02 -0.28159434093E+02  0.76249308297E+01  0.36820910247E+02  0.00000000000E+00 0. -1.
         11    1    4    4    0    0 -0.68943587127E+01  0.18233673868E+02 -0.16934003092E+02  0.25821686734E+02  0.51100000000E-03 0. -1.
        -11    1    4    4    0    0 -0.76405671566E+01 -0.50846837131E+01  0.67144615942E+01  0.11371731165E+02  0.51100000000E-03 0.  1.
         12    1    4    4    0    0 -0.79302946463E+01  0.15010443939E+02  0.25946106685E+01  0.17173671854E+02  0.00000000000E+00 0. -1.
</event>
<event>
 8    1  0.3011071E-007  0.9118800E+02  0.7816164E-02  0.1184000E+00
        -11   -1    0    0    0    0  0.00000000000E+00  0.00000000000E+00  0.45593999997E+02  0.45594000000E+02  0.51100000000E-03 0. -1.
         11   -1    0    0    0    0 -0.00000000000E+00 -0.00000000000E+00 -0.45593999997E+02  0.45594000000E+02  0.51100000000E-03 0.  1.
         23    2    1    2    0    0  0.66613381478E-15  0.00000000000E+00  0.00000000000E+00  0.91188000000E+02  0.91188000000E+02 0.  0.
    9900012    2    3    3    0    0  0.58465438264E+00 -0.15548396488E+02  0.33371909955E+02  0.54367097946E+02  0.40000031386E+02 0.  0.
        -12    1    3    3    0    0 -0.58465438264E+00  0.15548396488E+02 -0.33371909955E+02  0.36820902054E+02  0.00000000000E+00 0.  1.
         11    1    4    4    0    0  0.96593332325E+00  0.41194571398E+00  0.15618243616E+02  0.15653506328E+02  0.51100000000E-03 0. -1.
        -11    1    4    4    0    0 -0.12242042440E+02 -0.53399579568E+01  0.18450894090E+02  0.22777582116E+02  0.51100000000E-03 0.  1.
         12    1    4    4    0    0  0.11860763499E+02 -0.10620384245E+02 -0.69722775080E+00  0.15936009502E+02  0.00000000000E+00 0. -1.
</event>
<event>
 8    1  0.3011071E-007  0.9118800E+02  0.7816164E-02  0.1184000E+00
        -11   -1    0    0    0    0  0.00000000000E+00  0.00000000000E+00  0.45593999997E+02  0.45594000000E+02  0.51100000000E-03 0.  1.
         11   -1    0    0    0    0 -0.00000000000E+00 -0.00000000000E+00 -0.45593999997E+02  0.45594000000E+02  0.51100000000E-03 0. -1.
         23    2    1    2    0    0  0.00000000000E+00  0.00000000000E+00  0.00000000000E+00  0.91188000000E+02  0.91188000000E+02 0.  0.
    9900012    2    3    3    0    0 -0.10129869965E+02 -0.32043407186E+02 -0.15046108925E+02  0.54367087417E+02  0.40000007385E+02 0.  0.
        -12    1    3    3    0    0  0.10129869965E+02  0.32043407186E+02  0.15046108925E+02  0.36820912583E+02  0.00000000000E+00 0.  1.
         11    1    4    4    0    0  0.21392914605E+01  0.59552301542E+00  0.18569586704E+01  0.28947385684E+01  0.51100000000E-03 0. -1.
        -11    1    4    4    0    0 -0.12201094112E+02 -0.27651252768E+01  0.59561256224E+01  0.13855975174E+02  0.51100000000E-03 0.  1.
         12    1    4    4    0    0 -0.68067313387E-01 -0.29873804925E+02 -0.22859193218E+02  0.37616373675E+02  0.00000000000E+00 0. -1.
</event>
<event>
 8    1  0.3011071E-007  0.9118800E+02  0.7816164E-02  0.1184000E+00
        -11   -1    0    0    0    0  0.00000000000E+00  0.00000000000E+00  0.45593999997E+02  0.45594000000E+02  0.51100000000E-03 0. -1.
         11   -1    0    0    0    0 -0.00000000000E+00 -0.00000000000E+00 -0.45593999997E+02  0.45594000000E+02  0.51100000000E-03 0.  1.
         23    2    1    2    0    0  0.00000000000E+00  0.00000000000E+00  0.00000000000E+00  0.91188000000E+02  0.91188000000E+02 0.  0.
    9900012    2    3    3    0    0 -0.16696441231E+02 -0.10597299545E+02  0.31059694038E+02  0.54367102385E+02  0.40000041508E+02 0.  0.
        -12    1    3    3    0    0  0.16696441231E+02  0.10597299545E+02 -0.31059694038E+02  0.36820897615E+02  0.00000000000E+00 0.  1.
         11    1    4    4    0    0 -0.39157948448E+01 -0.16687345312E+02  0.18386668253E+02  0.25137034681E+02  0.51100000000E-03 0. -1.
        -11    1    4    4    0    0 -0.17490010123E+02  0.82596581070E+01  0.50150343658E+01  0.19981816136E+02  0.51100000000E-03 0.  1.
        -12    1    4    4    0    0  0.47093637362E+01 -0.21696123397E+01  0.76579914184E+01  0.92482515682E+01  0.00000000000E+00 0.  1.
</event>
<event>
 8    1  0.3011071E-007  0.9118800E+02  0.7816164E-02  0.1184000E+00
        -11   -1    0    0    0    0  0.00000000000E+00  0.00000000000E+00  0.45593999997E+02  0.45594000000E+02  0.51100000000E-03 0. -1.
         11   -1    0    0    0    0 -0.00000000000E+00 -0.00000000000E+00 -0.45593999997E+02  0.45594000000E+02  0.51100000000E-03 0.  1.
         23    2    1    2    0    0 -0.17763568394E-14 -0.35527136788E-14  0.14210854715E-13  0.91188000000E+02  0.91188000000E+02 0.  0.
    9900012    2    3    3    0    0  0.87009402792E+01  0.20103887313E+02 -0.29595740190E+02  0.54367075456E+02  0.39999980118E+02 0.  0.
         12    1    3    3    0    0 -0.87009402792E+01 -0.20103887313E+02  0.29595740190E+02  0.36820924544E+02  0.00000000000E+00 0. -1.
         11    1    4    4    0    0 -0.71144539529E+01  0.14792139952E+02 -0.23563047389E+02  0.28716546832E+02  0.51100000000E-03 0. -1.
        -11    1    4    4    0    0  0.67030914039E+01 -0.68678793877E+01 -0.35806905202E+01  0.10243073099E+02  0.51100000000E-03 0.  1.
         12    1    4    4    0    0  0.91123028283E+01  0.12179626749E+02 -0.24520022807E+01  0.15407455525E+02  0.00000000000E+00 0. -1.
</event>
<event>
 8    1  0.3011071E-007  0.9118800E+02  0.7816164E-02  0.1184000E+00
        -11   -1    0    0    0    0  0.00000000000E+00  0.00000000000E+00  0.45593999997E+02  0.45594000000E+02  0.51100000000E-03 0.  1.
         11   -1    0    0    0    0 -0.00000000000E+00 -0.00000000000E+00 -0.45593999997E+02  0.45594000000E+02  0.51100000000E-03 0. -1.
         23    2    1    2    0    0  0.00000000000E+00  0.00000000000E+00  0.00000000000E+00  0.91188000000E+02  0.91188000000E+02 0.  0.
    9900012    2    3    3    0    0 -0.12260097195E+02  0.51285244393E+01  0.34339012990E+02  0.54367088016E+02  0.40000008751E+02 0.  0.
         12    1    3    3    0    0  0.12260097195E+02 -0.51285244393E+01 -0.34339012990E+02  0.36820911984E+02  0.00000000000E+00 0. -1.
         11    1    4    4    0    0 -0.28004270637E+01  0.26487267051E+01 -0.24435963898E+01  0.45639137234E+01  0.51100000000E-03 0. -1.
        -11    1    4    4    0    0 -0.12588763169E+02 -0.10731745332E+02  0.30810974900E+02  0.34970894907E+02  0.51100000000E-03 0.  1.
        -12    1    4    4    0    0  0.31290930376E+01  0.13211543066E+02  0.59716344798E+01  0.14832279386E+02  0.00000000000E+00 0.  1.
</event>
<event>
 8    1  0.3011071E-007  0.9118800E+02  0.7816164E-02  0.1184000E+00
        -11   -1    0    0    0    0  0.00000000000E+00  0.00000000000E+00  0.45593999997E+02  0.45594000000E+02  0.51100000000E-03 0. -1.
         11   -1    0    0    0    0 -0.00000000000E+00 -0.00000000000E+00 -0.45593999997E+02  0.45594000000E+02  0.51100000000E-03 0.  1.
         23    2    1    2    0    0  0.00000000000E+00  0.35527136788E-14 -0.35527136788E-14  0.91188000000E+02  0.91188000000E+02 0.  0.
    9900012    2    3    3    0    0 -0.86672055561E+01  0.30972944647E+02 -0.17925831587E+02  0.54367093026E+02  0.40000020172E+02 0.  0.
         12    1    3    3    0    0  0.86672055561E+01 -0.30972944647E+02  0.17925831587E+02  0.36820906974E+02  0.00000000000E+00 0. -1.
         11    1    4    4    0    0  0.17073401011E+01  0.26582329594E+02 -0.18327470566E+02  0.32333132147E+02  0.51100000000E-03 0.  1.
        -11    1    4    4    0    0 -0.18722575913E+01 -0.57229010860E+01  0.52212019275E+01  0.79698114881E+01  0.51100000000E-03 0. -1.
        -12    1    4    4    0    0 -0.85022880660E+01  0.10113516139E+02 -0.48195629491E+01  0.14064149391E+02  0.00000000000E+00 0.  1.
</event>
<event>
 8    1  0.3011071E-007  0.9118800E+02  0.7816164E-02  0.1184000E+00
        -11   -1    0    0    0    0  0.00000000000E+00  0.00000000000E+00  0.45593999997E+02  0.45594000000E+02  0.51100000000E-03 0.  1.
         11   -1    0    0    0    0 -0.00000000000E+00 -0.00000000000E+00 -0.45593999997E+02  0.45594000000E+02  0.51100000000E-03 0. -1.
         23    2    1    2    0    0 -0.35527136788E-14 -0.35527136788E-14  0.00000000000E+00  0.91188000000E+02  0.91188000000E+02 0.  0.
    9900012    2    3    3    0    0  0.16962634644E+02  0.23993561245E+02 -0.22189105508E+02  0.54367104322E+02  0.40000045923E+02 0.  0.
        -12    1    3    3    0    0 -0.16962634644E+02 -0.23993561245E+02  0.22189105508E+02  0.36820895678E+02  0.00000000000E+00 0.  1.
         11    1    4    4    0    0  0.14755696375E+02  0.52424402842E+01 -0.10982392873E+02  0.19126596904E+02  0.51100000000E-03 0. -1.
        -11    1    4    4    0    0  0.51470511635E+01  0.30945401257E+01  0.81802455691E+01  0.10148139342E+02  0.51100000000E-03 0.  1.
         12    1    4    4    0    0 -0.29401128944E+01  0.15656580835E+02 -0.19386958204E+02  0.25092368076E+02  0.00000000000E+00 0. -1.
</event>
<event>
 8    1  0.3011071E-007  0.9118800E+02  0.7816164E-02  0.1184000E+00
        -11   -1    0    0    0    0  0.00000000000E+00  0.00000000000E+00  0.45593999997E+02  0.45594000000E+02  0.51100000000E-03 0. -1.
         11   -1    0    0    0    0 -0.00000000000E+00 -0.00000000000E+00 -0.45593999997E+02  0.45594000000E+02  0.51100000000E-03 0.  1.
         23    2    1    2    0    0  0.00000000000E+00  0.00000000000E+00  0.00000000000E+00  0.91188000000E+02  0.91188000000E+02 0.  0.
    9900012    2    3    3    0    0  0.70870131757E+01 -0.13835807209E+02 -0.33378491101E+02  0.54367095814E+02  0.40000026528E+02 0.  0.
         12    1    3    3    0    0 -0.70870131757E+01  0.13835807209E+02  0.33378491101E+02  0.36820904186E+02  0.00000000000E+00 0. -1.
         11    1    4    4    0    0 -0.55342014614E+01 -0.81185013648E+01 -0.12390220693E+02  0.15813128069E+02  0.51100000000E-03 0.  1.
        -11    1    4    4    0    0  0.12165199285E+02  0.10518549056E+02 -0.98340638695E+01  0.18850484353E+02  0.51100000000E-03 0. -1.
        -12    1    4    4    0    0  0.45601535209E+00 -0.16235854900E+02 -0.11154206538E+02  0.19703483393E+02  0.00000000000E+00 0.  1.
</event>
<event>
 8    1  0.3011071E-007  0.9118800E+02  0.7816164E-02  0.1184000E+00
        -11   -1    0    0    0    0  0.00000000000E+00  0.00000000000E+00  0.45593999997E+02  0.45594000000E+02  0.51100000000E-03 0.  1.
         11   -1    0    0    0    0 -0.00000000000E+00 -0.00000000000E+00 -0.45593999997E+02  0.45594000000E+02  0.51100000000E-03 0. -1.
         23    2    1    2    0    0  0.00000000000E+00  0.17763568394E-14  0.00000000000E+00  0.91188000000E+02  0.91188000000E+02 0.  0.
    9900012    2    3    3    0    0  0.21578663642E+02  0.10617693710E+02  0.27881994818E+02  0.54367085029E+02  0.40000001941E+02 0.  0.
         12    1    3    3    0    0 -0.21578663642E+02 -0.10617693710E+02 -0.27881994818E+02  0.36820914971E+02  0.00000000000E+00 0. -1.
         11    1    4    4    0    0 -0.59529219258E+01  0.48484124606E+01  0.70953509769E+01  0.10454108694E+02  0.51100000000E-03 0. -1.
        -11    1    4    4    0    0  0.83037978309E+00  0.74918681563E+01  0.14629137638E+02  0.16456891789E+02  0.51100000000E-03 0.  1.
        -12    1    4    4    0    0  0.26701205784E+02 -0.17225869073E+01  0.61575062029E+01  0.27456084546E+02  0.00000000000E+00 0.  1.
</event>
<event>
 8    1  0.3011071E-007  0.9118800E+02  0.7816164E-02  0.1184000E+00
        -11   -1    0    0    0    0  0.00000000000E+00  0.00000000000E+00  0.45593999997E+02  0.45594000000E+02  0.51100000000E-03 0. -1.
         11   -1    0    0    0    0 -0.00000000000E+00 -0.00000000000E+00 -0.45593999997E+02  0.45594000000E+02  0.51100000000E-03 0.  1.
         23    2    1    2    0    0 -0.17763568394E-14  0.00000000000E+00 -0.71054273576E-14  0.91188000000E+02  0.91188000000E+02 0.  0.
    9900012    2    3    3    0    0  0.50544049408E+01 -0.18714613904E+02 -0.31304872334E+02  0.54367098128E+02  0.40000031801E+02 0.  0.
         12    1    3    3    0    0 -0.50544049408E+01  0.18714613904E+02  0.31304872334E+02  0.36820901872E+02  0.00000000000E+00 0. -1.
         11    1    4    4    0    0  0.10004019286E+02 -0.18198237734E+02 -0.35805741077E+00  0.20769796915E+02  0.51100000000E-03 0. -1.
        -11    1    4    4    0    0 -0.12979809407E+01  0.19454398684E+00 -0.29617765935E+02  0.29646832227E+02  0.51100000000E-03 0.  1.
        -12    1    4    4    0    0 -0.36516334049E+01 -0.71092015643E+00 -0.13290489881E+01  0.39504689855E+01  0.00000000000E+00 0.  1.
</event>
<event>
 8    1  0.3011071E-007  0.9118800E+02  0.7816164E-02  0.1184000E+00
        -11   -1    0    0    0    0  0.00000000000E+00  0.00000000000E+00  0.45593999997E+02  0.45594000000E+02  0.51100000000E-03 0. -1.
         11   -1    0    0    0    0 -0.00000000000E+00 -0.00000000000E+00 -0.45593999997E+02  0.45594000000E+02  0.51100000000E-03 0.  1.
         23    2    1    2    0    0  0.00000000000E+00  0.00000000000E+00  0.17763568394E-14  0.91188000000E+02  0.91188000000E+02 0.  0.
    9900012    2    3    3    0    0 -0.29603063475E+02 -0.15920426222E+02  0.15032597054E+02  0.54367077790E+02  0.39999985439E+02 0.  0.
        -12    1    3    3    0    0  0.29603063475E+02  0.15920426222E+02 -0.15032597054E+02  0.36820922210E+02  0.00000000000E+00 0.  1.
         11    1    4    4    0    0  0.17948669251E+01  0.84087184780E+01  0.72005480217E+00  0.86282427470E+01  0.51100000000E-03 0. -1.
        -11    1    4    4    0    0 -0.29277276106E+02 -0.17283819072E+02  0.16864461013E+02  0.37951275913E+02  0.51100000000E-03 0.  1.
         12    1    4    4    0    0 -0.21206542934E+01 -0.70453256284E+01 -0.25519187611E+01  0.77875591301E+01  0.00000000000E+00 0. -1.
</event>
<event>
 8    1  0.3011071E-007  0.9118800E+02  0.7816164E-02  0.1184000E+00
        -11   -1    0    0    0    0  0.00000000000E+00  0.00000000000E+00  0.45593999997E+02  0.45594000000E+02  0.51100000000E-03 0. -1.
         11   -1    0    0    0    0 -0.00000000000E+00 -0.00000000000E+00 -0.45593999997E+02  0.45594000000E+02  0.51100000000E-03 0.  1.
         23    2    1    2    0    0 -0.35527136788E-14  0.00000000000E+00  0.00000000000E+00  0.91188000000E+02  0.91188000000E+02 0.  0.
    9900012    2    3    3    0    0 -0.25924564353E+02  0.18559307096E+02  0.18418716528E+02  0.54367081552E+02  0.39999994015E+02 0.  0.
        -12    1    3    3    0    0  0.25924564353E+02 -0.18559307096E+02 -0.18418716528E+02  0.36820918448E+02  0.00000000000E+00 0.  1.
         11    1    4    4    0    0 -0.42662504708E+01  0.25984741369E+02  0.14086778828E+02  0.29863774294E+02  0.51100000000E-03 0. -1.
        -11    1    4    4    0    0 -0.60726104072E+01  0.13628044202E+01  0.10187069914E+01  0.63064726464E+01  0.51100000000E-03 0.  1.
         12    1    4    4    0    0 -0.15585703475E+02 -0.87882386931E+01  0.33132307088E+01  0.18196834611E+02  0.00000000000E+00 0. -1.
</event>
<event>
 8    1  0.3011071E-007  0.9118800E+02  0.7816164E-02  0.1184000E+00
        -11   -1    0    0    0    0  0.00000000000E+00  0.00000000000E+00  0.45593999997E+02  0.45594000000E+02  0.51100000000E-03 0.  1.
         11   -1    0    0    0    0 -0.00000000000E+00 -0.00000000000E+00 -0.45593999997E+02  0.45594000000E+02  0.51100000000E-03 0. -1.
         23    2    1    2    0    0  0.00000000000E+00 -0.44408920985E-15 -0.88817841970E-15  0.91188000000E+02  0.91188000000E+02 0.  0.
    9900012    2    3    3    0    0  0.36318721302E+02 -0.37083514249E+01 -0.47936903668E+01  0.54367070426E+02  0.39999968651E+02 0.  0.
         12    1    3    3    0    0 -0.36318721302E+02  0.37083514249E+01  0.47936903668E+01  0.36820929574E+02  0.00000000000E+00 0. -1.
         11    1    4    4    0    0  0.35769822300E+01 -0.89139034137E+00 -0.98354007607E+01  0.10503546401E+02  0.51100000000E-03 0. -1.
        -11    1    4    4    0    0  0.34881995409E+02  0.51186653380E+01  0.52348306722E+01  0.35642078938E+02  0.51100000000E-03 0.  1.
         12    1    4    4    0    0 -0.21402563369E+01 -0.79356264215E+01 -0.19312027825E+00  0.82214450878E+01  0.00000000000E+00 0. -1.
</event>
<event>
 8    1  0.3011071E-007  0.9118800E+02  0.7816164E-02  0.1184000E+00
        -11   -1    0    0    0    0  0.00000000000E+00  0.00000000000E+00  0.45593999997E+02  0.45594000000E+02  0.51100000000E-03 0.  1.
         11   -1    0    0    0    0 -0.00000000000E+00 -0.00000000000E+00 -0.45593999997E+02  0.45594000000E+02  0.51100000000E-03 0. -1.
         23    2    1    2    0    0  0.35527136788E-14  0.00000000000E+00  0.00000000000E+00  0.91188000000E+02  0.91188000000E+02 0.  0.
    9900012    2    3    3    0    0  0.18931110514E+02 -0.57912017426E+01  0.31045994774E+02  0.54367098947E+02  0.40000033669E+02 0.  0.
         12    1    3    3    0    0 -0.18931110514E+02  0.57912017426E+01 -0.31045994774E+02  0.36820901053E+02  0.00000000000E+00 0. -1.
         11    1    4    4    0    0 -0.62158470473E+01 -0.44350136427E+01  0.49243040840E+01  0.90859711368E+01  0.51100000000E-03 0. -1.
        -11    1    4    4    0    0  0.23520685924E+02 -0.11549038539E+02  0.21820902416E+02  0.34099189727E+02  0.51100000000E-03 0.  1.
         12    1    4    4    0    0  0.16262716369E+01  0.10192850439E+02  0.43007882735E+01  0.11181938083E+02  0.00000000000E+00 0. -1.
</event>
<event>
 8    1  0.3011071E-007  0.9118800E+02  0.7816164E-02  0.1184000E+00
        -11   -1    0    0    0    0  0.00000000000E+00  0.00000000000E+00  0.45593999997E+02  0.45594000000E+02  0.51100000000E-03 0. -1.
         11   -1    0    0    0    0 -0.00000000000E+00 -0.00000000000E+00 -0.45593999997E+02  0.45594000000E+02  0.51100000000E-03 0.  1.
         23    2    1    2    0    0 -0.44408920985E-15  0.00000000000E+00  0.00000000000E+00  0.91188000000E+02  0.91188000000E+02 0.  0.
    9900012    2    3    3    0    0  0.36358804452E+01 -0.26200673016E+02 -0.25614150498E+02  0.54367087479E+02  0.40000007527E+02 0.  0.
         12    1    3    3    0    0 -0.36358804452E+01  0.26200673016E+02  0.25614150498E+02  0.36820912521E+02  0.00000000000E+00 0. -1.
         11    1    4    4    0    0  0.10636002977E+02 -0.99423811963E+01 -0.16538633623E+02  0.22034107778E+02  0.51100000000E-03 0.  1.
        -11    1    4    4    0    0  0.54494470373E+00  0.67304787060E+01 -0.29853458667E+01  0.73829938742E+01  0.51100000000E-03 0. -1.
         12    1    4    4    0    0 -0.75450672356E+01 -0.22988770526E+02 -0.60901710079E+01  0.24949985827E+02  0.00000000000E+00 0. -1.
</event>
<event>
 8    1  0.3011071E-007  0.9118800E+02  0.7816164E-02  0.1184000E+00
        -11   -1    0    0    0    0  0.00000000000E+00  0.00000000000E+00  0.45593999997E+02  0.45594000000E+02  0.51100000000E-03 0. -1.
         11   -1    0    0    0    0 -0.00000000000E+00 -0.00000000000E+00 -0.45593999997E+02  0.45594000000E+02  0.51100000000E-03 0.  1.
         23    2    1    2    0    0  0.88817841970E-15  0.00000000000E+00  0.00000000000E+00  0.91188000000E+02  0.91188000000E+02 0.  0.
    9900012    2    3    3    0    0  0.28165509255E+01  0.34572310070E+01  0.36549897156E+02  0.54367076771E+02  0.39999983114E+02 0.  0.
        -12    1    3    3    0    0 -0.28165509255E+01 -0.34572310070E+01 -0.36549897156E+02  0.36820923229E+02  0.00000000000E+00 0.  1.
         11    1    4    4    0    0  0.62661864042E+01 -0.15316641057E+01 -0.17448912129E+01  0.66824944886E+01  0.51100000000E-03 0. -1.
        -11    1    4    4    0    0  0.53250528455E+01  0.40309580751E+01 -0.15646349991E+01  0.68595111890E+01  0.51100000000E-03 0.  1.
         12    1    4    4    0    0 -0.87746883241E+01  0.95793703768E+00  0.39859423368E+02  0.40825071093E+02  0.00000000000E+00 0. -1.
</event>
<event>
 8    1  0.3011071E-007  0.9118800E+02  0.7816164E-02  0.1184000E+00
        -11   -1    0    0    0    0  0.00000000000E+00  0.00000000000E+00  0.45593999997E+02  0.45594000000E+02  0.51100000000E-03 0. -1.
         11   -1    0    0    0    0 -0.00000000000E+00 -0.00000000000E+00 -0.45593999997E+02  0.45594000000E+02  0.51100000000E-03 0.  1.
         23    2    1    2    0    0  0.88817841970E-15  0.00000000000E+00 -0.35527136788E-14  0.91188000000E+02  0.91188000000E+02 0.  0.
    9900012    2    3    3    0    0  0.60165911548E+01  0.32365781320E+02 -0.16493550195E+02  0.54367077040E+02  0.39999983728E+02 0.  0.
         12    1    3    3    0    0 -0.60165911548E+01 -0.32365781320E+02  0.16493550195E+02  0.36820922960E+02  0.00000000000E+00 0. -1.
         11    1    4    4    0    0 -0.77948778862E+01  0.81281228522E+01 -0.91598750585E+01  0.14516535872E+02  0.51100000000E-03 0. -1.
        -11    1    4    4    0    0  0.10515918867E+01  0.23391407748E+02  0.27354049061E+01  0.23574270767E+02  0.51100000000E-03 0.  1.
        -12    1    4    4    0    0  0.12759877154E+02  0.84625072036E+00 -0.10069080043E+02  0.16276270402E+02  0.00000000000E+00 0.  1.
</event>
<event>
 8    1  0.3011071E-007  0.9118800E+02  0.7816164E-02  0.1184000E+00
        -11   -1    0    0    0    0  0.00000000000E+00  0.00000000000E+00  0.45593999997E+02  0.45594000000E+02  0.51100000000E-03 0.  1.
         11   -1    0    0    0    0 -0.00000000000E+00 -0.00000000000E+00 -0.45593999997E+02  0.45594000000E+02  0.51100000000E-03 0. -1.
         23    2    1    2    0    0  0.00000000000E+00  0.00000000000E+00  0.17763568394E-14  0.91188000000E+02  0.91188000000E+02 0.  0.
    9900012    2    3    3    0    0  0.30143103063E+02  0.18601146470E+02  0.10058966973E+02  0.54366917333E+02  0.39999619642E+02 0.  0.
         12    1    3    3    0    0 -0.30143103063E+02 -0.18601146470E+02 -0.10058966973E+02  0.36821082667E+02  0.00000000000E+00 0. -1.
         11    1    4    4    0    0  0.14931156775E+02  0.28260962278E+02  0.36027884123E+01  0.32165222152E+02  0.51100000000E-03 0. -1.
        -11    1    4    4    0    0  0.14333258544E+02 -0.82286839849E+01  0.10724411835E+01  0.16562115534E+02  0.51100000000E-03 0.  1.
        -12    1    4    4    0    0  0.87868774424E+00 -0.14311318232E+01  0.53837373770E+01  0.56395796467E+01  0.00000000000E+00 0.  1.
</event>
<event>
 8    1  0.3011071E-007  0.9118800E+02  0.7816164E-02  0.1184000E+00
        -11   -1    0    0    0    0  0.00000000000E+00  0.00000000000E+00  0.45593999997E+02  0.45594000000E+02  0.51100000000E-03 0.  1.
         11   -1    0    0    0    0 -0.00000000000E+00 -0.00000000000E+00 -0.45593999997E+02  0.45594000000E+02  0.51100000000E-03 0. -1.
         23    2    1    2    0    0  0.00000000000E+00  0.00000000000E+00  0.17763568394E-14  0.91188000000E+02  0.91188000000E+02 0.  0.
    9900012    2    3    3    0    0  0.34021575411E+02 -0.40496483305E+01 -0.13487493083E+02  0.54367085906E+02  0.40000003941E+02 0.  0.
        -12    1    3    3    0    0 -0.34021575411E+02  0.40496483305E+01  0.13487493083E+02  0.36820914094E+02  0.00000000000E+00 0.  1.
         11    1    4    4    0    0  0.40459821788E+01  0.36421951335E+01 -0.21176701482E+02  0.21865229089E+02  0.51100000000E-03 0. -1.
        -11    1    4    4    0    0  0.39576880149E+01 -0.30977801072E+01  0.23465419280E+01  0.55466922843E+01  0.51100000000E-03 0.  1.
        -12    1    4    4    0    0  0.26017905217E+02 -0.45940633568E+01  0.53426664711E+01  0.26955164534E+02  0.00000000000E+00 0.  1.
</event>
<event>
 8    1  0.3011071E-007  0.9118800E+02  0.7816164E-02  0.1184000E+00
        -11   -1    0    0    0    0  0.00000000000E+00  0.00000000000E+00  0.45593999997E+02  0.45594000000E+02  0.51100000000E-03 0.  1.
         11   -1    0    0    0    0 -0.00000000000E+00 -0.00000000000E+00 -0.45593999997E+02  0.45594000000E+02  0.51100000000E-03 0. -1.
         23    2    1    2    0    0  0.88817841970E-15  0.00000000000E+00  0.00000000000E+00  0.91188000000E+02  0.91188000000E+02 0.  0.
    9900012    2    3    3    0    0 -0.33798949054E+01  0.30702275402E+02 -0.20043180201E+02  0.54367048396E+02  0.39999918429E+02 0.  0.
        -12    1    3    3    0    0  0.33798949054E+01 -0.30702275402E+02  0.20043180201E+02  0.36820951604E+02  0.00000000000E+00 0.  1.
         11    1    4    4    0    0  0.48245101746E+01  0.21566815031E+02 -0.10199850112E+00  0.22100086266E+02  0.51100000000E-03 0. -1.
        -11    1    4    4    0    0  0.53600978119E+00 -0.46116283541E+01 -0.14288280395E+02  0.15023627374E+02  0.51100000000E-03 0.  1.
        -12    1    4    4    0    0 -0.87404148612E+01  0.13747088725E+02 -0.56529013054E+01  0.17243334756E+02  0.00000000000E+00 0.  1.
</event>
<event>
 8    1  0.3011071E-007  0.9118800E+02  0.7816164E-02  0.1184000E+00
        -11   -1    0    0    0    0  0.00000000000E+00  0.00000000000E+00  0.45593999997E+02  0.45594000000E+02  0.51100000000E-03 0. -1.
         11   -1    0    0    0    0 -0.00000000000E+00 -0.00000000000E+00 -0.45593999997E+02  0.45594000000E+02  0.51100000000E-03 0.  1.
         23    2    1    2    0    0 -0.17763568394E-14  0.00000000000E+00  0.00000000000E+00  0.91188000000E+02  0.91188000000E+02 0.  0.
    9900012    2    3    3    0    0 -0.10370913357E+02  0.12433810397E+02 -0.33069968424E+02  0.54367105166E+02  0.40000047846E+02 0.  0.
         12    1    3    3    0    0  0.10370913357E+02 -0.12433810397E+02  0.33069968424E+02  0.36820894834E+02  0.00000000000E+00 0. -1.
         11    1    4    4    0    0 -0.11421956510E+02 -0.68134438038E+00 -0.10602280337E+02  0.15599156043E+02  0.51100000000E-03 0. -1.
        -11    1    4    4    0    0 -0.10128384395E+02  0.62618820687E+01  0.93241303269E+00  0.11944234250E+02  0.51100000000E-03 0.  1.
         12    1    4    4    0    0  0.11179427548E+02  0.68532727090E+01 -0.23400101120E+02  0.26823714872E+02  0.00000000000E+00 0. -1.
</event>
<event>
 8    1  0.3011071E-007  0.9118800E+02  0.7816164E-02  0.1184000E+00
        -11   -1    0    0    0    0  0.00000000000E+00  0.00000000000E+00  0.45593999997E+02  0.45594000000E+02  0.51100000000E-03 0. -1.
         11   -1    0    0    0    0 -0.00000000000E+00 -0.00000000000E+00 -0.45593999997E+02  0.45594000000E+02  0.51100000000E-03 0.  1.
         23    2    1    2    0    0  0.53290705182E-14  0.17763568394E-14  0.71054273576E-14  0.91188000000E+02  0.91188000000E+02 0.  0.
    9900012    2    3    3    0    0  0.11147171228E+02  0.42081132268E+01  0.34839857683E+02  0.54367036859E+02  0.39999892126E+02 0.  0.
        -12    1    3    3    0    0 -0.11147171228E+02 -0.42081132268E+01 -0.34839857683E+02  0.36820963141E+02  0.00000000000E+00 0.  1.
         11    1    4    4    0    0  0.22163375618E+02  0.77769343555E+01  0.21710149684E+02  0.31984785857E+02  0.51100000000E-03 0.  1.
        -11    1    4    4    0    0  0.20086829995E+01 -0.22394697568E+01 -0.95108773250E+00  0.31550911746E+01  0.51100000000E-03 0. -1.
         12    1    4    4    0    0 -0.13024887390E+02 -0.13293513719E+01  0.14080795732E+02  0.19227159827E+02  0.00000000000E+00 0. -1.
</event>
<event>
 8    1  0.3011071E-007  0.9118800E+02  0.7816164E-02  0.1184000E+00
        -11   -1    0    0    0    0  0.00000000000E+00  0.00000000000E+00  0.45593999997E+02  0.45594000000E+02  0.51100000000E-03 0. -1.
         11   -1    0    0    0    0 -0.00000000000E+00 -0.00000000000E+00 -0.45593999997E+02  0.45594000000E+02  0.51100000000E-03 0.  1.
         23    2    1    2    0    0 -0.35527136788E-14  0.00000000000E+00 -0.35527136788E-14  0.91188000000E+02  0.91188000000E+02 0.  0.
    9900012    2    3    3    0    0  0.28799953574E+02  0.16489576467E+02 -0.15951089213E+02  0.54367072458E+02  0.39999973283E+02 0.  0.
        -12    1    3    3    0    0 -0.28799953574E+02 -0.16489576467E+02  0.15951089213E+02  0.36820927542E+02  0.00000000000E+00 0.  1.
         11    1    4    4    0    0  0.19136405637E+02  0.82738302084E+01  0.82148896132E+01  0.22408540752E+02  0.51100000000E-03 0. -1.
        -11    1    4    4    0    0  0.64739374202E+01  0.72089833326E+01 -0.24603750052E+01  0.99967370596E+01  0.51100000000E-03 0.  1.
        -12    1    4    4    0    0  0.31896105168E+01  0.10067629263E+01 -0.21705603821E+02  0.21961794646E+02  0.00000000000E+00 0.  1.
</event>
<event>
 8    1  0.3011071E-007  0.9118800E+02  0.7816164E-02  0.1184000E+00
        -11   -1    0    0    0    0  0.00000000000E+00  0.00000000000E+00  0.45593999997E+02  0.45594000000E+02  0.51100000000E-03 0.  1.
         11   -1    0    0    0    0 -0.00000000000E+00 -0.00000000000E+00 -0.45593999997E+02  0.45594000000E+02  0.51100000000E-03 0. -1.
         23    2    1    2    0    0  0.00000000000E+00  0.00000000000E+00  0.00000000000E+00  0.91188000000E+02  0.91188000000E+02 0.  0.
    9900012    2    3    3    0    0 -0.12948760753E+02  0.41466770700E+01  0.34218613255E+02  0.54367097935E+02  0.40000031363E+02 0.  0.
         12    1    3    3    0    0  0.12948760753E+02 -0.41466770700E+01 -0.34218613255E+02  0.36820902065E+02  0.00000000000E+00 0. -1.
         11    1    4    4    0    0  0.83561760054E+01 -0.59944339044E+01 -0.13425943172E+01  0.10371184842E+02  0.51100000000E-03 0. -1.
        -11    1    4    4    0    0 -0.20157570120E+02  0.59547017117E+01  0.25552931477E+02  0.33086831413E+02  0.51100000000E-03 0.  1.
        -12    1    4    4    0    0 -0.11473666388E+01  0.41864092626E+01  0.10008276095E+02  0.10909081680E+02  0.00000000000E+00 0.  1.
</event>
<event>
 8    1  0.3011071E-007  0.9118800E+02  0.7816164E-02  0.1184000E+00
        -11   -1    0    0    0    0  0.00000000000E+00  0.00000000000E+00  0.45593999997E+02  0.45594000000E+02  0.51100000000E-03 0.  1.
         11   -1    0    0    0    0 -0.00000000000E+00 -0.00000000000E+00 -0.45593999997E+02  0.45594000000E+02  0.51100000000E-03 0. -1.
         23    2    1    2    0    0  0.00000000000E+00  0.35527136788E-14 -0.35527136788E-14  0.91188000000E+02  0.91188000000E+02 0.  0.
    9900012    2    3    3    0    0  0.45271355430E+01  0.22575757329E+02 -0.28733613954E+02  0.54367077332E+02  0.39999984395E+02 0.  0.
        -12    1    3    3    0    0 -0.45271355430E+01 -0.22575757329E+02  0.28733613954E+02  0.36820922668E+02  0.00000000000E+00 0.  1.
         11    1    4    4    0    0  0.68816617983E+01  0.35690253226E+01 -0.56732083524E+01  0.96062742065E+01  0.51100000000E-03 0.  1.
        -11    1    4    4    0    0  0.18338477731E+01 -0.83552669343E+00 -0.24356699960E+02  0.24439925035E+02  0.51100000000E-03 0. -1.
         12    1    4    4    0    0 -0.41883740284E+01  0.19842258700E+02  0.12962943581E+01  0.20320878091E+02  0.00000000000E+00 0. -1.
</event>
<event>
 8    1  0.3011071E-007  0.9118800E+02  0.7816164E-02  0.1184000E+00
        -11   -1    0    0    0    0  0.00000000000E+00  0.00000000000E+00  0.45593999997E+02  0.45594000000E+02  0.51100000000E-03 0.  1.
         11   -1    0    0    0    0 -0.00000000000E+00 -0.00000000000E+00 -0.45593999997E+02  0.45594000000E+02  0.51100000000E-03 0. -1.
         23    2    1    2    0    0  0.00000000000E+00  0.26645352591E-14  0.00000000000E+00  0.91188000000E+02  0.91188000000E+02 0.  0.
    9900012    2    3    3    0    0 -0.14118524571E+02 -0.33336273346E+01 -0.33842779412E+02  0.54367088474E+02  0.40000009794E+02 0.  0.
        -12    1    3    3    0    0  0.14118524571E+02  0.33336273346E+01  0.33842779412E+02  0.36820911526E+02  0.00000000000E+00 0.  1.
         11    1    4    4    0    0 -0.12077374220E+02 -0.58241360556E+01 -0.15298997856E+02  0.20343128189E+02  0.51100000000E-03 0. -1.
        -11    1    4    4    0    0 -0.53399447747E+01  0.10488109203E+02 -0.21804980387E+02  0.24778470793E+02  0.51100000000E-03 0.  1.
        -12    1    4    4    0    0  0.32987944242E+01 -0.79976004823E+01  0.32611988316E+01  0.92454894920E+01  0.00000000000E+00 0.  1.
</event>
<event>
 8    1  0.3011071E-007  0.9118800E+02  0.7816164E-02  0.1184000E+00
        -11   -1    0    0    0    0  0.00000000000E+00  0.00000000000E+00  0.45593999997E+02  0.45594000000E+02  0.51100000000E-03 0.  1.
         11   -1    0    0    0    0 -0.00000000000E+00 -0.00000000000E+00 -0.45593999997E+02  0.45594000000E+02  0.51100000000E-03 0. -1.
         23    2    1    2    0    0  0.00000000000E+00  0.17763568394E-14  0.00000000000E+00  0.91188000000E+02  0.91188000000E+02 0.  0.
    9900012    2    3    3    0    0  0.17120992891E+02  0.15881705408E+02 -0.28467892123E+02  0.54367111280E+02  0.40000061784E+02 0.  0.
        -12    1    3    3    0    0 -0.17120992891E+02 -0.15881705408E+02  0.28467892123E+02  0.36820888720E+02  0.00000000000E+00 0.  1.
         11    1    4    4    0    0 -0.74080695434E+01 -0.15618986421E+01 -0.14036594482E+02  0.15948197598E+02  0.51100000000E-03 0. -1.
        -11    1    4    4    0    0  0.83642080141E+01  0.17240568126E+02 -0.10200978953E+02  0.21708457727E+02  0.51100000000E-03 0.  1.
         12    1    4    4    0    0  0.16164854420E+02  0.20303592402E+00 -0.42303186879E+01  0.16710455954E+02  0.00000000000E+00 0. -1.
</event>
<event>
 8    1  0.3011071E-007  0.9118800E+02  0.7816164E-02  0.1184000E+00
        -11   -1    0    0    0    0  0.00000000000E+00  0.00000000000E+00  0.45593999997E+02  0.45594000000E+02  0.51100000000E-03 0.  1.
         11   -1    0    0    0    0 -0.00000000000E+00 -0.00000000000E+00 -0.45593999997E+02  0.45594000000E+02  0.51100000000E-03 0. -1.
         23    2    1    2    0    0 -0.35527136788E-14  0.26645352591E-14  0.35527136788E-14  0.91188000000E+02  0.91188000000E+02 0.  0.
    9900012    2    3    3    0    0  0.31433802023E+02 -0.58513647873E+01  0.18260691558E+02  0.54367146728E+02  0.40000142595E+02 0.  0.
         12    1    3    3    0    0 -0.31433802023E+02  0.58513647873E+01 -0.18260691558E+02  0.36820853272E+02  0.00000000000E+00 0. -1.
         11    1    4    4    0    0  0.34798086244E+02 -0.78589911060E+01  0.19688878262E+02  0.40747054801E+02  0.51100000000E-03 0. -1.
        -11    1    4    4    0    0 -0.52471002701E+01 -0.19218279684E+01  0.38424471145E+01  0.67815841861E+01  0.51100000000E-03 0.  1.
        -12    1    4    4    0    0  0.18828160491E+01  0.39294542871E+01 -0.52706338185E+01  0.68385077406E+01  0.00000000000E+00 0.  1.
</event>
<event>
 8    1  0.3011071E-007  0.9118800E+02  0.7816164E-02  0.1184000E+00
        -11   -1    0    0    0    0  0.00000000000E+00  0.00000000000E+00  0.45593999997E+02  0.45594000000E+02  0.51100000000E-03 0.  1.
         11   -1    0    0    0    0 -0.00000000000E+00 -0.00000000000E+00 -0.45593999997E+02  0.45594000000E+02  0.51100000000E-03 0. -1.
         23    2    1    2    0    0  0.00000000000E+00  0.00000000000E+00  0.00000000000E+00  0.91188000000E+02  0.91188000000E+02 0.  0.
    9900012    2    3    3    0    0 -0.23523428270E+02  0.95616765269E+01  0.26664645196E+02  0.54367073355E+02  0.39999975327E+02 0.  0.
         12    1    3    3    0    0  0.23523428270E+02 -0.95616765269E+01 -0.26664645196E+02  0.36820926645E+02  0.00000000000E+00 0. -1.
         11    1    4    4    0    0 -0.32278243369E+01 -0.59767706387E+01  0.19348738160E+02  0.20506445471E+02  0.51100000000E-03 0. -1.
        -11    1    4    4    0    0 -0.15295042310E+02 -0.51236923261E+00  0.75116681276E+01  0.17047756445E+02  0.51100000000E-03 0.  1.
         12    1    4    4    0    0 -0.50005616228E+01  0.16050816398E+02 -0.19576109168E+00  0.16812871438E+02  0.00000000000E+00 0. -1.
</event>
<event>
 8    1  0.3011071E-007  0.9118800E+02  0.7816164E-02  0.1184000E+00
        -11   -1    0    0    0    0  0.00000000000E+00  0.00000000000E+00  0.45593999997E+02  0.45594000000E+02  0.51100000000E-03 0.  1.
         11   -1    0    0    0    0 -0.00000000000E+00 -0.00000000000E+00 -0.45593999997E+02  0.45594000000E+02  0.51100000000E-03 0. -1.
         23    2    1    2    0    0 -0.66613381478E-15  0.00000000000E+00  0.00000000000E+00  0.91188000000E+02  0.91188000000E+02 0.  0.
    9900012    2    3    3    0    0  0.15114287751E+01 -0.19298309078E+02  0.31322047916E+02  0.54367084261E+02  0.40000000190E+02 0.  0.
         12    1    3    3    0    0 -0.15114287751E+01  0.19298309078E+02 -0.31322047916E+02  0.36820915739E+02  0.00000000000E+00 0. -1.
         11    1    4    4    0    0  0.76917709065E+01  0.26644705946E+01  0.60136110196E+01  0.10120586000E+02  0.51100000000E-03 0. -1.
        -11    1    4    4    0    0 -0.14354586209E+02 -0.47831312390E+01  0.39384496271E+01  0.15634701002E+02  0.51100000000E-03 0.  1.
        -12    1    4    4    0    0  0.81742440777E+01 -0.17179648434E+02  0.21369987269E+02  0.28611797259E+02  0.00000000000E+00 0.  1.
</event>
<event>
 8    1  0.3011071E-007  0.9118800E+02  0.7816164E-02  0.1184000E+00
        -11   -1    0    0    0    0  0.00000000000E+00  0.00000000000E+00  0.45593999997E+02  0.45594000000E+02  0.51100000000E-03 0.  1.
         11   -1    0    0    0    0 -0.00000000000E+00 -0.00000000000E+00 -0.45593999997E+02  0.45594000000E+02  0.51100000000E-03 0. -1.
         23    2    1    2    0    0  0.71054273576E-14 -0.66613381478E-15 -0.17763568394E-14  0.91188000000E+02  0.91188000000E+02 0.  0.
    9900012    2    3    3    0    0 -0.35698471121E+02 -0.53636424169E+00 -0.90061946458E+01  0.54367081096E+02  0.39999992974E+02 0.  0.
         12    1    3    3    0    0  0.35698471121E+02  0.53636424169E+00  0.90061946458E+01  0.36820918904E+02  0.00000000000E+00 0. -1.
         11    1    4    4    0    0 -0.18065376517E+02  0.10293747508E+01 -0.87230599152E+01  0.20087538814E+02  0.51100000000E-03 0. -1.
        -11    1    4    4    0    0 -0.23178103667E+02  0.67235518811E+01 -0.17607078663E+01  0.24197742290E+02  0.51100000000E-03 0.  1.
         12    1    4    4    0    0  0.55450090630E+01 -0.82892908736E+01  0.14775731357E+01  0.10081799991E+02  0.00000000000E+00 0. -1.
</event>
<event>
 8    1  0.3011071E-007  0.9118800E+02  0.7816164E-02  0.1184000E+00
        -11   -1    0    0    0    0  0.00000000000E+00  0.00000000000E+00  0.45593999997E+02  0.45594000000E+02  0.51100000000E-03 0. -1.
         11   -1    0    0    0    0 -0.00000000000E+00 -0.00000000000E+00 -0.45593999997E+02  0.45594000000E+02  0.51100000000E-03 0.  1.
         23    2    1    2    0    0 -0.35527136788E-14  0.00000000000E+00  0.35527136788E-14  0.91188000000E+02  0.91188000000E+02 0.  0.
    9900012    2    3    3    0    0 -0.19488315803E+02 -0.13213393874E+02  0.28308818068E+02  0.54367117190E+02  0.40000075259E+02 0.  0.
        -12    1    3    3    0    0  0.19488315803E+02  0.13213393874E+02 -0.28308818068E+02  0.36820882810E+02  0.00000000000E+00 0.  1.
         11    1    4    4    0    0 -0.10581520329E+02 -0.18932502780E+01 -0.47910458478E+01  0.11768903503E+02  0.51100000000E-03 0. -1.
        -11    1    4    4    0    0  0.25511066671E+01  0.55146850506E+01  0.10854434799E+02  0.12439399162E+02  0.51100000000E-03 0.  1.
         12    1    4    4    0    0 -0.11457902141E+02 -0.16834828646E+02  0.22245429117E+02  0.30158814526E+02  0.00000000000E+00 0. -1.
</event>
<event>
 8    1  0.3011071E-007  0.9118800E+02  0.7816164E-02  0.1184000E+00
        -11   -1    0    0    0    0  0.00000000000E+00  0.00000000000E+00  0.45593999997E+02  0.45594000000E+02  0.51100000000E-03 0.  1.
         11   -1    0    0    0    0 -0.00000000000E+00 -0.00000000000E+00 -0.45593999997E+02  0.45594000000E+02  0.51100000000E-03 0. -1.
         23    2    1    2    0    0  0.00000000000E+00  0.00000000000E+00 -0.35527136788E-14  0.91188000000E+02  0.91188000000E+02 0.  0.
    9900012    2    3    3    0    0 -0.18464537165E+02  0.17070195218E+02  0.26897016438E+02  0.54367079442E+02  0.39999989203E+02 0.  0.
         12    1    3    3    0    0  0.18464537165E+02 -0.17070195218E+02 -0.26897016438E+02  0.36820920558E+02  0.00000000000E+00 0. -1.
         11    1    4    4    0    0 -0.95861815119E+01  0.18597886650E+01  0.14599462662E+02  0.17564111140E+02  0.51100000000E-03 0.  1.
        -11    1    4    4    0    0  0.45245324119E+01  0.72791423261E+01 -0.76552687726E+01  0.11491755601E+02  0.51100000000E-03 0. -1.
         12    1    4    4    0    0 -0.13402888066E+02  0.79312642271E+01  0.19952822548E+02  0.25311212701E+02  0.00000000000E+00 0. -1.
</event>
<event>
 8    1  0.3011071E-007  0.9118800E+02  0.7816164E-02  0.1184000E+00
        -11   -1    0    0    0    0  0.00000000000E+00  0.00000000000E+00  0.45593999997E+02  0.45594000000E+02  0.51100000000E-03 0.  1.
         11   -1    0    0    0    0 -0.00000000000E+00 -0.00000000000E+00 -0.45593999997E+02  0.45594000000E+02  0.51100000000E-03 0. -1.
         23    2    1    2    0    0  0.35527136788E-14  0.00000000000E+00 -0.35527136788E-14  0.91188000000E+02  0.91188000000E+02 0.  0.
    9900012    2    3    3    0    0 -0.19396494168E+02  0.22943930954E+02  0.21286910025E+02  0.54367075350E+02  0.39999979876E+02 0.  0.
         12    1    3    3    0    0  0.19396494168E+02 -0.22943930954E+02 -0.21286910025E+02  0.36820924650E+02  0.00000000000E+00 0. -1.
         11    1    4    4    0    0 -0.17605621482E+02  0.16777785969E+02  0.12270208750E+02  0.27239861101E+02  0.51100000000E-03 0. -1.
        -11    1    4    4    0    0 -0.26939304061E+01  0.15690931772E+02  0.67656992542E+01  0.17298476452E+02  0.51100000000E-03 0.  1.
         12    1    4    4    0    0  0.90305772037E+00 -0.95247867869E+01  0.22510020210E+01  0.98287377970E+01  0.00000000000E+00 0. -1.
</event>
<event>
 8    1  0.3011071E-007  0.9118800E+02  0.7816164E-02  0.1184000E+00
        -11   -1    0    0    0    0  0.00000000000E+00  0.00000000000E+00  0.45593999997E+02  0.45594000000E+02  0.51100000000E-03 0.  1.
         11   -1    0    0    0    0 -0.00000000000E+00 -0.00000000000E+00 -0.45593999997E+02  0.45594000000E+02  0.51100000000E-03 0. -1.
         23    2    1    2    0    0  0.00000000000E+00  0.35527136788E-14  0.00000000000E+00  0.91188000000E+02  0.91188000000E+02 0.  0.
    9900012    2    3    3    0    0 -0.18857047814E+02 -0.27639676576E+02  0.15370252230E+02  0.54367019200E+02  0.39999851870E+02 0.  0.
         12    1    3    3    0    0  0.18857047814E+02  0.27639676576E+02 -0.15370252230E+02  0.36820980800E+02  0.00000000000E+00 0. -1.
         11    1    4    4    0    0 -0.18557583720E+01 -0.20802266544E+02 -0.48328133653E+00  0.20890468966E+02  0.51100000000E-03 0. -1.
        -11    1    4    4    0    0 -0.11991076495E+02 -0.44738049085E+01  0.21844010080E+02  0.25317219881E+02  0.51100000000E-03 0.  1.
         12    1    4    4    0    0 -0.50102129466E+01 -0.23636051233E+01 -0.59904765133E+01  0.81593303527E+01  0.00000000000E+00 0. -1.
</event>
<event>
 8    1  0.3011071E-007  0.9118800E+02  0.7816164E-02  0.1184000E+00
        -11   -1    0    0    0    0  0.00000000000E+00  0.00000000000E+00  0.45593999997E+02  0.45594000000E+02  0.51100000000E-03 0.  1.
         11   -1    0    0    0    0 -0.00000000000E+00 -0.00000000000E+00 -0.45593999997E+02  0.45594000000E+02  0.51100000000E-03 0. -1.
         23    2    1    2    0    0  0.00000000000E+00  0.00000000000E+00  0.35527136788E-14  0.91188000000E+02  0.91188000000E+02 0.  0.
    9900012    2    3    3    0    0  0.16536498938E+02 -0.23296075671E+02 -0.23229630076E+02  0.54367100334E+02  0.40000036830E+02 0.  0.
        -12    1    3    3    0    0 -0.16536498938E+02  0.23296075671E+02  0.23229630076E+02  0.36820899666E+02  0.00000000000E+00 0.  1.
         11    1    4    4    0    0  0.69104854741E+01  0.32529038095E+01 -0.40752389077E+01  0.86570067054E+01  0.51100000000E-03 0. -1.
        -11    1    4    4    0    0  0.80383296575E+01  0.43370947248E+01 -0.98068573673E+01  0.13401477009E+02  0.51100000000E-03 0.  1.
         12    1    4    4    0    0  0.15876838063E+01 -0.30886074205E+02 -0.93475338005E+01  0.32308616619E+02  0.00000000000E+00 0. -1.
</event>
<event>
 8    1  0.3011071E-007  0.9118800E+02  0.7816164E-02  0.1184000E+00
        -11   -1    0    0    0    0  0.00000000000E+00  0.00000000000E+00  0.45593999997E+02  0.45594000000E+02  0.51100000000E-03 0. -1.
         11   -1    0    0    0    0 -0.00000000000E+00 -0.00000000000E+00 -0.45593999997E+02  0.45594000000E+02  0.51100000000E-03 0.  1.
         23    2    1    2    0    0 -0.88817841970E-15 -0.88817841970E-15  0.00000000000E+00  0.91188000000E+02  0.91188000000E+02 0.  0.
    9900012    2    3    3    0    0 -0.59952292582E+01  0.20246648943E+01 -0.36273099448E+02  0.54367084947E+02  0.40000001753E+02 0.  0.
         12    1    3    3    0    0  0.59952292582E+01 -0.20246648943E+01  0.36273099448E+02  0.36820915053E+02  0.00000000000E+00 0. -1.
         11    1    4    4    0    0 -0.97246949571E+01 -0.11060036750E+02 -0.62069824395E+01  0.15981887754E+02  0.51100000000E-03 0. -1.
        -11    1    4    4    0    0  0.41379456999E+01  0.16397837451E+02 -0.30640534995E+02  0.34997914977E+02  0.51100000000E-03 0.  1.
         12    1    4    4    0    0 -0.40848000102E+00 -0.33131358073E+01  0.57441798576E+00  0.33872822161E+01  0.00000000000E+00 0. -1.
</event>
<event>
 8    1  0.3011071E-007  0.9118800E+02  0.7816164E-02  0.1184000E+00
        -11   -1    0    0    0    0  0.00000000000E+00  0.00000000000E+00  0.45593999997E+02  0.45594000000E+02  0.51100000000E-03 0. -1.
         11   -1    0    0    0    0 -0.00000000000E+00 -0.00000000000E+00 -0.45593999997E+02  0.45594000000E+02  0.51100000000E-03 0.  1.
         23    2    1    2    0    0  0.00000000000E+00  0.00000000000E+00  0.00000000000E+00  0.91188000000E+02  0.91188000000E+02 0.  0.
    9900012    2    3    3    0    0 -0.28530811114E+02 -0.42886011363E+01 -0.22877507443E+02  0.54367087066E+02  0.40000006584E+02 0.  0.
         12    1    3    3    0    0  0.28530811114E+02  0.42886011363E+01  0.22877507443E+02  0.36820912934E+02  0.00000000000E+00 0. -1.
         11    1    4    4    0    0 -0.12142836166E+02 -0.12228695802E+02 -0.37845882316E+01  0.17644052242E+02  0.51100000000E-03 0. -1.
        -11    1    4    4    0    0  0.40820150399E+01  0.28789747139E+01  0.32826975960E+01  0.59772440102E+01  0.51100000000E-03 0.  1.
        -12    1    4    4    0    0 -0.20469989988E+02  0.50611199517E+01 -0.22375616807E+02  0.30745790814E+02  0.00000000000E+00 0.  1.
</event>
<event>
 8    1  0.3011071E-007  0.9118800E+02  0.7816164E-02  0.1184000E+00
        -11   -1    0    0    0    0  0.00000000000E+00  0.00000000000E+00  0.45593999997E+02  0.45594000000E+02  0.51100000000E-03 0. -1.
         11   -1    0    0    0    0 -0.00000000000E+00 -0.00000000000E+00 -0.45593999997E+02  0.45594000000E+02  0.51100000000E-03 0.  1.
         23    2    1    2    0    0  0.00000000000E+00  0.17763568394E-14 -0.44408920985E-15  0.91188000000E+02  0.91188000000E+02 0.  0.
    9900012    2    3    3    0    0 -0.36271629236E+02 -0.61198100010E+01 -0.16418647250E+01  0.54367097219E+02  0.40000029729E+02 0.  0.
        -12    1    3    3    0    0  0.36271629236E+02  0.61198100010E+01  0.16418647250E+01  0.36820902781E+02  0.00000000000E+00 0.  1.
         11    1    4    4    0    0 -0.10772626021E+01 -0.13743381493E+02  0.34566456196E+01  0.14212298504E+02  0.51100000000E-03 0. -1.
        -11    1    4    4    0    0 -0.16328773869E+02  0.11343540714E+02  0.12059606426E+01  0.19918813050E+02  0.51100000000E-03 0.  1.
        -12    1    4    4    0    0 -0.18865592765E+02 -0.37199692222E+01 -0.63044709871E+01  0.20235985664E+02  0.00000000000E+00 0.  1.
</event>
<event>
 8    1  0.3011071E-007  0.9118800E+02  0.7816164E-02  0.1184000E+00
        -11   -1    0    0    0    0  0.00000000000E+00  0.00000000000E+00  0.45593999997E+02  0.45594000000E+02  0.51100000000E-03 0.  1.
         11   -1    0    0    0    0 -0.00000000000E+00 -0.00000000000E+00 -0.45593999997E+02  0.45594000000E+02  0.51100000000E-03 0. -1.
         23    2    1    2    0    0  0.00000000000E+00  0.00000000000E+00 -0.35527136788E-14  0.91188000000E+02  0.91188000000E+02 0.  0.
    9900012    2    3    3    0    0 -0.11864432087E+02  0.23768503123E+02 -0.25496520663E+02  0.54367094859E+02  0.40000024351E+02 0.  0.
        -12    1    3    3    0    0  0.11864432087E+02 -0.23768503123E+02  0.25496520663E+02  0.36820905141E+02  0.00000000000E+00 0.  1.
         11    1    4    4    0    0 -0.10554208329E+02  0.30287270964E+02 -0.15338106436E+02  0.35552322078E+02  0.51100000000E-03 0. -1.
        -11    1    4    4    0    0 -0.22575929792E+01  0.10227571711E+01  0.28324449661E+01  0.37637086814E+01  0.51100000000E-03 0.  1.
        -12    1    4    4    0    0  0.94736922118E+00 -0.75415250116E+01 -0.12990859194E+02  0.15051064100E+02  0.00000000000E+00 0.  1.
</event>
<event>
 8    1  0.3011071E-007  0.9118800E+02  0.7816164E-02  0.1184000E+00
        -11   -1    0    0    0    0  0.00000000000E+00  0.00000000000E+00  0.45593999997E+02  0.45594000000E+02  0.51100000000E-03 0.  1.
         11   -1    0    0    0    0 -0.00000000000E+00 -0.00000000000E+00 -0.45593999997E+02  0.45594000000E+02  0.51100000000E-03 0. -1.
         23    2    1    2    0    0  0.00000000000E+00  0.00000000000E+00  0.00000000000E+00  0.91188000000E+02  0.91188000000E+02 0.  0.
    9900012    2    3    3    0    0  0.39628022596E+01  0.88983263906E+01 -0.35508935760E+02  0.54367237744E+02  0.40000350083E+02 0.  0.
        -12    1    3    3    0    0 -0.39628022596E+01 -0.88983263906E+01  0.35508935760E+02  0.36820762256E+02  0.00000000000E+00 0.  1.
         11    1    4    4    0    0 -0.12254070377E+02  0.63667379781E+01 -0.11085995499E+02  0.17708667080E+02  0.51100000000E-03 0. -1.
        -11    1    4    4    0    0  0.88813428930E+01 -0.75937556074E+01 -0.20425544094E+02  0.23531813096E+02  0.51100000000E-03 0.  1.
        -12    1    4    4    0    0  0.73355297432E+01  0.10125344020E+02 -0.39973961673E+01  0.13126757568E+02  0.00000000000E+00 0.  1.
</event>
<event>
 8    1  0.3011071E-007  0.9118800E+02  0.7816164E-02  0.1184000E+00
        -11   -1    0    0    0    0  0.00000000000E+00  0.00000000000E+00  0.45593999997E+02  0.45594000000E+02  0.51100000000E-03 0. -1.
         11   -1    0    0    0    0 -0.00000000000E+00 -0.00000000000E+00 -0.45593999997E+02  0.45594000000E+02  0.51100000000E-03 0.  1.
         23    2    1    2    0    0  0.71054273576E-14  0.00000000000E+00  0.35527136788E-14  0.91188000000E+02  0.91188000000E+02 0.  0.
    9900012    2    3    3    0    0 -0.16248009381E+02  0.23604165819E+02  0.23121954799E+02  0.54367092262E+02  0.40000018430E+02 0.  0.
        -12    1    3    3    0    0  0.16248009381E+02 -0.23604165819E+02 -0.23121954799E+02  0.36820907738E+02  0.00000000000E+00 0.  1.
         11    1    4    4    0    0 -0.99663476913E+01  0.22078590750E+02 -0.66042232651E+00  0.24232796243E+02  0.51100000000E-03 0.  1.
        -11    1    4    4    0    0 -0.10613576983E+02 -0.41196080123E+01  0.14283093104E+02  0.18265430065E+02  0.51100000000E-03 0. -1.
        -12    1    4    4    0    0  0.43319152937E+01  0.56451830815E+01  0.94992840219E+01  0.11868865955E+02  0.00000000000E+00 0.  1.
</event>
<event>
 8    1  0.3011071E-007  0.9118800E+02  0.7816164E-02  0.1184000E+00
        -11   -1    0    0    0    0  0.00000000000E+00  0.00000000000E+00  0.45593999997E+02  0.45594000000E+02  0.51100000000E-03 0.  1.
         11   -1    0    0    0    0 -0.00000000000E+00 -0.00000000000E+00 -0.45593999997E+02  0.45594000000E+02  0.51100000000E-03 0. -1.
         23    2    1    2    0    0 -0.88817841970E-15  0.88817841970E-15  0.71054273576E-14  0.91188000000E+02  0.91188000000E+02 0.  0.
    9900012    2    3    3    0    0  0.46401878275E+01 -0.56232230942E+01  0.36091976690E+02  0.54367044520E+02  0.39999909593E+02 0.  0.
         12    1    3    3    0    0 -0.46401878275E+01  0.56232230942E+01 -0.36091976690E+02  0.36820955480E+02  0.00000000000E+00 0. -1.
         11    1    4    4    0    0 -0.24940897445E+01 -0.38864644812E+01  0.14613460870E+02  0.15325740722E+02  0.51100000000E-03 0. -1.
        -11    1    4    4    0    0  0.17312350188E+02 -0.71351415255E+01  0.58350719894E+01  0.19613153214E+02  0.51100000000E-03 0.  1.
         12    1    4    4    0    0 -0.10178072616E+02  0.53983829125E+01  0.15643443830E+02  0.19428150584E+02  0.00000000000E+00 0. -1.
</event>
<event>
 8    1  0.3011071E-007  0.9118800E+02  0.7816164E-02  0.1184000E+00
        -11   -1    0    0    0    0  0.00000000000E+00  0.00000000000E+00  0.45593999997E+02  0.45594000000E+02  0.51100000000E-03 0.  1.
         11   -1    0    0    0    0 -0.00000000000E+00 -0.00000000000E+00 -0.45593999997E+02  0.45594000000E+02  0.51100000000E-03 0. -1.
         23    2    1    2    0    0 -0.17763568394E-14  0.00000000000E+00  0.00000000000E+00  0.91188000000E+02  0.91188000000E+02 0.  0.
    9900012    2    3    3    0    0 -0.63963566037E+01 -0.24625201261E+02 -0.26617034059E+02  0.54367076369E+02  0.39999982197E+02 0.  0.
        -12    1    3    3    0    0  0.63963566037E+01  0.24625201261E+02  0.26617034059E+02  0.36820923631E+02  0.00000000000E+00 0.  1.
         11    1    4    4    0    0  0.25381584042E+01  0.18254287876E+01  0.66097754996E+00  0.31955171610E+01  0.51100000000E-03 0.  1.
        -11    1    4    4    0    0  0.80084527365E+01 -0.92008394707E+01 -0.23799986133E+02  0.26743786239E+02  0.51100000000E-03 0. -1.
        -12    1    4    4    0    0 -0.16942967744E+02 -0.17249790578E+02 -0.34780254759E+01  0.24427772968E+02  0.00000000000E+00 0.  1.
</event>
<event>
 8    1  0.3011071E-007  0.9118800E+02  0.7816164E-02  0.1184000E+00
        -11   -1    0    0    0    0  0.00000000000E+00  0.00000000000E+00  0.45593999997E+02  0.45594000000E+02  0.51100000000E-03 0.  1.
         11   -1    0    0    0    0 -0.00000000000E+00 -0.00000000000E+00 -0.45593999997E+02  0.45594000000E+02  0.51100000000E-03 0. -1.
         23    2    1    2    0    0  0.00000000000E+00  0.88817841970E-15  0.71054273576E-14  0.91188000000E+02  0.91188000000E+02 0.  0.
    9900012    2    3    3    0    0 -0.14079303112E+02 -0.68199720933E+01  0.33332372406E+02  0.54367002653E+02  0.39999814147E+02 0.  0.
         12    1    3    3    0    0  0.14079303112E+02  0.68199720933E+01 -0.33332372406E+02  0.36820997347E+02  0.00000000000E+00 0. -1.
         11    1    4    4    0    0  0.27118098602E+01 -0.35310632162E+01 -0.19108870356E+01  0.48449777789E+01  0.51100000000E-03 0. -1.
        -11    1    4    4    0    0 -0.25174314266E+01  0.10468538545E+02  0.22020164522E+01  0.10989842446E+02  0.51100000000E-03 0.  1.
        -12    1    4    4    0    0 -0.14273681545E+02 -0.13757447422E+02  0.33041242989E+02  0.38532182428E+02  0.00000000000E+00 0.  1.
</event>
<event>
 8    1  0.3011071E-007  0.9118800E+02  0.7816164E-02  0.1184000E+00
        -11   -1    0    0    0    0  0.00000000000E+00  0.00000000000E+00  0.45593999997E+02  0.45594000000E+02  0.51100000000E-03 0. -1.
         11   -1    0    0    0    0 -0.00000000000E+00 -0.00000000000E+00 -0.45593999997E+02  0.45594000000E+02  0.51100000000E-03 0.  1.
         23    2    1    2    0    0  0.88817841970E-15  0.71054273576E-14 -0.88817841970E-15  0.91188000000E+02  0.91188000000E+02 0.  0.
    9900012    2    3    3    0    0  0.61516451032E+01 -0.35673087862E+02  0.67355257470E+01  0.54367092323E+02  0.40000018568E+02 0.  0.
        -12    1    3    3    0    0 -0.61516451032E+01  0.35673087862E+02 -0.67355257470E+01  0.36820907677E+02  0.00000000000E+00 0.  1.
         11    1    4    4    0    0 -0.79341525861E+01 -0.12128220757E+02  0.39312649419E+01  0.15016636118E+02  0.51100000000E-03 0. -1.
        -11    1    4    4    0    0 -0.37762261626E+00  0.33222298934E+01  0.77489893713E+01  0.84395880731E+01  0.51100000000E-03 0.  1.
         12    1    4    4    0    0  0.14463420306E+02 -0.26867096998E+02 -0.49447285663E+01  0.30910868132E+02  0.00000000000E+00 0. -1.
</event>
<event>
 8    1  0.3011071E-007  0.9118800E+02  0.7816164E-02  0.1184000E+00
        -11   -1    0    0    0    0  0.00000000000E+00  0.00000000000E+00  0.45593999997E+02  0.45594000000E+02  0.51100000000E-03 0. -1.
         11   -1    0    0    0    0 -0.00000000000E+00 -0.00000000000E+00 -0.45593999997E+02  0.45594000000E+02  0.51100000000E-03 0.  1.
         23    2    1    2    0    0 -0.35527136788E-14  0.35527136788E-14  0.00000000000E+00  0.91188000000E+02  0.91188000000E+02 0.  0.
    9900012    2    3    3    0    0 -0.30847151422E+02  0.19272906452E+02  0.57260978751E+01  0.54367083786E+02  0.39999999108E+02 0.  0.
        -12    1    3    3    0    0  0.30847151422E+02 -0.19272906452E+02 -0.57260978751E+01  0.36820916214E+02  0.00000000000E+00 0.  1.
         11    1    4    4    0    0 -0.28410905719E+02  0.11666592519E+02  0.53957123200E+01  0.31183371474E+02  0.51100000000E-03 0. -1.
        -11    1    4    4    0    0 -0.33800014797E+01  0.91726082916E+01 -0.92333146360E+01  0.13446756200E+02  0.51100000000E-03 0.  1.
        -12    1    4    4    0    0  0.94375577754E+00 -0.15662943583E+01  0.95637001911E+01  0.97369561121E+01  0.00000000000E+00 0.  1.
</event>
<event>
 8    1  0.3011071E-007  0.9118800E+02  0.7816164E-02  0.1184000E+00
        -11   -1    0    0    0    0  0.00000000000E+00  0.00000000000E+00  0.45593999997E+02  0.45594000000E+02  0.51100000000E-03 0. -1.
         11   -1    0    0    0    0 -0.00000000000E+00 -0.00000000000E+00 -0.45593999997E+02  0.45594000000E+02  0.51100000000E-03 0.  1.
         23    2    1    2    0    0  0.00000000000E+00  0.00000000000E+00  0.44408920985E-15  0.91188000000E+02  0.91188000000E+02 0.  0.
    9900012    2    3    3    0    0 -0.34477071363E+02  0.12896774314E+02  0.88696015408E+00  0.54367055746E+02  0.39999935184E+02 0.  0.
         12    1    3    3    0    0  0.34477071363E+02 -0.12896774314E+02 -0.88696015408E+00  0.36820944254E+02  0.00000000000E+00 0. -1.
         11    1    4    4    0    0 -0.21697026753E+02  0.10316267458E+02 -0.61088264973E+00  0.24032468081E+02  0.51100000000E-03 0. -1.
        -11    1    4    4    0    0 -0.97733388244E+01 -0.62838066372E+01 -0.10124679052E+02  0.15411473122E+02  0.51100000000E-03 0.  1.
         12    1    4    4    0    0 -0.30067057851E+01  0.88643134932E+01  0.11622521855E+02  0.14923114543E+02  0.00000000000E+00 0. -1.
</event>
<event>
 8    1  0.3011071E-007  0.9118800E+02  0.7816164E-02  0.1184000E+00
        -11   -1    0    0    0    0  0.00000000000E+00  0.00000000000E+00  0.45593999997E+02  0.45594000000E+02  0.51100000000E-03 0.  1.
         11   -1    0    0    0    0 -0.00000000000E+00 -0.00000000000E+00 -0.45593999997E+02  0.45594000000E+02  0.51100000000E-03 0. -1.
         23    2    1    2    0    0 -0.71054273576E-14  0.00000000000E+00 -0.35527136788E-14  0.91188000000E+02  0.91188000000E+02 0.  0.
    9900012    2    3    3    0    0  0.19673500314E+02  0.16716873911E+02  0.26254152437E+02  0.54367068342E+02  0.39999963900E+02 0.  0.
         12    1    3    3    0    0 -0.19673500314E+02 -0.16716873911E+02 -0.26254152437E+02  0.36820931658E+02  0.00000000000E+00 0. -1.
         11    1    4    4    0    0  0.18396817087E+02 -0.91128232481E+01  0.17558411669E+02  0.27014519190E+02  0.51100000000E-03 0.  1.
        -11    1    4    4    0    0  0.16019584498E+01  0.17926639457E+02  0.54771156512E+01  0.18813013294E+02  0.51100000000E-03 0. -1.
        -12    1    4    4    0    0 -0.32527522258E+00  0.79030577029E+01  0.32186251162E+01  0.85395358577E+01  0.00000000000E+00 0.  1.
</event>
<event>
 8    1  0.3011071E-007  0.9118800E+02  0.7816164E-02  0.1184000E+00
        -11   -1    0    0    0    0  0.00000000000E+00  0.00000000000E+00  0.45593999997E+02  0.45594000000E+02  0.51100000000E-03 0. -1.
         11   -1    0    0    0    0 -0.00000000000E+00 -0.00000000000E+00 -0.45593999997E+02  0.45594000000E+02  0.51100000000E-03 0.  1.
         23    2    1    2    0    0 -0.44408920985E-15  0.35527136788E-14 -0.35527136788E-14  0.91188000000E+02  0.91188000000E+02 0.  0.
    9900012    2    3    3    0    0 -0.20614371291E+01 -0.24994580910E+02 -0.26959251165E+02  0.54367084459E+02  0.40000000642E+02 0.  0.
         12    1    3    3    0    0  0.20614371291E+01  0.24994580910E+02  0.26959251165E+02  0.36820915541E+02  0.00000000000E+00 0. -1.
         11    1    4    4    0    0  0.68035010391E+01 -0.18880312768E+02 -0.11791539630E+02  0.23276474039E+02  0.51100000000E-03 0. -1.
        -11    1    4    4    0    0 -0.11593866500E+02 -0.29338682472E+01 -0.20846258506E+02  0.24033139979E+02  0.51100000000E-03 0.  1.
        -12    1    4    4    0    0  0.27289283320E+01 -0.31803998943E+01  0.56785469702E+01  0.70574704408E+01  0.00000000000E+00 0.  1.
</event>
<event>
 8    1  0.3011071E-007  0.9118800E+02  0.7816164E-02  0.1184000E+00
        -11   -1    0    0    0    0  0.00000000000E+00  0.00000000000E+00  0.45593999997E+02  0.45594000000E+02  0.51100000000E-03 0.  1.
         11   -1    0    0    0    0 -0.00000000000E+00 -0.00000000000E+00 -0.45593999997E+02  0.45594000000E+02  0.51100000000E-03 0. -1.
         23    2    1    2    0    0 -0.88817841970E-15  0.71054273576E-14 -0.88817841970E-15  0.91188000000E+02  0.91188000000E+02 0.  0.
    9900012    2    3    3    0    0 -0.72405490545E+01 -0.35513131044E+02  0.64939231375E+01  0.54367094731E+02  0.40000024058E+02 0.  0.
        -12    1    3    3    0    0  0.72405490545E+01  0.35513131044E+02 -0.64939231375E+01  0.36820905269E+02  0.00000000000E+00 0.  1.
         11    1    4    4    0    0  0.92098150566E+01 -0.10350483399E+02  0.73478924059E+00  0.13874188821E+02  0.51100000000E-03 0. -1.
        -11    1    4    4    0    0 -0.20578182946E+02 -0.27814345942E+02  0.72794084908E+01  0.35356601106E+02  0.51100000000E-03 0.  1.
         12    1    4    4    0    0  0.41278188347E+01  0.26516982973E+01 -0.15202745939E+01  0.51363048033E+01  0.00000000000E+00 0. -1.
</event>
<event>
 8    1  0.3011071E-007  0.9118800E+02  0.7816164E-02  0.1184000E+00
        -11   -1    0    0    0    0  0.00000000000E+00  0.00000000000E+00  0.45593999997E+02  0.45594000000E+02  0.51100000000E-03 0. -1.
         11   -1    0    0    0    0 -0.00000000000E+00 -0.00000000000E+00 -0.45593999997E+02  0.45594000000E+02  0.51100000000E-03 0.  1.
         23    2    1    2    0    0 -0.35527136788E-14  0.35527136788E-14  0.17763568394E-14  0.91188000000E+02  0.91188000000E+02 0.  0.
    9900012    2    3    3    0    0 -0.28449193897E+02  0.21321919193E+02  0.95811820002E+01  0.54367083119E+02  0.39999997586E+02 0.  0.
        -12    1    3    3    0    0  0.28449193897E+02 -0.21321919193E+02 -0.95811820002E+01  0.36820916881E+02  0.00000000000E+00 0.  1.
         11    1    4    4    0    0 -0.12247593129E+02  0.13895046906E+02  0.34544282554E+00  0.18525528251E+02  0.51100000000E-03 0. -1.
        -11    1    4    4    0    0  0.81875046510E+01  0.21368247609E+01  0.66297408653E+01  0.10749637979E+02  0.51100000000E-03 0.  1.
        -12    1    4    4    0    0 -0.24389105419E+02  0.52900475256E+01  0.26059983093E+01  0.25091916889E+02  0.00000000000E+00 0.  1.
</event>
<event>
 8    1  0.3011071E-007  0.9118800E+02  0.7816164E-02  0.1184000E+00
        -11   -1    0    0    0    0  0.00000000000E+00  0.00000000000E+00  0.45593999997E+02  0.45594000000E+02  0.51100000000E-03 0. -1.
         11   -1    0    0    0    0 -0.00000000000E+00 -0.00000000000E+00 -0.45593999997E+02  0.45594000000E+02  0.51100000000E-03 0.  1.
         23    2    1    2    0    0 -0.71054273576E-14  0.00000000000E+00  0.00000000000E+00  0.91188000000E+02  0.91188000000E+02 0.  0.
    9900012    2    3    3    0    0  0.23807095109E+02 -0.17508308686E+02  0.21964995571E+02  0.54367086364E+02  0.40000004984E+02 0.  0.
        -12    1    3    3    0    0 -0.23807095109E+02  0.17508308686E+02 -0.21964995571E+02  0.36820913636E+02  0.00000000000E+00 0.  1.
         11    1    4    4    0    0  0.23357316226E+02 -0.24708546354E+02  0.17506362289E+02  0.38243289674E+02  0.51100000000E-03 0. -1.
        -11    1    4    4    0    0  0.44295076940E+01  0.97405966207E+01  0.38076379899E+01  0.11357722847E+02  0.51100000000E-03 0.  1.
        -12    1    4    4    0    0 -0.39797288110E+01 -0.25403589520E+01  0.65099529186E+00  0.47660738438E+01  0.00000000000E+00 0.  1.
</event>
<event>
 8    1  0.3011071E-007  0.9118800E+02  0.7816164E-02  0.1184000E+00
        -11   -1    0    0    0    0  0.00000000000E+00  0.00000000000E+00  0.45593999997E+02  0.45594000000E+02  0.51100000000E-03 0. -1.
         11   -1    0    0    0    0 -0.00000000000E+00 -0.00000000000E+00 -0.45593999997E+02  0.45594000000E+02  0.51100000000E-03 0.  1.
         23    2    1    2    0    0  0.00000000000E+00  0.00000000000E+00  0.00000000000E+00  0.91188000000E+02  0.91188000000E+02 0.  0.
    9900012    2    3    3    0    0 -0.15019808537E+02  0.22825619127E+01  0.33540654461E+02  0.54367078786E+02  0.39999987709E+02 0.  0.
        -12    1    3    3    0    0  0.15019808537E+02 -0.22825619127E+01 -0.33540654461E+02  0.36820921214E+02  0.00000000000E+00 0.  1.
         11    1    4    4    0    0  0.75137402373E+01 -0.28383387406E+01 -0.28723146311E+01  0.85301026232E+01  0.51100000000E-03 0.  1.
        -11    1    4    4    0    0 -0.14187628299E+01  0.55477688504E+01  0.13561854912E+02  0.14721227398E+02  0.51100000000E-03 0. -1.
        -12    1    4    4    0    0 -0.21114785945E+02 -0.42686819710E+00  0.22851114179E+02  0.31115748765E+02  0.00000000000E+00 0.  1.
</event>
<event>
 8    1  0.3011071E-007  0.9118800E+02  0.7816164E-02  0.1184000E+00
        -11   -1    0    0    0    0  0.00000000000E+00  0.00000000000E+00  0.45593999997E+02  0.45594000000E+02  0.51100000000E-03 0. -1.
         11   -1    0    0    0    0 -0.00000000000E+00 -0.00000000000E+00 -0.45593999997E+02  0.45594000000E+02  0.51100000000E-03 0.  1.
         23    2    1    2    0    0 -0.88817841970E-15  0.00000000000E+00  0.00000000000E+00  0.91188000000E+02  0.91188000000E+02 0.  0.
    9900012    2    3    3    0    0 -0.56109788835E+01  0.35987465477E+02 -0.54050211434E+01  0.54366878221E+02  0.39999530478E+02 0.  0.
        -12    1    3    3    0    0  0.56109788835E+01 -0.35987465477E+02  0.54050211434E+01  0.36821121779E+02  0.00000000000E+00 0.  1.
         11    1    4    4    0    0 -0.88528592814E+01  0.34461411116E+01  0.32298639880E+01  0.10033993605E+02  0.51100000000E-03 0. -1.
        -11    1    4    4    0    0 -0.87834931336E+01  0.43460970057E+01  0.47439948673E+01  0.10887782069E+02  0.51100000000E-03 0.  1.
         12    1    4    4    0    0  0.12025373532E+02  0.28195227360E+02 -0.13378879999E+02  0.33445102548E+02  0.00000000000E+00 0. -1.
</event>
<event>
 8    1  0.3011071E-007  0.9118800E+02  0.7816164E-02  0.1184000E+00
        -11   -1    0    0    0    0  0.00000000000E+00  0.00000000000E+00  0.45593999997E+02  0.45594000000E+02  0.51100000000E-03 0.  1.
         11   -1    0    0    0    0 -0.00000000000E+00 -0.00000000000E+00 -0.45593999997E+02  0.45594000000E+02  0.51100000000E-03 0. -1.
         23    2    1    2    0    0  0.00000000000E+00  0.17763568394E-14  0.35527136788E-14  0.91188000000E+02  0.91188000000E+02 0.  0.
    9900012    2    3    3    0    0  0.30753987678E+02  0.10237962390E+02  0.17468735914E+02  0.54367077056E+02  0.39999983764E+02 0.  0.
         12    1    3    3    0    0 -0.30753987678E+02 -0.10237962390E+02 -0.17468735914E+02  0.36820922944E+02  0.00000000000E+00 0. -1.
         11    1    4    4    0    0  0.20598880747E+02  0.98564491220E+01  0.20931748621E+02  0.30977436594E+02  0.51100000000E-03 0. -1.
        -11    1    4    4    0    0 -0.12789603280E+01 -0.75412058338E+01 -0.53743994522E+01  0.93482455403E+01  0.51100000000E-03 0.  1.
         12    1    4    4    0    0  0.11434067259E+02  0.79227191022E+01  0.19113867450E+01  0.14041394922E+02  0.00000000000E+00 0. -1.
</event>
<event>
 8    1  0.3011071E-007  0.9118800E+02  0.7816164E-02  0.1184000E+00
        -11   -1    0    0    0    0  0.00000000000E+00  0.00000000000E+00  0.45593999997E+02  0.45594000000E+02  0.51100000000E-03 0. -1.
         11   -1    0    0    0    0 -0.00000000000E+00 -0.00000000000E+00 -0.45593999997E+02  0.45594000000E+02  0.51100000000E-03 0.  1.
         23    2    1    2    0    0  0.00000000000E+00 -0.17763568394E-14  0.00000000000E+00  0.91188000000E+02  0.91188000000E+02 0.  0.
    9900012    2    3    3    0    0 -0.21394522525E+02  0.10742268742E+02  0.27976017625E+02  0.54367088904E+02  0.40000010774E+02 0.  0.
        -12    1    3    3    0    0  0.21394522525E+02 -0.10742268742E+02 -0.27976017625E+02  0.36820911096E+02  0.00000000000E+00 0.  1.
         11    1    4    4    0    0 -0.23609861768E+02 -0.91033622400E+00  0.27455312416E+02  0.36222209552E+02  0.51100000000E-03 0. -1.
        -11    1    4    4    0    0  0.30960518780E+01  0.95565694843E+01  0.63524758083E+01  0.11885600813E+02  0.51100000000E-03 0.  1.
         12    1    4    4    0    0 -0.88071263572E+00  0.20960354818E+01 -0.58317705997E+01  0.62592785379E+01  0.00000000000E+00 0. -1.
</event>
<event>
 8    1  0.3011071E-007  0.9118800E+02  0.7816164E-02  0.1184000E+00
        -11   -1    0    0    0    0  0.00000000000E+00  0.00000000000E+00  0.45593999997E+02  0.45594000000E+02  0.51100000000E-03 0. -1.
         11   -1    0    0    0    0 -0.00000000000E+00 -0.00000000000E+00 -0.45593999997E+02  0.45594000000E+02  0.51100000000E-03 0.  1.
         23    2    1    2    0    0  0.00000000000E+00  0.44408920985E-15 -0.35527136788E-14  0.91188000000E+02  0.91188000000E+02 0.  0.
    9900012    2    3    3    0    0 -0.25243540440E+02  0.28496294132E+01 -0.26653753029E+02  0.54367091914E+02  0.40000017637E+02 0.  0.
         12    1    3    3    0    0  0.25243540440E+02 -0.28496294132E+01  0.26653753029E+02  0.36820908086E+02  0.00000000000E+00 0. -1.
         11    1    4    4    0    0 -0.39363161882E+01  0.72152246147E+01 -0.52470827572E+01  0.97512014181E+01  0.51100000000E-03 0. -1.
        -11    1    4    4    0    0 -0.30947133903E+01 -0.40702294036E+01  0.83123157193E+01  0.97590271669E+01  0.51100000000E-03 0.  1.
        -12    1    4    4    0    0 -0.18212510862E+02 -0.29536579797E+00 -0.29718985991E+02  0.34856863329E+02  0.00000000000E+00 0.  1.
</event>
<event>
 8    1  0.3011071E-007  0.9118800E+02  0.7816164E-02  0.1184000E+00
        -11   -1    0    0    0    0  0.00000000000E+00  0.00000000000E+00  0.45593999997E+02  0.45594000000E+02  0.51100000000E-03 0.  1.
         11   -1    0    0    0    0 -0.00000000000E+00 -0.00000000000E+00 -0.45593999997E+02  0.45594000000E+02  0.51100000000E-03 0. -1.
         23    2    1    2    0    0  0.71054273576E-14  0.17763568394E-14  0.00000000000E+00  0.91188000000E+02  0.91188000000E+02 0.  0.
    9900012    2    3    3    0    0 -0.34123424138E+02 -0.13021807849E+02  0.46682068743E+01  0.54367248922E+02  0.40000375565E+02 0.  0.
        -12    1    3    3    0    0  0.34123424138E+02  0.13021807849E+02 -0.46682068743E+01  0.36820751078E+02  0.00000000000E+00 0.  1.
         11    1    4    4    0    0 -0.12473944284E+01  0.27458303861E+01  0.14075646296E+01  0.33281850635E+01  0.51100000000E-03 0. -1.
        -11    1    4    4    0    0  0.67695927635E+01 -0.74464361174E+01  0.30965116973E+01  0.10529253629E+02  0.51100000000E-03 0.  1.
         12    1    4    4    0    0 -0.39645622473E+02 -0.83212021179E+01  0.16413054730E+00  0.40509810229E+02  0.00000000000E+00 0. -1.
</event>
<event>
 8    1  0.3011071E-007  0.9118800E+02  0.7816164E-02  0.1184000E+00
        -11   -1    0    0    0    0  0.00000000000E+00  0.00000000000E+00  0.45593999997E+02  0.45594000000E+02  0.51100000000E-03 0.  1.
         11   -1    0    0    0    0 -0.00000000000E+00 -0.00000000000E+00 -0.45593999997E+02  0.45594000000E+02  0.51100000000E-03 0. -1.
         23    2    1    2    0    0  0.00000000000E+00  0.00000000000E+00  0.35527136788E-14  0.91188000000E+02  0.91188000000E+02 0.  0.
    9900012    2    3    3    0    0  0.16642403783E+02  0.18363119889E+02 -0.27232450495E+02  0.54367080190E+02  0.39999990908E+02 0.  0.
        -12    1    3    3    0    0 -0.16642403783E+02 -0.18363119889E+02  0.27232450495E+02  0.36820919810E+02  0.00000000000E+00 0.  1.
         11    1    4    4    0    0  0.13469340752E+02  0.11500873699E+02 -0.25172033096E+01  0.17889369718E+02  0.51100000000E-03 0. -1.
        -11    1    4    4    0    0 -0.24454182400E+01 -0.51801658351E+01  0.24547083162E+01  0.62321570605E+01  0.51100000000E-03 0.  1.
         12    1    4    4    0    0  0.56184812703E+01  0.12042412025E+02 -0.27169955502E+02  0.30245553411E+02  0.00000000000E+00 0. -1.
</event>
<event>
 8    1  0.3011071E-007  0.9118800E+02  0.7816164E-02  0.1184000E+00
        -11   -1    0    0    0    0  0.00000000000E+00  0.00000000000E+00  0.45593999997E+02  0.45594000000E+02  0.51100000000E-03 0. -1.
         11   -1    0    0    0    0 -0.00000000000E+00 -0.00000000000E+00 -0.45593999997E+02  0.45594000000E+02  0.51100000000E-03 0.  1.
         23    2    1    2    0    0 -0.35527136788E-14  0.00000000000E+00  0.00000000000E+00  0.91188000000E+02  0.91188000000E+02 0.  0.
    9900012    2    3    3    0    0  0.82698840128E+01  0.35815283785E+02  0.21572855823E+01  0.54367089972E+02  0.40000013209E+02 0.  0.
        -12    1    3    3    0    0 -0.82698840128E+01 -0.35815283785E+02 -0.21572855823E+01  0.36820910028E+02  0.00000000000E+00 0.  1.
         11    1    4    4    0    0 -0.72262258125E+01  0.14610043563E+01  0.95960085382E-01  0.73730646153E+01  0.51100000000E-03 0. -1.
        -11    1    4    4    0    0  0.23450074968E+02  0.24870683818E+02 -0.11661766814E+01  0.34202586129E+02  0.51100000000E-03 0.  1.
        -12    1    4    4    0    0 -0.79539651429E+01  0.94835956107E+01  0.32275021784E+01  0.12791439228E+02  0.00000000000E+00 0.  1.
</event>
<event>
 8    1  0.3011071E-007  0.9118800E+02  0.7816164E-02  0.1184000E+00
        -11   -1    0    0    0    0  0.00000000000E+00  0.00000000000E+00  0.45593999997E+02  0.45594000000E+02  0.51100000000E-03 0.  1.
         11   -1    0    0    0    0 -0.00000000000E+00 -0.00000000000E+00 -0.45593999997E+02  0.45594000000E+02  0.51100000000E-03 0. -1.
         23    2    1    2    0    0  0.35527136788E-14  0.00000000000E+00  0.35527136788E-14  0.91188000000E+02  0.91188000000E+02 0.  0.
    9900012    2    3    3    0    0  0.11824284479E+02 -0.28183564201E+02 -0.20534198830E+02  0.54367077740E+02  0.39999985324E+02 0.  0.
        -12    1    3    3    0    0 -0.11824284479E+02  0.28183564201E+02  0.20534198830E+02  0.36820922260E+02  0.00000000000E+00 0.  1.
         11    1    4    4    0    0  0.12550772084E+01  0.11323116593E+01 -0.58693114108E+01  0.61078773064E+01  0.51100000000E-03 0. -1.
        -11    1    4    4    0    0  0.21205833549E+02 -0.27786931014E+02 -0.89221133352E+01  0.36074991591E+02  0.51100000000E-03 0.  1.
        -12    1    4    4    0    0 -0.10636626279E+02 -0.15289448461E+01 -0.57427740837E+01  0.12184208843E+02  0.00000000000E+00 0.  1.
</event>
<event>
 8    1  0.3011071E-007  0.9118800E+02  0.7816164E-02  0.1184000E+00
        -11   -1    0    0    0    0  0.00000000000E+00  0.00000000000E+00  0.45593999997E+02  0.45594000000E+02  0.51100000000E-03 0.  1.
         11   -1    0    0    0    0 -0.00000000000E+00 -0.00000000000E+00 -0.45593999997E+02  0.45594000000E+02  0.51100000000E-03 0. -1.
         23    2    1    2    0    0  0.00000000000E+00 -0.88817841970E-15  0.00000000000E+00  0.91188000000E+02  0.91188000000E+02 0.  0.
    9900012    2    3    3    0    0  0.22491623117E+02 -0.50783001084E+01 -0.28707432755E+02  0.54367096455E+02  0.40000027989E+02 0.  0.
         12    1    3    3    0    0 -0.22491623117E+02  0.50783001084E+01  0.28707432755E+02  0.36820903545E+02  0.00000000000E+00 0. -1.
         11    1    4    4    0    0 -0.75523291229E+01 -0.82616750388E+01 -0.14184044330E+02  0.18068759323E+02  0.51100000000E-03 0. -1.
        -11    1    4    4    0    0  0.26652868305E+02 -0.99477448244E+00 -0.15472077601E+02  0.30834236665E+02  0.51100000000E-03 0.  1.
         12    1    4    4    0    0  0.33910839356E+01  0.41781494128E+01  0.94868917622E+00  0.54641004683E+01  0.00000000000E+00 0. -1.
</event>
<event>
 8    1  0.3011071E-007  0.9118800E+02  0.7816164E-02  0.1184000E+00
        -11   -1    0    0    0    0  0.00000000000E+00  0.00000000000E+00  0.45593999997E+02  0.45594000000E+02  0.51100000000E-03 0.  1.
         11   -1    0    0    0    0 -0.00000000000E+00 -0.00000000000E+00 -0.45593999997E+02  0.45594000000E+02  0.51100000000E-03 0. -1.
         23    2    1    2    0    0  0.00000000000E+00  0.00000000000E+00 -0.35527136788E-14  0.91188000000E+02  0.91188000000E+02 0.  0.
    9900012    2    3    3    0    0  0.28605659289E+01  0.34733202330E+02 -0.11883186876E+02  0.54366969164E+02  0.39999737802E+02 0.  0.
        -12    1    3    3    0    0 -0.28605659289E+01 -0.34733202330E+02  0.11883186876E+02  0.36821030836E+02  0.00000000000E+00 0.  1.
         11    1    4    4    0    0  0.28392168377E+01  0.25191571304E+02 -0.18301556888E+02  0.31266969821E+02  0.51100000000E-03 0. -1.
        -11    1    4    4    0    0  0.96723505981E+01  0.20438416167E+01  0.38666670720E+01  0.10615214042E+02  0.51100000000E-03 0.  1.
        -12    1    4    4    0    0 -0.96510015069E+01  0.74977894091E+01  0.25517029401E+01  0.12484785301E+02  0.00000000000E+00 0.  1.
</event>
<event>
 8    1  0.3011071E-007  0.9118800E+02  0.7816164E-02  0.1184000E+00
        -11   -1    0    0    0    0  0.00000000000E+00  0.00000000000E+00  0.45593999997E+02  0.45594000000E+02  0.51100000000E-03 0.  1.
         11   -1    0    0    0    0 -0.00000000000E+00 -0.00000000000E+00 -0.45593999997E+02  0.45594000000E+02  0.51100000000E-03 0. -1.
         23    2    1    2    0    0 -0.88817841970E-15 -0.35527136788E-14  0.00000000000E+00  0.91188000000E+02  0.91188000000E+02 0.  0.
    9900012    2    3    3    0    0  0.53343999531E+01 -0.14986211317E+02 -0.33207497651E+02  0.54367078600E+02  0.39999987285E+02 0.  0.
        -12    1    3    3    0    0 -0.53343999531E+01  0.14986211317E+02  0.33207497651E+02  0.36820921400E+02  0.00000000000E+00 0.  1.
         11    1    4    4    0    0  0.18509984497E+01 -0.21910677719E+01 -0.15926993972E+00  0.28726887086E+01  0.51100000000E-03 0. -1.
        -11    1    4    4    0    0  0.18108709598E+02 -0.16302217472E+02 -0.22055833230E+02  0.32865596565E+02  0.51100000000E-03 0.  1.
         12    1    4    4    0    0 -0.14625308095E+02  0.35070739274E+01 -0.10992394481E+02  0.18628793327E+02  0.00000000000E+00 0. -1.
</event>
<event>
 8    1  0.3011071E-007  0.9118800E+02  0.7816164E-02  0.1184000E+00
        -11   -1    0    0    0    0  0.00000000000E+00  0.00000000000E+00  0.45593999997E+02  0.45594000000E+02  0.51100000000E-03 0.  1.
         11   -1    0    0    0    0 -0.00000000000E+00 -0.00000000000E+00 -0.45593999997E+02  0.45594000000E+02  0.51100000000E-03 0. -1.
         23    2    1    2    0    0  0.00000000000E+00  0.00000000000E+00  0.53290705182E-14  0.91188000000E+02  0.91188000000E+02 0.  0.
    9900012    2    3    3    0    0  0.15228501995E+02  0.31747906797E+02  0.10767604204E+02  0.54367107027E+02  0.40000052090E+02 0.  0.
        -12    1    3    3    0    0 -0.15228501995E+02 -0.31747906797E+02 -0.10767604204E+02  0.36820892973E+02  0.00000000000E+00 0.  1.
         11    1    4    4    0    0 -0.37600721956E+01  0.58341539588E+01  0.16507857019E+02  0.17907675420E+02  0.51100000000E-03 0. -1.
        -11    1    4    4    0    0  0.17217984230E+02  0.13291311061E+02  0.14957936272E+01  0.21802645011E+02  0.51100000000E-03 0.  1.
         12    1    4    4    0    0  0.17705899608E+01  0.12622441777E+02 -0.72360464414E+01  0.14656786596E+02  0.00000000000E+00 0. -1.
</event>
<event>
 8    1  0.3011071E-007  0.9118800E+02  0.7816164E-02  0.1184000E+00
        -11   -1    0    0    0    0  0.00000000000E+00  0.00000000000E+00  0.45593999997E+02  0.45594000000E+02  0.51100000000E-03 0.  1.
         11   -1    0    0    0    0 -0.00000000000E+00 -0.00000000000E+00 -0.45593999997E+02  0.45594000000E+02  0.51100000000E-03 0. -1.
         23    2    1    2    0    0 -0.88817841970E-15  0.53290705182E-14  0.00000000000E+00  0.91188000000E+02  0.91188000000E+02 0.  0.
    9900012    2    3    3    0    0 -0.67648235227E+01  0.14021237381E+02  0.33367994188E+02  0.54367068845E+02  0.39999965046E+02 0.  0.
         12    1    3    3    0    0  0.67648235227E+01 -0.14021237381E+02 -0.33367994188E+02  0.36820931155E+02  0.00000000000E+00 0. -1.
         11    1    4    4    0    0 -0.18334767215E+02  0.16068215647E+02  0.97573059446E+01  0.26259403315E+02  0.51100000000E-03 0. -1.
        -11    1    4    4    0    0  0.11455425986E+02 -0.24692731307E+01  0.24476754476E+02  0.27137347038E+02  0.51100000000E-03 0.  1.
         12    1    4    4    0    0  0.11451770624E+00  0.42229486448E+00 -0.86606623238E+00  0.97031849229E+00  0.00000000000E+00 0. -1.
</event>
<event>
 8    1  0.3011071E-007  0.9118800E+02  0.7816164E-02  0.1184000E+00
        -11   -1    0    0    0    0  0.00000000000E+00  0.00000000000E+00  0.45593999997E+02  0.45594000000E+02  0.51100000000E-03 0. -1.
         11   -1    0    0    0    0 -0.00000000000E+00 -0.00000000000E+00 -0.45593999997E+02  0.45594000000E+02  0.51100000000E-03 0.  1.
         23    2    1    2    0    0 -0.48849813084E-14  0.00000000000E+00  0.17763568394E-14  0.91188000000E+02  0.91188000000E+02 0.  0.
    9900012    2    3    3    0    0 -0.17482652185E+01 -0.33380921860E+02 -0.15441406047E+02  0.54367090231E+02  0.40000013799E+02 0.  0.
         12    1    3    3    0    0  0.17482652185E+01  0.33380921860E+02  0.15441406047E+02  0.36820909769E+02  0.00000000000E+00 0. -1.
         11    1    4    4    0    0 -0.18089724238E+02 -0.11722259653E+02  0.71270426392E+00  0.21567508943E+02  0.51100000000E-03 0. -1.
        -11    1    4    4    0    0  0.10393299327E+00 -0.42217243580E+01 -0.48395738428E+01  0.64230237321E+01  0.51100000000E-03 0.  1.
         12    1    4    4    0    0  0.16237526026E+02 -0.17436937850E+02 -0.11314536468E+02  0.26376557556E+02  0.00000000000E+00 0. -1.
</event>
<event>
 8    1  0.3011071E-007  0.9118800E+02  0.7816164E-02  0.1184000E+00
        -11   -1    0    0    0    0  0.00000000000E+00  0.00000000000E+00  0.45593999997E+02  0.45594000000E+02  0.51100000000E-03 0. -1.
         11   -1    0    0    0    0 -0.00000000000E+00 -0.00000000000E+00 -0.45593999997E+02  0.45594000000E+02  0.51100000000E-03 0.  1.
         23    2    1    2    0    0  0.17763568394E-14 -0.17763568394E-14  0.71054273576E-14  0.91188000000E+02  0.91188000000E+02 0.  0.
    9900012    2    3    3    0    0  0.87235249582E+01 -0.20463741947E+01 -0.35714033053E+02  0.54367086215E+02  0.40000004644E+02 0.  0.
         12    1    3    3    0    0 -0.87235249582E+01  0.20463741947E+01  0.35714033053E+02  0.36820913785E+02  0.00000000000E+00 0. -1.
         11    1    4    4    0    0  0.77017945563E+01 -0.13476552584E+02 -0.36328824252E+02  0.39505930957E+02  0.51100000000E-03 0.  1.
        -11    1    4    4    0    0 -0.23978897944E+01  0.10875002233E+02 -0.69388816016E+00  0.11157823715E+02  0.51100000000E-03 0. -1.
        -12    1    4    4    0    0  0.34196201963E+01  0.55517615718E+00  0.13086793591E+01  0.37033315430E+01  0.00000000000E+00 0.  1.
</event>
<event>
 8    1  0.3011071E-007  0.9118800E+02  0.7816164E-02  0.1184000E+00
        -11   -1    0    0    0    0  0.00000000000E+00  0.00000000000E+00  0.45593999997E+02  0.45594000000E+02  0.51100000000E-03 0. -1.
         11   -1    0    0    0    0 -0.00000000000E+00 -0.00000000000E+00 -0.45593999997E+02  0.45594000000E+02  0.51100000000E-03 0.  1.
         23    2    1    2    0    0  0.00000000000E+00  0.13322676296E-14  0.00000000000E+00  0.91188000000E+02  0.91188000000E+02 0.  0.
    9900012    2    3    3    0    0 -0.10540990207E+02  0.19897637502E+01  0.35223668846E+02  0.54367102655E+02  0.40000042122E+02 0.  0.
        -12    1    3    3    0    0  0.10540990207E+02 -0.19897637502E+01 -0.35223668846E+02  0.36820897345E+02  0.00000000000E+00 0.  1.
         11    1    4    4    0    0 -0.15954836397E+02  0.13614023691E+02  0.22109441240E+02  0.30475003490E+02  0.51100000000E-03 0. -1.
        -11    1    4    4    0    0  0.88326630497E+01 -0.35140707080E+01  0.19984856264E+01  0.97138341838E+01  0.51100000000E-03 0.  1.
         12    1    4    4    0    0 -0.34188168589E+01 -0.81101892324E+01  0.11115741980E+02  0.14178264981E+02  0.00000000000E+00 0. -1.
</event>
<event>
 8    1  0.3011071E-007  0.9118800E+02  0.7816164E-02  0.1184000E+00
        -11   -1    0    0    0    0  0.00000000000E+00  0.00000000000E+00  0.45593999997E+02  0.45594000000E+02  0.51100000000E-03 0.  1.
         11   -1    0    0    0    0 -0.00000000000E+00 -0.00000000000E+00 -0.45593999997E+02  0.45594000000E+02  0.51100000000E-03 0. -1.
         23    2    1    2    0    0 -0.35527136788E-14 -0.35527136788E-14  0.00000000000E+00  0.91188000000E+02  0.91188000000E+02 0.  0.
    9900012    2    3    3    0    0  0.18422528087E+02  0.29505390391E+02 -0.12075676928E+02  0.54367087783E+02  0.40000008219E+02 0.  0.
         12    1    3    3    0    0 -0.18422528087E+02 -0.29505390391E+02  0.12075676928E+02  0.36820912217E+02  0.00000000000E+00 0. -1.
         11    1    4    4    0    0  0.76913741359E+01  0.12488136911E+02  0.57804223785E+01  0.15764646610E+02  0.51100000000E-03 0. -1.
        -11    1    4    4    0    0  0.18778730232E+02  0.50119214396E+01 -0.75489828534E+01  0.20850592510E+02  0.51100000000E-03 0.  1.
         12    1    4    4    0    0 -0.80475762805E+01  0.12005332041E+02 -0.10307116453E+02  0.17751848663E+02  0.00000000000E+00 0. -1.
</event>
<event>
 8    1  0.3011071E-007  0.9118800E+02  0.7816164E-02  0.1184000E+00
        -11   -1    0    0    0    0  0.00000000000E+00  0.00000000000E+00  0.45593999997E+02  0.45594000000E+02  0.51100000000E-03 0.  1.
         11   -1    0    0    0    0 -0.00000000000E+00 -0.00000000000E+00 -0.45593999997E+02  0.45594000000E+02  0.51100000000E-03 0. -1.
         23    2    1    2    0    0 -0.26645352591E-14 -0.17763568394E-14  0.00000000000E+00  0.91188000000E+02  0.91188000000E+02 0.  0.
    9900012    2    3    3    0    0  0.57163705835E+01  0.79480320254E+01  0.35495478670E+02  0.54367121252E+02  0.40000084519E+02 0.  0.
         12    1    3    3    0    0 -0.57163705835E+01 -0.79480320254E+01 -0.35495478670E+02  0.36820878748E+02  0.00000000000E+00 0. -1.
         11    1    4    4    0    0  0.12852906381E+02 -0.69616332374E+01  0.70377885963E+01  0.16223193532E+02  0.51100000000E-03 0. -1.
        -11    1    4    4    0    0  0.45219973626E+01  0.12224190954E+02  0.11443684935E+02  0.17344659979E+02  0.51100000000E-03 0.  1.
         12    1    4    4    0    0 -0.11658533160E+02  0.26854743084E+01  0.17014005139E+02  0.20799267741E+02  0.00000000000E+00 0. -1.
</event>
<event>
 8    1  0.3011071E-007  0.9118800E+02  0.7816164E-02  0.1184000E+00
        -11   -1    0    0    0    0  0.00000000000E+00  0.00000000000E+00  0.45593999997E+02  0.45594000000E+02  0.51100000000E-03 0.  1.
         11   -1    0    0    0    0 -0.00000000000E+00 -0.00000000000E+00 -0.45593999997E+02  0.45594000000E+02  0.51100000000E-03 0. -1.
         23    2    1    2    0    0 -0.35527136788E-14 -0.35527136788E-14  0.00000000000E+00  0.91188000000E+02  0.91188000000E+02 0.  0.
    9900012    2    3    3    0    0 -0.14676774506E+02 -0.27538879827E+02  0.19544492722E+02  0.54367016746E+02  0.39999846276E+02 0.  0.
         12    1    3    3    0    0  0.14676774506E+02  0.27538879827E+02 -0.19544492722E+02  0.36820983254E+02  0.00000000000E+00 0. -1.
         11    1    4    4    0    0 -0.30952874755E+01 -0.35474145392E+02  0.12519500479E+02  0.37745644628E+02  0.51100000000E-03 0. -1.
        -11    1    4    4    0    0 -0.79910620746E+01  0.31120652670E+01  0.61322523216E+01  0.10542606039E+02  0.51100000000E-03 0.  1.
         12    1    4    4    0    0 -0.35904249557E+01  0.48232002977E+01  0.89273992102E+00  0.60787660788E+01  0.00000000000E+00 0. -1.
</event>
<event>
 8    1  0.3011071E-007  0.9118800E+02  0.7816164E-02  0.1184000E+00
        -11   -1    0    0    0    0  0.00000000000E+00  0.00000000000E+00  0.45593999997E+02  0.45594000000E+02  0.51100000000E-03 0.  1.
         11   -1    0    0    0    0 -0.00000000000E+00 -0.00000000000E+00 -0.45593999997E+02  0.45594000000E+02  0.51100000000E-03 0. -1.
         23    2    1    2    0    0  0.35527136788E-14  0.00000000000E+00  0.00000000000E+00  0.91188000000E+02  0.91188000000E+02 0.  0.
    9900012    2    3    3    0    0  0.16977737505E+02 -0.31352190082E+02  0.91965521409E+01  0.54367082507E+02  0.39999996192E+02 0.  0.
         12    1    3    3    0    0 -0.16977737505E+02  0.31352190082E+02 -0.91965521409E+01  0.36820917493E+02  0.00000000000E+00 0. -1.
         11    1    4    4    0    0 -0.82057271919E+01 -0.83298684317E+01 -0.31880274366E+01  0.12119578624E+02  0.51100000000E-03 0. -1.
        -11    1    4    4    0    0  0.14382840656E+02 -0.17175341839E+02  0.18004963161E+02  0.28740862397E+02  0.51100000000E-03 0.  1.
        -12    1    4    4    0    0  0.10800624041E+02 -0.58469798109E+01 -0.56203835840E+01  0.13506641485E+02  0.00000000000E+00 0.  1.
</event>
<event>
 8    1  0.3011071E-007  0.9118800E+02  0.7816164E-02  0.1184000E+00
        -11   -1    0    0    0    0  0.00000000000E+00  0.00000000000E+00  0.45593999997E+02  0.45594000000E+02  0.51100000000E-03 0.  1.
         11   -1    0    0    0    0 -0.00000000000E+00 -0.00000000000E+00 -0.45593999997E+02  0.45594000000E+02  0.51100000000E-03 0. -1.
         23    2    1    2    0    0  0.35527136788E-14  0.00000000000E+00  0.00000000000E+00  0.91188000000E+02  0.91188000000E+02 0.  0.
    9900012    2    3    3    0    0 -0.22565588825E+02 -0.23721878357E+02 -0.16848124523E+02  0.54366910775E+02  0.39999604691E+02 0.  0.
        -12    1    3    3    0    0  0.22565588825E+02  0.23721878357E+02  0.16848124523E+02  0.36821089225E+02  0.00000000000E+00 0.  1.
         11    1    4    4    0    0  0.95470945605E+01 -0.82245187893E+00 -0.47748612771E+01  0.10706201106E+02  0.51100000000E-03 0. -1.
        -11    1    4    4    0    0 -0.18060514532E+02 -0.14290423851E+02  0.33368633934E+00  0.23032797178E+02  0.51100000000E-03 0.  1.
        -12    1    4    4    0    0 -0.14052168853E+02 -0.86090026267E+01 -0.12406949585E+02  0.20627912490E+02  0.00000000000E+00 0.  1.
</event>
<event>
 8    1  0.3011071E-007  0.9118800E+02  0.7816164E-02  0.1184000E+00
        -11   -1    0    0    0    0  0.00000000000E+00  0.00000000000E+00  0.45593999997E+02  0.45594000000E+02  0.51100000000E-03 0. -1.
         11   -1    0    0    0    0 -0.00000000000E+00 -0.00000000000E+00 -0.45593999997E+02  0.45594000000E+02  0.51100000000E-03 0.  1.
         23    2    1    2    0    0  0.00000000000E+00  0.00000000000E+00 -0.11102230246E-15  0.91188000000E+02  0.91188000000E+02 0.  0.
    9900012    2    3    3    0    0 -0.12215678379E+02 -0.34723518089E+02  0.91807670289E+00  0.54366968353E+02  0.39999735953E+02 0.  0.
         12    1    3    3    0    0  0.12215678379E+02  0.34723518089E+02 -0.91807670289E+00  0.36821031647E+02  0.00000000000E+00 0. -1.
         11    1    4    4    0    0 -0.53976695758E+01 -0.11242928725E+00 -0.46296157350E+01  0.71120193552E+01  0.51100000000E-03 0. -1.
        -11    1    4    4    0    0 -0.19294967505E+01 -0.62086380014E+01 -0.11903345446E+02  0.13563177231E+02  0.51100000000E-03 0.  1.
         12    1    4    4    0    0 -0.48885120531E+01 -0.28402450800E+02  0.17451037884E+02  0.33691771766E+02  0.00000000000E+00 0. -1.
</event>
<event>
 8    1  0.3011071E-007  0.9118800E+02  0.7816164E-02  0.1184000E+00
        -11   -1    0    0    0    0  0.00000000000E+00  0.00000000000E+00  0.45593999997E+02  0.45594000000E+02  0.51100000000E-03 0.  1.
         11   -1    0    0    0    0 -0.00000000000E+00 -0.00000000000E+00 -0.45593999997E+02  0.45594000000E+02  0.51100000000E-03 0. -1.
         23    2    1    2    0    0  0.35527136788E-14 -0.35527136788E-14  0.00000000000E+00  0.91188000000E+02  0.91188000000E+02 0.  0.
    9900012    2    3    3    0    0  0.21432563333E+02 -0.21019197173E+02  0.21321789621E+02  0.54367080220E+02  0.39999990978E+02 0.  0.
         12    1    3    3    0    0 -0.21432563333E+02  0.21019197173E+02 -0.21321789621E+02  0.36820919780E+02  0.00000000000E+00 0. -1.
         11    1    4    4    0    0 -0.76949065146E+01  0.48939059948E+01  0.52091607711E+01  0.10502250157E+02  0.51100000000E-03 0. -1.
        -11    1    4    4    0    0  0.14297145385E+02 -0.19962035512E+02  0.12177164103E+02  0.27407563806E+02  0.51100000000E-03 0.  1.
         12    1    4    4    0    0  0.14830324462E+02 -0.59510676558E+01  0.39354647463E+01  0.16457266257E+02  0.00000000000E+00 0. -1.
</event>
<event>
 8    1  0.3011071E-007  0.9118800E+02  0.7816164E-02  0.1184000E+00
        -11   -1    0    0    0    0  0.00000000000E+00  0.00000000000E+00  0.45593999997E+02  0.45594000000E+02  0.51100000000E-03 0. -1.
         11   -1    0    0    0    0 -0.00000000000E+00 -0.00000000000E+00 -0.45593999997E+02  0.45594000000E+02  0.51100000000E-03 0.  1.
         23    2    1    2    0    0  0.00000000000E+00  0.35527136788E-14  0.00000000000E+00  0.91188000000E+02  0.91188000000E+02 0.  0.
    9900012    2    3    3    0    0  0.22107075301E+02  0.26269522067E+02 -0.13303242213E+02  0.54366989403E+02  0.39999783941E+02 0.  0.
        -12    1    3    3    0    0 -0.22107075301E+02 -0.26269522067E+02  0.13303242213E+02  0.36821010597E+02  0.00000000000E+00 0.  1.
         11    1    4    4    0    0  0.13826542259E+02  0.49919604619E+01  0.74617766719E+01  0.16485480019E+02  0.51100000000E-03 0. -1.
        -11    1    4    4    0    0  0.33958762264E+01 -0.11891433915E+01  0.30954943876E+01  0.47463800012E+01  0.51100000000E-03 0.  1.
         12    1    4    4    0    0  0.48846568159E+01  0.22466704997E+02 -0.23860513272E+02  0.33135129383E+02  0.00000000000E+00 0. -1.
</event>
<event>
 8    1  0.3011071E-007  0.9118800E+02  0.7816164E-02  0.1184000E+00
        -11   -1    0    0    0    0  0.00000000000E+00  0.00000000000E+00  0.45593999997E+02  0.45594000000E+02  0.51100000000E-03 0.  1.
         11   -1    0    0    0    0 -0.00000000000E+00 -0.00000000000E+00 -0.45593999997E+02  0.45594000000E+02  0.51100000000E-03 0. -1.
         23    2    1    2    0    0 -0.22204460493E-15  0.71054273576E-14 -0.22204460493E-14  0.91188000000E+02  0.91188000000E+02 0.  0.
    9900012    2    3    3    0    0 -0.18524127969E+01 -0.36678555512E+02 -0.26518685082E+01  0.54367078309E+02  0.39999986621E+02 0.  0.
        -12    1    3    3    0    0  0.18524127969E+01  0.36678555512E+02  0.26518685082E+01  0.36820921691E+02  0.00000000000E+00 0.  1.
         11    1    4    4    0    0 -0.93084772555E+01 -0.10538989327E+02 -0.17611653974E+02  0.22536379496E+02  0.51100000000E-03 0. -1.
        -11    1    4    4    0    0  0.70630659558E+01 -0.25188602751E+02  0.15748076117E+02  0.30534480688E+02  0.51100000000E-03 0.  1.
         12    1    4    4    0    0  0.39299850280E+00 -0.95096343313E+00 -0.78829065151E+00  0.12962181242E+01  0.00000000000E+00 0. -1.
</event>
<event>
 8    1  0.3011071E-007  0.9118800E+02  0.7816164E-02  0.1184000E+00
        -11   -1    0    0    0    0  0.00000000000E+00  0.00000000000E+00  0.45593999997E+02  0.45594000000E+02  0.51100000000E-03 0.  1.
         11   -1    0    0    0    0 -0.00000000000E+00 -0.00000000000E+00 -0.45593999997E+02  0.45594000000E+02  0.51100000000E-03 0. -1.
         23    2    1    2    0    0  0.00000000000E+00 -0.88817841970E-15 -0.35527136788E-14  0.91188000000E+02  0.91188000000E+02 0.  0.
    9900012    2    3    3    0    0 -0.25974347465E+02  0.67160805402E+01 -0.25219134600E+02  0.54367119864E+02  0.40000081353E+02 0.  0.
        -12    1    3    3    0    0  0.25974347465E+02 -0.67160805402E+01  0.25219134600E+02  0.36820880136E+02  0.00000000000E+00 0.  1.
         11    1    4    4    0    0 -0.20359782905E+01  0.61766826952E+01 -0.26490775396E+02  0.27277422863E+02  0.51100000000E-03 0. -1.
        -11    1    4    4    0    0 -0.20666884080E+02  0.13463810023E+01 -0.37449123943E+01  0.21046548612E+02  0.51100000000E-03 0.  1.
         12    1    4    4    0    0 -0.32714850944E+01 -0.80698315728E+00  0.50165531900E+01  0.60431483887E+01  0.00000000000E+00 0. -1.
</event>
<event>
 8    1  0.3011071E-007  0.9118800E+02  0.7816164E-02  0.1184000E+00
        -11   -1    0    0    0    0  0.00000000000E+00  0.00000000000E+00  0.45593999997E+02  0.45594000000E+02  0.51100000000E-03 0. -1.
         11   -1    0    0    0    0 -0.00000000000E+00 -0.00000000000E+00 -0.45593999997E+02  0.45594000000E+02  0.51100000000E-03 0.  1.
         23    2    1    2    0    0  0.00000000000E+00  0.35527136788E-14  0.00000000000E+00  0.91188000000E+02  0.91188000000E+02 0.  0.
    9900012    2    3    3    0    0 -0.32798032695E+02 -0.10062272726E+02  0.13372343004E+02  0.54367084225E+02  0.40000000108E+02 0.  0.
        -12    1    3    3    0    0  0.32798032695E+02  0.10062272726E+02 -0.13372343004E+02  0.36820915775E+02  0.00000000000E+00 0.  1.
         11    1    4    4    0    0 -0.13679409616E+02 -0.19200464747E+02  0.22030256243E+01  0.23677783175E+02  0.51100000000E-03 0.  1.
        -11    1    4    4    0    0 -0.88047030692E+01  0.14206347278E+02  0.41421941990E+01  0.17219200683E+02  0.51100000000E-03 0. -1.
         12    1    4    4    0    0 -0.10313920010E+02 -0.50681552567E+01  0.70271231812E+01  0.13470100367E+02  0.00000000000E+00 0. -1.
</event>
<event>
 8    1  0.3011071E-007  0.9118800E+02  0.7816164E-02  0.1184000E+00
        -11   -1    0    0    0    0  0.00000000000E+00  0.00000000000E+00  0.45593999997E+02  0.45594000000E+02  0.51100000000E-03 0.  1.
         11   -1    0    0    0    0 -0.00000000000E+00 -0.00000000000E+00 -0.45593999997E+02  0.45594000000E+02  0.51100000000E-03 0. -1.
         23    2    1    2    0    0  0.88817841970E-15  0.00000000000E+00  0.00000000000E+00  0.91188000000E+02  0.91188000000E+02 0.  0.
    9900012    2    3    3    0    0  0.45327018095E+01 -0.10038945657E+02  0.35134794415E+02  0.54367087543E+02  0.40000007672E+02 0.  0.
         12    1    3    3    0    0 -0.45327018095E+01  0.10038945657E+02 -0.35134794415E+02  0.36820912457E+02  0.00000000000E+00 0. -1.
         11    1    4    4    0    0 -0.50983511675E+01  0.70453566414E+00  0.13037930015E+02  0.14017031585E+02  0.51100000000E-03 0. -1.
        -11    1    4    4    0    0  0.13793167426E+02 -0.73009218943E+01  0.28181335616E+02  0.32214012565E+02  0.51100000000E-03 0.  1.
         12    1    4    4    0    0 -0.41621144493E+01 -0.34425594272E+01 -0.60844712168E+01  0.81360433926E+01  0.00000000000E+00 0. -1.
</event>
<event>
 8    1  0.3011071E-007  0.9118800E+02  0.7816164E-02  0.1184000E+00
        -11   -1    0    0    0    0  0.00000000000E+00  0.00000000000E+00  0.45593999997E+02  0.45594000000E+02  0.51100000000E-03 0.  1.
         11   -1    0    0    0    0 -0.00000000000E+00 -0.00000000000E+00 -0.45593999997E+02  0.45594000000E+02  0.51100000000E-03 0. -1.
         23    2    1    2    0    0  0.88817841970E-15 -0.88817841970E-15  0.71054273576E-14  0.91188000000E+02  0.91188000000E+02 0.  0.
    9900012    2    3    3    0    0 -0.43711628245E+01 -0.46913543947E+01  0.36258285504E+02  0.54367093735E+02  0.40000021788E+02 0.  0.
        -12    1    3    3    0    0  0.43711628245E+01  0.46913543947E+01 -0.36258285504E+02  0.36820906265E+02  0.00000000000E+00 0.  1.
         11    1    4    4    0    0 -0.12403546611E+02 -0.74192047300E+01  0.68185808865E+01  0.15980788871E+02  0.51100000000E-03 0. -1.
        -11    1    4    4    0    0  0.44277956935E+01  0.10967265555E+02  0.59620684101E+01  0.13245095260E+02  0.51100000000E-03 0.  1.
         12    1    4    4    0    0  0.36045880934E+01 -0.82394152198E+01  0.23477636207E+02  0.25141209604E+02  0.00000000000E+00 0. -1.
</event>
<event>
 8    1  0.3011071E-007  0.9118800E+02  0.7816164E-02  0.1184000E+00
        -11   -1    0    0    0    0  0.00000000000E+00  0.00000000000E+00  0.45593999997E+02  0.45594000000E+02  0.51100000000E-03 0.  1.
         11   -1    0    0    0    0 -0.00000000000E+00 -0.00000000000E+00 -0.45593999997E+02  0.45594000000E+02  0.51100000000E-03 0. -1.
         23    2    1    2    0    0  0.00000000000E+00 -0.35527136788E-14  0.00000000000E+00  0.91188000000E+02  0.91188000000E+02 0.  0.
    9900012    2    3    3    0    0 -0.82077988878E+01 -0.29811416570E+02 -0.19992291993E+02  0.54367078506E+02  0.39999987070E+02 0.  0.
        -12    1    3    3    0    0  0.82077988878E+01  0.29811416570E+02  0.19992291993E+02  0.36820921494E+02  0.00000000000E+00 0.  1.
         11    1    4    4    0    0  0.66073684886E+01 -0.24753154536E+01  0.13712179462E+01  0.71878191307E+01  0.51100000000E-03 0. -1.
        -11    1    4    4    0    0  0.82941926084E+01 -0.10244665449E+02 -0.85358026492E+01  0.15703717022E+02  0.51100000000E-03 0.  1.
         12    1    4    4    0    0 -0.23109359985E+02 -0.17091435667E+02 -0.12827707290E+02  0.31475542353E+02  0.00000000000E+00 0. -1.
</event>
<event>
 8    1  0.3011071E-007  0.9118800E+02  0.7816164E-02  0.1184000E+00
        -11   -1    0    0    0    0  0.00000000000E+00  0.00000000000E+00  0.45593999997E+02  0.45594000000E+02  0.51100000000E-03 0.  1.
         11   -1    0    0    0    0 -0.00000000000E+00 -0.00000000000E+00 -0.45593999997E+02  0.45594000000E+02  0.51100000000E-03 0. -1.
         23    2    1    2    0    0  0.88817841970E-15 -0.17763568394E-14  0.00000000000E+00  0.91188000000E+02  0.91188000000E+02 0.  0.
    9900012    2    3    3    0    0  0.68315137949E+01  0.13259837546E+02  0.33664326616E+02  0.54367085304E+02  0.40000002569E+02 0.  0.
         12    1    3    3    0    0 -0.68315137949E+01 -0.13259837546E+02 -0.33664326616E+02  0.36820914696E+02  0.00000000000E+00 0. -1.
         11    1    4    4    0    0 -0.12051208881E+02  0.26425272378E+01  0.97439844465E+00  0.12375945955E+02  0.51100000000E-03 0. -1.
        -11    1    4    4    0    0  0.11562324752E+02  0.12802234549E+02  0.28402383349E+02  0.33230707836E+02  0.51100000000E-03 0.  1.
        -12    1    4    4    0    0  0.73203979235E+01 -0.21849242407E+01  0.42875448224E+01  0.87604315133E+01  0.00000000000E+00 0.  1.
</event>
<event>
 8    1  0.3011071E-007  0.9118800E+02  0.7816164E-02  0.1184000E+00
        -11   -1    0    0    0    0  0.00000000000E+00  0.00000000000E+00  0.45593999997E+02  0.45594000000E+02  0.51100000000E-03 0.  1.
         11   -1    0    0    0    0 -0.00000000000E+00 -0.00000000000E+00 -0.45593999997E+02  0.45594000000E+02  0.51100000000E-03 0. -1.
         23    2    1    2    0    0 -0.17763568394E-14 -0.35527136788E-14  0.00000000000E+00  0.91188000000E+02  0.91188000000E+02 0.  0.
    9900012    2    3    3    0    0 -0.82313342742E+01  0.19052108943E+02  0.30414517474E+02  0.54367073989E+02  0.39999976772E+02 0.  0.
         12    1    3    3    0    0  0.82313342742E+01 -0.19052108943E+02 -0.30414517474E+02  0.36820926011E+02  0.00000000000E+00 0. -1.
         11    1    4    4    0    0 -0.33711853525E+01 -0.66634712690E+01 -0.14124337124E+01  0.76001124522E+01  0.51100000000E-03 0. -1.
        -11    1    4    4    0    0 -0.34628453999E+01  0.24839659692E+02  0.13724491443E+02  0.28589537554E+02  0.51100000000E-03 0.  1.
        -12    1    4    4    0    0 -0.13973035219E+01  0.87592052008E+00  0.18102459744E+02  0.18177423983E+02  0.00000000000E+00 0.  1.
</event>
<event>
 8    1  0.3011071E-007  0.9118800E+02  0.7816164E-02  0.1184000E+00
        -11   -1    0    0    0    0  0.00000000000E+00  0.00000000000E+00  0.45593999997E+02  0.45594000000E+02  0.51100000000E-03 0. -1.
         11   -1    0    0    0    0 -0.00000000000E+00 -0.00000000000E+00 -0.45593999997E+02  0.45594000000E+02  0.51100000000E-03 0.  1.
         23    2    1    2    0    0  0.35527136788E-14  0.00000000000E+00  0.00000000000E+00  0.91188000000E+02  0.91188000000E+02 0.  0.
    9900012    2    3    3    0    0  0.23778873816E+02  0.12941567051E+02 -0.24957174755E+02  0.54367087879E+02  0.40000008437E+02 0.  0.
         12    1    3    3    0    0 -0.23778873816E+02 -0.12941567051E+02  0.24957174755E+02  0.36820912121E+02  0.00000000000E+00 0. -1.
         11    1    4    4    0    0  0.18734979284E+02  0.23285026945E+01 -0.30571598180E+02  0.35931100584E+02  0.51100000000E-03 0. -1.
        -11    1    4    4    0    0 -0.32661880019E+01 -0.68917819335E+00  0.22003127769E+01  0.39980404229E+01  0.51100000000E-03 0.  1.
        -12    1    4    4    0    0  0.83100825333E+01  0.11302242550E+02  0.34141106483E+01  0.14437946872E+02  0.00000000000E+00 0.  1.
</event>
<event>
 8    1  0.3011071E-007  0.9118800E+02  0.7816164E-02  0.1184000E+00
        -11   -1    0    0    0    0  0.00000000000E+00  0.00000000000E+00  0.45593999997E+02  0.45594000000E+02  0.51100000000E-03 0.  1.
         11   -1    0    0    0    0 -0.00000000000E+00 -0.00000000000E+00 -0.45593999997E+02  0.45594000000E+02  0.51100000000E-03 0. -1.
         23    2    1    2    0    0  0.00000000000E+00  0.88817841970E-15  0.35527136788E-14  0.91188000000E+02  0.91188000000E+02 0.  0.
    9900012    2    3    3    0    0 -0.19894981920E+02  0.75742436725E+01  0.30043319673E+02  0.54367074838E+02  0.39999978709E+02 0.  0.
         12    1    3    3    0    0  0.19894981920E+02 -0.75742436725E+01 -0.30043319673E+02  0.36820925162E+02  0.00000000000E+00 0. -1.
         11    1    4    4    0    0 -0.40443149449E+01  0.85518870277E+01 -0.19308915454E+01  0.96550296493E+01  0.51100000000E-03 0. -1.
        -11    1    4    4    0    0  0.29645624085E+01 -0.61066780435E+01 -0.52725234241E+00  0.68086813917E+01  0.51100000000E-03 0.  1.
        -12    1    4    4    0    0 -0.18815229383E+02  0.51290346883E+01  0.32501463561E+02  0.37903363797E+02  0.00000000000E+00 0.  1.
</event>
<event>
 8    1  0.3011071E-007  0.9118800E+02  0.7816164E-02  0.1184000E+00
        -11   -1    0    0    0    0  0.00000000000E+00  0.00000000000E+00  0.45593999997E+02  0.45594000000E+02  0.51100000000E-03 0.  1.
         11   -1    0    0    0    0 -0.00000000000E+00 -0.00000000000E+00 -0.45593999997E+02  0.45594000000E+02  0.51100000000E-03 0. -1.
         23    2    1    2    0    0 -0.88817841970E-15 -0.35527136788E-14  0.00000000000E+00  0.91188000000E+02  0.91188000000E+02 0.  0.
    9900012    2    3    3    0    0 -0.50035139769E+01  0.11866660745E+02 -0.34495312355E+02  0.54367090671E+02  0.40000014803E+02 0.  0.
        -12    1    3    3    0    0  0.50035139769E+01 -0.11866660745E+02  0.34495312355E+02  0.36820909329E+02  0.00000000000E+00 0.  1.
         11    1    4    4    0    0 -0.15857405998E+02  0.18259017398E+02 -0.16123525452E+02  0.29065737813E+02  0.51100000000E-03 0. -1.
        -11    1    4    4    0    0  0.98669334283E+00  0.92322196837E+00 -0.10773483914E+02  0.10857893832E+02  0.51100000000E-03 0.  1.
        -12    1    4    4    0    0  0.98671986787E+01 -0.73155786218E+01 -0.75983029879E+01  0.14443459026E+02  0.00000000000E+00 0.  1.
</event>
<event>
 8    1  0.3011071E-007  0.9118800E+02  0.7816164E-02  0.1184000E+00
        -11   -1    0    0    0    0  0.00000000000E+00  0.00000000000E+00  0.45593999997E+02  0.45594000000E+02  0.51100000000E-03 0. -1.
         11   -1    0    0    0    0 -0.00000000000E+00 -0.00000000000E+00 -0.45593999997E+02  0.45594000000E+02  0.51100000000E-03 0.  1.
         23    2    1    2    0    0  0.17763568394E-14 -0.35527136788E-14  0.35527136788E-14  0.91188000000E+02  0.91188000000E+02 0.  0.
    9900012    2    3    3    0    0  0.82912095466E+01 -0.24040297831E+02  0.26628953581E+02  0.54367065135E+02  0.39999956588E+02 0.  0.
        -12    1    3    3    0    0 -0.82912095466E+01  0.24040297831E+02 -0.26628953581E+02  0.36820934865E+02  0.00000000000E+00 0.  1.
         11    1    4    4    0    0 -0.80772810671E+01 -0.13931946973E+01 -0.21763993163E+01  0.84805763452E+01  0.51100000000E-03 0. -1.
        -11    1    4    4    0    0  0.24879095388E+01 -0.11553119874E+01 -0.36460145312E+01  0.45626595187E+01  0.51100000000E-03 0.  1.
         12    1    4    4    0    0  0.13880581075E+02 -0.21491791146E+02  0.32451367428E+02  0.41323829271E+02  0.00000000000E+00 0. -1.
</event>
<event>
 8    1  0.3011071E-007  0.9118800E+02  0.7816164E-02  0.1184000E+00
        -11   -1    0    0    0    0  0.00000000000E+00  0.00000000000E+00  0.45593999997E+02  0.45594000000E+02  0.51100000000E-03 0.  1.
         11   -1    0    0    0    0 -0.00000000000E+00 -0.00000000000E+00 -0.45593999997E+02  0.45594000000E+02  0.51100000000E-03 0. -1.
         23    2    1    2    0    0 -0.31086244690E-14 -0.71054273576E-14 -0.71054273576E-14  0.91188000000E+02  0.91188000000E+02 0.  0.
    9900012    2    3    3    0    0  0.33544838395E+01  0.22295656988E+02  0.29110657315E+02  0.54367092194E+02  0.40000018274E+02 0.  0.
         12    1    3    3    0    0 -0.33544838395E+01 -0.22295656988E+02 -0.29110657315E+02  0.36820907806E+02  0.00000000000E+00 0. -1.
         11    1    4    4    0    0  0.23667291110E+01 -0.53968691508E+01  0.62770154996E+00  0.59263490289E+01  0.51100000000E-03 0. -1.
        -11    1    4    4    0    0  0.10979414496E+02  0.24039157188E+02  0.12485242127E+02  0.29228580058E+02  0.51100000000E-03 0.  1.
        -12    1    4    4    0    0 -0.99916597675E+01  0.36533689509E+01  0.15997713638E+02  0.19212163107E+02  0.00000000000E+00 0.  1.
</event>
<event>
 8    1  0.3011071E-007  0.9118800E+02  0.7816164E-02  0.1184000E+00
        -11   -1    0    0    0    0  0.00000000000E+00  0.00000000000E+00  0.45593999997E+02  0.45594000000E+02  0.51100000000E-03 0. -1.
         11   -1    0    0    0    0 -0.00000000000E+00 -0.00000000000E+00 -0.45593999997E+02  0.45594000000E+02  0.51100000000E-03 0.  1.
         23    2    1    2    0    0  0.35527136788E-14  0.00000000000E+00 -0.35527136788E-14  0.91188000000E+02  0.91188000000E+02 0.  0.
    9900012    2    3    3    0    0 -0.22308673210E+02  0.18760034784E+02  0.22498084359E+02  0.54367087392E+02  0.40000007328E+02 0.  0.
         12    1    3    3    0    0  0.22308673210E+02 -0.18760034784E+02 -0.22498084359E+02  0.36820912608E+02  0.00000000000E+00 0. -1.
         11    1    4    4    0    0 -0.28250083849E+01 -0.56909966067E+01  0.15242140233E+02  0.16513356833E+02  0.51100000000E-03 0. -1.
        -11    1    4    4    0    0  0.11399309680E+01  0.84362535327E+01  0.80693812535E+01  0.11729651758E+02  0.51100000000E-03 0.  1.
        -12    1    4    4    0    0 -0.20623595793E+02  0.16014777858E+02 -0.81343712781E+00  0.26124078801E+02  0.00000000000E+00 0.  1.
</event>
<event>
 8    1  0.3011071E-007  0.9118800E+02  0.7816164E-02  0.1184000E+00
        -11   -1    0    0    0    0  0.00000000000E+00  0.00000000000E+00  0.45593999997E+02  0.45594000000E+02  0.51100000000E-03 0. -1.
         11   -1    0    0    0    0 -0.00000000000E+00 -0.00000000000E+00 -0.45593999997E+02  0.45594000000E+02  0.51100000000E-03 0.  1.
         23    2    1    2    0    0 -0.35527136788E-14  0.35527136788E-14  0.35527136788E-14  0.91188000000E+02  0.91188000000E+02 0.  0.
    9900012    2    3    3    0    0 -0.16276461487E+02  0.21637579147E+02  0.24953390465E+02  0.54367085758E+02  0.40000003603E+02 0.  0.
        -12    1    3    3    0    0  0.16276461487E+02 -0.21637579147E+02 -0.24953390465E+02  0.36820914242E+02  0.00000000000E+00 0.  1.
         11    1    4    4    0    0  0.38332323619E+01  0.15406312781E+02 -0.40914937800E+00  0.15881295518E+02  0.51100000000E-03 0. -1.
        -11    1    4    4    0    0 -0.20954379181E+02  0.32944017910E+01  0.11179950367E+02  0.23977705905E+02  0.51100000000E-03 0.  1.
        -12    1    4    4    0    0  0.84468533130E+00  0.29368645756E+01  0.14182589476E+02  0.14508084336E+02  0.00000000000E+00 0.  1.
</event>
<event>
 8    1  0.3011071E-007  0.9118800E+02  0.7816164E-02  0.1184000E+00
        -11   -1    0    0    0    0  0.00000000000E+00  0.00000000000E+00  0.45593999997E+02  0.45594000000E+02  0.51100000000E-03 0. -1.
         11   -1    0    0    0    0 -0.00000000000E+00 -0.00000000000E+00 -0.45593999997E+02  0.45594000000E+02  0.51100000000E-03 0.  1.
         23    2    1    2    0    0  0.00000000000E+00  0.11102230246E-14  0.00000000000E+00  0.91188000000E+02  0.91188000000E+02 0.  0.
    9900012    2    3    3    0    0 -0.28522746773E+02  0.10982102098E+01 -0.23259964575E+02  0.54367094238E+02  0.40000022934E+02 0.  0.
         12    1    3    3    0    0  0.28522746773E+02 -0.10982102098E+01  0.23259964575E+02  0.36820905762E+02  0.00000000000E+00 0. -1.
         11    1    4    4    0    0  0.33017889838E+01  0.66591539682E+01  0.22412399035E+01  0.77633303827E+01  0.51100000000E-03 0. -1.
        -11    1    4    4    0    0 -0.14042090678E+02 -0.13065525719E+02 -0.88974592966E+01  0.21143629185E+02  0.51100000000E-03 0.  1.
         12    1    4    4    0    0 -0.17782445078E+02  0.75045819606E+01 -0.16603745182E+02  0.25460134670E+02  0.00000000000E+00 0. -1.
</event>
<event>
 8    1  0.3011071E-007  0.9118800E+02  0.7816164E-02  0.1184000E+00
        -11   -1    0    0    0    0  0.00000000000E+00  0.00000000000E+00  0.45593999997E+02  0.45594000000E+02  0.51100000000E-03 0.  1.
         11   -1    0    0    0    0 -0.00000000000E+00 -0.00000000000E+00 -0.45593999997E+02  0.45594000000E+02  0.51100000000E-03 0. -1.
         23    2    1    2    0    0 -0.88817841970E-15  0.00000000000E+00 -0.71054273576E-14  0.91188000000E+02  0.91188000000E+02 0.  0.
    9900012    2    3    3    0    0  0.74902104753E+01  0.82635397699E+01  0.35091199036E+02  0.54367060410E+02  0.39999945816E+02 0.  0.
         12    1    3    3    0    0 -0.74902104753E+01 -0.82635397699E+01 -0.35091199036E+02  0.36820939590E+02  0.00000000000E+00 0. -1.
         11    1    4    4    0    0 -0.11328281933E+02 -0.29201054924E+01  0.11637725350E+01  0.11756332524E+02  0.51100000000E-03 0. -1.
        -11    1    4    4    0    0  0.16590930942E+02  0.10602687993E+02  0.34932100786E+02  0.40098973151E+02  0.51100000000E-03 0.  1.
         12    1    4    4    0    0  0.22275614657E+01  0.58095726953E+00 -0.10046742845E+01  0.25117547353E+01  0.00000000000E+00 0. -1.
</event>
<event>
 8    1  0.3011071E-007  0.9118800E+02  0.7816164E-02  0.1184000E+00
        -11   -1    0    0    0    0  0.00000000000E+00  0.00000000000E+00  0.45593999997E+02  0.45594000000E+02  0.51100000000E-03 0.  1.
         11   -1    0    0    0    0 -0.00000000000E+00 -0.00000000000E+00 -0.45593999997E+02  0.45594000000E+02  0.51100000000E-03 0. -1.
         23    2    1    2    0    0  0.00000000000E+00  0.00000000000E+00 -0.17763568394E-14  0.91188000000E+02  0.91188000000E+02 0.  0.
    9900012    2    3    3    0    0  0.22519892184E+02 -0.26204306736E+02  0.12726379300E+02  0.54367191134E+02  0.40000243827E+02 0.  0.
        -12    1    3    3    0    0 -0.22519892184E+02  0.26204306736E+02 -0.12726379300E+02  0.36820808866E+02  0.00000000000E+00 0.  1.
         11    1    4    4    0    0 -0.13140051900E+01  0.95249033436E+00 -0.19416673685E+01  0.25305967493E+01  0.51100000000E-03 0. -1.
        -11    1    4    4    0    0  0.27628840116E+02 -0.13888023787E+02 -0.10230471455E+01  0.30939887469E+02  0.51100000000E-03 0.  1.
        -12    1    4    4    0    0 -0.37949427421E+01 -0.13268773283E+02  0.15691093814E+02  0.20896706916E+02  0.00000000000E+00 0.  1.
</event>
<event>
 8    1  0.3011071E-007  0.9118800E+02  0.7816164E-02  0.1184000E+00
        -11   -1    0    0    0    0  0.00000000000E+00  0.00000000000E+00  0.45593999997E+02  0.45594000000E+02  0.51100000000E-03 0.  1.
         11   -1    0    0    0    0 -0.00000000000E+00 -0.00000000000E+00 -0.45593999997E+02  0.45594000000E+02  0.51100000000E-03 0. -1.
         23    2    1    2    0    0 -0.17763568394E-14  0.00000000000E+00  0.00000000000E+00  0.91188000000E+02  0.91188000000E+02 0.  0.
    9900012    2    3    3    0    0  0.11623002630E+02  0.31126456728E+02 -0.15869126359E+02  0.54367086514E+02  0.40000005325E+02 0.  0.
        -12    1    3    3    0    0 -0.11623002630E+02 -0.31126456728E+02  0.15869126359E+02  0.36820913486E+02  0.00000000000E+00 0.  1.
         11    1    4    4    0    0  0.11129455621E+02  0.13610994914E+02 -0.16231678400E+01  0.17656688225E+02  0.51100000000E-03 0. -1.
        -11    1    4    4    0    0 -0.45537947459E+01  0.19969164627E+02  0.95750158803E+00  0.20504179868E+02  0.51100000000E-03 0.  1.
         12    1    4    4    0    0  0.50473417551E+01 -0.24537028137E+01 -0.15203460107E+02  0.16206218421E+02  0.00000000000E+00 0. -1.
</event>
<event>
 8    1  0.3011071E-007  0.9118800E+02  0.7816164E-02  0.1184000E+00
        -11   -1    0    0    0    0  0.00000000000E+00  0.00000000000E+00  0.45593999997E+02  0.45594000000E+02  0.51100000000E-03 0. -1.
         11   -1    0    0    0    0 -0.00000000000E+00 -0.00000000000E+00 -0.45593999997E+02  0.45594000000E+02  0.51100000000E-03 0.  1.
         23    2    1    2    0    0  0.00000000000E+00  0.71054273576E-14  0.00000000000E+00  0.91188000000E+02  0.91188000000E+02 0.  0.
    9900012    2    3    3    0    0  0.16234730354E+02 -0.26612279093E+02 -0.19595914344E+02  0.54367085736E+02  0.40000003553E+02 0.  0.
         12    1    3    3    0    0 -0.16234730354E+02  0.26612279093E+02  0.19595914344E+02  0.36820914264E+02  0.00000000000E+00 0. -1.
         11    1    4    4    0    0  0.18360969143E+02 -0.24862409599E+02 -0.20508864252E+02  0.37092831007E+02  0.51100000000E-03 0. -1.
        -11    1    4    4    0    0 -0.12965851936E+01 -0.48357098803E+01 -0.70770920504E+01  0.86689362301E+01  0.51100000000E-03 0.  1.
         12    1    4    4    0    0 -0.82965359457E+00  0.30858403859E+01  0.79900419584E+01  0.86053184991E+01  0.00000000000E+00 0. -1.
</event>
<event>
 8    1  0.3011071E-007  0.9118800E+02  0.7816164E-02  0.1184000E+00
        -11   -1    0    0    0    0  0.00000000000E+00  0.00000000000E+00  0.45593999997E+02  0.45594000000E+02  0.51100000000E-03 0.  1.
         11   -1    0    0    0    0 -0.00000000000E+00 -0.00000000000E+00 -0.45593999997E+02  0.45594000000E+02  0.51100000000E-03 0. -1.
         23    2    1    2    0    0 -0.35527136788E-14 -0.66613381478E-15  0.35527136788E-14  0.91188000000E+02  0.91188000000E+02 0.  0.
    9900012    2    3    3    0    0  0.24682901018E+02  0.18855242103E+01 -0.27257625963E+02  0.54367095919E+02  0.40000026767E+02 0.  0.
        -12    1    3    3    0    0 -0.24682901018E+02 -0.18855242103E+01  0.27257625963E+02  0.36820904081E+02  0.00000000000E+00 0.  1.
         11    1    4    4    0    0 -0.17639995116E+01  0.38583506583E+01 -0.23715755555E+01  0.48603430903E+01  0.51100000000E-03 0. -1.
        -11    1    4    4    0    0  0.12383260910E+02 -0.81130509539E+01  0.52344449720E+01  0.15702425321E+02  0.51100000000E-03 0.  1.
         12    1    4    4    0    0  0.14063639620E+02  0.61402245058E+01 -0.30120495379E+02  0.33804327507E+02  0.00000000000E+00 0. -1.
</event>
<event>
 8    1  0.3011071E-007  0.9118800E+02  0.7816164E-02  0.1184000E+00
        -11   -1    0    0    0    0  0.00000000000E+00  0.00000000000E+00  0.45593999997E+02  0.45594000000E+02  0.51100000000E-03 0. -1.
         11   -1    0    0    0    0 -0.00000000000E+00 -0.00000000000E+00 -0.45593999997E+02  0.45594000000E+02  0.51100000000E-03 0.  1.
         23    2    1    2    0    0  0.44408920985E-15  0.00000000000E+00  0.00000000000E+00  0.91188000000E+02  0.91188000000E+02 0.  0.
    9900012    2    3    3    0    0 -0.15882734890E+01  0.56039641009E+01 -0.36357219296E+02  0.54367157788E+02  0.40000167808E+02 0.  0.
         12    1    3    3    0    0  0.15882734890E+01 -0.56039641009E+01  0.36357219296E+02  0.36820842212E+02  0.00000000000E+00 0. -1.
         11    1    4    4    0    0  0.12534651013E+02 -0.67764283103E+01 -0.18368112309E+02  0.23247042967E+02  0.51100000000E-03 0. -1.
        -11    1    4    4    0    0 -0.32277157980E+01  0.65153846111E+01 -0.17255503994E+02  0.18724871275E+02  0.51100000000E-03 0.  1.
         12    1    4    4    0    0 -0.10895208704E+02  0.58650078002E+01 -0.73360299228E+00  0.12395243545E+02  0.00000000000E+00 0. -1.
</event>
<event>
 8    1  0.3011071E-007  0.9118800E+02  0.7816164E-02  0.1184000E+00
        -11   -1    0    0    0    0  0.00000000000E+00  0.00000000000E+00  0.45593999997E+02  0.45594000000E+02  0.51100000000E-03 0. -1.
         11   -1    0    0    0    0 -0.00000000000E+00 -0.00000000000E+00 -0.45593999997E+02  0.45594000000E+02  0.51100000000E-03 0.  1.
         23    2    1    2    0    0 -0.71054273576E-14  0.00000000000E+00 -0.71054273576E-14  0.91188000000E+02  0.91188000000E+02 0.  0.
    9900012    2    3    3    0    0 -0.26628552855E+02 -0.88220606933E+01 -0.23851013864E+02  0.54367089577E+02  0.40000012309E+02 0.  0.
         12    1    3    3    0    0  0.26628552855E+02  0.88220606933E+01  0.23851013864E+02  0.36820910423E+02  0.00000000000E+00 0. -1.
         11    1    4    4    0    0 -0.24599519631E+02  0.16356324840E+01 -0.17037672051E+02  0.29968215310E+02  0.51100000000E-03 0. -1.
        -11    1    4    4    0    0 -0.48121214684E+01  0.44206114611E+01 -0.65617873155E+01  0.92604196315E+01  0.51100000000E-03 0.  1.
         12    1    4    4    0    0  0.27830882440E+01 -0.14878304638E+02 -0.25155449712E+00  0.15138454636E+02  0.00000000000E+00 0. -1.
</event>
<event>
 8    1  0.3011071E-007  0.9118800E+02  0.7816164E-02  0.1184000E+00
        -11   -1    0    0    0    0  0.00000000000E+00  0.00000000000E+00  0.45593999997E+02  0.45594000000E+02  0.51100000000E-03 0. -1.
         11   -1    0    0    0    0 -0.00000000000E+00 -0.00000000000E+00 -0.45593999997E+02  0.45594000000E+02  0.51100000000E-03 0.  1.
         23    2    1    2    0    0  0.00000000000E+00  0.00000000000E+00  0.00000000000E+00  0.91188000000E+02  0.91188000000E+02 0.  0.
    9900012    2    3    3    0    0 -0.43879116790E+01 -0.18344268644E+02 -0.31623048489E+02  0.54367039166E+02  0.39999897388E+02 0.  0.
         12    1    3    3    0    0  0.43879116790E+01  0.18344268644E+02  0.31623048489E+02  0.36820960834E+02  0.00000000000E+00 0. -1.
         11    1    4    4    0    0 -0.13180462259E+01 -0.26984879897E+01  0.27620791742E+01  0.40802162823E+01  0.51100000000E-03 0. -1.
        -11    1    4    4    0    0  0.19572052215E+01  0.10173263542E+02 -0.88128322543E+01  0.13601174802E+02  0.51100000000E-03 0.  1.
         12    1    4    4    0    0 -0.50270706747E+01 -0.25819044196E+02 -0.25572295409E+02  0.36685648083E+02  0.00000000000E+00 0. -1.
</event>
<event>
 8    1  0.3011071E-007  0.9118800E+02  0.7816164E-02  0.1184000E+00
        -11   -1    0    0    0    0  0.00000000000E+00  0.00000000000E+00  0.45593999997E+02  0.45594000000E+02  0.51100000000E-03 0.  1.
         11   -1    0    0    0    0 -0.00000000000E+00 -0.00000000000E+00 -0.45593999997E+02  0.45594000000E+02  0.51100000000E-03 0. -1.
         23    2    1    2    0    0  0.35527136788E-14  0.35527136788E-14 -0.35527136788E-14  0.91188000000E+02  0.91188000000E+02 0.  0.
    9900012    2    3    3    0    0 -0.17680425902E+02 -0.16632923052E+02 -0.27686262483E+02  0.54367072260E+02  0.39999972832E+02 0.  0.
        -12    1    3    3    0    0  0.17680425902E+02  0.16632923052E+02  0.27686262483E+02  0.36820927740E+02  0.00000000000E+00 0.  1.
         11    1    4    4    0    0  0.22427756263E+00 -0.81259076775E+01 -0.19708831459E+02  0.21319444499E+02  0.51100000000E-03 0. -1.
        -11    1    4    4    0    0 -0.19128288110E+02 -0.15542371530E+02 -0.79811248825E+01  0.25906660793E+02  0.51100000000E-03 0.  1.
        -12    1    4    4    0    0  0.12235846447E+01  0.70353561548E+01  0.36938583944E-02  0.71409669690E+01  0.00000000000E+00 0.  1.
</event>
<event>
 8    1  0.3011071E-007  0.9118800E+02  0.7816164E-02  0.1184000E+00
        -11   -1    0    0    0    0  0.00000000000E+00  0.00000000000E+00  0.45593999997E+02  0.45594000000E+02  0.51100000000E-03 0. -1.
         11   -1    0    0    0    0 -0.00000000000E+00 -0.00000000000E+00 -0.45593999997E+02  0.45594000000E+02  0.51100000000E-03 0.  1.
         23    2    1    2    0    0  0.17763568394E-14  0.00000000000E+00  0.55511151231E-15  0.91188000000E+02  0.91188000000E+02 0.  0.
    9900012    2    3    3    0    0 -0.15925133160E+02  0.33193900618E+02  0.57885544877E+00  0.54367082331E+02  0.39999995790E+02 0.  0.
        -12    1    3    3    0    0  0.15925133160E+02 -0.33193900618E+02 -0.57885544877E+00  0.36820917669E+02  0.00000000000E+00 0.  1.
         11    1    4    4    0    0 -0.14142660000E+02  0.22549274649E+02 -0.12096384065E+02  0.29237084786E+02  0.51100000000E-03 0.  1.
        -11    1    4    4    0    0  0.18707688902E+01 -0.22095435243E+01  0.11335963399E+02  0.11699825865E+02  0.51100000000E-03 0. -1.
         12    1    4    4    0    0 -0.36532420498E+01  0.12854169493E+02  0.13392761148E+01  0.13430171680E+02  0.00000000000E+00 0. -1.
</event>
<event>
 8    1  0.3011071E-007  0.9118800E+02  0.7816164E-02  0.1184000E+00
        -11   -1    0    0    0    0  0.00000000000E+00  0.00000000000E+00  0.45593999997E+02  0.45594000000E+02  0.51100000000E-03 0. -1.
         11   -1    0    0    0    0 -0.00000000000E+00 -0.00000000000E+00 -0.45593999997E+02  0.45594000000E+02  0.51100000000E-03 0.  1.
         23    2    1    2    0    0  0.17763568394E-14  0.71054273576E-14 -0.17763568394E-14  0.91188000000E+02  0.91188000000E+02 0.  0.
    9900012    2    3    3    0    0 -0.93133859561E+01  0.33137050197E+02 -0.13075851690E+02  0.54367066400E+02  0.39999959473E+02 0.  0.
         12    1    3    3    0    0  0.93133859561E+01 -0.33137050197E+02  0.13075851690E+02  0.36820933600E+02  0.00000000000E+00 0. -1.
         11    1    4    4    0    0 -0.12727187451E+01 -0.48392311978E+01  0.34970814849E+01  0.61047154531E+01  0.51100000000E-03 0. -1.
        -11    1    4    4    0    0 -0.73066683778E+01  0.39610542261E+02 -0.19561754364E+02  0.44777725434E+02  0.51100000000E-03 0.  1.
        -12    1    4    4    0    0 -0.73399883318E+00 -0.16342608660E+01  0.29888211892E+01  0.34846255131E+01  0.00000000000E+00 0.  1.
</event>
<event>
 8    1  0.3011071E-007  0.9118800E+02  0.7816164E-02  0.1184000E+00
        -11   -1    0    0    0    0  0.00000000000E+00  0.00000000000E+00  0.45593999997E+02  0.45594000000E+02  0.51100000000E-03 0. -1.
         11   -1    0    0    0    0 -0.00000000000E+00 -0.00000000000E+00 -0.45593999997E+02  0.45594000000E+02  0.51100000000E-03 0.  1.
         23    2    1    2    0    0  0.17763568394E-14  0.00000000000E+00  0.00000000000E+00  0.91188000000E+02  0.91188000000E+02 0.  0.
    9900012    2    3    3    0    0  0.14917154553E+02 -0.29453659681E+02  0.16301483130E+02  0.54367110266E+02  0.40000059473E+02 0.  0.
        -12    1    3    3    0    0 -0.14917154553E+02  0.29453659681E+02 -0.16301483130E+02  0.36820889734E+02  0.00000000000E+00 0.  1.
         11    1    4    4    0    0 -0.46506243662E+01 -0.17073403462E+02 -0.34326194005E+01  0.18025323547E+02  0.51100000000E-03 0. -1.
        -11    1    4    4    0    0  0.21273369988E+02 -0.46051338405E+01  0.10549759917E+02  0.24188033465E+02  0.51100000000E-03 0.  1.
         12    1    4    4    0    0 -0.17055910693E+01 -0.77751223786E+01  0.91843426141E+01  0.12153753254E+02  0.00000000000E+00 0. -1.
</event>
<event>
 8    1  0.3011071E-007  0.9118800E+02  0.7816164E-02  0.1184000E+00
        -11   -1    0    0    0    0  0.00000000000E+00  0.00000000000E+00  0.45593999997E+02  0.45594000000E+02  0.51100000000E-03 0.  1.
         11   -1    0    0    0    0 -0.00000000000E+00 -0.00000000000E+00 -0.45593999997E+02  0.45594000000E+02  0.51100000000E-03 0. -1.
         23    2    1    2    0    0  0.00000000000E+00  0.00000000000E+00  0.00000000000E+00  0.91188000000E+02  0.91188000000E+02 0.  0.
    9900012    2    3    3    0    0  0.61401185249E+01 -0.29562717711E+02  0.21074261273E+02  0.54367084447E+02  0.40000000614E+02 0.  0.
         12    1    3    3    0    0 -0.61401185249E+01  0.29562717711E+02 -0.21074261273E+02  0.36820915553E+02  0.00000000000E+00 0. -1.
         11    1    4    4    0    0  0.37575270627E+01 -0.41824788370E+01  0.10547506828E+02  0.11952490928E+02  0.51100000000E-03 0. -1.
        -11    1    4    4    0    0  0.10176926929E+02  0.20240265742E+01  0.92406012575E+01  0.13894431876E+02  0.51100000000E-03 0.  1.
        -12    1    4    4    0    0 -0.77943354666E+01 -0.27404265448E+02  0.12861531878E+01  0.28520161643E+02  0.00000000000E+00 0.  1.
</event>
<event>
 8    1  0.3011071E-007  0.9118800E+02  0.7816164E-02  0.1184000E+00
        -11   -1    0    0    0    0  0.00000000000E+00  0.00000000000E+00  0.45593999997E+02  0.45594000000E+02  0.51100000000E-03 0. -1.
         11   -1    0    0    0    0 -0.00000000000E+00 -0.00000000000E+00 -0.45593999997E+02  0.45594000000E+02  0.51100000000E-03 0.  1.
         23    2    1    2    0    0  0.26645352591E-14 -0.10477729795E-14  0.00000000000E+00  0.91188000000E+02  0.91188000000E+02 0.  0.
    9900012    2    3    3    0    0  0.71689916529E+01 -0.59637917600E-01 -0.36116205593E+02  0.54367105057E+02  0.40000047598E+02 0.  0.
         12    1    3    3    0    0 -0.71689916529E+01  0.59637917600E-01  0.36116205593E+02  0.36820894943E+02  0.00000000000E+00 0. -1.
         11    1    4    4    0    0  0.12193522879E+02 -0.58426360025E+01 -0.32895303216E+02  0.35565704964E+02  0.51100000000E-03 0. -1.
        -11    1    4    4    0    0  0.67278195658E+00  0.26023343922E+01 -0.94231233758E+01  0.97989812872E+01  0.51100000000E-03 0.  1.
         12    1    4    4    0    0 -0.56973131823E+01  0.31806636927E+01  0.62022209995E+01  0.90024188055E+01  0.00000000000E+00 0. -1.
</event>
<event>
 8    1  0.3011071E-007  0.9118800E+02  0.7816164E-02  0.1184000E+00
        -11   -1    0    0    0    0  0.00000000000E+00  0.00000000000E+00  0.45593999997E+02  0.45594000000E+02  0.51100000000E-03 0.  1.
         11   -1    0    0    0    0 -0.00000000000E+00 -0.00000000000E+00 -0.45593999997E+02  0.45594000000E+02  0.51100000000E-03 0. -1.
         23    2    1    2    0    0 -0.71054273576E-14  0.00000000000E+00 -0.22204460493E-15  0.91188000000E+02  0.91188000000E+02 0.  0.
    9900012    2    3    3    0    0 -0.36489986797E+02  0.47170392598E+01  0.14178700805E+01  0.54367082692E+02  0.39999996613E+02 0.  0.
        -12    1    3    3    0    0  0.36489986797E+02 -0.47170392598E+01 -0.14178700805E+01  0.36820917308E+02  0.00000000000E+00 0.  1.
         11    1    4    4    0    0  0.12521902399E+01 -0.84694804520E+01 -0.21861971986E+01  0.88362626701E+01  0.51100000000E-03 0. -1.
        -11    1    4    4    0    0 -0.32244692009E+02  0.14946164926E+02  0.99951023854E+01  0.36918966409E+02  0.51100000000E-03 0.  1.
        -12    1    4    4    0    0 -0.54974850288E+01 -0.17596452144E+01 -0.63910351064E+01  0.86118536131E+01  0.00000000000E+00 0.  1.
</event>
<event>
 8    1  0.3011071E-007  0.9118800E+02  0.7816164E-02  0.1184000E+00
        -11   -1    0    0    0    0  0.00000000000E+00  0.00000000000E+00  0.45593999997E+02  0.45594000000E+02  0.51100000000E-03 0. -1.
         11   -1    0    0    0    0 -0.00000000000E+00 -0.00000000000E+00 -0.45593999997E+02  0.45594000000E+02  0.51100000000E-03 0.  1.
         23    2    1    2    0    0 -0.17763568394E-14  0.35527136788E-14 -0.35527136788E-14  0.91188000000E+02  0.91188000000E+02 0.  0.
    9900012    2    3    3    0    0  0.11302486148E+02 -0.22211865542E+02  0.27104721498E+02  0.54367094369E+02  0.40000023233E+02 0.  0.
        -12    1    3    3    0    0 -0.11302486148E+02  0.22211865542E+02 -0.27104721498E+02  0.36820905631E+02  0.00000000000E+00 0.  1.
         11    1    4    4    0    0 -0.62455112760E+01 -0.32011949596E+01  0.21521354283E+02  0.22636756629E+02  0.51100000000E-03 0. -1.
        -11    1    4    4    0    0  0.16622177160E+02 -0.22300528547E+02  0.51252452200E+01  0.28282123079E+02  0.51100000000E-03 0.  1.
        -12    1    4    4    0    0  0.92582026345E+00  0.32898579644E+01  0.45812199525E+00  0.34482146610E+01  0.00000000000E+00 0.  1.
</event>
<event>
 8    1  0.3011071E-007  0.9118800E+02  0.7816164E-02  0.1184000E+00
        -11   -1    0    0    0    0  0.00000000000E+00  0.00000000000E+00  0.45593999997E+02  0.45594000000E+02  0.51100000000E-03 0.  1.
         11   -1    0    0    0    0 -0.00000000000E+00 -0.00000000000E+00 -0.45593999997E+02  0.45594000000E+02  0.51100000000E-03 0. -1.
         23    2    1    2    0    0 -0.35527136788E-14  0.00000000000E+00  0.17763568394E-14  0.91188000000E+02  0.91188000000E+02 0.  0.
    9900012    2    3    3    0    0  0.31097050634E+02 -0.15602573190E+02 -0.12054681291E+02  0.54367052303E+02  0.39999927335E+02 0.  0.
        -12    1    3    3    0    0 -0.31097050634E+02  0.15602573190E+02  0.12054681291E+02  0.36820947697E+02  0.00000000000E+00 0.  1.
         11    1    4    4    0    0  0.26215223335E+01 -0.97551704590E+00  0.65038659001E+01  0.70798506170E+01  0.51100000000E-03 0.  1.
        -11    1    4    4    0    0  0.30043313651E+02 -0.13417937750E+01 -0.11872884390E+02  0.32332127824E+02  0.51100000000E-03 0. -1.
         12    1    4    4    0    0 -0.15677853503E+01 -0.13285262369E+02 -0.66856628013E+01  0.14955073862E+02  0.00000000000E+00 0. -1.
</event>
<event>
 8    1  0.3011071E-007  0.9118800E+02  0.7816164E-02  0.1184000E+00
        -11   -1    0    0    0    0  0.00000000000E+00  0.00000000000E+00  0.45593999997E+02  0.45594000000E+02  0.51100000000E-03 0. -1.
         11   -1    0    0    0    0 -0.00000000000E+00 -0.00000000000E+00 -0.45593999997E+02  0.45594000000E+02  0.51100000000E-03 0.  1.
         23    2    1    2    0    0  0.71054273576E-14  0.44408920985E-15 -0.44408920985E-15  0.91188000000E+02  0.91188000000E+02 0.  0.
    9900012    2    3    3    0    0 -0.36559533693E+02  0.37919532576E+01 -0.21912095444E+01  0.54367084576E+02  0.40000000909E+02 0.  0.
        -12    1    3    3    0    0  0.36559533693E+02 -0.37919532576E+01  0.21912095444E+01  0.36820915424E+02  0.00000000000E+00 0.  1.
         11    1    4    4    0    0  0.12483564334E+01  0.12810273122E+01  0.93073849490E+01  0.94777022326E+01  0.51100000000E-03 0.  1.
        -11    1    4    4    0    0 -0.39844867991E+02 -0.28341510258E+00 -0.97832581705E+01  0.41029330607E+02  0.51100000000E-03 0. -1.
         12    1    4    4    0    0  0.20369778643E+01  0.27943410480E+01 -0.17153363229E+01  0.38600517371E+01  0.00000000000E+00 0. -1.
</event>
<event>
 8    1  0.3011071E-007  0.9118800E+02  0.7816164E-02  0.1184000E+00
        -11   -1    0    0    0    0  0.00000000000E+00  0.00000000000E+00  0.45593999997E+02  0.45594000000E+02  0.51100000000E-03 0.  1.
         11   -1    0    0    0    0 -0.00000000000E+00 -0.00000000000E+00 -0.45593999997E+02  0.45594000000E+02  0.51100000000E-03 0. -1.
         23    2    1    2    0    0 -0.35527136788E-14  0.44408920985E-15  0.71054273576E-14  0.91188000000E+02  0.91188000000E+02 0.  0.
    9900012    2    3    3    0    0  0.29505295511E+02  0.20427321604E+01 -0.21932727088E+02  0.54367085625E+02  0.40000003300E+02 0.  0.
        -12    1    3    3    0    0 -0.29505295511E+02 -0.20427321604E+01  0.21932727088E+02  0.36820914375E+02  0.00000000000E+00 0.  1.
         11    1    4    4    0    0  0.12446223967E+02  0.24844435655E+01 -0.17671399863E+02  0.21756822475E+02  0.51100000000E-03 0. -1.
        -11    1    4    4    0    0  0.66192766928E+01 -0.11829881661E+02 -0.92090909012E+01  0.16388052952E+02  0.51100000000E-03 0.  1.
         12    1    4    4    0    0  0.10439794852E+02  0.11388170256E+02  0.49477636757E+01  0.16222210198E+02  0.00000000000E+00 0. -1.
</event>
<event>
 8    1  0.3011071E-007  0.9118800E+02  0.7816164E-02  0.1184000E+00
        -11   -1    0    0    0    0  0.00000000000E+00  0.00000000000E+00  0.45593999997E+02  0.45594000000E+02  0.51100000000E-03 0.  1.
         11   -1    0    0    0    0 -0.00000000000E+00 -0.00000000000E+00 -0.45593999997E+02  0.45594000000E+02  0.51100000000E-03 0. -1.
         23    2    1    2    0    0  0.00000000000E+00 -0.35527136788E-14  0.26645352591E-14  0.91188000000E+02  0.91188000000E+02 0.  0.
    9900012    2    3    3    0    0  0.25938997146E+02  0.25529862398E+02  0.55833641209E+01  0.54367090154E+02  0.40000013624E+02 0.  0.
         12    1    3    3    0    0 -0.25938997146E+02 -0.25529862398E+02 -0.55833641209E+01  0.36820909846E+02  0.00000000000E+00 0. -1.
         11    1    4    4    0    0 -0.11332902372E+01 -0.26658184934E+01 -0.49972943395E+01  0.57761480226E+01  0.51100000000E-03 0. -1.
        -11    1    4    4    0    0  0.22674683723E+02  0.96870429387E+01 -0.35251767421E+01  0.24907969691E+02  0.51100000000E-03 0.  1.
         12    1    4    4    0    0  0.43976036599E+01  0.18508637953E+02  0.14105835202E+02  0.23682972440E+02  0.00000000000E+00 0. -1.
</event>
<event>
 8    1  0.3011071E-007  0.9118800E+02  0.7816164E-02  0.1184000E+00
        -11   -1    0    0    0    0  0.00000000000E+00  0.00000000000E+00  0.45593999997E+02  0.45594000000E+02  0.51100000000E-03 0.  1.
         11   -1    0    0    0    0 -0.00000000000E+00 -0.00000000000E+00 -0.45593999997E+02  0.45594000000E+02  0.51100000000E-03 0. -1.
         23    2    1    2    0    0  0.00000000000E+00  0.00000000000E+00  0.44408920985E-15  0.91188000000E+02  0.91188000000E+02 0.  0.
    9900012    2    3    3    0    0 -0.20397073728E+02 -0.30569939178E+02 -0.22842271010E+01  0.54367088938E+02  0.40000010851E+02 0.  0.
        -12    1    3    3    0    0  0.20397073728E+02  0.30569939178E+02  0.22842271010E+01  0.36820911062E+02  0.00000000000E+00 0.  1.
         11    1    4    4    0    0 -0.22349056574E+02 -0.25673398556E+02  0.22772098982E+01  0.34114357803E+02  0.51100000000E-03 0. -1.
        -11    1    4    4    0    0 -0.56037673501E+01  0.97527796709E+00  0.43624290106E+01  0.71682747409E+01  0.51100000000E-03 0.  1.
        -12    1    4    4    0    0  0.75557501954E+01 -0.58718185887E+01 -0.89238660098E+01  0.13084456394E+02  0.00000000000E+00 0.  1.
</event>
<event>
 8    1  0.3011071E-007  0.9118800E+02  0.7816164E-02  0.1184000E+00
        -11   -1    0    0    0    0  0.00000000000E+00  0.00000000000E+00  0.45593999997E+02  0.45594000000E+02  0.51100000000E-03 0. -1.
         11   -1    0    0    0    0 -0.00000000000E+00 -0.00000000000E+00 -0.45593999997E+02  0.45594000000E+02  0.51100000000E-03 0.  1.
         23    2    1    2    0    0  0.00000000000E+00  0.35527136788E-14  0.00000000000E+00  0.91188000000E+02  0.91188000000E+02 0.  0.
    9900012    2    3    3    0    0 -0.98520299624E+01  0.13069970587E+02  0.32983224677E+02  0.54367085622E+02  0.40000003293E+02 0.  0.
        -12    1    3    3    0    0  0.98520299624E+01 -0.13069970587E+02 -0.32983224677E+02  0.36820914378E+02  0.00000000000E+00 0.  1.
         11    1    4    4    0    0 -0.22066512975E+01 -0.63356249923E+01  0.11689454049E+02  0.13477862970E+02  0.51100000000E-03 0. -1.
        -11    1    4    4    0    0  0.27090140723E+01  0.22377035909E+02  0.83217092988E+01  0.24027512131E+02  0.51100000000E-03 0.  1.
        -12    1    4    4    0    0 -0.10354392737E+02 -0.29714403290E+01  0.12972061329E+02  0.16861710521E+02  0.00000000000E+00 0.  1.
</event>
<event>
 8    1  0.3011071E-007  0.9118800E+02  0.7816164E-02  0.1184000E+00
        -11   -1    0    0    0    0  0.00000000000E+00  0.00000000000E+00  0.45593999997E+02  0.45594000000E+02  0.51100000000E-03 0.  1.
         11   -1    0    0    0    0 -0.00000000000E+00 -0.00000000000E+00 -0.45593999997E+02  0.45594000000E+02  0.51100000000E-03 0. -1.
         23    2    1    2    0    0  0.17763568394E-14 -0.88817841970E-15  0.00000000000E+00  0.91188000000E+02  0.91188000000E+02 0.  0.
    9900012    2    3    3    0    0 -0.12523667046E+02 -0.79383118361E+01 -0.33703462758E+02  0.54367048994E+02  0.39999919792E+02 0.  0.
        -12    1    3    3    0    0  0.12523667046E+02  0.79383118361E+01  0.33703462758E+02  0.36820951006E+02  0.00000000000E+00 0.  1.
         11    1    4    4    0    0 -0.21883403227E+02 -0.58125892017E+01 -0.18513604242E+02  0.29247616524E+02  0.51100000000E-03 0. -1.
        -11    1    4    4    0    0  0.42579721365E+01 -0.72150960432E+01 -0.78959403510E-01  0.83781962544E+01  0.51100000000E-03 0.  1.
        -12    1    4    4    0    0  0.51017640442E+01  0.50893734089E+01 -0.15110899112E+02  0.16741236216E+02  0.00000000000E+00 0.  1.
</event>
<event>
 8    1  0.3011071E-007  0.9118800E+02  0.7816164E-02  0.1184000E+00
        -11   -1    0    0    0    0  0.00000000000E+00  0.00000000000E+00  0.45593999997E+02  0.45594000000E+02  0.51100000000E-03 0. -1.
         11   -1    0    0    0    0 -0.00000000000E+00 -0.00000000000E+00 -0.45593999997E+02  0.45594000000E+02  0.51100000000E-03 0.  1.
         23    2    1    2    0    0  0.00000000000E+00  0.17763568394E-14  0.00000000000E+00  0.91188000000E+02  0.91188000000E+02 0.  0.
    9900012    2    3    3    0    0  0.21548515882E+02  0.15256662083E+02  0.25664701392E+02  0.54367066115E+02  0.39999958821E+02 0.  0.
        -12    1    3    3    0    0 -0.21548515882E+02 -0.15256662083E+02 -0.25664701392E+02  0.36820933885E+02  0.00000000000E+00 0.  1.
         11    1    4    4    0    0 -0.54086151062E+01 -0.28522004014E+01  0.91025981080E+01  0.10965648958E+02  0.51100000000E-03 0.  1.
        -11    1    4    4    0    0  0.31119743888E+02  0.15210229052E+02  0.16405400482E+02  0.38326579455E+02  0.51100000000E-03 0. -1.
         12    1    4    4    0    0 -0.41626128997E+01  0.28986334321E+01  0.15670280242E+00  0.50748377013E+01  0.00000000000E+00 0. -1.
</event>
<event>
 8    1  0.3011071E-007  0.9118800E+02  0.7816164E-02  0.1184000E+00
        -11   -1    0    0    0    0  0.00000000000E+00  0.00000000000E+00  0.45593999997E+02  0.45594000000E+02  0.51100000000E-03 0.  1.
         11   -1    0    0    0    0 -0.00000000000E+00 -0.00000000000E+00 -0.45593999997E+02  0.45594000000E+02  0.51100000000E-03 0. -1.
         23    2    1    2    0    0 -0.88817841970E-15  0.17763568394E-14  0.00000000000E+00  0.91188000000E+02  0.91188000000E+02 0.  0.
    9900012    2    3    3    0    0  0.44011406643E+01 -0.14314543696E+02 -0.33637837718E+02  0.54367077596E+02  0.39999984995E+02 0.  0.
        -12    1    3    3    0    0 -0.44011406643E+01  0.14314543696E+02  0.33637837718E+02  0.36820922404E+02  0.00000000000E+00 0.  1.
         11    1    4    4    0    0 -0.97716579157E+01 -0.11141196442E+02 -0.61301566757E+01  0.16037156160E+02  0.51100000000E-03 0. -1.
        -11    1    4    4    0    0  0.39498838317E+01  0.14432803423E+01  0.34266922668E+01  0.54246530380E+01  0.51100000000E-03 0.  1.
         12    1    4    4    0    0  0.10222914748E+02 -0.46166275965E+01 -0.30934373309E+02  0.32905268398E+02  0.00000000000E+00 0. -1.
</event>
<event>
 8    1  0.3011071E-007  0.9118800E+02  0.7816164E-02  0.1184000E+00
        -11   -1    0    0    0    0  0.00000000000E+00  0.00000000000E+00  0.45593999997E+02  0.45594000000E+02  0.51100000000E-03 0.  1.
         11   -1    0    0    0    0 -0.00000000000E+00 -0.00000000000E+00 -0.45593999997E+02  0.45594000000E+02  0.51100000000E-03 0. -1.
         23    2    1    2    0    0  0.00000000000E+00  0.00000000000E+00  0.00000000000E+00  0.91188000000E+02  0.91188000000E+02 0.  0.
    9900012    2    3    3    0    0  0.18585596441E+02 -0.30081622367E+02  0.10269002603E+02  0.54367070982E+02  0.39999969917E+02 0.  0.
         12    1    3    3    0    0 -0.18585596441E+02  0.30081622367E+02 -0.10269002603E+02  0.36820929018E+02  0.00000000000E+00 0. -1.
         11    1    4    4    0    0 -0.51954263430E+01  0.20084702131E+01 -0.10189347290E+01  0.56625644125E+01  0.51100000000E-03 0. -1.
        -11    1    4    4    0    0  0.89909943155E+01 -0.31297837175E+02  0.80323587860E+01  0.33539698545E+02  0.51100000000E-03 0.  1.
         12    1    4    4    0    0  0.14790028468E+02 -0.79225540576E+00  0.32555785465E+01  0.15164808024E+02  0.00000000000E+00 0. -1.
</event>
<event>
 8    1  0.3011071E-007  0.9118800E+02  0.7816164E-02  0.1184000E+00
        -11   -1    0    0    0    0  0.00000000000E+00  0.00000000000E+00  0.45593999997E+02  0.45594000000E+02  0.51100000000E-03 0. -1.
         11   -1    0    0    0    0 -0.00000000000E+00 -0.00000000000E+00 -0.45593999997E+02  0.45594000000E+02  0.51100000000E-03 0.  1.
         23    2    1    2    0    0  0.00000000000E+00  0.00000000000E+00  0.88817841970E-15  0.91188000000E+02  0.91188000000E+02 0.  0.
    9900012    2    3    3    0    0 -0.20879995767E+02 -0.29689384957E+02  0.61925057910E+01  0.54367069399E+02  0.39999966309E+02 0.  0.
        -12    1    3    3    0    0  0.20879995767E+02  0.29689384957E+02 -0.61925057910E+01  0.36820930601E+02  0.00000000000E+00 0.  1.
         11    1    4    4    0    0  0.51255454226E+00 -0.12820008352E+02  0.12173556577E+02  0.17686458274E+02  0.51100000000E-03 0. -1.
        -11    1    4    4    0    0 -0.12741704949E+02 -0.91630239256E+01  0.87270488650E+01  0.17957545339E+02  0.51100000000E-03 0.  1.
        -12    1    4    4    0    0 -0.86508453601E+01 -0.77063526797E+01 -0.14708099650E+02  0.18723065785E+02  0.00000000000E+00 0.  1.
</event>
<event>
 8    1  0.3011071E-007  0.9118800E+02  0.7816164E-02  0.1184000E+00
        -11   -1    0    0    0    0  0.00000000000E+00  0.00000000000E+00  0.45593999997E+02  0.45594000000E+02  0.51100000000E-03 0. -1.
         11   -1    0    0    0    0 -0.00000000000E+00 -0.00000000000E+00 -0.45593999997E+02  0.45594000000E+02  0.51100000000E-03 0.  1.
         23    2    1    2    0    0  0.00000000000E+00  0.17763568394E-14 -0.44408920985E-15  0.91188000000E+02  0.91188000000E+02 0.  0.
    9900012    2    3    3    0    0 -0.33985978248E+02  0.14029852638E+02 -0.19726954720E+01  0.54367149793E+02  0.40000149583E+02 0.  0.
         12    1    3    3    0    0  0.33985978248E+02 -0.14029852638E+02  0.19726954720E+01  0.36820850207E+02  0.00000000000E+00 0. -1.
         11    1    4    4    0    0 -0.17772303648E+02 -0.26468630801E-01  0.64208260585E-01  0.17772439351E+02  0.51100000000E-03 0. -1.
        -11    1    4    4    0    0 -0.11101892223E+02  0.22096774417E+02 -0.72028042193E+01  0.25756549448E+02  0.51100000000E-03 0.  1.
        -12    1    4    4    0    0 -0.51117823772E+01 -0.80404531477E+01  0.51659004867E+01  0.10838160994E+02  0.00000000000E+00 0.  1.
</event>
<event>
 8    1  0.3011071E-007  0.9118800E+02  0.7816164E-02  0.1184000E+00
        -11   -1    0    0    0    0  0.00000000000E+00  0.00000000000E+00  0.45593999997E+02  0.45594000000E+02  0.51100000000E-03 0.  1.
         11   -1    0    0    0    0 -0.00000000000E+00 -0.00000000000E+00 -0.45593999997E+02  0.45594000000E+02  0.51100000000E-03 0. -1.
         23    2    1    2    0    0  0.35527136788E-14  0.00000000000E+00  0.00000000000E+00  0.91188000000E+02  0.91188000000E+02 0.  0.
    9900012    2    3    3    0    0  0.25208340962E+02  0.20270997376E+02 -0.17589936118E+02  0.54367086902E+02  0.40000006212E+02 0.  0.
        -12    1    3    3    0    0 -0.25208340962E+02 -0.20270997376E+02  0.17589936118E+02  0.36820913098E+02  0.00000000000E+00 0.  1.
         11    1    4    4    0    0  0.27390221863E+01 -0.37888589995E+01 -0.16248690879E+02  0.16907916802E+02  0.51100000000E-03 0. -1.
        -11    1    4    4    0    0  0.20556962941E+02  0.20483698107E+02 -0.76023587543E+01  0.29999441201E+02  0.51100000000E-03 0.  1.
         12    1    4    4    0    0  0.19123558353E+01  0.35761582688E+01  0.62611135149E+01  0.74597288993E+01  0.00000000000E+00 0. -1.
</event>
<event>
 8    1  0.3011071E-007  0.9118800E+02  0.7816164E-02  0.1184000E+00
        -11   -1    0    0    0    0  0.00000000000E+00  0.00000000000E+00  0.45593999997E+02  0.45594000000E+02  0.51100000000E-03 0.  1.
         11   -1    0    0    0    0 -0.00000000000E+00 -0.00000000000E+00 -0.45593999997E+02  0.45594000000E+02  0.51100000000E-03 0. -1.
         23    2    1    2    0    0  0.71054273576E-14 -0.88817841970E-15  0.00000000000E+00  0.91188000000E+02  0.91188000000E+02 0.  0.
    9900012    2    3    3    0    0 -0.30804721820E+02 -0.79944237244E+01 -0.18518604197E+02  0.54367076621E+02  0.39999982773E+02 0.  0.
        -12    1    3    3    0    0  0.30804721820E+02  0.79944237244E+01  0.18518604197E+02  0.36820923379E+02  0.00000000000E+00 0.  1.
         11    1    4    4    0    0 -0.13726773386E+02 -0.78937117372E+01 -0.75615593974E+01  0.17547426403E+02  0.51100000000E-03 0. -1.
        -11    1    4    4    0    0 -0.23662172267E+02  0.40111010591E+01 -0.14760246690E+02  0.28175383063E+02  0.51100000000E-03 0.  1.
        -12    1    4    4    0    0  0.65842238337E+01 -0.41118130463E+01  0.38032018912E+01  0.86442671549E+01  0.00000000000E+00 0.  1.
</event>
<event>
 8    1  0.3011071E-007  0.9118800E+02  0.7816164E-02  0.1184000E+00
        -11   -1    0    0    0    0  0.00000000000E+00  0.00000000000E+00  0.45593999997E+02  0.45594000000E+02  0.51100000000E-03 0. -1.
         11   -1    0    0    0    0 -0.00000000000E+00 -0.00000000000E+00 -0.45593999997E+02  0.45594000000E+02  0.51100000000E-03 0.  1.
         23    2    1    2    0    0  0.35527136788E-14  0.00000000000E+00  0.44408920985E-15  0.91188000000E+02  0.91188000000E+02 0.  0.
    9900012    2    3    3    0    0  0.30002999956E+02  0.21245547737E+02 -0.20561331813E+01  0.54367068607E+02  0.39999964503E+02 0.  0.
        -12    1    3    3    0    0 -0.30002999956E+02 -0.21245547737E+02  0.20561331813E+01  0.36820931393E+02  0.00000000000E+00 0.  1.
         11    1    4    4    0    0  0.28062582113E+02  0.18277733509E+02 -0.66585356785E+01  0.34145572989E+02  0.51100000000E-03 0. -1.
        -11    1    4    4    0    0  0.25160712470E+01 -0.76261703479E+01  0.52463556296E+01  0.95923582267E+01  0.51100000000E-03 0.  1.
        -12    1    4    4    0    0 -0.57565340463E+00  0.10593984577E+02 -0.64395313235E+00  0.10629137392E+02  0.00000000000E+00 0.  1.
</event>
<event>
 8    1  0.3011071E-007  0.9118800E+02  0.7816164E-02  0.1184000E+00
        -11   -1    0    0    0    0  0.00000000000E+00  0.00000000000E+00  0.45593999997E+02  0.45594000000E+02  0.51100000000E-03 0. -1.
         11   -1    0    0    0    0 -0.00000000000E+00 -0.00000000000E+00 -0.45593999997E+02  0.45594000000E+02  0.51100000000E-03 0.  1.
         23    2    1    2    0    0  0.00000000000E+00 -0.35527136788E-14  0.35527136788E-14  0.91188000000E+02  0.91188000000E+02 0.  0.
    9900012    2    3    3    0    0  0.20229130208E+02 -0.17673718235E+02  0.25183356137E+02  0.54367089480E+02  0.40000012087E+02 0.  0.
        -12    1    3    3    0    0 -0.20229130208E+02  0.17673718235E+02 -0.25183356137E+02  0.36820910520E+02  0.00000000000E+00 0.  1.
         11    1    4    4    0    0  0.83333356458E+01  0.10223337086E+02  0.38206085568E+01  0.13731647904E+02  0.51100000000E-03 0.  1.
        -11    1    4    4    0    0  0.54201485155E+01 -0.10566586239E+02  0.18399069247E+02  0.21898778598E+02  0.51100000000E-03 0. -1.
        -12    1    4    4    0    0  0.64756460463E+01 -0.17330469081E+02  0.29636783336E+01  0.18736662978E+02  0.00000000000E+00 0.  1.
</event>
<event>
 8    1  0.3011071E-007  0.9118800E+02  0.7816164E-02  0.1184000E+00
        -11   -1    0    0    0    0  0.00000000000E+00  0.00000000000E+00  0.45593999997E+02  0.45594000000E+02  0.51100000000E-03 0.  1.
         11   -1    0    0    0    0 -0.00000000000E+00 -0.00000000000E+00 -0.45593999997E+02  0.45594000000E+02  0.51100000000E-03 0. -1.
         23    2    1    2    0    0  0.35527136788E-14  0.35527136788E-14 -0.35527136788E-14  0.91188000000E+02  0.91188000000E+02 0.  0.
    9900012    2    3    3    0    0  0.22886216302E+02  0.18583914659E+02 -0.22059904629E+02  0.54367079684E+02  0.39999989756E+02 0.  0.
        -12    1    3    3    0    0 -0.22886216302E+02 -0.18583914659E+02  0.22059904629E+02  0.36820920316E+02  0.00000000000E+00 0.  1.
         11    1    4    4    0    0  0.53069350286E+01 -0.68353313274E+01 -0.66341480914E+01  0.10904000867E+02  0.51100000000E-03 0.  1.
        -11    1    4    4    0    0  0.17020300814E+02  0.29065817924E+02 -0.71936648125E+01  0.34442143155E+02  0.51100000000E-03 0. -1.
         12    1    4    4    0    0  0.55898045921E+00 -0.36465719380E+01 -0.82320917251E+01  0.90209356623E+01  0.00000000000E+00 0. -1.
</event>
<event>
 8    1  0.3011071E-007  0.9118800E+02  0.7816164E-02  0.1184000E+00
        -11   -1    0    0    0    0  0.00000000000E+00  0.00000000000E+00  0.45593999997E+02  0.45594000000E+02  0.51100000000E-03 0. -1.
         11   -1    0    0    0    0 -0.00000000000E+00 -0.00000000000E+00 -0.45593999997E+02  0.45594000000E+02  0.51100000000E-03 0.  1.
         23    2    1    2    0    0 -0.35527136788E-14  0.00000000000E+00 -0.35527136788E-14  0.91188000000E+02  0.91188000000E+02 0.  0.
    9900012    2    3    3    0    0  0.22879635549E+02  0.72167638368E+01  0.27932419771E+02  0.54367089128E+02  0.40000011286E+02 0.  0.
        -12    1    3    3    0    0 -0.22879635549E+02 -0.72167638368E+01 -0.27932419771E+02  0.36820910872E+02  0.00000000000E+00 0.  1.
         11    1    4    4    0    0  0.11083485516E+02 -0.12573809447E+01  0.26949418078E+02  0.29166689785E+02  0.51100000000E-03 0.  1.
        -11    1    4    4    0    0 -0.16811706009E+01  0.83954473143E+01  0.63848121160E+01  0.10680622464E+02  0.51100000000E-03 0. -1.
         12    1    4    4    0    0  0.13477320634E+02  0.78697467276E-01 -0.54018104229E+01  0.14519776879E+02  0.00000000000E+00 0. -1.
</event>
<event>
 8    1  0.3011071E-007  0.9118800E+02  0.7816164E-02  0.1184000E+00
        -11   -1    0    0    0    0  0.00000000000E+00  0.00000000000E+00  0.45593999997E+02  0.45594000000E+02  0.51100000000E-03 0.  1.
         11   -1    0    0    0    0 -0.00000000000E+00 -0.00000000000E+00 -0.45593999997E+02  0.45594000000E+02  0.51100000000E-03 0. -1.
         23    2    1    2    0    0  0.00000000000E+00  0.00000000000E+00  0.00000000000E+00  0.91188000000E+02  0.91188000000E+02 0.  0.
    9900012    2    3    3    0    0  0.58843334949E+01  0.10705728792E+02 -0.34735303820E+02  0.54367090980E+02  0.40000015506E+02 0.  0.
        -12    1    3    3    0    0 -0.58843334949E+01 -0.10705728792E+02  0.34735303820E+02  0.36820909020E+02  0.00000000000E+00 0.  1.
         11    1    4    4    0    0 -0.39337028790E+00  0.55246960763E+01 -0.15664518294E+02  0.16614877085E+02  0.51100000000E-03 0. -1.
        -11    1    4    4    0    0  0.27308219542E+01 -0.15547800101E+01 -0.26753070210E+02  0.26936991208E+02  0.51100000000E-03 0.  1.
        -12    1    4    4    0    0  0.35468818286E+01  0.67358127259E+01  0.76822846841E+01  0.10815222686E+02  0.00000000000E+00 0.  1.
</event>
<event>
 8    1  0.3011071E-007  0.9118800E+02  0.7816164E-02  0.1184000E+00
        -11   -1    0    0    0    0  0.00000000000E+00  0.00000000000E+00  0.45593999997E+02  0.45594000000E+02  0.51100000000E-03 0.  1.
         11   -1    0    0    0    0 -0.00000000000E+00 -0.00000000000E+00 -0.45593999997E+02  0.45594000000E+02  0.51100000000E-03 0. -1.
         23    2    1    2    0    0  0.88817841970E-15 -0.35527136788E-14  0.00000000000E+00  0.91188000000E+02  0.91188000000E+02 0.  0.
    9900012    2    3    3    0    0  0.28503059554E+01 -0.29179179753E+02 -0.22276288050E+02  0.54367057801E+02  0.39999939869E+02 0.  0.
        -12    1    3    3    0    0 -0.28503059554E+01  0.29179179753E+02  0.22276288050E+02  0.36820942199E+02  0.00000000000E+00 0.  1.
         11    1    4    4    0    0  0.12440369472E+02 -0.95208147132E+01 -0.10824611209E+02  0.19041557538E+02  0.51100000000E-03 0. -1.
        -11    1    4    4    0    0  0.45206360870E+01 -0.15853491051E+02  0.42894656848E+00  0.16491007384E+02  0.51100000000E-03 0.  1.
         12    1    4    4    0    0 -0.14110699604E+02 -0.38048739894E+01 -0.11880623410E+02  0.18834492878E+02  0.00000000000E+00 0. -1.
</event>
<event>
 8    1  0.3011071E-007  0.9118800E+02  0.7816164E-02  0.1184000E+00
        -11   -1    0    0    0    0  0.00000000000E+00  0.00000000000E+00  0.45593999997E+02  0.45594000000E+02  0.51100000000E-03 0. -1.
         11   -1    0    0    0    0 -0.00000000000E+00 -0.00000000000E+00 -0.45593999997E+02  0.45594000000E+02  0.51100000000E-03 0.  1.
         23    2    1    2    0    0  0.00000000000E+00 -0.26645352591E-14  0.00000000000E+00  0.91188000000E+02  0.91188000000E+02 0.  0.
    9900012    2    3    3    0    0 -0.96786778736E+01  0.72029772592E+01  0.34788215094E+02  0.54367087516E+02  0.40000007610E+02 0.  0.
        -12    1    3    3    0    0  0.96786778736E+01 -0.72029772592E+01 -0.34788215094E+02  0.36820912484E+02  0.00000000000E+00 0.  1.
         11    1    4    4    0    0 -0.39122019149E+01  0.16615442571E+02  0.40353350859E+01  0.17540301741E+02  0.51100000000E-03 0. -1.
        -11    1    4    4    0    0 -0.25931076280E+01 -0.14211015295E+02  0.23248891547E+02  0.27371301052E+02  0.51100000000E-03 0.  1.
        -12    1    4    4    0    0 -0.31733683307E+01  0.47985499833E+01  0.75039884610E+01  0.94554847220E+01  0.00000000000E+00 0.  1.
</event>
<event>
 8    1  0.3011071E-007  0.9118800E+02  0.7816164E-02  0.1184000E+00
        -11   -1    0    0    0    0  0.00000000000E+00  0.00000000000E+00  0.45593999997E+02  0.45594000000E+02  0.51100000000E-03 0.  1.
         11   -1    0    0    0    0 -0.00000000000E+00 -0.00000000000E+00 -0.45593999997E+02  0.45594000000E+02  0.51100000000E-03 0. -1.
         23    2    1    2    0    0  0.88817841970E-15  0.00000000000E+00  0.00000000000E+00  0.91188000000E+02  0.91188000000E+02 0.  0.
    9900012    2    3    3    0    0 -0.44329640157E+01 -0.32511401551E+02  0.16707402463E+02  0.54367086136E+02  0.40000004463E+02 0.  0.
         12    1    3    3    0    0  0.44329640157E+01  0.32511401551E+02 -0.16707402463E+02  0.36820913864E+02  0.00000000000E+00 0. -1.
         11    1    4    4    0    0 -0.39395107543E-01  0.83648559559E+01  0.84647198510E+00  0.84076680608E+01  0.51100000000E-03 0. -1.
        -11    1    4    4    0    0 -0.47566556867E+01 -0.23873190135E+02  0.27738736564E+01  0.24499986854E+02  0.51100000000E-03 0.  1.
        -12    1    4    4    0    0  0.36308677851E+00 -0.17003067372E+02  0.13087056822E+02  0.21459431221E+02  0.00000000000E+00 0.  1.
</event>
<event>
 8    1  0.3011071E-007  0.9118800E+02  0.7816164E-02  0.1184000E+00
        -11   -1    0    0    0    0  0.00000000000E+00  0.00000000000E+00  0.45593999997E+02  0.45594000000E+02  0.51100000000E-03 0.  1.
         11   -1    0    0    0    0 -0.00000000000E+00 -0.00000000000E+00 -0.45593999997E+02  0.45594000000E+02  0.51100000000E-03 0. -1.
         23    2    1    2    0    0  0.00000000000E+00  0.00000000000E+00 -0.88817841970E-15  0.91188000000E+02  0.91188000000E+02 0.  0.
    9900012    2    3    3    0    0 -0.36699805679E+02 -0.28872763698E+01  0.75536665273E+00  0.54367045633E+02  0.39999912130E+02 0.  0.
        -12    1    3    3    0    0  0.36699805679E+02  0.28872763698E+01 -0.75536665273E+00  0.36820954367E+02  0.00000000000E+00 0.  1.
         11    1    4    4    0    0  0.30870937755E+01 -0.59061751329E+01 -0.61161210531E+01  0.90454402699E+01  0.51100000000E-03 0.  1.
        -11    1    4    4    0    0 -0.17246905907E+02 -0.17441798158E+01 -0.66987748615E+01  0.18584173684E+02  0.51100000000E-03 0. -1.
         12    1    4    4    0    0 -0.22539993548E+02  0.47630785789E+01  0.13570262567E+02  0.26737431680E+02  0.00000000000E+00 0. -1.
</event>
<event>
 8    1  0.3011071E-007  0.9118800E+02  0.7816164E-02  0.1184000E+00
        -11   -1    0    0    0    0  0.00000000000E+00  0.00000000000E+00  0.45593999997E+02  0.45594000000E+02  0.51100000000E-03 0.  1.
         11   -1    0    0    0    0 -0.00000000000E+00 -0.00000000000E+00 -0.45593999997E+02  0.45594000000E+02  0.51100000000E-03 0. -1.
         23    2    1    2    0    0 -0.11102230246E-14  0.00000000000E+00  0.00000000000E+00  0.91188000000E+02  0.91188000000E+02 0.  0.
    9900012    2    3    3    0    0  0.58635547816E+00 -0.32591716437E+02 -0.17123564186E+02  0.54367078725E+02  0.39999987570E+02 0.  0.
        -12    1    3    3    0    0 -0.58635547816E+00  0.32591716437E+02  0.17123564186E+02  0.36820921275E+02  0.00000000000E+00 0.  1.
         11    1    4    4    0    0 -0.92865047130E+01  0.43454561568E+00 -0.33438921914E+01  0.98797578374E+01  0.51100000000E-03 0. -1.
        -11    1    4    4    0    0 -0.42306410890E+01 -0.19346169307E+02  0.11102739618E+01  0.19834447293E+02  0.51100000000E-03 0.  1.
        -12    1    4    4    0    0  0.14103501280E+02 -0.13680092746E+02 -0.14889945957E+02  0.24652873595E+02  0.00000000000E+00 0.  1.
</event>
<event>
 8    1  0.3011071E-007  0.9118800E+02  0.7816164E-02  0.1184000E+00
        -11   -1    0    0    0    0  0.00000000000E+00  0.00000000000E+00  0.45593999997E+02  0.45594000000E+02  0.51100000000E-03 0. -1.
         11   -1    0    0    0    0 -0.00000000000E+00 -0.00000000000E+00 -0.45593999997E+02  0.45594000000E+02  0.51100000000E-03 0.  1.
         23    2    1    2    0    0  0.00000000000E+00  0.00000000000E+00 -0.35527136788E-14  0.91188000000E+02  0.91188000000E+02 0.  0.
    9900012    2    3    3    0    0  0.12531273050E+02  0.19661725688E+02  0.28498487661E+02  0.54367081214E+02  0.39999993244E+02 0.  0.
        -12    1    3    3    0    0 -0.12531273050E+02 -0.19661725688E+02 -0.28498487661E+02  0.36820918786E+02  0.00000000000E+00 0.  1.
         11    1    4    4    0    0  0.59335455210E+01 -0.60336899484E+01  0.60854650720E+01  0.10423303807E+02  0.51100000000E-03 0. -1.
        -11    1    4    4    0    0  0.14799278579E+01 -0.57449989138E+01  0.39184867699E+01  0.71098338807E+01  0.51100000000E-03 0.  1.
         12    1    4    4    0    0  0.51177996714E+01  0.31440414550E+02  0.18494535819E+02  0.36833943527E+02  0.00000000000E+00 0. -1.
</event>
<event>
 8    1  0.3011071E-007  0.9118800E+02  0.7816164E-02  0.1184000E+00
        -11   -1    0    0    0    0  0.00000000000E+00  0.00000000000E+00  0.45593999997E+02  0.45594000000E+02  0.51100000000E-03 0.  1.
         11   -1    0    0    0    0 -0.00000000000E+00 -0.00000000000E+00 -0.45593999997E+02  0.45594000000E+02  0.51100000000E-03 0. -1.
         23    2    1    2    0    0  0.35527136788E-14  0.00000000000E+00 -0.88817841970E-15  0.91188000000E+02  0.91188000000E+02 0.  0.
    9900012    2    3    3    0    0 -0.26856990555E+02  0.24690121808E+02 -0.49880479577E+01  0.54367072811E+02  0.39999974088E+02 0.  0.
        -12    1    3    3    0    0  0.26856990555E+02 -0.24690121808E+02  0.49880479577E+01  0.36820927189E+02  0.00000000000E+00 0.  1.
         11    1    4    4    0    0 -0.44822098477E+01  0.12441514441E+02 -0.21936366188E+01  0.13404981484E+02  0.51100000000E-03 0. -1.
        -11    1    4    4    0    0 -0.15121504248E+01  0.81372895809E+01  0.12342582234E+02  0.14860734070E+02  0.51100000000E-03 0.  1.
         12    1    4    4    0    0 -0.20862630283E+02  0.41113177866E+01 -0.15136993573E+02  0.26101357258E+02  0.00000000000E+00 0. -1.
</event>
<event>
 8    1  0.3011071E-007  0.9118800E+02  0.7816164E-02  0.1184000E+00
        -11   -1    0    0    0    0  0.00000000000E+00  0.00000000000E+00  0.45593999997E+02  0.45594000000E+02  0.51100000000E-03 0.  1.
         11   -1    0    0    0    0 -0.00000000000E+00 -0.00000000000E+00 -0.45593999997E+02  0.45594000000E+02  0.51100000000E-03 0. -1.
         23    2    1    2    0    0  0.00000000000E+00  0.00000000000E+00  0.00000000000E+00  0.91188000000E+02  0.91188000000E+02 0.  0.
    9900012    2    3    3    0    0 -0.57344735369E+01  0.20778136308E+02 -0.29852324384E+02  0.54367130832E+02  0.40000106357E+02 0.  0.
        -12    1    3    3    0    0  0.57344735369E+01 -0.20778136308E+02  0.29852324384E+02  0.36820869168E+02  0.00000000000E+00 0.  1.
         11    1    4    4    0    0  0.15933007535E+01  0.13655716931E+02 -0.15957586110E+02  0.21063280061E+02  0.51100000000E-03 0. -1.
        -11    1    4    4    0    0  0.39079662768E+00 -0.10735840748E+02 -0.60283323334E+01  0.12318757630E+02  0.51100000000E-03 0.  1.
        -12    1    4    4    0    0 -0.77185709180E+01  0.17858260125E+02 -0.78664059401E+01  0.20985093141E+02  0.00000000000E+00 0.  1.
</event>
<event>
 8    1  0.3011071E-007  0.9118800E+02  0.7816164E-02  0.1184000E+00
        -11   -1    0    0    0    0  0.00000000000E+00  0.00000000000E+00  0.45593999997E+02  0.45594000000E+02  0.51100000000E-03 0. -1.
         11   -1    0    0    0    0 -0.00000000000E+00 -0.00000000000E+00 -0.45593999997E+02  0.45594000000E+02  0.51100000000E-03 0.  1.
         23    2    1    2    0    0  0.00000000000E+00  0.00000000000E+00 -0.11102230246E-14  0.91188000000E+02  0.91188000000E+02 0.  0.
    9900012    2    3    3    0    0 -0.36378695310E+02  0.55159471260E+01 -0.13943840645E+01  0.54367089473E+02  0.40000012071E+02 0.  0.
         12    1    3    3    0    0  0.36378695310E+02 -0.55159471260E+01  0.13943840645E+01  0.36820910527E+02  0.00000000000E+00 0. -1.
         11    1    4    4    0    0 -0.68167330301E+01  0.48373102376E+01 -0.41381868898E+01  0.93269507629E+01  0.51100000000E-03 0. -1.
        -11    1    4    4    0    0 -0.23672825278E+02 -0.15017723947E+02 -0.10685231378E+00  0.28034730369E+02  0.51100000000E-03 0.  1.
         12    1    4    4    0    0 -0.58891370016E+01  0.15696360836E+02  0.28506551390E+01  0.17005408341E+02  0.00000000000E+00 0. -1.
</event>
<event>
 8    1  0.3011071E-007  0.9118800E+02  0.7816164E-02  0.1184000E+00
        -11   -1    0    0    0    0  0.00000000000E+00  0.00000000000E+00  0.45593999997E+02  0.45594000000E+02  0.51100000000E-03 0.  1.
         11   -1    0    0    0    0 -0.00000000000E+00 -0.00000000000E+00 -0.45593999997E+02  0.45594000000E+02  0.51100000000E-03 0. -1.
         23    2    1    2    0    0  0.14210854715E-13  0.17763568394E-14  0.88817841970E-15  0.91188000000E+02  0.91188000000E+02 0.  0.
    9900012    2    3    3    0    0 -0.35213726973E+02 -0.87037270759E+01 -0.63260137174E+01  0.54367083636E+02  0.39999998766E+02 0.  0.
        -12    1    3    3    0    0  0.35213726973E+02  0.87037270759E+01  0.63260137174E+01  0.36820916364E+02  0.00000000000E+00 0.  1.
         11    1    4    4    0    0 -0.10204857264E+02  0.10435641639E+02  0.16138739491E+01  0.14684901007E+02  0.51100000000E-03 0.  1.
        -11    1    4    4    0    0 -0.24794823012E+02 -0.22648077614E+02 -0.10664992359E+02  0.35234368592E+02  0.51100000000E-03 0. -1.
         12    1    4    4    0    0 -0.21404669657E+00  0.35087088988E+01  0.27251046921E+01  0.44478140370E+01  0.00000000000E+00 0. -1.
</event>
<event>
 8    1  0.3011071E-007  0.9118800E+02  0.7816164E-02  0.1184000E+00
        -11   -1    0    0    0    0  0.00000000000E+00  0.00000000000E+00  0.45593999997E+02  0.45594000000E+02  0.51100000000E-03 0.  1.
         11   -1    0    0    0    0 -0.00000000000E+00 -0.00000000000E+00 -0.45593999997E+02  0.45594000000E+02  0.51100000000E-03 0. -1.
         23    2    1    2    0    0  0.00000000000E+00  0.00000000000E+00 -0.17763568394E-14  0.91188000000E+02  0.91188000000E+02 0.  0.
    9900012    2    3    3    0    0 -0.10578534323E+02 -0.32531580373E+02  0.13622968749E+02  0.54366886661E+02  0.39999549719E+02 0.  0.
         12    1    3    3    0    0  0.10578534323E+02  0.32531580373E+02 -0.13622968749E+02  0.36821113339E+02  0.00000000000E+00 0. -1.
         11    1    4    4    0    0  0.65790431929E+01 -0.16742559351E+02 -0.68237113322E+00  0.18001742515E+02  0.51100000000E-03 0. -1.
        -11    1    4    4    0    0 -0.96325634989E+01 -0.45553312799E+01 -0.58033939776E+01  0.12133289107E+02  0.51100000000E-03 0.  1.
        -12    1    4    4    0    0 -0.75250140170E+01 -0.11233689742E+02  0.20108733860E+02  0.24231855039E+02  0.00000000000E+00 0.  1.
</event>
<event>
 8    1  0.3011071E-007  0.9118800E+02  0.7816164E-02  0.1184000E+00
        -11   -1    0    0    0    0  0.00000000000E+00  0.00000000000E+00  0.45593999997E+02  0.45594000000E+02  0.51100000000E-03 0.  1.
         11   -1    0    0    0    0 -0.00000000000E+00 -0.00000000000E+00 -0.45593999997E+02  0.45594000000E+02  0.51100000000E-03 0. -1.
         23    2    1    2    0    0  0.00000000000E+00  0.00000000000E+00  0.00000000000E+00  0.91188000000E+02  0.91188000000E+02 0.  0.
    9900012    2    3    3    0    0 -0.17053974272E+02 -0.12569075254E+02 -0.30115789406E+02  0.54367075749E+02  0.39999980784E+02 0.  0.
        -12    1    3    3    0    0  0.17053974272E+02  0.12569075254E+02  0.30115789406E+02  0.36820924251E+02  0.00000000000E+00 0.  1.
         11    1    4    4    0    0  0.59765621026E+01  0.55650593639E+00 -0.33519216307E+01  0.68749088941E+01  0.51100000000E-03 0.  1.
        -11    1    4    4    0    0 -0.29894772684E+02 -0.10443482156E+02 -0.19763758950E+02  0.37327870572E+02  0.51100000000E-03 0. -1.
         12    1    4    4    0    0  0.68642363100E+01 -0.26820990342E+01 -0.70001088253E+01  0.10164296282E+02  0.00000000000E+00 0. -1.
</event>
<event>
 8    1  0.3011071E-007  0.9118800E+02  0.7816164E-02  0.1184000E+00
        -11   -1    0    0    0    0  0.00000000000E+00  0.00000000000E+00  0.45593999997E+02  0.45594000000E+02  0.51100000000E-03 0. -1.
         11   -1    0    0    0    0 -0.00000000000E+00 -0.00000000000E+00 -0.45593999997E+02  0.45594000000E+02  0.51100000000E-03 0.  1.
         23    2    1    2    0    0 -0.17763568394E-14  0.00000000000E+00  0.00000000000E+00  0.91188000000E+02  0.91188000000E+02 0.  0.
    9900012    2    3    3    0    0 -0.15756139444E+02 -0.79201280911E+01 -0.32323290172E+02  0.54367089545E+02  0.40000012236E+02 0.  0.
         12    1    3    3    0    0  0.15756139444E+02  0.79201280911E+01  0.32323290172E+02  0.36820910455E+02  0.00000000000E+00 0. -1.
         11    1    4    4    0    0 -0.44558884144E-01  0.10643464498E+00  0.72060377940E+01  0.72069615496E+01  0.51100000000E-03 0.  1.
        -11    1    4    4    0    0 -0.15161899489E+02 -0.10319780890E+02 -0.18682932468E+02  0.26180776146E+02  0.51100000000E-03 0. -1.
        -12    1    4    4    0    0 -0.54968107060E+00  0.22932181534E+01 -0.20846395498E+02  0.20979351850E+02  0.00000000000E+00 0.  1.
</event>
<event>
 8    1  0.3011071E-007  0.9118800E+02  0.7816164E-02  0.1184000E+00
        -11   -1    0    0    0    0  0.00000000000E+00  0.00000000000E+00  0.45593999997E+02  0.45594000000E+02  0.51100000000E-03 0. -1.
         11   -1    0    0    0    0 -0.00000000000E+00 -0.00000000000E+00 -0.45593999997E+02  0.45594000000E+02  0.51100000000E-03 0.  1.
         23    2    1    2    0    0  0.35527136788E-14 -0.44408920985E-15  0.71054273576E-14  0.91188000000E+02  0.91188000000E+02 0.  0.
    9900012    2    3    3    0    0  0.17596682550E+02 -0.16991363121E+01  0.32299374188E+02  0.54367083744E+02  0.39999999011E+02 0.  0.
        -12    1    3    3    0    0 -0.17596682550E+02  0.16991363121E+01 -0.32299374188E+02  0.36820916256E+02  0.00000000000E+00 0.  1.
         11    1    4    4    0    0 -0.26254391606E+01 -0.58040595125E+01 -0.23081906809E+01  0.67755281781E+01  0.51100000000E-03 0. -1.
        -11    1    4    4    0    0 -0.35321160984E+00 -0.52435850380E+01 -0.10654531200E+01  0.53623812904E+01  0.51100000000E-03 0.  1.
         12    1    4    4    0    0  0.20575333321E+02  0.93485082384E+01  0.35673017989E+02  0.42229174276E+02  0.00000000000E+00 0. -1.
</event>
<event>
 8    1  0.3011071E-007  0.9118800E+02  0.7816164E-02  0.1184000E+00
        -11   -1    0    0    0    0  0.00000000000E+00  0.00000000000E+00  0.45593999997E+02  0.45594000000E+02  0.51100000000E-03 0. -1.
         11   -1    0    0    0    0 -0.00000000000E+00 -0.00000000000E+00 -0.45593999997E+02  0.45594000000E+02  0.51100000000E-03 0.  1.
         23    2    1    2    0    0  0.00000000000E+00  0.17763568394E-14  0.00000000000E+00  0.91188000000E+02  0.91188000000E+02 0.  0.
    9900012    2    3    3    0    0  0.33254158813E+02  0.86360786939E+01  0.13242323632E+02  0.54367081099E+02  0.39999992981E+02 0.  0.
        -12    1    3    3    0    0 -0.33254158813E+02 -0.86360786939E+01 -0.13242323632E+02  0.36820918901E+02  0.00000000000E+00 0.  1.
         11    1    4    4    0    0  0.45533374120E+01  0.83152172705E+01  0.62733302774E+01  0.11367954648E+02  0.51100000000E-03 0. -1.
        -11    1    4    4    0    0  0.28246679334E+02 -0.48320891097E+01  0.15830100429E+02  0.32738601962E+02  0.51100000000E-03 0.  1.
        -12    1    4    4    0    0  0.45414206712E+00  0.51529505331E+01 -0.88611070747E+01  0.10260524490E+02  0.00000000000E+00 0.  1.
</event>
<event>
 8    1  0.3011071E-007  0.9118800E+02  0.7816164E-02  0.1184000E+00
        -11   -1    0    0    0    0  0.00000000000E+00  0.00000000000E+00  0.45593999997E+02  0.45594000000E+02  0.51100000000E-03 0.  1.
         11   -1    0    0    0    0 -0.00000000000E+00 -0.00000000000E+00 -0.45593999997E+02  0.45594000000E+02  0.51100000000E-03 0. -1.
         23    2    1    2    0    0 -0.71054273576E-14  0.88817841970E-15  0.00000000000E+00  0.91188000000E+02  0.91188000000E+02 0.  0.
    9900012    2    3    3    0    0  0.32772805295E+02 -0.35681654491E+01 -0.16400964532E+02  0.54367079192E+02  0.39999988634E+02 0.  0.
        -12    1    3    3    0    0 -0.32772805295E+02  0.35681654491E+01  0.16400964532E+02  0.36820920808E+02  0.00000000000E+00 0.  1.
         11    1    4    4    0    0  0.79130247703E+01  0.40167677917E+01 -0.12912537542E+02  0.15667929364E+02  0.51100000000E-03 0. -1.
        -11    1    4    4    0    0  0.12599390762E+02 -0.14168500807E+02  0.80725918008E+01  0.20607226921E+02  0.51100000000E-03 0.  1.
         12    1    4    4    0    0  0.12260389762E+02  0.65835675665E+01 -0.11561018790E+02  0.18091922908E+02  0.00000000000E+00 0. -1.
</event>
<event>
 8    1  0.3011071E-007  0.9118800E+02  0.7816164E-02  0.1184000E+00
        -11   -1    0    0    0    0  0.00000000000E+00  0.00000000000E+00  0.45593999997E+02  0.45594000000E+02  0.51100000000E-03 0. -1.
         11   -1    0    0    0    0 -0.00000000000E+00 -0.00000000000E+00 -0.45593999997E+02  0.45594000000E+02  0.51100000000E-03 0.  1.
         23    2    1    2    0    0  0.00000000000E+00  0.00000000000E+00  0.00000000000E+00  0.91188000000E+02  0.91188000000E+02 0.  0.
    9900012    2    3    3    0    0  0.32362392989E+02  0.15547483644E+02  0.81688529946E+01  0.54367097148E+02  0.40000029568E+02 0.  0.
         12    1    3    3    0    0 -0.32362392989E+02 -0.15547483644E+02 -0.81688529946E+01  0.36820902852E+02  0.00000000000E+00 0. -1.
         11    1    4    4    0    0  0.15876848353E+01  0.57770069921E+01  0.11710995672E+02  0.13154541908E+02  0.51100000000E-03 0. -1.
        -11    1    4    4    0    0  0.38230566962E+01  0.78067540845E+01 -0.10179828709E+02  0.13386190072E+02  0.51100000000E-03 0.  1.
         12    1    4    4    0    0  0.26951651457E+02  0.19637225670E+01  0.66376860315E+01  0.27826365167E+02  0.00000000000E+00 0. -1.
</event>
<event>
 8    1  0.3011071E-007  0.9118800E+02  0.7816164E-02  0.1184000E+00
        -11   -1    0    0    0    0  0.00000000000E+00  0.00000000000E+00  0.45593999997E+02  0.45594000000E+02  0.51100000000E-03 0.  1.
         11   -1    0    0    0    0 -0.00000000000E+00 -0.00000000000E+00 -0.45593999997E+02  0.45594000000E+02  0.51100000000E-03 0. -1.
         23    2    1    2    0    0  0.00000000000E+00  0.35527136788E-14  0.35527136788E-14  0.91188000000E+02  0.91188000000E+02 0.  0.
    9900012    2    3    3    0    0  0.16243724775E+02 -0.17666858317E+02  0.27924947922E+02  0.54367092980E+02  0.40000020065E+02 0.  0.
         12    1    3    3    0    0 -0.16243724775E+02  0.17666858317E+02 -0.27924947922E+02  0.36820907020E+02  0.00000000000E+00 0. -1.
         11    1    4    4    0    0  0.29854797616E+01  0.74308426488E+00 -0.83749573741E+01  0.89221732169E+01  0.51100000000E-03 0. -1.
        -11    1    4    4    0    0  0.16954495077E+01 -0.94182805749E+01  0.48000034449E+01  0.10706007255E+02  0.51100000000E-03 0.  1.
         12    1    4    4    0    0  0.11562795506E+02 -0.89916620072E+01  0.31499901851E+02  0.34738912507E+02  0.00000000000E+00 0. -1.
</event>
<event>
 8    1  0.3011071E-007  0.9118800E+02  0.7816164E-02  0.1184000E+00
        -11   -1    0    0    0    0  0.00000000000E+00  0.00000000000E+00  0.45593999997E+02  0.45594000000E+02  0.51100000000E-03 0.  1.
         11   -1    0    0    0    0 -0.00000000000E+00 -0.00000000000E+00 -0.45593999997E+02  0.45594000000E+02  0.51100000000E-03 0. -1.
         23    2    1    2    0    0  0.00000000000E+00  0.00000000000E+00 -0.35527136788E-14  0.91188000000E+02  0.91188000000E+02 0.  0.
    9900012    2    3    3    0    0  0.22102389101E+02  0.21686655481E+02 -0.19923677979E+02  0.54367087815E+02  0.40000008292E+02 0.  0.
        -12    1    3    3    0    0 -0.22102389101E+02 -0.21686655481E+02  0.19923677979E+02  0.36820912185E+02  0.00000000000E+00 0.  1.
         11    1    4    4    0    0  0.51093032932E+01  0.15191189678E+01 -0.34352470314E+01  0.63414213713E+01  0.51100000000E-03 0. -1.
        -11    1    4    4    0    0  0.13109626924E+02  0.24073380449E+02 -0.25516736652E+02  0.37449884031E+02  0.51100000000E-03 0.  1.
        -12    1    4    4    0    0  0.38834588836E+01 -0.39058439354E+01  0.90283057042E+01  0.10575782412E+02  0.00000000000E+00 0.  1.
</event>
<event>
 8    1  0.3011071E-007  0.9118800E+02  0.7816164E-02  0.1184000E+00
        -11   -1    0    0    0    0  0.00000000000E+00  0.00000000000E+00  0.45593999997E+02  0.45594000000E+02  0.51100000000E-03 0.  1.
         11   -1    0    0    0    0 -0.00000000000E+00 -0.00000000000E+00 -0.45593999997E+02  0.45594000000E+02  0.51100000000E-03 0. -1.
         23    2    1    2    0    0  0.00000000000E+00  0.00000000000E+00 -0.33306690739E-15  0.91188000000E+02  0.91188000000E+02 0.  0.
    9900012    2    3    3    0    0 -0.18178489353E+02  0.32013120475E+02 -0.69485090414E+00  0.54367079650E+02  0.39999989677E+02 0.  0.
         12    1    3    3    0    0  0.18178489353E+02 -0.32013120475E+02  0.69485090414E+00  0.36820920350E+02  0.00000000000E+00 0. -1.
         11    1    4    4    0    0  0.87653354872E+01  0.12542059660E+02 -0.43789330380E+01  0.15915697331E+02  0.51100000000E-03 0. -1.
        -11    1    4    4    0    0 -0.85170670061E+01  0.10829820194E+02 -0.70121856435E+01  0.15459501401E+02  0.51100000000E-03 0.  1.
         12    1    4    4    0    0 -0.18426757834E+02  0.86412406203E+01  0.10696267777E+02  0.22991880917E+02  0.00000000000E+00 0. -1.
</event>
<event>
 8    1  0.3011071E-007  0.9118800E+02  0.7816164E-02  0.1184000E+00
        -11   -1    0    0    0    0  0.00000000000E+00  0.00000000000E+00  0.45593999997E+02  0.45594000000E+02  0.51100000000E-03 0.  1.
         11   -1    0    0    0    0 -0.00000000000E+00 -0.00000000000E+00 -0.45593999997E+02  0.45594000000E+02  0.51100000000E-03 0. -1.
         23    2    1    2    0    0  0.00000000000E+00  0.71054273576E-14 -0.35527136788E-14  0.91188000000E+02  0.91188000000E+02 0.  0.
    9900012    2    3    3    0    0  0.14464299745E+01  0.23209198237E+02 -0.28548553642E+02  0.54367096188E+02  0.40000027379E+02 0.  0.
        -12    1    3    3    0    0 -0.14464299745E+01 -0.23209198237E+02  0.28548553642E+02  0.36820903812E+02  0.00000000000E+00 0.  1.
         11    1    4    4    0    0 -0.17736865889E+01  0.27565563575E+02 -0.80642682620E+01  0.28775661282E+02  0.51100000000E-03 0. -1.
        -11    1    4    4    0    0  0.65479003200E+01  0.14633330469E+01 -0.16453764671E+02  0.17769150636E+02  0.51100000000E-03 0.  1.
        -12    1    4    4    0    0 -0.33277837566E+01 -0.58196983846E+01 -0.40305207093E+01  0.78222842704E+01  0.00000000000E+00 0.  1.
</event>
<event>
 8    1  0.3011071E-007  0.9118800E+02  0.7816164E-02  0.1184000E+00
        -11   -1    0    0    0    0  0.00000000000E+00  0.00000000000E+00  0.45593999997E+02  0.45594000000E+02  0.51100000000E-03 0.  1.
         11   -1    0    0    0    0 -0.00000000000E+00 -0.00000000000E+00 -0.45593999997E+02  0.45594000000E+02  0.51100000000E-03 0. -1.
         23    2    1    2    0    0  0.00000000000E+00  0.00000000000E+00  0.00000000000E+00  0.91188000000E+02  0.91188000000E+02 0.  0.
    9900012    2    3    3    0    0  0.10631016330E+02  0.23370066534E+02  0.26393218746E+02  0.54367075055E+02  0.39999979203E+02 0.  0.
         12    1    3    3    0    0 -0.10631016330E+02 -0.23370066534E+02 -0.26393218746E+02  0.36820924945E+02  0.00000000000E+00 0. -1.
         11    1    4    4    0    0  0.99950186701E-02  0.12334526764E+02  0.12924807465E+02  0.17865925631E+02  0.51100000000E-03 0.  1.
        -11    1    4    4    0    0  0.20895137685E+02  0.35050276073E+01  0.84039099855E+01  0.22792930937E+02  0.51100000000E-03 0. -1.
        -12    1    4    4    0    0 -0.10274116374E+02  0.75305121636E+01  0.50645012950E+01  0.13708218487E+02  0.00000000000E+00 0.  1.
</event>
<event>
 8    1  0.3011071E-007  0.9118800E+02  0.7816164E-02  0.1184000E+00
        -11   -1    0    0    0    0  0.00000000000E+00  0.00000000000E+00  0.45593999997E+02  0.45594000000E+02  0.51100000000E-03 0.  1.
         11   -1    0    0    0    0 -0.00000000000E+00 -0.00000000000E+00 -0.45593999997E+02  0.45594000000E+02  0.51100000000E-03 0. -1.
         23    2    1    2    0    0  0.00000000000E+00 -0.88817841970E-15 -0.35527136788E-14  0.91188000000E+02  0.91188000000E+02 0.  0.
    9900012    2    3    3    0    0 -0.19576605673E+02 -0.48284936639E+01 -0.30809435006E+02  0.54367093898E+02  0.40000022160E+02 0.  0.
        -12    1    3    3    0    0  0.19576605673E+02  0.48284936639E+01  0.30809435006E+02  0.36820906102E+02  0.00000000000E+00 0.  1.
         11    1    4    4    0    0  0.24106362225E+01  0.36953581305E+01  0.35321049233E+00  0.44262395578E+01  0.51100000000E-03 0. -1.
        -11    1    4    4    0    0 -0.13786118342E+01 -0.94934384125E+01 -0.27319141462E+02  0.28954471743E+02  0.51100000000E-03 0.  1.
         12    1    4    4    0    0 -0.20608630062E+02  0.96958661803E+00 -0.38435040368E+01  0.20986382597E+02  0.00000000000E+00 0. -1.
</event>
<event>
 8    1  0.3011071E-007  0.9118800E+02  0.7816164E-02  0.1184000E+00
        -11   -1    0    0    0    0  0.00000000000E+00  0.00000000000E+00  0.45593999997E+02  0.45594000000E+02  0.51100000000E-03 0.  1.
         11   -1    0    0    0    0 -0.00000000000E+00 -0.00000000000E+00 -0.45593999997E+02  0.45594000000E+02  0.51100000000E-03 0. -1.
         23    2    1    2    0    0  0.00000000000E+00  0.00000000000E+00  0.00000000000E+00  0.91188000000E+02  0.91188000000E+02 0.  0.
    9900012    2    3    3    0    0  0.98949036934E+01 -0.34033097648E+02 -0.99809114982E+01  0.54367089515E+02  0.40000012167E+02 0.  0.
        -12    1    3    3    0    0 -0.98949036934E+01  0.34033097648E+02  0.99809114982E+01  0.36820910485E+02  0.00000000000E+00 0.  1.
         11    1    4    4    0    0  0.39795199541E+01 -0.34161543458E+02 -0.11611290579E+02  0.36299720380E+02  0.51100000000E-03 0. -1.
        -11    1    4    4    0    0 -0.10271544423E+01  0.66087440440E+01  0.45995436798E+01  0.81170404958E+01  0.51100000000E-03 0.  1.
         12    1    4    4    0    0  0.69425381817E+01 -0.64802982342E+01 -0.29691645990E+01  0.99503286390E+01  0.00000000000E+00 0. -1.
</event>
<event>
 8    1  0.3011071E-007  0.9118800E+02  0.7816164E-02  0.1184000E+00
        -11   -1    0    0    0    0  0.00000000000E+00  0.00000000000E+00  0.45593999997E+02  0.45594000000E+02  0.51100000000E-03 0.  1.
         11   -1    0    0    0    0 -0.00000000000E+00 -0.00000000000E+00 -0.45593999997E+02  0.45594000000E+02  0.51100000000E-03 0. -1.
         23    2    1    2    0    0  0.00000000000E+00  0.17763568394E-14  0.00000000000E+00  0.91188000000E+02  0.91188000000E+02 0.  0.
    9900012    2    3    3    0    0 -0.26928133963E+02 -0.13040565741E+02  0.21461588443E+02  0.54367074807E+02  0.39999978637E+02 0.  0.
        -12    1    3    3    0    0  0.26928133963E+02  0.13040565741E+02 -0.21461588443E+02  0.36820925193E+02  0.00000000000E+00 0.  1.
         11    1    4    4    0    0 -0.74271850075E+01 -0.91658507630E+01  0.44523159847E+01  0.12609481164E+02  0.51100000000E-03 0. -1.
        -11    1    4    4    0    0  0.74767587636E+00 -0.29621884521E+01 -0.85832473384E+01  0.91107472128E+01  0.51100000000E-03 0.  1.
         12    1    4    4    0    0 -0.20248624832E+02 -0.91252652580E+00  0.25592519797E+02  0.32646846430E+02  0.00000000000E+00 0. -1.
</event>
<event>
 8    1  0.3011071E-007  0.9118800E+02  0.7816164E-02  0.1184000E+00
        -11   -1    0    0    0    0  0.00000000000E+00  0.00000000000E+00  0.45593999997E+02  0.45594000000E+02  0.51100000000E-03 0.  1.
         11   -1    0    0    0    0 -0.00000000000E+00 -0.00000000000E+00 -0.45593999997E+02  0.45594000000E+02  0.51100000000E-03 0. -1.
         23    2    1    2    0    0  0.22204460493E-15  0.00000000000E+00  0.88817841970E-15  0.91188000000E+02  0.91188000000E+02 0.  0.
    9900012    2    3    3    0    0  0.13479163194E+01 -0.36331687110E+02  0.58284631768E+01  0.54367090863E+02  0.40000015240E+02 0.  0.
         12    1    3    3    0    0 -0.13479163194E+01  0.36331687110E+02 -0.58284631768E+01  0.36820909137E+02  0.00000000000E+00 0. -1.
         11    1    4    4    0    0 -0.82486245724E-01 -0.14270186085E+02 -0.12091878799E+02  0.18704506089E+02  0.51100000000E-03 0. -1.
        -11    1    4    4    0    0 -0.13553688366E+00 -0.23450782207E+02  0.21304412238E+02  0.31683363733E+02  0.51100000000E-03 0.  1.
        -12    1    4    4    0    0  0.15659394488E+01  0.13892811817E+01 -0.33840702619E+01  0.39792210414E+01  0.00000000000E+00 0.  1.
</event>
<event>
 8    1  0.3011071E-007  0.9118800E+02  0.7816164E-02  0.1184000E+00
        -11   -1    0    0    0    0  0.00000000000E+00  0.00000000000E+00  0.45593999997E+02  0.45594000000E+02  0.51100000000E-03 0. -1.
         11   -1    0    0    0    0 -0.00000000000E+00 -0.00000000000E+00 -0.45593999997E+02  0.45594000000E+02  0.51100000000E-03 0.  1.
         23    2    1    2    0    0  0.00000000000E+00 -0.17763568394E-14  0.00000000000E+00  0.91188000000E+02  0.91188000000E+02 0.  0.
    9900012    2    3    3    0    0  0.27129799916E+02 -0.15060095273E+02 -0.19822917176E+02  0.54367074449E+02  0.39999977820E+02 0.  0.
        -12    1    3    3    0    0 -0.27129799916E+02  0.15060095273E+02  0.19822917176E+02  0.36820925551E+02  0.00000000000E+00 0.  1.
         11    1    4    4    0    0  0.19602061808E+02 -0.21804655116E+02 -0.13608106682E+02  0.32324362013E+02  0.51100000000E-03 0. -1.
        -11    1    4    4    0    0  0.10529639550E+01  0.48397454786E+01 -0.12108558681E+02  0.13082395154E+02  0.51100000000E-03 0.  1.
         12    1    4    4    0    0  0.64747741529E+01  0.19048143643E+01  0.58937481865E+01  0.89603172811E+01  0.00000000000E+00 0. -1.
</event>
<event>
 8    1  0.3011071E-007  0.9118800E+02  0.7816164E-02  0.1184000E+00
        -11   -1    0    0    0    0  0.00000000000E+00  0.00000000000E+00  0.45593999997E+02  0.45594000000E+02  0.51100000000E-03 0.  1.
         11   -1    0    0    0    0 -0.00000000000E+00 -0.00000000000E+00 -0.45593999997E+02  0.45594000000E+02  0.51100000000E-03 0. -1.
         23    2    1    2    0    0  0.17763568394E-14  0.71054273576E-14  0.88817841970E-15  0.91188000000E+02  0.91188000000E+02 0.  0.
    9900012    2    3    3    0    0 -0.64311255755E+01 -0.35383972981E+02 -0.78990335218E+01  0.54367086776E+02  0.40000005923E+02 0.  0.
        -12    1    3    3    0    0  0.64311255755E+01  0.35383972981E+02  0.78990335218E+01  0.36820913224E+02  0.00000000000E+00 0.  1.
         11    1    4    4    0    0  0.92601656228E+01  0.32273494354E+01 -0.39195074482E+01  0.10560728698E+02  0.51100000000E-03 0. -1.
        -11    1    4    4    0    0 -0.40562752042E+01 -0.18534432434E+02 -0.73721455346E+01  0.20355026019E+02  0.51100000000E-03 0.  1.
        -12    1    4    4    0    0 -0.11635015994E+02 -0.20076889982E+02  0.33926194609E+01  0.23451332059E+02  0.00000000000E+00 0.  1.
</event>
<event>
 8    1  0.3011071E-007  0.9118800E+02  0.7816164E-02  0.1184000E+00
        -11   -1    0    0    0    0  0.00000000000E+00  0.00000000000E+00  0.45593999997E+02  0.45594000000E+02  0.51100000000E-03 0. -1.
         11   -1    0    0    0    0 -0.00000000000E+00 -0.00000000000E+00 -0.45593999997E+02  0.45594000000E+02  0.51100000000E-03 0.  1.
         23    2    1    2    0    0 -0.17763568394E-14  0.71054273576E-14  0.11102230246E-14  0.91188000000E+02  0.91188000000E+02 0.  0.
    9900012    2    3    3    0    0  0.10878232665E+02 -0.35125558885E+02  0.19076513099E+01  0.54367082488E+02  0.39999996148E+02 0.  0.
        -12    1    3    3    0    0 -0.10878232665E+02  0.35125558885E+02 -0.19076513099E+01  0.36820917512E+02  0.00000000000E+00 0.  1.
         11    1    4    4    0    0  0.85731344794E+01 -0.24842409541E+01  0.67660161606E+01  0.11200404585E+02  0.51100000000E-03 0.  1.
        -11    1    4    4    0    0  0.53875621317E+01 -0.18508466862E+02  0.10597603927E+02  0.21997690346E+02  0.51100000000E-03 0. -1.
         12    1    4    4    0    0 -0.30824639464E+01 -0.14132851069E+02 -0.15455968778E+02  0.21168987557E+02  0.00000000000E+00 0. -1.
</event>
<event>
 8    1  0.3011071E-007  0.9118800E+02  0.7816164E-02  0.1184000E+00
        -11   -1    0    0    0    0  0.00000000000E+00  0.00000000000E+00  0.45593999997E+02  0.45594000000E+02  0.51100000000E-03 0. -1.
         11   -1    0    0    0    0 -0.00000000000E+00 -0.00000000000E+00 -0.45593999997E+02  0.45594000000E+02  0.51100000000E-03 0.  1.
         23    2    1    2    0    0  0.00000000000E+00  0.17763568394E-14  0.00000000000E+00  0.91188000000E+02  0.91188000000E+02 0.  0.
    9900012    2    3    3    0    0 -0.27829804976E+02  0.87813737960E+01  0.22453719424E+02  0.54367080854E+02  0.39999992424E+02 0.  0.
        -12    1    3    3    0    0  0.27829804976E+02 -0.87813737960E+01 -0.22453719424E+02  0.36820919146E+02  0.00000000000E+00 0.  1.
         11    1    4    4    0    0 -0.83379384536E+01 -0.49028899062E+01  0.11983464190E+02  0.15400096147E+02  0.51100000000E-03 0. -1.
        -11    1    4    4    0    0 -0.17443090406E+02 -0.53346219247E+01  0.32903898603E+01  0.18535000935E+02  0.51100000000E-03 0.  1.
         12    1    4    4    0    0 -0.20487761168E+01  0.19018885627E+02  0.71798653743E+01  0.20431983772E+02  0.00000000000E+00 0. -1.
</event>
<event>
 8    1  0.3011071E-007  0.9118800E+02  0.7816164E-02  0.1184000E+00
        -11   -1    0    0    0    0  0.00000000000E+00  0.00000000000E+00  0.45593999997E+02  0.45594000000E+02  0.51100000000E-03 0.  1.
         11   -1    0    0    0    0 -0.00000000000E+00 -0.00000000000E+00 -0.45593999997E+02  0.45594000000E+02  0.51100000000E-03 0. -1.
         23    2    1    2    0    0  0.00000000000E+00 -0.13322676296E-14  0.00000000000E+00  0.91188000000E+02  0.91188000000E+02 0.  0.
    9900012    2    3    3    0    0  0.29417454455E+02  0.35545574531E+01  0.21857690216E+02  0.54367080310E+02  0.39999991182E+02 0.  0.
         12    1    3    3    0    0 -0.29417454455E+02 -0.35545574531E+01 -0.21857690216E+02  0.36820919690E+02  0.00000000000E+00 0. -1.
         11    1    4    4    0    0  0.24416902415E+01  0.67265416736E+01 -0.16824124153E+01  0.73511037212E+01  0.51100000000E-03 0. -1.
        -11    1    4    4    0    0  0.20819049765E+02  0.11885613766E+02  0.17426215480E+02  0.29637368876E+02  0.51100000000E-03 0.  1.
         12    1    4    4    0    0  0.61567144483E+01 -0.15057597986E+02  0.61138871509E+01  0.17378607712E+02  0.00000000000E+00 0. -1.
</event>
<event>
 8    1  0.3011071E-007  0.9118800E+02  0.7816164E-02  0.1184000E+00
        -11   -1    0    0    0    0  0.00000000000E+00  0.00000000000E+00  0.45593999997E+02  0.45594000000E+02  0.51100000000E-03 0.  1.
         11   -1    0    0    0    0 -0.00000000000E+00 -0.00000000000E+00 -0.45593999997E+02  0.45594000000E+02  0.51100000000E-03 0. -1.
         23    2    1    2    0    0  0.00000000000E+00 -0.35527136788E-14  0.00000000000E+00  0.91188000000E+02  0.91188000000E+02 0.  0.
    9900012    2    3    3    0    0  0.20716488224E+02  0.24099361278E+02 -0.18596436004E+02  0.54367088409E+02  0.40000009647E+02 0.  0.
        -12    1    3    3    0    0 -0.20716488224E+02 -0.24099361278E+02  0.18596436004E+02  0.36820911591E+02  0.00000000000E+00 0.  1.
         11    1    4    4    0    0  0.24738238198E+02  0.45433926802E+01 -0.26809925937E+00  0.25153423696E+02  0.51100000000E-03 0. -1.
        -11    1    4    4    0    0  0.10183827439E+01  0.81016961444E+00  0.11336739500E+01  0.17258896556E+01  0.51100000000E-03 0.  1.
         12    1    4    4    0    0 -0.50401327178E+01  0.18745798983E+02 -0.19462010695E+02  0.27487775057E+02  0.00000000000E+00 0. -1.
</event>
<event>
 8    1  0.3011071E-007  0.9118800E+02  0.7816164E-02  0.1184000E+00
        -11   -1    0    0    0    0  0.00000000000E+00  0.00000000000E+00  0.45593999997E+02  0.45594000000E+02  0.51100000000E-03 0.  1.
         11   -1    0    0    0    0 -0.00000000000E+00 -0.00000000000E+00 -0.45593999997E+02  0.45594000000E+02  0.51100000000E-03 0. -1.
         23    2    1    2    0    0 -0.35527136788E-14  0.00000000000E+00  0.00000000000E+00  0.91188000000E+02  0.91188000000E+02 0.  0.
    9900012    2    3    3    0    0  0.31646092935E+02 -0.10833124159E+02 -0.15393111129E+02  0.54367086821E+02  0.40000006026E+02 0.  0.
         12    1    3    3    0    0 -0.31646092935E+02  0.10833124159E+02  0.15393111129E+02  0.36820913179E+02  0.00000000000E+00 0. -1.
         11    1    4    4    0    0  0.18216856818E+02 -0.11279371112E+02 -0.91055054038E+01  0.23280642473E+02  0.51100000000E-03 0. -1.
        -11    1    4    4    0    0  0.99756176758E+01  0.88092280686E+01  0.69795805965E+01  0.15027640957E+02  0.51100000000E-03 0.  1.
         12    1    4    4    0    0  0.34536184414E+01 -0.83629811152E+01 -0.13267186322E+02  0.16058803391E+02  0.00000000000E+00 0. -1.
</event>
<event>
 8    1  0.3011071E-007  0.9118800E+02  0.7816164E-02  0.1184000E+00
        -11   -1    0    0    0    0  0.00000000000E+00  0.00000000000E+00  0.45593999997E+02  0.45594000000E+02  0.51100000000E-03 0.  1.
         11   -1    0    0    0    0 -0.00000000000E+00 -0.00000000000E+00 -0.45593999997E+02  0.45594000000E+02  0.51100000000E-03 0. -1.
         23    2    1    2    0    0  0.00000000000E+00  0.35527136788E-14  0.00000000000E+00  0.91188000000E+02  0.91188000000E+02 0.  0.
    9900012    2    3    3    0    0  0.19045701202E+02  0.26236168931E+02  0.17455952066E+02  0.54367006572E+02  0.39999823082E+02 0.  0.
         12    1    3    3    0    0 -0.19045701202E+02 -0.26236168931E+02 -0.17455952066E+02  0.36820993428E+02  0.00000000000E+00 0. -1.
         11    1    4    4    0    0 -0.57901346036E+01  0.11500072330E+01 -0.51303845176E+01  0.78210626467E+01  0.51100000000E-03 0. -1.
        -11    1    4    4    0    0  0.10331883504E+02  0.15425940099E+02  0.71378044634E+00  0.18580014194E+02  0.51100000000E-03 0.  1.
        -12    1    4    4    0    0  0.14503952302E+02  0.96602215992E+01  0.21872556138E+02  0.27965929731E+02  0.00000000000E+00 0.  1.
</event>
<event>
 8    1  0.3011071E-007  0.9118800E+02  0.7816164E-02  0.1184000E+00
        -11   -1    0    0    0    0  0.00000000000E+00  0.00000000000E+00  0.45593999997E+02  0.45594000000E+02  0.51100000000E-03 0.  1.
         11   -1    0    0    0    0 -0.00000000000E+00 -0.00000000000E+00 -0.45593999997E+02  0.45594000000E+02  0.51100000000E-03 0. -1.
         23    2    1    2    0    0  0.00000000000E+00  0.35527136788E-14 -0.53290705182E-14  0.91188000000E+02  0.91188000000E+02 0.  0.
    9900012    2    3    3    0    0  0.20671327603E+02 -0.26247301461E+02  0.15477566170E+02  0.54367086468E+02  0.40000005220E+02 0.  0.
        -12    1    3    3    0    0 -0.20671327603E+02  0.26247301461E+02 -0.15477566170E+02  0.36820913532E+02  0.00000000000E+00 0.  1.
         11    1    4    4    0    0  0.33331258295E+01 -0.81777803233E+01  0.94721564158E+00  0.88816122717E+01  0.51100000000E-03 0. -1.
        -11    1    4    4    0    0  0.83381236744E+01 -0.29282231521E+01  0.23937439659E+02  0.25516657597E+02  0.51100000000E-03 0.  1.
        -12    1    4    4    0    0  0.90000780987E+01 -0.15141297985E+02 -0.94070891305E+01  0.19968816599E+02  0.00000000000E+00 0.  1.
</event>
<event>
 8    1  0.3011071E-007  0.9118800E+02  0.7816164E-02  0.1184000E+00
        -11   -1    0    0    0    0  0.00000000000E+00  0.00000000000E+00  0.45593999997E+02  0.45594000000E+02  0.51100000000E-03 0.  1.
         11   -1    0    0    0    0 -0.00000000000E+00 -0.00000000000E+00 -0.45593999997E+02  0.45594000000E+02  0.51100000000E-03 0. -1.
         23    2    1    2    0    0 -0.35527136788E-14  0.35527136788E-14  0.17763568394E-14  0.91188000000E+02  0.91188000000E+02 0.  0.
    9900012    2    3    3    0    0  0.18722202526E+02 -0.29862026035E+02 -0.10654585587E+02  0.54367059486E+02  0.39999943709E+02 0.  0.
         12    1    3    3    0    0 -0.18722202526E+02  0.29862026035E+02  0.10654585587E+02  0.36820940514E+02  0.00000000000E+00 0. -1.
         11    1    4    4    0    0  0.17717409562E+02 -0.10715104952E+01 -0.11731070194E+02  0.21276107362E+02  0.51100000000E-03 0. -1.
        -11    1    4    4    0    0 -0.57768695956E+01 -0.22441598469E+02 -0.21119578227E+01  0.23269248597E+02  0.51100000000E-03 0.  1.
         12    1    4    4    0    0  0.67816625596E+01 -0.63489170705E+01  0.31884424290E+01  0.98217035266E+01  0.00000000000E+00 0. -1.
</event>
<event>
 8    1  0.3011071E-007  0.9118800E+02  0.7816164E-02  0.1184000E+00
        -11   -1    0    0    0    0  0.00000000000E+00  0.00000000000E+00  0.45593999997E+02  0.45594000000E+02  0.51100000000E-03 0. -1.
         11   -1    0    0    0    0 -0.00000000000E+00 -0.00000000000E+00 -0.45593999997E+02  0.45594000000E+02  0.51100000000E-03 0.  1.
         23    2    1    2    0    0  0.00000000000E+00 -0.35527136788E-14  0.00000000000E+00  0.91188000000E+02  0.91188000000E+02 0.  0.
    9900012    2    3    3    0    0 -0.20694725315E+02  0.26844128706E+02  0.14384059975E+02  0.54367080902E+02  0.39999992532E+02 0.  0.
        -12    1    3    3    0    0  0.20694725315E+02 -0.26844128706E+02 -0.14384059975E+02  0.36820919098E+02  0.00000000000E+00 0.  1.
         11    1    4    4    0    0 -0.19199557309E+01 -0.20724040083E+01  0.14675625744E+02  0.14945068739E+02  0.51100000000E-03 0. -1.
        -11    1    4    4    0    0 -0.21099681456E+02  0.18706808458E+02  0.32113930518E+01  0.28380526524E+02  0.51100000000E-03 0.  1.
        -12    1    4    4    0    0  0.23249118718E+01  0.10209724257E+02 -0.35029588204E+01  0.11041485639E+02  0.00000000000E+00 0.  1.
</event>
<event>
 8    1  0.3011071E-007  0.9118800E+02  0.7816164E-02  0.1184000E+00
        -11   -1    0    0    0    0  0.00000000000E+00  0.00000000000E+00  0.45593999997E+02  0.45594000000E+02  0.51100000000E-03 0. -1.
         11   -1    0    0    0    0 -0.00000000000E+00 -0.00000000000E+00 -0.45593999997E+02  0.45594000000E+02  0.51100000000E-03 0.  1.
         23    2    1    2    0    0  0.00000000000E+00  0.71054273576E-14 -0.17763568394E-14  0.91188000000E+02  0.91188000000E+02 0.  0.
    9900012    2    3    3    0    0  0.90491743896E+01  0.35319541683E+02 -0.51401667057E+01  0.54367097029E+02  0.40000029297E+02 0.  0.
        -12    1    3    3    0    0 -0.90491743896E+01 -0.35319541683E+02  0.51401667057E+01  0.36820902971E+02  0.00000000000E+00 0.  1.
         11    1    4    4    0    0  0.42326380315E+01  0.21781353609E+02  0.87309765533E+01  0.23844759206E+02  0.51100000000E-03 0. -1.
        -11    1    4    4    0    0  0.55420449887E+00  0.11681493342E+02  0.37633808255E+01  0.12285253959E+02  0.51100000000E-03 0.  1.
        -12    1    4    4    0    0  0.42623318592E+01  0.18566947318E+01 -0.17634524085E+02  0.18237083865E+02  0.00000000000E+00 0.  1.
</event>
<event>
 8    1  0.3011071E-007  0.9118800E+02  0.7816164E-02  0.1184000E+00
        -11   -1    0    0    0    0  0.00000000000E+00  0.00000000000E+00  0.45593999997E+02  0.45594000000E+02  0.51100000000E-03 0. -1.
         11   -1    0    0    0    0 -0.00000000000E+00 -0.00000000000E+00 -0.45593999997E+02  0.45594000000E+02  0.51100000000E-03 0.  1.
         23    2    1    2    0    0  0.88817841970E-15  0.35527136788E-14  0.35527136788E-14  0.91188000000E+02  0.91188000000E+02 0.  0.
    9900012    2    3    3    0    0 -0.42291099481E+01 -0.31063139239E+02 -0.19312562160E+02  0.54367094966E+02  0.40000024595E+02 0.  0.
         12    1    3    3    0    0  0.42291099481E+01  0.31063139239E+02  0.19312562160E+02  0.36820905034E+02  0.00000000000E+00 0. -1.
         11    1    4    4    0    0 -0.74380116998E+01 -0.18471045843E+02 -0.18578682102E+02  0.27233636949E+02  0.51100000000E-03 0. -1.
        -11    1    4    4    0    0  0.24964230948E+01 -0.49949862521E+01 -0.12167395227E+02  0.13387588386E+02  0.51100000000E-03 0.  1.
         12    1    4    4    0    0  0.71247865693E+00 -0.75971071436E+01  0.11433515169E+02  0.13745869631E+02  0.00000000000E+00 0. -1.
</event>
<event>
 8    1  0.3011071E-007  0.9118800E+02  0.7816164E-02  0.1184000E+00
        -11   -1    0    0    0    0  0.00000000000E+00  0.00000000000E+00  0.45593999997E+02  0.45594000000E+02  0.51100000000E-03 0. -1.
         11   -1    0    0    0    0 -0.00000000000E+00 -0.00000000000E+00 -0.45593999997E+02  0.45594000000E+02  0.51100000000E-03 0.  1.
         23    2    1    2    0    0  0.00000000000E+00  0.00000000000E+00 -0.35527136788E-14  0.91188000000E+02  0.91188000000E+02 0.  0.
    9900012    2    3    3    0    0 -0.16551179477E+02 -0.13736792164E+02 -0.29885434028E+02  0.54367079750E+02  0.39999989906E+02 0.  0.
         12    1    3    3    0    0  0.16551179477E+02  0.13736792164E+02  0.29885434028E+02  0.36820920250E+02  0.00000000000E+00 0. -1.
         11    1    4    4    0    0  0.51011920573E+01  0.50304924217E+01  0.45002656798E+01  0.84605204249E+01  0.51100000000E-03 0. -1.
        -11    1    4    4    0    0 -0.22737077922E+02 -0.17473701426E+02 -0.31814491463E+02  0.42830676171E+02  0.51100000000E-03 0.  1.
         12    1    4    4    0    0  0.10847063878E+01 -0.12935831601E+01 -0.25712082446E+01  0.30758831540E+01  0.00000000000E+00 0. -1.
</event>
<event>
 8    1  0.3011071E-007  0.9118800E+02  0.7816164E-02  0.1184000E+00
        -11   -1    0    0    0    0  0.00000000000E+00  0.00000000000E+00  0.45593999997E+02  0.45594000000E+02  0.51100000000E-03 0.  1.
         11   -1    0    0    0    0 -0.00000000000E+00 -0.00000000000E+00 -0.45593999997E+02  0.45594000000E+02  0.51100000000E-03 0. -1.
         23    2    1    2    0    0  0.00000000000E+00  0.00000000000E+00  0.00000000000E+00  0.91188000000E+02  0.91188000000E+02 0.  0.
    9900012    2    3    3    0    0  0.29402269026E+02 -0.15427434439E+02  0.15914773216E+02  0.54367093388E+02  0.40000020996E+02 0.  0.
        -12    1    3    3    0    0 -0.29402269026E+02  0.15427434439E+02 -0.15914773216E+02  0.36820906612E+02  0.00000000000E+00 0.  1.
         11    1    4    4    0    0 -0.38634501777E+01 -0.12556133473E+01  0.94919420369E+01  0.10324716754E+02  0.51100000000E-03 0. -1.
        -11    1    4    4    0    0  0.14765940251E+02 -0.14614683696E+01  0.13952540307E+02  0.20367676907E+02  0.51100000000E-03 0.  1.
         12    1    4    4    0    0  0.18499778952E+02 -0.12710352723E+02 -0.75297091279E+01  0.23674699727E+02  0.00000000000E+00 0. -1.
</event>
<event>
 8    1  0.3011071E-007  0.9118800E+02  0.7816164E-02  0.1184000E+00
        -11   -1    0    0    0    0  0.00000000000E+00  0.00000000000E+00  0.45593999997E+02  0.45594000000E+02  0.51100000000E-03 0.  1.
         11   -1    0    0    0    0 -0.00000000000E+00 -0.00000000000E+00 -0.45593999997E+02  0.45594000000E+02  0.51100000000E-03 0. -1.
         23    2    1    2    0    0 -0.88817841970E-15 -0.35527136788E-14  0.00000000000E+00  0.91188000000E+02  0.91188000000E+02 0.  0.
    9900012    2    3    3    0    0 -0.54454241851E+01  0.22442830209E+02 -0.28678346847E+02  0.54367070487E+02  0.39999968788E+02 0.  0.
        -12    1    3    3    0    0  0.54454241851E+01 -0.22442830209E+02  0.28678346847E+02  0.36820929513E+02  0.00000000000E+00 0.  1.
         11    1    4    4    0    0  0.10879476295E+02  0.71956550903E+01 -0.27150986276E+01  0.13323371099E+02  0.51100000000E-03 0. -1.
        -11    1    4    4    0    0 -0.15197517676E+02  0.20937397706E+02 -0.19790698271E+02  0.32573162336E+02  0.51100000000E-03 0.  1.
         12    1    4    4    0    0 -0.11273828034E+01 -0.56902225874E+01 -0.61725499485E+01  0.84705370518E+01  0.00000000000E+00 0. -1.
</event>
<event>
 8    1  0.3011071E-007  0.9118800E+02  0.7816164E-02  0.1184000E+00
        -11   -1    0    0    0    0  0.00000000000E+00  0.00000000000E+00  0.45593999997E+02  0.45594000000E+02  0.51100000000E-03 0. -1.
         11   -1    0    0    0    0 -0.00000000000E+00 -0.00000000000E+00 -0.45593999997E+02  0.45594000000E+02  0.51100000000E-03 0.  1.
         23    2    1    2    0    0 -0.22204460493E-15 -0.17763568394E-14  0.00000000000E+00  0.91188000000E+02  0.91188000000E+02 0.  0.
    9900012    2    3    3    0    0 -0.89691784330E+00 -0.57789932797E+01  0.36353545222E+02  0.54367062001E+02  0.39999949443E+02 0.  0.
        -12    1    3    3    0    0  0.89691784330E+00  0.57789932797E+01 -0.36353545222E+02  0.36820937999E+02  0.00000000000E+00 0.  1.
         11    1    4    4    0    0  0.39097887380E+01  0.15435047719E+02  0.24484429143E+02  0.29206410543E+02  0.51100000000E-03 0. -1.
        -11    1    4    4    0    0  0.23326441000E+00 -0.17974524699E+01  0.23190512906E+01  0.29433393987E+01  0.51100000000E-03 0.  1.
        -12    1    4    4    0    0 -0.50399709913E+01 -0.19416588529E+02  0.95500647881E+01  0.22217312059E+02  0.00000000000E+00 0.  1.
</event>
<event>
 8    1  0.3011071E-007  0.9118800E+02  0.7816164E-02  0.1184000E+00
        -11   -1    0    0    0    0  0.00000000000E+00  0.00000000000E+00  0.45593999997E+02  0.45594000000E+02  0.51100000000E-03 0. -1.
         11   -1    0    0    0    0 -0.00000000000E+00 -0.00000000000E+00 -0.45593999997E+02  0.45594000000E+02  0.51100000000E-03 0.  1.
         23    2    1    2    0    0 -0.35527136788E-14  0.71054273576E-14  0.00000000000E+00  0.91188000000E+02  0.91188000000E+02 0.  0.
    9900012    2    3    3    0    0 -0.18096952912E+02 -0.20568909958E+02 -0.24600830598E+02  0.54367073509E+02  0.39999975678E+02 0.  0.
         12    1    3    3    0    0  0.18096952912E+02  0.20568909958E+02  0.24600830598E+02  0.36820926491E+02  0.00000000000E+00 0. -1.
         11    1    4    4    0    0 -0.13365865425E+02 -0.19492832058E+02 -0.25514687359E+01  0.23772396875E+02  0.51100000000E-03 0. -1.
        -11    1    4    4    0    0  0.98423198896E+00 -0.10078554922E+02 -0.77231100545E+01  0.12735478440E+02  0.51100000000E-03 0.  1.
        -12    1    4    4    0    0 -0.57153194755E+01  0.90024770224E+01 -0.14326251808E+02  0.17859198193E+02  0.00000000000E+00 0.  1.
</event>
<event>
 8    1  0.3011071E-007  0.9118800E+02  0.7816164E-02  0.1184000E+00
        -11   -1    0    0    0    0  0.00000000000E+00  0.00000000000E+00  0.45593999997E+02  0.45594000000E+02  0.51100000000E-03 0. -1.
         11   -1    0    0    0    0 -0.00000000000E+00 -0.00000000000E+00 -0.45593999997E+02  0.45594000000E+02  0.51100000000E-03 0.  1.
         23    2    1    2    0    0 -0.53290705182E-14 -0.35527136788E-14  0.00000000000E+00  0.91188000000E+02  0.91188000000E+02 0.  0.
    9900012    2    3    3    0    0  0.15988556671E+02  0.30701065292E+02 -0.12553419645E+02  0.54367113274E+02  0.40000066331E+02 0.  0.
         12    1    3    3    0    0 -0.15988556671E+02 -0.30701065292E+02  0.12553419645E+02  0.36820886726E+02  0.00000000000E+00 0. -1.
         11    1    4    4    0    0  0.15219732295E+02  0.10941823847E+02 -0.76107171844E+01  0.20230837267E+02  0.51100000000E-03 0. -1.
        -11    1    4    4    0    0  0.22229046851E+01 -0.34561917966E+01  0.69024279090E+01  0.80330615754E+01  0.51100000000E-03 0.  1.
        -12    1    4    4    0    0 -0.14540803090E+01  0.23215433242E+02 -0.11845130370E+02  0.26103214431E+02  0.00000000000E+00 0.  1.
</event>
<event>
 8    1  0.3011071E-007  0.9118800E+02  0.7816164E-02  0.1184000E+00
        -11   -1    0    0    0    0  0.00000000000E+00  0.00000000000E+00  0.45593999997E+02  0.45594000000E+02  0.51100000000E-03 0.  1.
         11   -1    0    0    0    0 -0.00000000000E+00 -0.00000000000E+00 -0.45593999997E+02  0.45594000000E+02  0.51100000000E-03 0. -1.
         23    2    1    2    0    0 -0.88817841970E-15  0.10658141036E-13 -0.35527136788E-14  0.91188000000E+02  0.91188000000E+02 0.  0.
    9900012    2    3    3    0    0  0.33485273771E+01 -0.23734671749E+02  0.27950546659E+02  0.54367077454E+02  0.39999984671E+02 0.  0.
         12    1    3    3    0    0 -0.33485273771E+01  0.23734671749E+02 -0.27950546659E+02  0.36820922546E+02  0.00000000000E+00 0. -1.
         11    1    4    4    0    0 -0.13671820711E+01 -0.11372600273E+02 -0.38750212273E+01  0.12092188121E+02  0.51100000000E-03 0. -1.
        -11    1    4    4    0    0  0.51929174745E+01 -0.19212066613E+02  0.17982603550E+02  0.26822451904E+02  0.51100000000E-03 0.  1.
        -12    1    4    4    0    0 -0.47720802621E+00  0.68499951371E+01  0.13842964336E+02  0.15452437429E+02  0.00000000000E+00 0.  1.
</event>
<event>
 8    1  0.3011071E-007  0.9118800E+02  0.7816164E-02  0.1184000E+00
        -11   -1    0    0    0    0  0.00000000000E+00  0.00000000000E+00  0.45593999997E+02  0.45594000000E+02  0.51100000000E-03 0. -1.
         11   -1    0    0    0    0 -0.00000000000E+00 -0.00000000000E+00 -0.45593999997E+02  0.45594000000E+02  0.51100000000E-03 0.  1.
         23    2    1    2    0    0 -0.17763568394E-14  0.00000000000E+00  0.22204460493E-15  0.91188000000E+02  0.91188000000E+02 0.  0.
    9900012    2    3    3    0    0 -0.82457931778E+01  0.35856587725E+02 -0.14463656351E+01  0.54367082549E+02  0.39999996286E+02 0.  0.
        -12    1    3    3    0    0  0.82457931778E+01 -0.35856587725E+02  0.14463656351E+01  0.36820917451E+02  0.00000000000E+00 0.  1.
         11    1    4    4    0    0  0.81562907884E+01  0.21558852658E+02  0.20698628952E+01  0.23142893942E+02  0.51100000000E-03 0. -1.
        -11    1    4    4    0    0  0.29616678228E+01 -0.34328420406E+01 -0.19108743505E+01  0.49200936792E+01  0.51100000000E-03 0.  1.
        -12    1    4    4    0    0 -0.19363751789E+02  0.17730577108E+02 -0.16053541798E+01  0.26304094928E+02  0.00000000000E+00 0.  1.
</event>
<event>
 8    1  0.3011071E-007  0.9118800E+02  0.7816164E-02  0.1184000E+00
        -11   -1    0    0    0    0  0.00000000000E+00  0.00000000000E+00  0.45593999997E+02  0.45594000000E+02  0.51100000000E-03 0.  1.
         11   -1    0    0    0    0 -0.00000000000E+00 -0.00000000000E+00 -0.45593999997E+02  0.45594000000E+02  0.51100000000E-03 0. -1.
         23    2    1    2    0    0  0.00000000000E+00  0.00000000000E+00  0.00000000000E+00  0.91188000000E+02  0.91188000000E+02 0.  0.
    9900012    2    3    3    0    0 -0.48589272278E+01  0.21943438183E+02  0.29165979777E+02  0.54367108790E+02  0.40000056109E+02 0.  0.
         12    1    3    3    0    0  0.48589272278E+01 -0.21943438183E+02 -0.29165979777E+02  0.36820891210E+02  0.00000000000E+00 0. -1.
         11    1    4    4    0    0  0.69151958102E+00  0.39282230481E+01 -0.16599290005E+01  0.43202430712E+01  0.51100000000E-03 0. -1.
        -11    1    4    4    0    0  0.41747533485E+00  0.22570245767E+02  0.49588674490E+01  0.23112348350E+02  0.51100000000E-03 0.  1.
         12    1    4    4    0    0 -0.59679221437E+01 -0.45550306320E+01  0.25867041329E+02  0.26934517369E+02  0.00000000000E+00 0. -1.
</event>
<event>
 8    1  0.3011071E-007  0.9118800E+02  0.7816164E-02  0.1184000E+00
        -11   -1    0    0    0    0  0.00000000000E+00  0.00000000000E+00  0.45593999997E+02  0.45594000000E+02  0.51100000000E-03 0. -1.
         11   -1    0    0    0    0 -0.00000000000E+00 -0.00000000000E+00 -0.45593999997E+02  0.45594000000E+02  0.51100000000E-03 0.  1.
         23    2    1    2    0    0  0.00000000000E+00  0.00000000000E+00  0.35527136788E-14  0.91188000000E+02  0.91188000000E+02 0.  0.
    9900012    2    3    3    0    0  0.81865382745E+01 -0.22016669098E+02 -0.28355380267E+02  0.54367072293E+02  0.39999972907E+02 0.  0.
         12    1    3    3    0    0 -0.81865382745E+01  0.22016669098E+02  0.28355380267E+02  0.36820927707E+02  0.00000000000E+00 0. -1.
         11    1    4    4    0    0 -0.16797067848E+01 -0.12931772989E+02 -0.69235992002E+01  0.14764430015E+02  0.51100000000E-03 0. -1.
        -11    1    4    4    0    0 -0.12074968264E+01  0.10523395867E+02 -0.88761417981E+01  0.13819761309E+02  0.51100000000E-03 0.  1.
        -12    1    4    4    0    0  0.11073741886E+02 -0.19608291976E+02 -0.12555639269E+02  0.25782880968E+02  0.00000000000E+00 0.  1.
</event>
<event>
 8    1  0.3011071E-007  0.9118800E+02  0.7816164E-02  0.1184000E+00
        -11   -1    0    0    0    0  0.00000000000E+00  0.00000000000E+00  0.45593999997E+02  0.45594000000E+02  0.51100000000E-03 0. -1.
         11   -1    0    0    0    0 -0.00000000000E+00 -0.00000000000E+00 -0.45593999997E+02  0.45594000000E+02  0.51100000000E-03 0.  1.
         23    2    1    2    0    0 -0.88817841970E-15  0.00000000000E+00  0.17763568394E-14  0.91188000000E+02  0.91188000000E+02 0.  0.
    9900012    2    3    3    0    0 -0.62651393815E+01 -0.32999816548E+02 -0.15084443994E+02  0.54367077764E+02  0.39999985379E+02 0.  0.
         12    1    3    3    0    0  0.62651393815E+01  0.32999816548E+02  0.15084443994E+02  0.36820922236E+02  0.00000000000E+00 0. -1.
         11    1    4    4    0    0  0.80524069441E+01 -0.34473633545E+02 -0.11847989434E+02  0.37331588786E+02  0.51100000000E-03 0. -1.
        -11    1    4    4    0    0 -0.19139106391E+01 -0.87268063224E+00 -0.38605690241E+01  0.43964325164E+01  0.51100000000E-03 0.  1.
         12    1    4    4    0    0 -0.12403635687E+02  0.23464976293E+01  0.62411446479E+00  0.12639056461E+02  0.00000000000E+00 0. -1.
</event>
<event>
 8    1  0.3011071E-007  0.9118800E+02  0.7816164E-02  0.1184000E+00
        -11   -1    0    0    0    0  0.00000000000E+00  0.00000000000E+00  0.45593999997E+02  0.45594000000E+02  0.51100000000E-03 0. -1.
         11   -1    0    0    0    0 -0.00000000000E+00 -0.00000000000E+00 -0.45593999997E+02  0.45594000000E+02  0.51100000000E-03 0.  1.
         23    2    1    2    0    0 -0.17763568394E-14  0.71054273576E-14  0.00000000000E+00  0.91188000000E+02  0.91188000000E+02 0.  0.
    9900012    2    3    3    0    0 -0.13219021551E+02  0.34106751962E+02 -0.42149996783E+01  0.54367091776E+02  0.40000017322E+02 0.  0.
         12    1    3    3    0    0  0.13219021551E+02 -0.34106751962E+02  0.42149996783E+01  0.36820908224E+02  0.00000000000E+00 0. -1.
         11    1    4    4    0    0  0.67981725381E+01  0.54538203518E+00  0.34777114864E+00  0.68288751969E+01  0.51100000000E-03 0. -1.
        -11    1    4    4    0    0 -0.16996694993E+02  0.38094442705E+02 -0.27801740188E+01  0.41806740767E+02  0.51100000000E-03 0.  1.
        -12    1    4    4    0    0 -0.30204990967E+01 -0.45330727786E+01 -0.17825968081E+01  0.57314758125E+01  0.00000000000E+00 0.  1.
</event>
<event>
 8    1  0.3011071E-007  0.9118800E+02  0.7816164E-02  0.1184000E+00
        -11   -1    0    0    0    0  0.00000000000E+00  0.00000000000E+00  0.45593999997E+02  0.45594000000E+02  0.51100000000E-03 0. -1.
         11   -1    0    0    0    0 -0.00000000000E+00 -0.00000000000E+00 -0.45593999997E+02  0.45594000000E+02  0.51100000000E-03 0.  1.
         23    2    1    2    0    0  0.00000000000E+00 -0.22204460493E-14  0.35527136788E-14  0.91188000000E+02  0.91188000000E+02 0.  0.
    9900012    2    3    3    0    0  0.21805665610E+02 -0.62313207740E+00  0.29663182730E+02  0.54367085346E+02  0.40000002664E+02 0.  0.
        -12    1    3    3    0    0 -0.21805665610E+02  0.62313207740E+00 -0.29663182730E+02  0.36820914654E+02  0.00000000000E+00 0.  1.
         11    1    4    4    0    0  0.34756635396E+01  0.16073927158E+02  0.21272676726E+02  0.26888252949E+02  0.51100000000E-03 0.  1.
        -11    1    4    4    0    0  0.65745559743E+01 -0.42709531836E+01  0.66582656293E+01  0.10285831459E+02  0.51100000000E-03 0. -1.
        -12    1    4    4    0    0  0.11755446096E+02 -0.12426106052E+02  0.17322403747E+01  0.17193000938E+02  0.00000000000E+00 0.  1.
</event>
<event>
 8    1  0.3011071E-007  0.9118800E+02  0.7816164E-02  0.1184000E+00
        -11   -1    0    0    0    0  0.00000000000E+00  0.00000000000E+00  0.45593999997E+02  0.45594000000E+02  0.51100000000E-03 0. -1.
         11   -1    0    0    0    0 -0.00000000000E+00 -0.00000000000E+00 -0.45593999997E+02  0.45594000000E+02  0.51100000000E-03 0.  1.
         23    2    1    2    0    0 -0.17763568394E-14  0.00000000000E+00  0.00000000000E+00  0.91188000000E+02  0.91188000000E+02 0.  0.
    9900012    2    3    3    0    0  0.13212673512E+02  0.27602153133E+02 -0.20477457043E+02  0.54367084126E+02  0.39999999881E+02 0.  0.
         12    1    3    3    0    0 -0.13212673512E+02 -0.27602153133E+02  0.20477457043E+02  0.36820915874E+02  0.00000000000E+00 0. -1.
         11    1    4    4    0    0  0.13472201928E+02  0.27420705778E+02 -0.22334412095E+02  0.37844699682E+02  0.51100000000E-03 0.  1.
        -11    1    4    4    0    0  0.16622045128E+01  0.52642536980E+01 -0.52215258737E+01  0.75986593259E+01  0.51100000000E-03 0. -1.
         12    1    4    4    0    0 -0.19217329290E+01 -0.50828063429E+01  0.70784809255E+01  0.89237251180E+01  0.00000000000E+00 0. -1.
</event>
<event>
 8    1  0.3011071E-007  0.9118800E+02  0.7816164E-02  0.1184000E+00
        -11   -1    0    0    0    0  0.00000000000E+00  0.00000000000E+00  0.45593999997E+02  0.45594000000E+02  0.51100000000E-03 0.  1.
         11   -1    0    0    0    0 -0.00000000000E+00 -0.00000000000E+00 -0.45593999997E+02  0.45594000000E+02  0.51100000000E-03 0. -1.
         23    2    1    2    0    0  0.00000000000E+00  0.88817841970E-15 -0.15543122345E-14  0.91188000000E+02  0.91188000000E+02 0.  0.
    9900012    2    3    3    0    0 -0.36197816212E+02  0.65190108684E+01 -0.17321719702E+01  0.54367084464E+02  0.40000000652E+02 0.  0.
         12    1    3    3    0    0  0.36197816212E+02 -0.65190108684E+01  0.17321719702E+01  0.36820915536E+02  0.00000000000E+00 0. -1.
         11    1    4    4    0    0 -0.39413754561E+00  0.67919135235E+01  0.13655382940E+01  0.69390293852E+01  0.51100000000E-03 0. -1.
        -11    1    4    4    0    0 -0.31474381977E+02 -0.10467396269E+02 -0.96687842394E+01  0.34549797313E+02  0.51100000000E-03 0.  1.
        -12    1    4    4    0    0 -0.43292966895E+01  0.10194493614E+02  0.65710739752E+01  0.12878257765E+02  0.00000000000E+00 0.  1.
</event>
<event>
 8    1  0.3011071E-007  0.9118800E+02  0.7816164E-02  0.1184000E+00
        -11   -1    0    0    0    0  0.00000000000E+00  0.00000000000E+00  0.45593999997E+02  0.45594000000E+02  0.51100000000E-03 0.  1.
         11   -1    0    0    0    0 -0.00000000000E+00 -0.00000000000E+00 -0.45593999997E+02  0.45594000000E+02  0.51100000000E-03 0. -1.
         23    2    1    2    0    0 -0.17763568394E-14  0.88817841970E-15  0.00000000000E+00  0.91188000000E+02  0.91188000000E+02 0.  0.
    9900012    2    3    3    0    0  0.14676480183E+02 -0.62396271010E+01 -0.33188054288E+02  0.54367096096E+02  0.40000027170E+02 0.  0.
        -12    1    3    3    0    0 -0.14676480183E+02  0.62396271010E+01  0.33188054288E+02  0.36820903904E+02  0.00000000000E+00 0.  1.
         11    1    4    4    0    0  0.34675451103E+01 -0.11759564103E+02 -0.59072247230E+00  0.12274370464E+02  0.51100000000E-03 0. -1.
        -11    1    4    4    0    0  0.18083925644E+01  0.13246214466E+01  0.37207860111E+01  0.43438639994E+01  0.51100000000E-03 0.  1.
         12    1    4    4    0    0  0.94005425086E+01  0.41953155558E+01 -0.36318117826E+02  0.37748861632E+02  0.00000000000E+00 0. -1.
</event>
<event>
 8    1  0.3011071E-007  0.9118800E+02  0.7816164E-02  0.1184000E+00
        -11   -1    0    0    0    0  0.00000000000E+00  0.00000000000E+00  0.45593999997E+02  0.45594000000E+02  0.51100000000E-03 0. -1.
         11   -1    0    0    0    0 -0.00000000000E+00 -0.00000000000E+00 -0.45593999997E+02  0.45594000000E+02  0.51100000000E-03 0.  1.
         23    2    1    2    0    0  0.00000000000E+00 -0.17763568394E-14 -0.35527136788E-14  0.91188000000E+02  0.91188000000E+02 0.  0.
    9900012    2    3    3    0    0  0.20929580046E+02 -0.13779938449E+02  0.26978618866E+02  0.54367083384E+02  0.39999998190E+02 0.  0.
        -12    1    3    3    0    0 -0.20929580046E+02  0.13779938449E+02 -0.26978618866E+02  0.36820916616E+02  0.00000000000E+00 0.  1.
         11    1    4    4    0    0  0.54763948246E+01 -0.12302627697E+01  0.12136966705E+02  0.13372000890E+02  0.51100000000E-03 0. -1.
        -11    1    4    4    0    0  0.61430376245E+01 -0.85013940694E+01  0.24705727698E+02  0.26839962625E+02  0.51100000000E-03 0.  1.
        -12    1    4    4    0    0  0.93101475970E+01 -0.40482816094E+01 -0.98640755371E+01  0.14155119868E+02  0.00000000000E+00 0.  1.
</event>
<event>
 8    1  0.3011071E-007  0.9118800E+02  0.7816164E-02  0.1184000E+00
        -11   -1    0    0    0    0  0.00000000000E+00  0.00000000000E+00  0.45593999997E+02  0.45594000000E+02  0.51100000000E-03 0. -1.
         11   -1    0    0    0    0 -0.00000000000E+00 -0.00000000000E+00 -0.45593999997E+02  0.45594000000E+02  0.51100000000E-03 0.  1.
         23    2    1    2    0    0  0.00000000000E+00  0.00000000000E+00  0.44408920985E-15  0.91188000000E+02  0.91188000000E+02 0.  0.
    9900012    2    3    3    0    0 -0.83619857683E+01  0.35713259812E+02  0.32281688383E+01  0.54367071081E+02  0.39999970143E+02 0.  0.
        -12    1    3    3    0    0  0.83619857683E+01 -0.35713259812E+02 -0.32281688383E+01  0.36820928919E+02  0.00000000000E+00 0.  1.
         11    1    4    4    0    0 -0.14870999733E+02  0.13572981166E+02  0.98692838049E+01  0.22422649573E+02  0.51100000000E-03 0. -1.
        -11    1    4    4    0    0 -0.63502941987E+01  0.13677847341E+02 -0.68171925824E+01  0.16549436826E+02  0.51100000000E-03 0.  1.
        -12    1    4    4    0    0  0.12859308163E+02  0.84624313059E+01  0.17607761578E+00  0.15394984682E+02  0.00000000000E+00 0.  1.
</event>
<event>
 8    1  0.3011071E-007  0.9118800E+02  0.7816164E-02  0.1184000E+00
        -11   -1    0    0    0    0  0.00000000000E+00  0.00000000000E+00  0.45593999997E+02  0.45594000000E+02  0.51100000000E-03 0. -1.
         11   -1    0    0    0    0 -0.00000000000E+00 -0.00000000000E+00 -0.45593999997E+02  0.45594000000E+02  0.51100000000E-03 0.  1.
         23    2    1    2    0    0  0.35527136788E-14  0.00000000000E+00  0.17763568394E-14  0.91188000000E+02  0.91188000000E+02 0.  0.
    9900012    2    3    3    0    0 -0.29444077757E+02 -0.18856820425E+02 -0.11543244238E+02  0.54367083675E+02  0.39999998854E+02 0.  0.
         12    1    3    3    0    0  0.29444077757E+02  0.18856820425E+02  0.11543244238E+02  0.36820916325E+02  0.00000000000E+00 0. -1.
         11    1    4    4    0    0 -0.10796018333E+02 -0.11621900513E+02 -0.41186483153E+01  0.16388588945E+02  0.51100000000E-03 0. -1.
        -11    1    4    4    0    0 -0.16326863599E+02  0.98049087822E+01 -0.82648221372E+01  0.20760780246E+02  0.51100000000E-03 0.  1.
         12    1    4    4    0    0 -0.23211958243E+01 -0.17039828694E+02  0.84022621459E+00  0.17217714484E+02  0.00000000000E+00 0. -1.
</event>
<event>
 8    1  0.3011071E-007  0.9118800E+02  0.7816164E-02  0.1184000E+00
        -11   -1    0    0    0    0  0.00000000000E+00  0.00000000000E+00  0.45593999997E+02  0.45594000000E+02  0.51100000000E-03 0. -1.
         11   -1    0    0    0    0 -0.00000000000E+00 -0.00000000000E+00 -0.45593999997E+02  0.45594000000E+02  0.51100000000E-03 0.  1.
         23    2    1    2    0    0  0.35527136788E-14  0.00000000000E+00  0.00000000000E+00  0.91188000000E+02  0.91188000000E+02 0.  0.
    9900012    2    3    3    0    0  0.31052389711E+02 -0.16708112693E+02 -0.10600159934E+02  0.54367145486E+02  0.40000139763E+02 0.  0.
         12    1    3    3    0    0 -0.31052389711E+02  0.16708112693E+02  0.10600159934E+02  0.36820854514E+02  0.00000000000E+00 0. -1.
         11    1    4    4    0    0  0.11240327351E+02  0.82820021248E+01 -0.11625104579E+02  0.18168092219E+02  0.51100000000E-03 0. -1.
        -11    1    4    4    0    0  0.83605921916E+01 -0.14524980899E+02 -0.76527311912E+01  0.18423866773E+02  0.51100000000E-03 0.  1.
         12    1    4    4    0    0  0.11451470169E+02 -0.10465133918E+02  0.86776758366E+01  0.17775186494E+02  0.00000000000E+00 0. -1.
</event>
<event>
 8    1  0.3011071E-007  0.9118800E+02  0.7816164E-02  0.1184000E+00
        -11   -1    0    0    0    0  0.00000000000E+00  0.00000000000E+00  0.45593999997E+02  0.45594000000E+02  0.51100000000E-03 0.  1.
         11   -1    0    0    0    0 -0.00000000000E+00 -0.00000000000E+00 -0.45593999997E+02  0.45594000000E+02  0.51100000000E-03 0. -1.
         23    2    1    2    0    0  0.35527136788E-14 -0.77715611724E-15 -0.71054273576E-14  0.91188000000E+02  0.91188000000E+02 0.  0.
    9900012    2    3    3    0    0  0.26197362990E+02 -0.59775370172E+00 -0.25867367338E+02  0.54367084339E+02  0.40000000367E+02 0.  0.
         12    1    3    3    0    0 -0.26197362990E+02  0.59775370172E+00  0.25867367338E+02  0.36820915661E+02  0.00000000000E+00 0. -1.
         11    1    4    4    0    0  0.91756660110E+01 -0.17083094645E+02 -0.27256155598E+00  0.19393278719E+02  0.51100000000E-03 0. -1.
        -11    1    4    4    0    0  0.13649607963E+02  0.12270972148E+02 -0.20949573523E+02  0.27852705184E+02  0.51100000000E-03 0.  1.
         12    1    4    4    0    0  0.33720890157E+01  0.42143687957E+01 -0.46452322595E+01  0.71211004361E+01  0.00000000000E+00 0. -1.
</event>
<event>
 8    1  0.3011071E-007  0.9118800E+02  0.7816164E-02  0.1184000E+00
        -11   -1    0    0    0    0  0.00000000000E+00  0.00000000000E+00  0.45593999997E+02  0.45594000000E+02  0.51100000000E-03 0.  1.
         11   -1    0    0    0    0 -0.00000000000E+00 -0.00000000000E+00 -0.45593999997E+02  0.45594000000E+02  0.51100000000E-03 0. -1.
         23    2    1    2    0    0 -0.17763568394E-14  0.00000000000E+00  0.13322676296E-14  0.91188000000E+02  0.91188000000E+02 0.  0.
    9900012    2    3    3    0    0  0.13246171102E+02 -0.34307186811E+02 -0.18265536383E+01  0.54367076411E+02  0.39999982293E+02 0.  0.
        -12    1    3    3    0    0 -0.13246171102E+02  0.34307186811E+02  0.18265536383E+01  0.36820923589E+02  0.00000000000E+00 0.  1.
         11    1    4    4    0    0  0.14735922965E+02 -0.86611366712E+01  0.58096852461E+01  0.18053120423E+02  0.51100000000E-03 0.  1.
        -11    1    4    4    0    0  0.72978086591E+01 -0.21431041010E+02 -0.12014004948E+02  0.25629745319E+02  0.51100000000E-03 0. -1.
         12    1    4    4    0    0 -0.87875605224E+01 -0.42150091307E+01  0.43777660635E+01  0.10684210669E+02  0.00000000000E+00 0. -1.
</event>
<event>
 8    1  0.3011071E-007  0.9118800E+02  0.7816164E-02  0.1184000E+00
        -11   -1    0    0    0    0  0.00000000000E+00  0.00000000000E+00  0.45593999997E+02  0.45594000000E+02  0.51100000000E-03 0. -1.
         11   -1    0    0    0    0 -0.00000000000E+00 -0.00000000000E+00 -0.45593999997E+02  0.45594000000E+02  0.51100000000E-03 0.  1.
         23    2    1    2    0    0  0.00000000000E+00  0.17763568394E-14  0.00000000000E+00  0.91188000000E+02  0.91188000000E+02 0.  0.
    9900012    2    3    3    0    0 -0.23448360231E+02  0.10255073524E+02 -0.26472376528E+02  0.54367097654E+02  0.40000030723E+02 0.  0.
         12    1    3    3    0    0  0.23448360231E+02 -0.10255073524E+02  0.26472376528E+02  0.36820902346E+02  0.00000000000E+00 0. -1.
         11    1    4    4    0    0 -0.66500784418E+01 -0.56858317094E+01  0.37111831837E+00  0.87572800901E+01  0.51100000000E-03 0.  1.
        -11    1    4    4    0    0 -0.24665445447E+02  0.10246925917E+02 -0.22695535459E+02  0.35049550922E+02  0.51100000000E-03 0. -1.
        -12    1    4    4    0    0  0.78671636576E+01  0.56939793165E+01 -0.41479593875E+01  0.10560266642E+02  0.00000000000E+00 0.  1.
</event>
<event>
 8    1  0.3011071E-007  0.9118800E+02  0.7816164E-02  0.1184000E+00
        -11   -1    0    0    0    0  0.00000000000E+00  0.00000000000E+00  0.45593999997E+02  0.45594000000E+02  0.51100000000E-03 0. -1.
         11   -1    0    0    0    0 -0.00000000000E+00 -0.00000000000E+00 -0.45593999997E+02  0.45594000000E+02  0.51100000000E-03 0.  1.
         23    2    1    2    0    0 -0.35527136788E-14  0.00000000000E+00  0.00000000000E+00  0.91188000000E+02  0.91188000000E+02 0.  0.
    9900012    2    3    3    0    0 -0.26180238752E+02 -0.90271604579E+01  0.24266934490E+02  0.54367100546E+02  0.40000037314E+02 0.  0.
        -12    1    3    3    0    0  0.26180238752E+02  0.90271604579E+01 -0.24266934490E+02  0.36820899454E+02  0.00000000000E+00 0.  1.
         11    1    4    4    0    0 -0.52282529162E+01 -0.10623238217E+02  0.17115355059E+02  0.20811612091E+02  0.51100000000E-03 0. -1.
        -11    1    4    4    0    0 -0.54961874378E+01  0.91308736221E+01 -0.57026504915E+01  0.12087230963E+02  0.51100000000E-03 0.  1.
         12    1    4    4    0    0 -0.15455798398E+02 -0.75347958627E+01  0.12854229923E+02  0.21468257492E+02  0.00000000000E+00 0. -1.
</event>
<event>
 8    1  0.3011071E-007  0.9118800E+02  0.7816164E-02  0.1184000E+00
        -11   -1    0    0    0    0  0.00000000000E+00  0.00000000000E+00  0.45593999997E+02  0.45594000000E+02  0.51100000000E-03 0.  1.
         11   -1    0    0    0    0 -0.00000000000E+00 -0.00000000000E+00 -0.45593999997E+02  0.45594000000E+02  0.51100000000E-03 0. -1.
         23    2    1    2    0    0  0.35527136788E-14  0.00000000000E+00  0.00000000000E+00  0.91188000000E+02  0.91188000000E+02 0.  0.
    9900012    2    3    3    0    0  0.21340335155E+02  0.12868421921E+02 -0.27106679223E+02  0.54367105853E+02  0.40000049414E+02 0.  0.
        -12    1    3    3    0    0 -0.21340335155E+02 -0.12868421921E+02  0.27106679223E+02  0.36820894147E+02  0.00000000000E+00 0.  1.
         11    1    4    4    0    0 -0.74914403041E+01  0.93699106360E+01 -0.21615883277E+01  0.12189723849E+02  0.51100000000E-03 0. -1.
        -11    1    4    4    0    0  0.17211291184E+02  0.79578087190E+01 -0.67401326850E+01  0.20124230488E+02  0.51100000000E-03 0.  1.
         12    1    4    4    0    0  0.11620484275E+02 -0.44592974340E+01 -0.18204958210E+02  0.22053151517E+02  0.00000000000E+00 0. -1.
</event>
<event>
 8    1  0.3011071E-007  0.9118800E+02  0.7816164E-02  0.1184000E+00
        -11   -1    0    0    0    0  0.00000000000E+00  0.00000000000E+00  0.45593999997E+02  0.45594000000E+02  0.51100000000E-03 0. -1.
         11   -1    0    0    0    0 -0.00000000000E+00 -0.00000000000E+00 -0.45593999997E+02  0.45594000000E+02  0.51100000000E-03 0.  1.
         23    2    1    2    0    0  0.00000000000E+00 -0.35527136788E-14  0.35527136788E-14  0.91188000000E+02  0.91188000000E+02 0.  0.
    9900012    2    3    3    0    0  0.20249032226E+01 -0.25580166919E+02  0.26407088394E+02  0.54367088956E+02  0.40000010894E+02 0.  0.
        -12    1    3    3    0    0 -0.20249032226E+01  0.25580166919E+02 -0.26407088394E+02  0.36820911044E+02  0.00000000000E+00 0.  1.
         11    1    4    4    0    0  0.51945363172E+01  0.92494059275E+01  0.12859904417E+02  0.16670688631E+02  0.51100000000E-03 0.  1.
        -11    1    4    4    0    0 -0.20267063043E+01 -0.32604287075E+02  0.12801765016E+02  0.35086069342E+02  0.51100000000E-03 0. -1.
        -12    1    4    4    0    0 -0.11429267903E+01 -0.22252857716E+01  0.74541896061E+00  0.26103309829E+01  0.00000000000E+00 0.  1.
</event>
<event>
 8    1  0.3011071E-007  0.9118800E+02  0.7816164E-02  0.1184000E+00
        -11   -1    0    0    0    0  0.00000000000E+00  0.00000000000E+00  0.45593999997E+02  0.45594000000E+02  0.51100000000E-03 0.  1.
         11   -1    0    0    0    0 -0.00000000000E+00 -0.00000000000E+00 -0.45593999997E+02  0.45594000000E+02  0.51100000000E-03 0. -1.
         23    2    1    2    0    0  0.00000000000E+00 -0.88817841970E-15 -0.88817841970E-15  0.91188000000E+02  0.91188000000E+02 0.  0.
    9900012    2    3    3    0    0 -0.36136341037E+02 -0.51560275642E+01 -0.48332644540E+01  0.54367079193E+02  0.39999988635E+02 0.  0.
         12    1    3    3    0    0  0.36136341037E+02  0.51560275642E+01  0.48332644540E+01  0.36820920807E+02  0.00000000000E+00 0. -1.
         11    1    4    4    0    0 -0.20579763868E+02  0.32937275192E+01 -0.87348330457E+01  0.22598066962E+02  0.51100000000E-03 0. -1.
        -11    1    4    4    0    0 -0.11140866396E+02  0.27837766492E+00 -0.98635533530E+01  0.14882408515E+02  0.51100000000E-03 0.  1.
        -12    1    4    4    0    0 -0.44157107733E+01 -0.87281327483E+01  0.13765121945E+02  0.16886603716E+02  0.00000000000E+00 0.  1.
</event>
<event>
 8    1  0.3011071E-007  0.9118800E+02  0.7816164E-02  0.1184000E+00
        -11   -1    0    0    0    0  0.00000000000E+00  0.00000000000E+00  0.45593999997E+02  0.45594000000E+02  0.51100000000E-03 0. -1.
         11   -1    0    0    0    0 -0.00000000000E+00 -0.00000000000E+00 -0.45593999997E+02  0.45594000000E+02  0.51100000000E-03 0.  1.
         23    2    1    2    0    0  0.88817841970E-15 -0.35527136788E-14  0.00000000000E+00  0.91188000000E+02  0.91188000000E+02 0.  0.
    9900012    2    3    3    0    0 -0.44549760643E+01 -0.17237931760E+02  0.32230223616E+02  0.54367076364E+02  0.39999982186E+02 0.  0.
         12    1    3    3    0    0  0.44549760643E+01  0.17237931760E+02 -0.32230223616E+02  0.36820923636E+02  0.00000000000E+00 0. -1.
         11    1    4    4    0    0  0.99379548807E+01 -0.95060616265E+01  0.19386641982E+02  0.23769098478E+02  0.51100000000E-03 0. -1.
        -11    1    4    4    0    0  0.34934746387E+01 -0.91229674195E+01  0.55170059657E+01  0.11219191356E+02  0.51100000000E-03 0.  1.
         12    1    4    4    0    0 -0.17886405584E+02  0.13910972859E+01  0.73265756685E+01  0.19378786530E+02  0.00000000000E+00 0. -1.
</event>
<event>
 8    1  0.3011071E-007  0.9118800E+02  0.7816164E-02  0.1184000E+00
        -11   -1    0    0    0    0  0.00000000000E+00  0.00000000000E+00  0.45593999997E+02  0.45594000000E+02  0.51100000000E-03 0.  1.
         11   -1    0    0    0    0 -0.00000000000E+00 -0.00000000000E+00 -0.45593999997E+02  0.45594000000E+02  0.51100000000E-03 0. -1.
         23    2    1    2    0    0  0.00000000000E+00  0.00000000000E+00 -0.44408920985E-15  0.91188000000E+02  0.91188000000E+02 0.  0.
    9900012    2    3    3    0    0 -0.14744461450E+02 -0.33684746573E+02 -0.19283474395E+01  0.54367084490E+02  0.40000000711E+02 0.  0.
         12    1    3    3    0    0  0.14744461450E+02  0.33684746573E+02  0.19283474395E+01  0.36820915510E+02  0.00000000000E+00 0. -1.
         11    1    4    4    0    0 -0.43152799112E+01 -0.17255159117E+02 -0.10409234874E+02  0.20608598394E+02  0.51100000000E-03 0. -1.
        -11    1    4    4    0    0  0.39431131966E+00 -0.20906318207E+02  0.63543598222E+01  0.21854233260E+02  0.51100000000E-03 0.  1.
         12    1    4    4    0    0 -0.10823492859E+02  0.44767307504E+01  0.21265276121E+01  0.11904252835E+02  0.00000000000E+00 0. -1.
</event>
<event>
 8    1  0.3011071E-007  0.9118800E+02  0.7816164E-02  0.1184000E+00
        -11   -1    0    0    0    0  0.00000000000E+00  0.00000000000E+00  0.45593999997E+02  0.45594000000E+02  0.51100000000E-03 0. -1.
         11   -1    0    0    0    0 -0.00000000000E+00 -0.00000000000E+00 -0.45593999997E+02  0.45594000000E+02  0.51100000000E-03 0.  1.
         23    2    1    2    0    0  0.00000000000E+00  0.71054273576E-14  0.00000000000E+00  0.91188000000E+02  0.91188000000E+02 0.  0.
    9900012    2    3    3    0    0 -0.14010747249E+02 -0.32636681603E+02 -0.97120766975E+01  0.54367102967E+02  0.40000042834E+02 0.  0.
         12    1    3    3    0    0  0.14010747249E+02  0.32636681603E+02  0.97120766975E+01  0.36820897033E+02  0.00000000000E+00 0. -1.
         11    1    4    4    0    0  0.43542446470E+00 -0.17541296128E+01 -0.14781773127E+02  0.14891856237E+02  0.51100000000E-03 0. -1.
        -11    1    4    4    0    0 -0.15039488083E+02 -0.33158262911E+02  0.33531492881E+01  0.36563646037E+02  0.51100000000E-03 0.  1.
        -12    1    4    4    0    0  0.59331636853E+00  0.22757109211E+01  0.17165471411E+01  0.29116006933E+01  0.00000000000E+00 0.  1.
</event>
<event>
 8    1  0.3011071E-007  0.9118800E+02  0.7816164E-02  0.1184000E+00
        -11   -1    0    0    0    0  0.00000000000E+00  0.00000000000E+00  0.45593999997E+02  0.45594000000E+02  0.51100000000E-03 0.  1.
         11   -1    0    0    0    0 -0.00000000000E+00 -0.00000000000E+00 -0.45593999997E+02  0.45594000000E+02  0.51100000000E-03 0. -1.
         23    2    1    2    0    0  0.00000000000E+00 -0.35527136788E-14 -0.35527136788E-14  0.91188000000E+02  0.91188000000E+02 0.  0.
    9900012    2    3    3    0    0 -0.26410803586E+02 -0.16637123311E+02 -0.19530883292E+02  0.54367084472E+02  0.40000000671E+02 0.  0.
        -12    1    3    3    0    0  0.26410803586E+02  0.16637123311E+02  0.19530883292E+02  0.36820915528E+02  0.00000000000E+00 0.  1.
         11    1    4    4    0    0 -0.12247579489E+02 -0.20889077259E+01 -0.12702483647E+02  0.17768506687E+02  0.51100000000E-03 0. -1.
        -11    1    4    4    0    0 -0.15680379655E+02  0.48844124340E+01 -0.22564116666E+01  0.16577791917E+02  0.51100000000E-03 0.  1.
        -12    1    4    4    0    0  0.15171555586E+01 -0.19432628019E+02 -0.45719879790E+01  0.20020785868E+02  0.00000000000E+00 0.  1.
</event>
<event>
 8    1  0.3011071E-007  0.9118800E+02  0.7816164E-02  0.1184000E+00
        -11   -1    0    0    0    0  0.00000000000E+00  0.00000000000E+00  0.45593999997E+02  0.45594000000E+02  0.51100000000E-03 0.  1.
         11   -1    0    0    0    0 -0.00000000000E+00 -0.00000000000E+00 -0.45593999997E+02  0.45594000000E+02  0.51100000000E-03 0. -1.
         23    2    1    2    0    0 -0.17763568394E-14  0.00000000000E+00  0.00000000000E+00  0.91188000000E+02  0.91188000000E+02 0.  0.
    9900012    2    3    3    0    0 -0.12841987519E+02 -0.23402814694E+02 -0.25360822082E+02  0.54367086436E+02  0.40000005147E+02 0.  0.
        -12    1    3    3    0    0  0.12841987519E+02  0.23402814694E+02  0.25360822082E+02  0.36820913564E+02  0.00000000000E+00 0.  1.
         11    1    4    4    0    0  0.36803889102E+01 -0.24475552765E+01 -0.70041650011E+01  0.82821565420E+01  0.51100000000E-03 0. -1.
        -11    1    4    4    0    0 -0.15177721919E+02 -0.25186544589E+02 -0.24658169444E+02  0.38376432763E+02  0.51100000000E-03 0.  1.
        -12    1    4    4    0    0 -0.13446545101E+01  0.42312851709E+01  0.63015123636E+01  0.77084971310E+01  0.00000000000E+00 0.  1.
</event>
<event>
 8    1  0.3011071E-007  0.9118800E+02  0.7816164E-02  0.1184000E+00
        -11   -1    0    0    0    0  0.00000000000E+00  0.00000000000E+00  0.45593999997E+02  0.45594000000E+02  0.51100000000E-03 0.  1.
         11   -1    0    0    0    0 -0.00000000000E+00 -0.00000000000E+00 -0.45593999997E+02  0.45594000000E+02  0.51100000000E-03 0. -1.
         23    2    1    2    0    0  0.17763568394E-14  0.00000000000E+00  0.35527136788E-14  0.91188000000E+02  0.91188000000E+02 0.  0.
    9900012    2    3    3    0    0 -0.15783068977E+02 -0.13923717869E+02  0.30212664825E+02  0.54367077939E+02  0.39999985777E+02 0.  0.
         12    1    3    3    0    0  0.15783068977E+02  0.13923717869E+02 -0.30212664825E+02  0.36820922061E+02  0.00000000000E+00 0. -1.
         11    1    4    4    0    0 -0.65652583699E+01  0.72191671466E+00 -0.51870618488E+01  0.83981779030E+01  0.51100000000E-03 0. -1.
        -11    1    4    4    0    0  0.60723899362E+01 -0.70059612922E+01  0.37546792035E+01  0.10002751089E+02  0.51100000000E-03 0.  1.
        -12    1    4    4    0    0 -0.15290200543E+02 -0.76396732917E+01  0.31645047470E+02  0.35966148947E+02  0.00000000000E+00 0.  1.
</event>
<event>
 8    1  0.3011071E-007  0.9118800E+02  0.7816164E-02  0.1184000E+00
        -11   -1    0    0    0    0  0.00000000000E+00  0.00000000000E+00  0.45593999997E+02  0.45594000000E+02  0.51100000000E-03 0.  1.
         11   -1    0    0    0    0 -0.00000000000E+00 -0.00000000000E+00 -0.45593999997E+02  0.45594000000E+02  0.51100000000E-03 0. -1.
         23    2    1    2    0    0  0.00000000000E+00  0.94368957093E-15  0.00000000000E+00  0.91188000000E+02  0.91188000000E+02 0.  0.
    9900012    2    3    3    0    0  0.23965746973E+02 -0.22300849665E+00 -0.27953028313E+02  0.54367101686E+02  0.40000039914E+02 0.  0.
        -12    1    3    3    0    0 -0.23965746973E+02  0.22300849665E+00  0.27953028313E+02  0.36820898314E+02  0.00000000000E+00 0.  1.
         11    1    4    4    0    0 -0.14001817668E+01  0.11819260180E+02 -0.10929702067E+02  0.16159016298E+02  0.51100000000E-03 0. -1.
        -11    1    4    4    0    0 -0.73321382012E-01 -0.17638643554E+01  0.35162563960E+01  0.39345460720E+01  0.51100000000E-03 0.  1.
         12    1    4    4    0    0  0.25439250122E+02 -0.10278404322E+02 -0.20539582642E+02  0.34273539316E+02  0.00000000000E+00 0. -1.
</event>
<event>
 8    1  0.3011071E-007  0.9118800E+02  0.7816164E-02  0.1184000E+00
        -11   -1    0    0    0    0  0.00000000000E+00  0.00000000000E+00  0.45593999997E+02  0.45594000000E+02  0.51100000000E-03 0.  1.
         11   -1    0    0    0    0 -0.00000000000E+00 -0.00000000000E+00 -0.45593999997E+02  0.45594000000E+02  0.51100000000E-03 0. -1.
         23    2    1    2    0    0  0.00000000000E+00  0.00000000000E+00  0.00000000000E+00  0.91188000000E+02  0.91188000000E+02 0.  0.
    9900012    2    3    3    0    0  0.22914957204E+02 -0.11623828367E+02 -0.26373674909E+02  0.54367090481E+02  0.40000014369E+02 0.  0.
        -12    1    3    3    0    0 -0.22914957204E+02  0.11623828367E+02  0.26373674909E+02  0.36820909519E+02  0.00000000000E+00 0.  1.
         11    1    4    4    0    0 -0.37838523354E+01 -0.13941491845E+02 -0.14368326000E+02  0.20374776702E+02  0.51100000000E-03 0. -1.
        -11    1    4    4    0    0 -0.19092373903E+01 -0.19744323184E+01 -0.19416320888E+01  0.33635555327E+01  0.51100000000E-03 0.  1.
         12    1    4    4    0    0  0.28608046930E+02  0.42920957958E+01 -0.10063716820E+02  0.30628758246E+02  0.00000000000E+00 0. -1.
</event>
<event>
 8    1  0.3011071E-007  0.9118800E+02  0.7816164E-02  0.1184000E+00
        -11   -1    0    0    0    0  0.00000000000E+00  0.00000000000E+00  0.45593999997E+02  0.45594000000E+02  0.51100000000E-03 0. -1.
         11   -1    0    0    0    0 -0.00000000000E+00 -0.00000000000E+00 -0.45593999997E+02  0.45594000000E+02  0.51100000000E-03 0.  1.
         23    2    1    2    0    0  0.35527136788E-14  0.00000000000E+00  0.00000000000E+00  0.91188000000E+02  0.91188000000E+02 0.  0.
    9900012    2    3    3    0    0  0.13763819935E+02 -0.94764818915E+01 -0.32810551604E+02  0.54367099076E+02  0.40000033964E+02 0.  0.
         12    1    3    3    0    0 -0.13763819935E+02  0.94764818915E+01  0.32810551604E+02  0.36820900924E+02  0.00000000000E+00 0. -1.
         11    1    4    4    0    0  0.23984175063E+02 -0.28946858164E+01 -0.24000152767E+02  0.34053299290E+02  0.51100000000E-03 0. -1.
        -11    1    4    4    0    0 -0.32549795929E+01 -0.52626748938E+01 -0.11230898619E+02  0.12822781416E+02  0.51100000000E-03 0.  1.
         12    1    4    4    0    0 -0.69653755352E+01 -0.13191211812E+01  0.24204997815E+01  0.74910183706E+01  0.00000000000E+00 0. -1.
</event>
<event>
 8    1  0.3011071E-007  0.9118800E+02  0.7816164E-02  0.1184000E+00
        -11   -1    0    0    0    0  0.00000000000E+00  0.00000000000E+00  0.45593999997E+02  0.45594000000E+02  0.51100000000E-03 0. -1.
         11   -1    0    0    0    0 -0.00000000000E+00 -0.00000000000E+00 -0.45593999997E+02  0.45594000000E+02  0.51100000000E-03 0.  1.
         23    2    1    2    0    0  0.00000000000E+00  0.00000000000E+00 -0.35527136788E-14  0.91188000000E+02  0.91188000000E+02 0.  0.
    9900012    2    3    3    0    0  0.20567439060E+02 -0.61722566435E+01  0.29910871819E+02  0.54367128819E+02  0.40000101769E+02 0.  0.
        -12    1    3    3    0    0 -0.20567439060E+02  0.61722566435E+01 -0.29910871819E+02  0.36820871181E+02  0.00000000000E+00 0.  1.
         11    1    4    4    0    0 -0.66339217173E+01  0.15975536763E+01  0.19519146103E+02  0.20677479536E+02  0.51100000000E-03 0. -1.
        -11    1    4    4    0    0  0.13058131318E+02  0.38010337052E+01  0.27107259582E+01  0.13867612853E+02  0.51100000000E-03 0.  1.
        -12    1    4    4    0    0  0.14143229459E+02 -0.11570844025E+02  0.76809997569E+01  0.19822036430E+02  0.00000000000E+00 0.  1.
</event>
<event>
 8    1  0.3011071E-007  0.9118800E+02  0.7816164E-02  0.1184000E+00
        -11   -1    0    0    0    0  0.00000000000E+00  0.00000000000E+00  0.45593999997E+02  0.45594000000E+02  0.51100000000E-03 0. -1.
         11   -1    0    0    0    0 -0.00000000000E+00 -0.00000000000E+00 -0.45593999997E+02  0.45594000000E+02  0.51100000000E-03 0.  1.
         23    2    1    2    0    0  0.00000000000E+00  0.00000000000E+00  0.00000000000E+00  0.91188000000E+02  0.91188000000E+02 0.  0.
    9900012    2    3    3    0    0  0.34629704263E+02  0.10888200383E+02  0.61653658152E+01  0.54367067630E+02  0.39999962276E+02 0.  0.
         12    1    3    3    0    0 -0.34629704263E+02 -0.10888200383E+02 -0.61653658152E+01  0.36820932370E+02  0.00000000000E+00 0. -1.
         11    1    4    4    0    0  0.17470304565E+02 -0.81933245174E+01 -0.36968196839E+00  0.19299709150E+02  0.51100000000E-03 0. -1.
        -11    1    4    4    0    0  0.11765578383E+02  0.21020070247E+02  0.12205681299E+02  0.27004644862E+02  0.51100000000E-03 0.  1.
         12    1    4    4    0    0  0.53938213147E+01 -0.19385453461E+01 -0.56706335152E+01  0.80627136187E+01  0.00000000000E+00 0. -1.
</event>
<event>
 8    1  0.3011071E-007  0.9118800E+02  0.7816164E-02  0.1184000E+00
        -11   -1    0    0    0    0  0.00000000000E+00  0.00000000000E+00  0.45593999997E+02  0.45594000000E+02  0.51100000000E-03 0.  1.
         11   -1    0    0    0    0 -0.00000000000E+00 -0.00000000000E+00 -0.45593999997E+02  0.45594000000E+02  0.51100000000E-03 0. -1.
         23    2    1    2    0    0  0.00000000000E+00  0.00000000000E+00  0.35527136788E-14  0.91188000000E+02  0.91188000000E+02 0.  0.
    9900012    2    3    3    0    0 -0.83393968457E+01  0.31586499587E+02  0.16986090069E+02  0.54367085404E+02  0.40000002794E+02 0.  0.
         12    1    3    3    0    0  0.83393968457E+01 -0.31586499587E+02 -0.16986090069E+02  0.36820914596E+02  0.00000000000E+00 0. -1.
         11    1    4    4    0    0 -0.35921534489E+00  0.16613780283E+01  0.75308435183E+01  0.77202860682E+01  0.51100000000E-03 0. -1.
        -11    1    4    4    0    0 -0.21680311556E+01  0.22355095104E+02  0.21626807140E+02  0.31179631549E+02  0.51100000000E-03 0.  1.
         12    1    4    4    0    0 -0.58121503452E+01  0.75700264542E+01 -0.12171560589E+02  0.15467167786E+02  0.00000000000E+00 0. -1.
</event>
<event>
 8    1  0.3011071E-007  0.9118800E+02  0.7816164E-02  0.1184000E+00
        -11   -1    0    0    0    0  0.00000000000E+00  0.00000000000E+00  0.45593999997E+02  0.45594000000E+02  0.51100000000E-03 0. -1.
         11   -1    0    0    0    0 -0.00000000000E+00 -0.00000000000E+00 -0.45593999997E+02  0.45594000000E+02  0.51100000000E-03 0.  1.
         23    2    1    2    0    0  0.00000000000E+00  0.71054273576E-14  0.00000000000E+00  0.91188000000E+02  0.91188000000E+02 0.  0.
    9900012    2    3    3    0    0 -0.23401063062E+02 -0.23717338640E+02  0.15673424627E+02  0.54367107234E+02  0.40000052561E+02 0.  0.
        -12    1    3    3    0    0  0.23401063062E+02  0.23717338640E+02 -0.15673424627E+02  0.36820892766E+02  0.00000000000E+00 0.  1.
         11    1    4    4    0    0 -0.18495397037E+02 -0.16912476845E+02  0.10569926114E+02  0.27199906671E+02  0.51100000000E-03 0. -1.
        -11    1    4    4    0    0 -0.53302118200E+01 -0.76066732316E+01 -0.90596799053E+01  0.12974992715E+02  0.51100000000E-03 0.  1.
         12    1    4    4    0    0  0.42454579559E+00  0.80181143720E+00  0.14163178417E+02  0.14192207848E+02  0.00000000000E+00 0. -1.
</event>
<event>
 8    1  0.3011071E-007  0.9118800E+02  0.7816164E-02  0.1184000E+00
        -11   -1    0    0    0    0  0.00000000000E+00  0.00000000000E+00  0.45593999997E+02  0.45594000000E+02  0.51100000000E-03 0.  1.
         11   -1    0    0    0    0 -0.00000000000E+00 -0.00000000000E+00 -0.45593999997E+02  0.45594000000E+02  0.51100000000E-03 0. -1.
         23    2    1    2    0    0  0.22204460493E-15  0.00000000000E+00 -0.35527136788E-14  0.91188000000E+02  0.91188000000E+02 0.  0.
    9900012    2    3    3    0    0 -0.19861129231E+01 -0.18448001269E+02  0.31804187253E+02  0.54367085805E+02  0.40000003709E+02 0.  0.
         12    1    3    3    0    0  0.19861129231E+01  0.18448001269E+02 -0.31804187253E+02  0.36820914195E+02  0.00000000000E+00 0. -1.
         11    1    4    4    0    0 -0.89490473002E+01  0.87075408414E+00  0.50769843093E+01  0.10325668511E+02  0.51100000000E-03 0. -1.
        -11    1    4    4    0    0 -0.88424254238E+01  0.12776937813E+01  0.83940011450E+01  0.12258884299E+02  0.51100000000E-03 0.  1.
        -12    1    4    4    0    0  0.15805359801E+02 -0.20596449134E+02  0.18333201799E+02  0.31782532995E+02  0.00000000000E+00 0.  1.
</event>
<event>
 8    1  0.3011071E-007  0.9118800E+02  0.7816164E-02  0.1184000E+00
        -11   -1    0    0    0    0  0.00000000000E+00  0.00000000000E+00  0.45593999997E+02  0.45594000000E+02  0.51100000000E-03 0. -1.
         11   -1    0    0    0    0 -0.00000000000E+00 -0.00000000000E+00 -0.45593999997E+02  0.45594000000E+02  0.51100000000E-03 0.  1.
         23    2    1    2    0    0 -0.53290705182E-14 -0.88817841970E-15  0.00000000000E+00  0.91188000000E+02  0.91188000000E+02 0.  0.
    9900012    2    3    3    0    0  0.15593277544E+02  0.50604607190E+01 -0.32969983030E+02  0.54367104462E+02  0.40000046242E+02 0.  0.
         12    1    3    3    0    0 -0.15593277544E+02 -0.50604607190E+01  0.32969983030E+02  0.36820895538E+02  0.00000000000E+00 0. -1.
         11    1    4    4    0    0  0.83968475012E+01 -0.38406213078E+01 -0.34981420020E+02  0.36179513082E+02  0.51100000000E-03 0. -1.
        -11    1    4    4    0    0  0.10040800048E+02  0.99246933294E+01 -0.68808928574E+00  0.14134732767E+02  0.51100000000E-03 0.  1.
         12    1    4    4    0    0 -0.28443700046E+01 -0.10236113027E+01  0.26995262757E+01  0.40528586128E+01  0.00000000000E+00 0. -1.
</event>
<event>
 8    1  0.3011071E-007  0.9118800E+02  0.7816164E-02  0.1184000E+00
        -11   -1    0    0    0    0  0.00000000000E+00  0.00000000000E+00  0.45593999997E+02  0.45594000000E+02  0.51100000000E-03 0.  1.
         11   -1    0    0    0    0 -0.00000000000E+00 -0.00000000000E+00 -0.45593999997E+02  0.45594000000E+02  0.51100000000E-03 0. -1.
         23    2    1    2    0    0  0.00000000000E+00  0.00000000000E+00  0.00000000000E+00  0.91188000000E+02  0.91188000000E+02 0.  0.
    9900012    2    3    3    0    0  0.29294293040E+02 -0.96786496035E+01 -0.20098456566E+02  0.54367084488E+02  0.40000000707E+02 0.  0.
        -12    1    3    3    0    0 -0.29294293040E+02  0.96786496035E+01  0.20098456566E+02  0.36820915512E+02  0.00000000000E+00 0.  1.
         11    1    4    4    0    0  0.24888196883E+02 -0.11874285164E+02  0.10056919266E+01  0.27594064738E+02  0.51100000000E-03 0. -1.
        -11    1    4    4    0    0 -0.58361386372E+01  0.21559065886E+01 -0.84437715875E+01  0.10488361469E+02  0.51100000000E-03 0.  1.
        -12    1    4    4    0    0  0.10242234793E+02  0.39728972298E-01 -0.12660376905E+02  0.16284658281E+02  0.00000000000E+00 0.  1.
</event>
<event>
 8    1  0.3011071E-007  0.9118800E+02  0.7816164E-02  0.1184000E+00
        -11   -1    0    0    0    0  0.00000000000E+00  0.00000000000E+00  0.45593999997E+02  0.45594000000E+02  0.51100000000E-03 0. -1.
         11   -1    0    0    0    0 -0.00000000000E+00 -0.00000000000E+00 -0.45593999997E+02  0.45594000000E+02  0.51100000000E-03 0.  1.
         23    2    1    2    0    0  0.00000000000E+00  0.17763568394E-14 -0.17763568394E-14  0.91188000000E+02  0.91188000000E+02 0.  0.
    9900012    2    3    3    0    0  0.32478223103E+02 -0.98270389118E+01  0.14295812717E+02  0.54367137286E+02  0.40000121072E+02 0.  0.
        -12    1    3    3    0    0 -0.32478223103E+02  0.98270389118E+01 -0.14295812717E+02  0.36820862714E+02  0.00000000000E+00 0.  1.
         11    1    4    4    0    0  0.69270967640E+01  0.11619499285E+00  0.16673010534E+02  0.18055122580E+02  0.51100000000E-03 0. -1.
        -11    1    4    4    0    0  0.19443864311E+02  0.49630070069E+01 -0.29741744614E+00  0.20069473219E+02  0.51100000000E-03 0.  1.
        -12    1    4    4    0    0  0.61072620285E+01 -0.14906240912E+02 -0.20797803699E+01  0.16242541488E+02  0.00000000000E+00 0.  1.
</event>
<event>
 8    1  0.3011071E-007  0.9118800E+02  0.7816164E-02  0.1184000E+00
        -11   -1    0    0    0    0  0.00000000000E+00  0.00000000000E+00  0.45593999997E+02  0.45594000000E+02  0.51100000000E-03 0.  1.
         11   -1    0    0    0    0 -0.00000000000E+00 -0.00000000000E+00 -0.45593999997E+02  0.45594000000E+02  0.51100000000E-03 0. -1.
         23    2    1    2    0    0  0.00000000000E+00  0.17763568394E-14  0.00000000000E+00  0.91188000000E+02  0.91188000000E+02 0.  0.
    9900012    2    3    3    0    0 -0.21024326146E+02 -0.11134290528E+02 -0.28103126676E+02  0.54367075997E+02  0.39999981350E+02 0.  0.
        -12    1    3    3    0    0  0.21024326146E+02  0.11134290528E+02  0.28103126676E+02  0.36820924003E+02  0.00000000000E+00 0.  1.
         11    1    4    4    0    0  0.50113371416E+01 -0.27973665582E+01  0.19725628520E+01  0.60687530905E+01  0.51100000000E-03 0.  1.
        -11    1    4    4    0    0 -0.25965959703E+02  0.19507987803E+01 -0.27113811113E+02  0.37592491704E+02  0.51100000000E-03 0. -1.
         12    1    4    4    0    0 -0.69703584674E-01 -0.10287722750E+02 -0.29618784148E+01  0.10705831202E+02  0.00000000000E+00 0. -1.
</event>
<event>
 8    1  0.3011071E-007  0.9118800E+02  0.7816164E-02  0.1184000E+00
        -11   -1    0    0    0    0  0.00000000000E+00  0.00000000000E+00  0.45593999997E+02  0.45594000000E+02  0.51100000000E-03 0.  1.
         11   -1    0    0    0    0 -0.00000000000E+00 -0.00000000000E+00 -0.45593999997E+02  0.45594000000E+02  0.51100000000E-03 0. -1.
         23    2    1    2    0    0  0.00000000000E+00  0.00000000000E+00  0.00000000000E+00  0.91188000000E+02  0.91188000000E+02 0.  0.
    9900012    2    3    3    0    0 -0.34028361803E+02 -0.12953829797E+02  0.54816959985E+01  0.54367080614E+02  0.39999991877E+02 0.  0.
        -12    1    3    3    0    0  0.34028361803E+02  0.12953829797E+02 -0.54816959985E+01  0.36820919386E+02  0.00000000000E+00 0.  1.
         11    1    4    4    0    0 -0.48850163519E+01 -0.14203508217E+01  0.67778398617E+01  0.84746619205E+01  0.51100000000E-03 0. -1.
        -11    1    4    4    0    0  0.55329998264E+01 -0.91550212338E+01 -0.29462763979E+01  0.11095451579E+02  0.51100000000E-03 0.  1.
        -12    1    4    4    0    0 -0.34676345277E+02 -0.23784577414E+01  0.16501325347E+01  0.34796967115E+02  0.00000000000E+00 0.  1.
</event>
<event>
 8    1  0.3011071E-007  0.9118800E+02  0.7816164E-02  0.1184000E+00
        -11   -1    0    0    0    0  0.00000000000E+00  0.00000000000E+00  0.45593999997E+02  0.45594000000E+02  0.51100000000E-03 0.  1.
         11   -1    0    0    0    0 -0.00000000000E+00 -0.00000000000E+00 -0.45593999997E+02  0.45594000000E+02  0.51100000000E-03 0. -1.
         23    2    1    2    0    0  0.00000000000E+00  0.00000000000E+00  0.00000000000E+00  0.91188000000E+02  0.91188000000E+02 0.  0.
    9900012    2    3    3    0    0 -0.10666141288E+02  0.21389682283E+02  0.28008803069E+02  0.54367107459E+02  0.40000053074E+02 0.  0.
         12    1    3    3    0    0  0.10666141288E+02 -0.21389682283E+02 -0.28008803069E+02  0.36820892541E+02  0.00000000000E+00 0. -1.
         11    1    4    4    0    0 -0.93532206580E+01  0.13295520112E+02  0.30995006717E+02  0.34999200468E+02  0.51100000000E-03 0.  1.
        -11    1    4    4    0    0  0.14354984498E+01  0.11605844755E+02  0.28368851022E+01  0.12033461913E+02  0.51100000000E-03 0. -1.
        -12    1    4    4    0    0 -0.27484190793E+01 -0.35116825836E+01 -0.58230887503E+01  0.73344450777E+01  0.00000000000E+00 0.  1.
</event>
<event>
 8    1  0.3011071E-007  0.9118800E+02  0.7816164E-02  0.1184000E+00
        -11   -1    0    0    0    0  0.00000000000E+00  0.00000000000E+00  0.45593999997E+02  0.45594000000E+02  0.51100000000E-03 0. -1.
         11   -1    0    0    0    0 -0.00000000000E+00 -0.00000000000E+00 -0.45593999997E+02  0.45594000000E+02  0.51100000000E-03 0.  1.
         23    2    1    2    0    0 -0.88817841970E-15  0.00000000000E+00  0.00000000000E+00  0.91188000000E+02  0.91188000000E+02 0.  0.
    9900012    2    3    3    0    0 -0.74693039491E+01  0.65891075705E+01 -0.35448169862E+02  0.54367087646E+02  0.40000007906E+02 0.  0.
         12    1    3    3    0    0  0.74693039491E+01 -0.65891075705E+01  0.35448169862E+02  0.36820912354E+02  0.00000000000E+00 0. -1.
         11    1    4    4    0    0 -0.32523568934E+01 -0.28116819620E+01 -0.45394549335E+01  0.62522021858E+01  0.51100000000E-03 0.  1.
        -11    1    4    4    0    0 -0.64853244453E+01 -0.81220834005E+00  0.65317134623E+01  0.92402595506E+01  0.51100000000E-03 0. -1.
        -12    1    4    4    0    0  0.22683773896E+01  0.10212997873E+02 -0.37440428390E+02  0.38874625909E+02  0.00000000000E+00 0.  1.
</event>
<event>
 8    1  0.3011071E-007  0.9118800E+02  0.7816164E-02  0.1184000E+00
        -11   -1    0    0    0    0  0.00000000000E+00  0.00000000000E+00  0.45593999997E+02  0.45594000000E+02  0.51100000000E-03 0. -1.
         11   -1    0    0    0    0 -0.00000000000E+00 -0.00000000000E+00 -0.45593999997E+02  0.45594000000E+02  0.51100000000E-03 0.  1.
         23    2    1    2    0    0 -0.53290705182E-14 -0.71054273576E-14  0.00000000000E+00  0.91188000000E+02  0.91188000000E+02 0.  0.
    9900012    2    3    3    0    0 -0.11054955438E+02 -0.35096389907E+02 -0.13460593243E+01  0.54367075243E+02  0.39999979632E+02 0.  0.
         12    1    3    3    0    0  0.11054955438E+02  0.35096389907E+02  0.13460593243E+01  0.36820924757E+02  0.00000000000E+00 0. -1.
         11    1    4    4    0    0 -0.22350126285E+02 -0.14078365139E+02 -0.10457477313E+02  0.28409282672E+02  0.51100000000E-03 0.  1.
        -11    1    4    4    0    0  0.74317980906E+01 -0.99564690292E+01  0.61967477348E+01  0.13883896468E+02  0.51100000000E-03 0. -1.
        -12    1    4    4    0    0  0.38633727563E+01 -0.11061555739E+02  0.29146702537E+01  0.12073896103E+02  0.00000000000E+00 0.  1.
</event>
<event>
 8    1  0.3011071E-007  0.9118800E+02  0.7816164E-02  0.1184000E+00
        -11   -1    0    0    0    0  0.00000000000E+00  0.00000000000E+00  0.45593999997E+02  0.45594000000E+02  0.51100000000E-03 0. -1.
         11   -1    0    0    0    0 -0.00000000000E+00 -0.00000000000E+00 -0.45593999997E+02  0.45594000000E+02  0.51100000000E-03 0.  1.
         23    2    1    2    0    0  0.22204460493E-15  0.00000000000E+00  0.00000000000E+00  0.91188000000E+02  0.91188000000E+02 0.  0.
    9900012    2    3    3    0    0 -0.11034725173E+01 -0.96413881621E+01  0.35519022510E+02  0.54367150235E+02  0.40000150591E+02 0.  0.
        -12    1    3    3    0    0  0.11034725173E+01  0.96413881621E+01 -0.35519022510E+02  0.36820849765E+02  0.00000000000E+00 0.  1.
         11    1    4    4    0    0 -0.11267463682E+01 -0.12501771205E+02  0.25567809617E+02  0.28482919961E+02  0.51100000000E-03 0. -1.
        -11    1    4    4    0    0 -0.31088247107E+01  0.11310096550E+02  0.11851448988E+02  0.16674529032E+02  0.51100000000E-03 0.  1.
         12    1    4    4    0    0  0.31320985616E+01 -0.84497135074E+01 -0.19002360950E+01  0.92097012424E+01  0.00000000000E+00 0. -1.
</event>
<event>
 8    1  0.3011071E-007  0.9118800E+02  0.7816164E-02  0.1184000E+00
        -11   -1    0    0    0    0  0.00000000000E+00  0.00000000000E+00  0.45593999997E+02  0.45594000000E+02  0.51100000000E-03 0. -1.
         11   -1    0    0    0    0 -0.00000000000E+00 -0.00000000000E+00 -0.45593999997E+02  0.45594000000E+02  0.51100000000E-03 0.  1.
         23    2    1    2    0    0 -0.17763568394E-14  0.71054273576E-14  0.17763568394E-14  0.91188000000E+02  0.91188000000E+02 0.  0.
    9900012    2    3    3    0    0 -0.14012919081E+02 -0.32284840374E+02  0.10821566821E+02  0.54367093879E+02  0.40000022116E+02 0.  0.
         12    1    3    3    0    0  0.14012919081E+02  0.32284840374E+02 -0.10821566821E+02  0.36820906121E+02  0.00000000000E+00 0. -1.
         11    1    4    4    0    0  0.10564090483E+02 -0.61343527800E+01 -0.23396730150E+01  0.12438020817E+02  0.51100000000E-03 0. -1.
        -11    1    4    4    0    0 -0.57370349965E+01 -0.99472075652E+01 -0.35075996210E+01  0.12006821572E+02  0.51100000000E-03 0.  1.
        -12    1    4    4    0    0 -0.18839974568E+02 -0.16203280028E+02  0.16668839457E+02  0.29922251490E+02  0.00000000000E+00 0.  1.
</event>
<event>
 8    1  0.3011071E-007  0.9118800E+02  0.7816164E-02  0.1184000E+00
        -11   -1    0    0    0    0  0.00000000000E+00  0.00000000000E+00  0.45593999997E+02  0.45594000000E+02  0.51100000000E-03 0. -1.
         11   -1    0    0    0    0 -0.00000000000E+00 -0.00000000000E+00 -0.45593999997E+02  0.45594000000E+02  0.51100000000E-03 0.  1.
         23    2    1    2    0    0  0.00000000000E+00  0.00000000000E+00 -0.88817841970E-15  0.91188000000E+02  0.91188000000E+02 0.  0.
    9900012    2    3    3    0    0 -0.34361774032E+02  0.10845228685E+02 -0.75783542243E+01  0.54367055517E+02  0.39999934662E+02 0.  0.
         12    1    3    3    0    0  0.34361774032E+02 -0.10845228685E+02  0.75783542243E+01  0.36820944483E+02  0.00000000000E+00 0. -1.
         11    1    4    4    0    0 -0.93287291568E+01  0.75362636164E+01  0.10539882149E+01  0.12038743639E+02  0.51100000000E-03 0. -1.
        -11    1    4    4    0    0 -0.18149735932E+02  0.15493276507E+02 -0.13614400204E+02  0.27473740635E+02  0.51100000000E-03 0.  1.
        -12    1    4    4    0    0 -0.68833089437E+01 -0.12184311438E+02  0.49820577649E+01  0.14854571243E+02  0.00000000000E+00 0.  1.
</event>
<event>
 8    1  0.3011071E-007  0.9118800E+02  0.7816164E-02  0.1184000E+00
        -11   -1    0    0    0    0  0.00000000000E+00  0.00000000000E+00  0.45593999997E+02  0.45594000000E+02  0.51100000000E-03 0.  1.
         11   -1    0    0    0    0 -0.00000000000E+00 -0.00000000000E+00 -0.45593999997E+02  0.45594000000E+02  0.51100000000E-03 0. -1.
         23    2    1    2    0    0  0.00000000000E+00  0.00000000000E+00 -0.71054273576E-14  0.91188000000E+02  0.91188000000E+02 0.  0.
    9900012    2    3    3    0    0 -0.16392555297E+02  0.29309513293E+01 -0.32840270249E+02  0.54366950383E+02  0.39999694987E+02 0.  0.
        -12    1    3    3    0    0  0.16392555297E+02 -0.29309513293E+01  0.32840270249E+02  0.36821049617E+02  0.00000000000E+00 0.  1.
         11    1    4    4    0    0  0.69877652186E+01 -0.78519311609E+00 -0.14682320864E+02  0.16279310096E+02  0.51100000000E-03 0. -1.
        -11    1    4    4    0    0  0.83698663942E+00  0.26131619364E+01  0.42608856324E+01  0.50679688805E+01  0.51100000000E-03 0.  1.
        -12    1    4    4    0    0 -0.24217307155E+02  0.11029825090E+01 -0.22418835018E+02  0.33019671407E+02  0.00000000000E+00 0.  1.
</event>
<event>
 8    1  0.3011071E-007  0.9118800E+02  0.7816164E-02  0.1184000E+00
        -11   -1    0    0    0    0  0.00000000000E+00  0.00000000000E+00  0.45593999997E+02  0.45594000000E+02  0.51100000000E-03 0.  1.
         11   -1    0    0    0    0 -0.00000000000E+00 -0.00000000000E+00 -0.45593999997E+02  0.45594000000E+02  0.51100000000E-03 0. -1.
         23    2    1    2    0    0  0.00000000000E+00 -0.44408920985E-15  0.17763568394E-14  0.91188000000E+02  0.91188000000E+02 0.  0.
    9900012    2    3    3    0    0 -0.35928539081E+02 -0.60271228854E+00  0.80350747595E+01  0.54367005867E+02  0.39999821474E+02 0.  0.
         12    1    3    3    0    0  0.35928539081E+02  0.60271228854E+00 -0.80350747595E+01  0.36820994133E+02  0.00000000000E+00 0. -1.
         11    1    4    4    0    0 -0.18812200342E+01  0.95920817042E+01 -0.26462074845E+01  0.10126669470E+02  0.51100000000E-03 0. -1.
        -11    1    4    4    0    0 -0.11657395251E+02  0.79068647425E+01  0.24751063701E+01  0.14301731570E+02  0.51100000000E-03 0.  1.
        -12    1    4    4    0    0 -0.22389923795E+02 -0.18101658735E+02  0.82061758738E+01  0.29938604827E+02  0.00000000000E+00 0.  1.
</event>
<event>
 8    1  0.3011071E-007  0.9118800E+02  0.7816164E-02  0.1184000E+00
        -11   -1    0    0    0    0  0.00000000000E+00  0.00000000000E+00  0.45593999997E+02  0.45594000000E+02  0.51100000000E-03 0.  1.
         11   -1    0    0    0    0 -0.00000000000E+00 -0.00000000000E+00 -0.45593999997E+02  0.45594000000E+02  0.51100000000E-03 0. -1.
         23    2    1    2    0    0  0.00000000000E+00 -0.17763568394E-14  0.00000000000E+00  0.91188000000E+02  0.91188000000E+02 0.  0.
    9900012    2    3    3    0    0 -0.34280070524E+02 -0.84031139947E+01 -0.10490172333E+02  0.54367091870E+02  0.40000017536E+02 0.  0.
         12    1    3    3    0    0  0.34280070524E+02  0.84031139947E+01  0.10490172333E+02  0.36820908130E+02  0.00000000000E+00 0. -1.
         11    1    4    4    0    0 -0.20825465656E+01  0.66440014109E+01  0.16305653890E+01  0.71511187023E+01  0.51100000000E-03 0. -1.
        -11    1    4    4    0    0 -0.31466042730E+02 -0.18485624081E+02 -0.20528062699E+01  0.36551937795E+02  0.51100000000E-03 0.  1.
        -12    1    4    4    0    0 -0.73148122846E+00  0.34385086754E+01 -0.10067931452E+02  0.10664035372E+02  0.00000000000E+00 0.  1.
</event>
<event>
 8    1  0.3011071E-007  0.9118800E+02  0.7816164E-02  0.1184000E+00
        -11   -1    0    0    0    0  0.00000000000E+00  0.00000000000E+00  0.45593999997E+02  0.45594000000E+02  0.51100000000E-03 0. -1.
         11   -1    0    0    0    0 -0.00000000000E+00 -0.00000000000E+00 -0.45593999997E+02  0.45594000000E+02  0.51100000000E-03 0.  1.
         23    2    1    2    0    0 -0.17763568394E-14  0.35527136788E-14  0.00000000000E+00  0.91188000000E+02  0.91188000000E+02 0.  0.
    9900012    2    3    3    0    0  0.15722375020E+02  0.24765609693E+02  0.22254251374E+02  0.54367079263E+02  0.39999988795E+02 0.  0.
        -12    1    3    3    0    0 -0.15722375020E+02 -0.24765609693E+02 -0.22254251374E+02  0.36820920737E+02  0.00000000000E+00 0.  1.
         11    1    4    4    0    0  0.17876854474E+01  0.17650398401E+02  0.10452914667E+02  0.20591158497E+02  0.51100000000E-03 0. -1.
        -11    1    4    4    0    0 -0.79858230949E+01  0.37843634845E+00  0.63366251941E+01  0.10201441255E+02  0.51100000000E-03 0.  1.
        -12    1    4    4    0    0  0.21920512668E+02  0.67367749438E+01  0.54647115122E+01  0.23574479510E+02  0.00000000000E+00 0.  1.
</event>
<event>
 8    1  0.3011071E-007  0.9118800E+02  0.7816164E-02  0.1184000E+00
        -11   -1    0    0    0    0  0.00000000000E+00  0.00000000000E+00  0.45593999997E+02  0.45594000000E+02  0.51100000000E-03 0. -1.
         11   -1    0    0    0    0 -0.00000000000E+00 -0.00000000000E+00 -0.45593999997E+02  0.45594000000E+02  0.51100000000E-03 0.  1.
         23    2    1    2    0    0  0.00000000000E+00  0.88817841970E-15  0.00000000000E+00  0.91188000000E+02  0.91188000000E+02 0.  0.
    9900012    2    3    3    0    0 -0.29957342266E+02  0.79896045402E+01  0.19862195677E+02  0.54367041926E+02  0.39999903679E+02 0.  0.
        -12    1    3    3    0    0  0.29957342266E+02 -0.79896045402E+01 -0.19862195677E+02  0.36820958074E+02  0.00000000000E+00 0.  1.
         11    1    4    4    0    0 -0.13280675722E+02  0.93207097531E+01  0.84706514503E+01  0.18303112145E+02  0.51100000000E-03 0. -1.
        -11    1    4    4    0    0  0.37916489017E+01 -0.58202605104E+01 -0.57292610470E+01  0.90042471206E+01  0.51100000000E-03 0.  1.
         12    1    4    4    0    0 -0.20468315446E+02  0.44891552974E+01  0.17120805274E+02  0.27059682661E+02  0.00000000000E+00 0. -1.
</event>
<event>
 8    1  0.3011071E-007  0.9118800E+02  0.7816164E-02  0.1184000E+00
        -11   -1    0    0    0    0  0.00000000000E+00  0.00000000000E+00  0.45593999997E+02  0.45594000000E+02  0.51100000000E-03 0.  1.
         11   -1    0    0    0    0 -0.00000000000E+00 -0.00000000000E+00 -0.45593999997E+02  0.45594000000E+02  0.51100000000E-03 0. -1.
         23    2    1    2    0    0  0.00000000000E+00  0.00000000000E+00  0.00000000000E+00  0.91188000000E+02  0.91188000000E+02 0.  0.
    9900012    2    3    3    0    0 -0.29328571766E+02 -0.16157931133E+02 -0.15314308326E+02  0.54367192026E+02  0.40000245862E+02 0.  0.
         12    1    3    3    0    0  0.29328571766E+02  0.16157931133E+02  0.15314308326E+02  0.36820807974E+02  0.00000000000E+00 0. -1.
         11    1    4    4    0    0 -0.38542117118E+01  0.19169968711E+01 -0.64670275065E+01  0.77686723418E+01  0.51100000000E-03 0. -1.
        -11    1    4    4    0    0 -0.37249167462E+01  0.87772123540E+01  0.31155048159E+01  0.10030993570E+02  0.51100000000E-03 0.  1.
        -12    1    4    4    0    0 -0.21749443308E+02 -0.26852140358E+02 -0.11962785636E+02  0.36567526115E+02  0.00000000000E+00 0.  1.
</event>
<event>
 8    1  0.3011071E-007  0.9118800E+02  0.7816164E-02  0.1184000E+00
        -11   -1    0    0    0    0  0.00000000000E+00  0.00000000000E+00  0.45593999997E+02  0.45594000000E+02  0.51100000000E-03 0. -1.
         11   -1    0    0    0    0 -0.00000000000E+00 -0.00000000000E+00 -0.45593999997E+02  0.45594000000E+02  0.51100000000E-03 0.  1.
         23    2    1    2    0    0 -0.88817841970E-15  0.00000000000E+00  0.00000000000E+00  0.91188000000E+02  0.91188000000E+02 0.  0.
    9900012    2    3    3    0    0 -0.79056738751E+01  0.14692929804E+01  0.35932212832E+02  0.54367049166E+02  0.39999920185E+02 0.  0.
        -12    1    3    3    0    0  0.79056738751E+01 -0.14692929804E+01 -0.35932212832E+02  0.36820950834E+02  0.00000000000E+00 0.  1.
         11    1    4    4    0    0  0.92497765668E+01 -0.96853123353E+00  0.16179638953E+02  0.18662184658E+02  0.51100000000E-03 0. -1.
        -11    1    4    4    0    0  0.54567979008E+01  0.19634305161E+01  0.88900519640E+01  0.10614364178E+02  0.51100000000E-03 0.  1.
         12    1    4    4    0    0 -0.22612248343E+02  0.47439369784E+00  0.10862521915E+02  0.25090500331E+02  0.00000000000E+00 0. -1.
</event>
<event>
 8    1  0.3011071E-007  0.9118800E+02  0.7816164E-02  0.1184000E+00
        -11   -1    0    0    0    0  0.00000000000E+00  0.00000000000E+00  0.45593999997E+02  0.45594000000E+02  0.51100000000E-03 0.  1.
         11   -1    0    0    0    0 -0.00000000000E+00 -0.00000000000E+00 -0.45593999997E+02  0.45594000000E+02  0.51100000000E-03 0. -1.
         23    2    1    2    0    0  0.00000000000E+00  0.00000000000E+00  0.00000000000E+00  0.91188000000E+02  0.91188000000E+02 0.  0.
    9900012    2    3    3    0    0 -0.21642193936E+02  0.29543543578E+01 -0.29642307820E+02  0.54367093154E+02  0.40000020464E+02 0.  0.
        -12    1    3    3    0    0  0.21642193936E+02 -0.29543543578E+01  0.29642307820E+02  0.36820906846E+02  0.00000000000E+00 0.  1.
         11    1    4    4    0    0  0.25428246367E+01  0.76316976685E+00  0.18290566271E+00  0.26611726680E+01  0.51100000000E-03 0. -1.
        -11    1    4    4    0    0  0.20501349466E+01 -0.10386290962E+02 -0.81215764639E+00  0.10617800787E+02  0.51100000000E-03 0.  1.
         12    1    4    4    0    0 -0.26235153519E+02  0.12577475553E+02 -0.29013055837E+02  0.41088119699E+02  0.00000000000E+00 0. -1.
</event>
<event>
 8    1  0.3011071E-007  0.9118800E+02  0.7816164E-02  0.1184000E+00
        -11   -1    0    0    0    0  0.00000000000E+00  0.00000000000E+00  0.45593999997E+02  0.45594000000E+02  0.51100000000E-03 0. -1.
         11   -1    0    0    0    0 -0.00000000000E+00 -0.00000000000E+00 -0.45593999997E+02  0.45594000000E+02  0.51100000000E-03 0.  1.
         23    2    1    2    0    0  0.71054273576E-14 -0.26645352591E-14  0.44408920985E-15  0.91188000000E+02  0.91188000000E+02 0.  0.
    9900012    2    3    3    0    0  0.36265164174E+02 -0.50505091620E+01  0.38871867874E+01  0.54367082080E+02  0.39999995218E+02 0.  0.
        -12    1    3    3    0    0 -0.36265164174E+02  0.50505091620E+01 -0.38871867874E+01  0.36820917920E+02  0.00000000000E+00 0.  1.
         11    1    4    4    0    0  0.27843304811E+02 -0.18235233071E+02  0.10947407260E+02  0.35037395364E+02  0.51100000000E-03 0. -1.
        -11    1    4    4    0    0  0.79874516359E+00  0.87843834133E+01 -0.54876130607E+01  0.10388324367E+02  0.51100000000E-03 0.  1.
        -12    1    4    4    0    0  0.76231141997E+01  0.44003404958E+01 -0.15726074117E+01  0.89413623488E+01  0.00000000000E+00 0.  1.
</event>
<event>
 8    1  0.3011071E-007  0.9118800E+02  0.7816164E-02  0.1184000E+00
        -11   -1    0    0    0    0  0.00000000000E+00  0.00000000000E+00  0.45593999997E+02  0.45594000000E+02  0.51100000000E-03 0.  1.
         11   -1    0    0    0    0 -0.00000000000E+00 -0.00000000000E+00 -0.45593999997E+02  0.45594000000E+02  0.51100000000E-03 0. -1.
         23    2    1    2    0    0  0.88817841970E-15  0.00000000000E+00  0.71054273576E-14  0.91188000000E+02  0.91188000000E+02 0.  0.
    9900012    2    3    3    0    0 -0.13263937729E+01  0.19571678864E+01  0.36744916496E+02  0.54367099484E+02  0.40000034893E+02 0.  0.
         12    1    3    3    0    0  0.13263937729E+01 -0.19571678864E+01 -0.36744916496E+02  0.36820900516E+02  0.00000000000E+00 0. -1.
         11    1    4    4    0    0  0.10837120903E+02  0.20728480729E+01  0.61460169866E+01  0.12629861981E+02  0.51100000000E-03 0. -1.
        -11    1    4    4    0    0  0.30732229911E+01  0.77318593328E+01  0.19807258401E+02  0.21483803991E+02  0.51100000000E-03 0.  1.
        -12    1    4    4    0    0 -0.15236737666E+02 -0.78475395193E+01  0.10791641108E+02  0.20253433512E+02  0.00000000000E+00 0.  1.
</event>
<event>
 8    1  0.3011071E-007  0.9118800E+02  0.7816164E-02  0.1184000E+00
        -11   -1    0    0    0    0  0.00000000000E+00  0.00000000000E+00  0.45593999997E+02  0.45594000000E+02  0.51100000000E-03 0.  1.
         11   -1    0    0    0    0 -0.00000000000E+00 -0.00000000000E+00 -0.45593999997E+02  0.45594000000E+02  0.51100000000E-03 0. -1.
         23    2    1    2    0    0  0.35527136788E-14  0.27755575616E-15  0.00000000000E+00  0.91188000000E+02  0.91188000000E+02 0.  0.
    9900012    2    3    3    0    0 -0.30992703530E+02 -0.22344415050E+00  0.19879193185E+02  0.54367083104E+02  0.39999997552E+02 0.  0.
         12    1    3    3    0    0  0.30992703530E+02  0.22344415050E+00 -0.19879193185E+02  0.36820916896E+02  0.00000000000E+00 0. -1.
         11    1    4    4    0    0 -0.10082035887E+02  0.97268716464E+01  0.18740190158E+02  0.23397739358E+02  0.51100000000E-03 0.  1.
        -11    1    4    4    0    0 -0.63785899831E+00 -0.25807965551E+01 -0.73288068018E+01  0.77960749329E+01  0.51100000000E-03 0. -1.
         12    1    4    4    0    0 -0.20272808644E+02 -0.73695192419E+01  0.84678098289E+01  0.23173268813E+02  0.00000000000E+00 0. -1.
</event>
<event>
 8    1  0.3011071E-007  0.9118800E+02  0.7816164E-02  0.1184000E+00
        -11   -1    0    0    0    0  0.00000000000E+00  0.00000000000E+00  0.45593999997E+02  0.45594000000E+02  0.51100000000E-03 0. -1.
         11   -1    0    0    0    0 -0.00000000000E+00 -0.00000000000E+00 -0.45593999997E+02  0.45594000000E+02  0.51100000000E-03 0.  1.
         23    2    1    2    0    0  0.00000000000E+00  0.35527136788E-14 -0.44408920985E-15  0.91188000000E+02  0.91188000000E+02 0.  0.
    9900012    2    3    3    0    0  0.32182993627E+02  0.17686915227E+02  0.26845316205E+01  0.54367098883E+02  0.40000033524E+02 0.  0.
        -12    1    3    3    0    0 -0.32182993627E+02 -0.17686915227E+02 -0.26845316205E+01  0.36820901117E+02  0.00000000000E+00 0.  1.
         11    1    4    4    0    0  0.38285416704E+01  0.24153965067E+02  0.44450484901E+00  0.24459545061E+02  0.51100000000E-03 0. -1.
        -11    1    4    4    0    0  0.71024814829E+01 -0.28295447119E+01 -0.20685355393E+01  0.79202529019E+01  0.51100000000E-03 0.  1.
         12    1    4    4    0    0  0.21251970474E+02 -0.36375051280E+01  0.43085623108E+01  0.21987300920E+02  0.00000000000E+00 0. -1.
</event>
<event>
 8    1  0.3011071E-007  0.9118800E+02  0.7816164E-02  0.1184000E+00
        -11   -1    0    0    0    0  0.00000000000E+00  0.00000000000E+00  0.45593999997E+02  0.45594000000E+02  0.51100000000E-03 0.  1.
         11   -1    0    0    0    0 -0.00000000000E+00 -0.00000000000E+00 -0.45593999997E+02  0.45594000000E+02  0.51100000000E-03 0. -1.
         23    2    1    2    0    0  0.00000000000E+00  0.88817841970E-15  0.00000000000E+00  0.91188000000E+02  0.91188000000E+02 0.  0.
    9900012    2    3    3    0    0 -0.31023858196E+02  0.97894524004E+00 -0.19807643884E+02  0.54367070253E+02  0.39999968256E+02 0.  0.
        -12    1    3    3    0    0  0.31023858196E+02 -0.97894524004E+00  0.19807643884E+02  0.36820929747E+02  0.00000000000E+00 0.  1.
         11    1    4    4    0    0 -0.12181528082E+02  0.12963477726E+02 -0.17836533889E+02  0.25190937311E+02  0.51100000000E-03 0. -1.
        -11    1    4    4    0    0 -0.13048389362E+02  0.23990257439E+01 -0.31132220011E+01  0.13627470086E+02  0.51100000000E-03 0.  1.
         12    1    4    4    0    0 -0.57939407520E+01 -0.14383558229E+02  0.11421120062E+01  0.15548662856E+02  0.00000000000E+00 0. -1.
</event>
<event>
 8    1  0.3011071E-007  0.9118800E+02  0.7816164E-02  0.1184000E+00
        -11   -1    0    0    0    0  0.00000000000E+00  0.00000000000E+00  0.45593999997E+02  0.45594000000E+02  0.51100000000E-03 0. -1.
         11   -1    0    0    0    0 -0.00000000000E+00 -0.00000000000E+00 -0.45593999997E+02  0.45594000000E+02  0.51100000000E-03 0.  1.
         23    2    1    2    0    0 -0.17763568394E-14  0.71054273576E-14  0.17763568394E-14  0.91188000000E+02  0.91188000000E+02 0.  0.
    9900012    2    3    3    0    0  0.12464656713E+02 -0.32365419816E+02 -0.12364830547E+02  0.54367121394E+02  0.40000084842E+02 0.  0.
         12    1    3    3    0    0 -0.12464656713E+02  0.32365419816E+02  0.12364830547E+02  0.36820878606E+02  0.00000000000E+00 0. -1.
         11    1    4    4    0    0  0.11358486775E+02 -0.32163607790E+02 -0.39228816672E+01  0.34335140727E+02  0.51100000000E-03 0. -1.
        -11    1    4    4    0    0 -0.80111223169E+01 -0.31140800901E+01 -0.40221731510E+01  0.94896497670E+01  0.51100000000E-03 0.  1.
         12    1    4    4    0    0  0.91172922543E+01  0.29122680634E+01 -0.44197757287E+01  0.10542330901E+02  0.00000000000E+00 0. -1.
</event>
<event>
 8    1  0.3011071E-007  0.9118800E+02  0.7816164E-02  0.1184000E+00
        -11   -1    0    0    0    0  0.00000000000E+00  0.00000000000E+00  0.45593999997E+02  0.45594000000E+02  0.51100000000E-03 0. -1.
         11   -1    0    0    0    0 -0.00000000000E+00 -0.00000000000E+00 -0.45593999997E+02  0.45594000000E+02  0.51100000000E-03 0.  1.
         23    2    1    2    0    0  0.13322676296E-14  0.00000000000E+00  0.00000000000E+00  0.91188000000E+02  0.91188000000E+02 0.  0.
    9900012    2    3    3    0    0  0.12509280266E+01 -0.17296633439E+02  0.32481441527E+02  0.54367049538E+02  0.39999921031E+02 0.  0.
        -12    1    3    3    0    0 -0.12509280266E+01  0.17296633439E+02 -0.32481441527E+02  0.36820950462E+02  0.00000000000E+00 0.  1.
         11    1    4    4    0    0  0.12569566035E+02 -0.71453482961E+01  0.24445377441E+02  0.28401170242E+02  0.51100000000E-03 0. -1.
        -11    1    4    4    0    0 -0.33659869958E+01  0.50931642912E+01 -0.15246230164E+01  0.62924293048E+01  0.51100000000E-03 0.  1.
        -12    1    4    4    0    0 -0.79526510130E+01 -0.15244449434E+02  0.95606871024E+01  0.19673449991E+02  0.00000000000E+00 0.  1.
</event>
<event>
 8    1  0.3011071E-007  0.9118800E+02  0.7816164E-02  0.1184000E+00
        -11   -1    0    0    0    0  0.00000000000E+00  0.00000000000E+00  0.45593999997E+02  0.45594000000E+02  0.51100000000E-03 0. -1.
         11   -1    0    0    0    0 -0.00000000000E+00 -0.00000000000E+00 -0.45593999997E+02  0.45594000000E+02  0.51100000000E-03 0.  1.
         23    2    1    2    0    0  0.00000000000E+00  0.35527136788E-14  0.22204460493E-15  0.91188000000E+02  0.91188000000E+02 0.  0.
    9900012    2    3    3    0    0  0.33384475735E+02  0.15427802884E+02  0.17997829317E+01  0.54367088271E+02  0.40000009331E+02 0.  0.
         12    1    3    3    0    0 -0.33384475735E+02 -0.15427802884E+02 -0.17997829317E+01  0.36820911729E+02  0.00000000000E+00 0. -1.
         11    1    4    4    0    0  0.51220723151E+01  0.89869129695E+01 -0.11886096552E+02  0.15756888050E+02  0.51100000000E-03 0. -1.
        -11    1    4    4    0    0  0.15883686076E+02  0.14356038915E+02  0.80348251041E+01  0.22868007158E+02  0.51100000000E-03 0.  1.
        -12    1    4    4    0    0  0.12378717345E+02 -0.79151490007E+01  0.56510543797E+01  0.15742193062E+02  0.00000000000E+00 0.  1.
</event>
<event>
 8    1  0.3011071E-007  0.9118800E+02  0.7816164E-02  0.1184000E+00
        -11   -1    0    0    0    0  0.00000000000E+00  0.00000000000E+00  0.45593999997E+02  0.45594000000E+02  0.51100000000E-03 0.  1.
         11   -1    0    0    0    0 -0.00000000000E+00 -0.00000000000E+00 -0.45593999997E+02  0.45594000000E+02  0.51100000000E-03 0. -1.
         23    2    1    2    0    0  0.35527136788E-14 -0.35527136788E-14  0.00000000000E+00  0.91188000000E+02  0.91188000000E+02 0.  0.
    9900012    2    3    3    0    0  0.16050295881E+02 -0.20485669614E+02 -0.26048132605E+02  0.54367083802E+02  0.39999999144E+02 0.  0.
        -12    1    3    3    0    0 -0.16050295881E+02  0.20485669614E+02  0.26048132605E+02  0.36820916198E+02  0.00000000000E+00 0.  1.
         11    1    4    4    0    0 -0.50399766960E+01  0.53009040888E+00  0.24441170279E+01  0.56263726543E+01  0.51100000000E-03 0. -1.
        -11    1    4    4    0    0  0.83253772400E+01 -0.35280458648E+01 -0.25285498371E+02  0.26853592720E+02  0.51100000000E-03 0.  1.
         12    1    4    4    0    0  0.12764895337E+02 -0.17487714158E+02 -0.32067512618E+01  0.21887118428E+02  0.00000000000E+00 0. -1.
</event>
<event>
 8    1  0.3011071E-007  0.9118800E+02  0.7816164E-02  0.1184000E+00
        -11   -1    0    0    0    0  0.00000000000E+00  0.00000000000E+00  0.45593999997E+02  0.45594000000E+02  0.51100000000E-03 0.  1.
         11   -1    0    0    0    0 -0.00000000000E+00 -0.00000000000E+00 -0.45593999997E+02  0.45594000000E+02  0.51100000000E-03 0. -1.
         23    2    1    2    0    0  0.00000000000E+00 -0.33306690739E-15  0.88817841970E-15  0.91188000000E+02  0.91188000000E+02 0.  0.
    9900012    2    3    3    0    0  0.35938530317E+02  0.87025767705E+00 -0.79651887362E+01  0.54367088260E+02  0.40000009307E+02 0.  0.
         12    1    3    3    0    0 -0.35938530317E+02 -0.87025767705E+00  0.79651887362E+01  0.36820911740E+02  0.00000000000E+00 0. -1.
         11    1    4    4    0    0  0.13121449999E+02  0.40259365331E+01 -0.11752182325E+02  0.18069156170E+02  0.51100000000E-03 0. -1.
        -11    1    4    4    0    0  0.12858232319E+02 -0.10815733944E+01  0.15901874080E+02  0.20478611742E+02  0.51100000000E-03 0.  1.
        -12    1    4    4    0    0  0.99588479990E+01 -0.20741054616E+01 -0.12114880492E+02  0.15819320348E+02  0.00000000000E+00 0.  1.
</event>
<event>
 8    1  0.3011071E-007  0.9118800E+02  0.7816164E-02  0.1184000E+00
        -11   -1    0    0    0    0  0.00000000000E+00  0.00000000000E+00  0.45593999997E+02  0.45594000000E+02  0.51100000000E-03 0. -1.
         11   -1    0    0    0    0 -0.00000000000E+00 -0.00000000000E+00 -0.45593999997E+02  0.45594000000E+02  0.51100000000E-03 0.  1.
         23    2    1    2    0    0  0.53290705182E-14 -0.44408920985E-15  0.00000000000E+00  0.91188000000E+02  0.91188000000E+02 0.  0.
    9900012    2    3    3    0    0 -0.27628797396E+01  0.56822591583E+00  0.36712682136E+02  0.54367117137E+02  0.40000075138E+02 0.  0.
        -12    1    3    3    0    0  0.27628797396E+01 -0.56822591583E+00 -0.36712682136E+02  0.36820882863E+02  0.00000000000E+00 0.  1.
         11    1    4    4    0    0 -0.61619531745E+01  0.10238808196E+02  0.25188961026E+02  0.27879860438E+02  0.51100000000E-03 0. -1.
        -11    1    4    4    0    0 -0.69408073953E+01 -0.47482675121E+01 -0.21218320798E+01  0.86731207360E+01  0.51100000000E-03 0.  1.
         12    1    4    4    0    0  0.10339880830E+02 -0.49223147685E+01  0.13645553190E+02  0.17814135963E+02  0.00000000000E+00 0. -1.
</event>
<event>
 8    1  0.3011071E-007  0.9118800E+02  0.7816164E-02  0.1184000E+00
        -11   -1    0    0    0    0  0.00000000000E+00  0.00000000000E+00  0.45593999997E+02  0.45594000000E+02  0.51100000000E-03 0.  1.
         11   -1    0    0    0    0 -0.00000000000E+00 -0.00000000000E+00 -0.45593999997E+02  0.45594000000E+02  0.51100000000E-03 0. -1.
         23    2    1    2    0    0  0.00000000000E+00  0.00000000000E+00  0.00000000000E+00  0.91188000000E+02  0.91188000000E+02 0.  0.
    9900012    2    3    3    0    0  0.62035675808E+01  0.29392703225E+02 -0.21292393284E+02  0.54367064849E+02  0.39999955937E+02 0.  0.
        -12    1    3    3    0    0 -0.62035675808E+01 -0.29392703225E+02  0.21292393284E+02  0.36820935151E+02  0.00000000000E+00 0.  1.
         11    1    4    4    0    0  0.89265175405E+01  0.24418799268E+02 -0.10541913786E+02  0.28055167432E+02  0.51100000000E-03 0. -1.
        -11    1    4    4    0    0 -0.11384558959E+02  0.82162830329E+01 -0.95633152623E+01  0.16987421483E+02  0.51100000000E-03 0.  1.
        -12    1    4    4    0    0  0.86616089993E+01 -0.32423790763E+01 -0.11871642361E+01  0.93244759346E+01  0.00000000000E+00 0.  1.
</event>
<event>
 8    1  0.3011071E-007  0.9118800E+02  0.7816164E-02  0.1184000E+00
        -11   -1    0    0    0    0  0.00000000000E+00  0.00000000000E+00  0.45593999997E+02  0.45594000000E+02  0.51100000000E-03 0. -1.
         11   -1    0    0    0    0 -0.00000000000E+00 -0.00000000000E+00 -0.45593999997E+02  0.45594000000E+02  0.51100000000E-03 0.  1.
         23    2    1    2    0    0  0.00000000000E+00 -0.35527136788E-14  0.00000000000E+00  0.91188000000E+02  0.91188000000E+02 0.  0.
    9900012    2    3    3    0    0  0.97248992504E+01 -0.30127484517E+02 -0.18802679028E+02  0.54367085733E+02  0.40000003547E+02 0.  0.
         12    1    3    3    0    0 -0.97248992504E+01  0.30127484517E+02  0.18802679028E+02  0.36820914267E+02  0.00000000000E+00 0. -1.
         11    1    4    4    0    0  0.10325945016E+02 -0.16709134700E+02  0.73704579665E+00  0.19656132877E+02  0.51100000000E-03 0.  1.
        -11    1    4    4    0    0  0.18458329696E+01 -0.18505914086E+02 -0.21777682636E+02  0.28638146183E+02  0.51100000000E-03 0. -1.
         12    1    4    4    0    0 -0.24468787347E+01  0.50875642692E+01  0.22379578112E+01  0.60728066740E+01  0.00000000000E+00 0. -1.
</event>
<event>
 8    1  0.3011071E-007  0.9118800E+02  0.7816164E-02  0.1184000E+00
        -11   -1    0    0    0    0  0.00000000000E+00  0.00000000000E+00  0.45593999997E+02  0.45594000000E+02  0.51100000000E-03 0.  1.
         11   -1    0    0    0    0 -0.00000000000E+00 -0.00000000000E+00 -0.45593999997E+02  0.45594000000E+02  0.51100000000E-03 0. -1.
         23    2    1    2    0    0 -0.35527136788E-14  0.00000000000E+00  0.00000000000E+00  0.91188000000E+02  0.91188000000E+02 0.  0.
    9900012    2    3    3    0    0  0.19357122071E+02 -0.22049882772E+02  0.22245955625E+02  0.54367108555E+02  0.40000055573E+02 0.  0.
         12    1    3    3    0    0 -0.19357122071E+02  0.22049882772E+02 -0.22245955625E+02  0.36820891445E+02  0.00000000000E+00 0. -1.
         11    1    4    4    0    0  0.13375933947E+02 -0.22490412163E+02  0.29769829468E+02  0.39635552160E+02  0.51100000000E-03 0. -1.
        -11    1    4    4    0    0  0.83172454163E+01 -0.14470420160E+01 -0.23735336776E+01  0.87695019409E+01  0.51100000000E-03 0.  1.
         12    1    4    4    0    0 -0.23360572932E+01  0.18875714074E+01 -0.51503401653E+01  0.59620544540E+01  0.00000000000E+00 0. -1.
</event>
<event>
 8    1  0.3011071E-007  0.9118800E+02  0.7816164E-02  0.1184000E+00
        -11   -1    0    0    0    0  0.00000000000E+00  0.00000000000E+00  0.45593999997E+02  0.45594000000E+02  0.51100000000E-03 0.  1.
         11   -1    0    0    0    0 -0.00000000000E+00 -0.00000000000E+00 -0.45593999997E+02  0.45594000000E+02  0.51100000000E-03 0. -1.
         23    2    1    2    0    0 -0.17763568394E-14 -0.13322676296E-14  0.00000000000E+00  0.91188000000E+02  0.91188000000E+02 0.  0.
    9900012    2    3    3    0    0 -0.14031388038E+02 -0.33201786491E+01  0.33880327266E+02  0.54367081867E+02  0.39999994731E+02 0.  0.
         12    1    3    3    0    0  0.14031388038E+02  0.33201786491E+01 -0.33880327266E+02  0.36820918133E+02  0.00000000000E+00 0. -1.
         11    1    4    4    0    0 -0.54893789295E+01  0.83875869936E+01  0.26810850882E-01  0.10024251378E+02  0.51100000000E-03 0. -1.
        -11    1    4    4    0    0  0.18579726403E+01  0.69009276956E+01  0.64743802316E+01  0.96432600834E+01  0.51100000000E-03 0.  1.
         12    1    4    4    0    0 -0.10399981748E+02 -0.18608693338E+02  0.27379136184E+02  0.34699570405E+02  0.00000000000E+00 0. -1.
</event>
<event>
 8    1  0.3011071E-007  0.9118800E+02  0.7816164E-02  0.1184000E+00
        -11   -1    0    0    0    0  0.00000000000E+00  0.00000000000E+00  0.45593999997E+02  0.45594000000E+02  0.51100000000E-03 0.  1.
         11   -1    0    0    0    0 -0.00000000000E+00 -0.00000000000E+00 -0.45593999997E+02  0.45594000000E+02  0.51100000000E-03 0. -1.
         23    2    1    2    0    0  0.66613381478E-15 -0.71054273576E-14 -0.17763568394E-14  0.91188000000E+02  0.91188000000E+02 0.  0.
    9900012    2    3    3    0    0 -0.12609080560E+01 -0.34612579944E+02  0.12496370188E+02  0.54367084104E+02  0.39999999832E+02 0.  0.
         12    1    3    3    0    0  0.12609080560E+01  0.34612579944E+02 -0.12496370188E+02  0.36820915896E+02  0.00000000000E+00 0. -1.
         11    1    4    4    0    0 -0.85874665236E+01 -0.19227128179E+02  0.22841580120E+02  0.31067101924E+02  0.51100000000E-03 0. -1.
        -11    1    4    4    0    0  0.42547170500E+01 -0.73503936255E+01  0.15368366862E+01  0.86309194694E+01  0.51100000000E-03 0.  1.
         12    1    4    4    0    0  0.30718414176E+01 -0.80350581398E+01 -0.11882046618E+02  0.14669062711E+02  0.00000000000E+00 0. -1.
</event>
<event>
 8    1  0.3011071E-007  0.9118800E+02  0.7816164E-02  0.1184000E+00
        -11   -1    0    0    0    0  0.00000000000E+00  0.00000000000E+00  0.45593999997E+02  0.45594000000E+02  0.51100000000E-03 0.  1.
         11   -1    0    0    0    0 -0.00000000000E+00 -0.00000000000E+00 -0.45593999997E+02  0.45594000000E+02  0.51100000000E-03 0. -1.
         23    2    1    2    0    0  0.00000000000E+00  0.44408920985E-15  0.00000000000E+00  0.91188000000E+02  0.91188000000E+02 0.  0.
    9900012    2    3    3    0    0  0.23910638534E+02  0.92130308252E+00  0.27985921507E+02  0.54367092392E+02  0.40000018725E+02 0.  0.
         12    1    3    3    0    0 -0.23910638534E+02 -0.92130308252E+00 -0.27985921507E+02  0.36820907608E+02  0.00000000000E+00 0. -1.
         11    1    4    4    0    0  0.17162915573E+02  0.40681453824E+01  0.21401722332E+02  0.27733539205E+02  0.51100000000E-03 0. -1.
        -11    1    4    4    0    0 -0.30143722997E+01  0.52206375938E+01  0.11406510951E+02  0.12901549891E+02  0.51100000000E-03 0.  1.
         12    1    4    4    0    0  0.97620952614E+01 -0.83674798937E+01 -0.48223117754E+01  0.13732003296E+02  0.00000000000E+00 0. -1.
</event>
<event>
 8    1  0.3011071E-007  0.9118800E+02  0.7816164E-02  0.1184000E+00
        -11   -1    0    0    0    0  0.00000000000E+00  0.00000000000E+00  0.45593999997E+02  0.45594000000E+02  0.51100000000E-03 0.  1.
         11   -1    0    0    0    0 -0.00000000000E+00 -0.00000000000E+00 -0.45593999997E+02  0.45594000000E+02  0.51100000000E-03 0. -1.
         23    2    1    2    0    0 -0.44408920985E-15 -0.17763568394E-14  0.00000000000E+00  0.91188000000E+02  0.91188000000E+02 0.  0.
    9900012    2    3    3    0    0  0.28735272980E+01  0.14752281247E+02  0.33613889579E+02  0.54367074784E+02  0.39999978585E+02 0.  0.
         12    1    3    3    0    0 -0.28735272980E+01 -0.14752281247E+02 -0.33613889579E+02  0.36820925216E+02  0.00000000000E+00 0. -1.
         11    1    4    4    0    0 -0.48461013318E+01 -0.37926810994E+01  0.16321159670E+02  0.17442745807E+02  0.51100000000E-03 0.  1.
        -11    1    4    4    0    0  0.96824555899E+00 -0.57812677270E+01  0.82238697191E+01  0.10099138053E+02  0.51100000000E-03 0. -1.
         12    1    4    4    0    0  0.67513830708E+01  0.24326230074E+02  0.90688601895E+01  0.26825190924E+02  0.00000000000E+00 0. -1.
</event>
<event>
 8    1  0.3011071E-007  0.9118800E+02  0.7816164E-02  0.1184000E+00
        -11   -1    0    0    0    0  0.00000000000E+00  0.00000000000E+00  0.45593999997E+02  0.45594000000E+02  0.51100000000E-03 0.  1.
         11   -1    0    0    0    0 -0.00000000000E+00 -0.00000000000E+00 -0.45593999997E+02  0.45594000000E+02  0.51100000000E-03 0. -1.
         23    2    1    2    0    0  0.00000000000E+00 -0.35527136788E-14  0.00000000000E+00  0.91188000000E+02  0.91188000000E+02 0.  0.
    9900012    2    3    3    0    0  0.26713877296E+02 -0.20018495522E+02 -0.15537328017E+02  0.54367082507E+02  0.39999996190E+02 0.  0.
        -12    1    3    3    0    0 -0.26713877296E+02  0.20018495522E+02  0.15537328017E+02  0.36820917493E+02  0.00000000000E+00 0.  1.
         11    1    4    4    0    0 -0.14479444344E+01 -0.95706526970E+00  0.10191177124E+01  0.20127389767E+01  0.51100000000E-03 0.  1.
        -11    1    4    4    0    0  0.20346230113E+02 -0.27107167689E+02 -0.21456204178E+02  0.40114041406E+02  0.51100000000E-03 0. -1.
         12    1    4    4    0    0  0.78155916173E+01  0.80457374364E+01  0.48997584491E+01  0.12240302124E+02  0.00000000000E+00 0. -1.
</event>
<event>
 8    1  0.3011071E-007  0.9118800E+02  0.7816164E-02  0.1184000E+00
        -11   -1    0    0    0    0  0.00000000000E+00  0.00000000000E+00  0.45593999997E+02  0.45594000000E+02  0.51100000000E-03 0.  1.
         11   -1    0    0    0    0 -0.00000000000E+00 -0.00000000000E+00 -0.45593999997E+02  0.45594000000E+02  0.51100000000E-03 0. -1.
         23    2    1    2    0    0  0.00000000000E+00  0.00000000000E+00  0.00000000000E+00  0.91188000000E+02  0.91188000000E+02 0.  0.
    9900012    2    3    3    0    0 -0.32956738496E+02  0.15231035345E+02  0.61358523437E+01  0.54367085644E+02  0.40000003344E+02 0.  0.
         12    1    3    3    0    0  0.32956738496E+02 -0.15231035345E+02 -0.61358523437E+01  0.36820914356E+02  0.00000000000E+00 0. -1.
         11    1    4    4    0    0 -0.12315847383E+02  0.14112828437E+01  0.84046800981E+01  0.14976997824E+02  0.51100000000E-03 0. -1.
        -11    1    4    4    0    0  0.25177246899E+01 -0.60920224784E+01  0.46594911159E+01  0.80723313368E+01  0.51100000000E-03 0.  1.
         12    1    4    4    0    0 -0.23158615804E+02  0.19911774979E+02 -0.69283188703E+01  0.31317756483E+02  0.00000000000E+00 0. -1.
</event>
<event>
 8    1  0.3011071E-007  0.9118800E+02  0.7816164E-02  0.1184000E+00
        -11   -1    0    0    0    0  0.00000000000E+00  0.00000000000E+00  0.45593999997E+02  0.45594000000E+02  0.51100000000E-03 0. -1.
         11   -1    0    0    0    0 -0.00000000000E+00 -0.00000000000E+00 -0.45593999997E+02  0.45594000000E+02  0.51100000000E-03 0.  1.
         23    2    1    2    0    0 -0.35527136788E-14  0.00000000000E+00 -0.35527136788E-14  0.91188000000E+02  0.91188000000E+02 0.  0.
    9900012    2    3    3    0    0 -0.24032795722E+02 -0.81034762614E+01 -0.26693421264E+02  0.54367077462E+02  0.39999984691E+02 0.  0.
         12    1    3    3    0    0  0.24032795722E+02  0.81034762614E+01  0.26693421264E+02  0.36820922538E+02  0.00000000000E+00 0. -1.
         11    1    4    4    0    0 -0.66740886988E+01 -0.87295615774E+01  0.81093081172E+01  0.13656851163E+02  0.51100000000E-03 0. -1.
        -11    1    4    4    0    0 -0.92123075004E+01  0.45504278428E+01 -0.10113461877E+02  0.14417181223E+02  0.51100000000E-03 0.  1.
         12    1    4    4    0    0 -0.81463995232E+01 -0.39243425267E+01 -0.24689267504E+02  0.26293045076E+02  0.00000000000E+00 0. -1.
</event>
<event>
 8    1  0.3011071E-007  0.9118800E+02  0.7816164E-02  0.1184000E+00
        -11   -1    0    0    0    0  0.00000000000E+00  0.00000000000E+00  0.45593999997E+02  0.45594000000E+02  0.51100000000E-03 0.  1.
         11   -1    0    0    0    0 -0.00000000000E+00 -0.00000000000E+00 -0.45593999997E+02  0.45594000000E+02  0.51100000000E-03 0. -1.
         23    2    1    2    0    0 -0.17763568394E-14  0.88817841970E-15  0.00000000000E+00  0.91188000000E+02  0.91188000000E+02 0.  0.
    9900012    2    3    3    0    0 -0.14617506451E+02  0.58746523558E+01  0.33280565408E+02  0.54367094674E+02  0.40000023928E+02 0.  0.
         12    1    3    3    0    0  0.14617506451E+02 -0.58746523558E+01 -0.33280565408E+02  0.36820905326E+02  0.00000000000E+00 0. -1.
         11    1    4    4    0    0  0.53763709874E+01 -0.43345728403E+01  0.11758051950E+02  0.13636189814E+02  0.51100000000E-03 0.  1.
        -11    1    4    4    0    0 -0.79874537322E+01 -0.53925611765E+01 -0.22183491085E+01  0.98893986771E+01  0.51100000000E-03 0. -1.
         12    1    4    4    0    0 -0.12006423707E+02  0.15601786373E+02  0.23740862566E+02  0.30841506183E+02  0.00000000000E+00 0. -1.
</event>
<event>
 8    1  0.3011071E-007  0.9118800E+02  0.7816164E-02  0.1184000E+00
        -11   -1    0    0    0    0  0.00000000000E+00  0.00000000000E+00  0.45593999997E+02  0.45594000000E+02  0.51100000000E-03 0.  1.
         11   -1    0    0    0    0 -0.00000000000E+00 -0.00000000000E+00 -0.45593999997E+02  0.45594000000E+02  0.51100000000E-03 0. -1.
         23    2    1    2    0    0  0.00000000000E+00  0.11796119637E-14 -0.71054273576E-14  0.91188000000E+02  0.91188000000E+02 0.  0.
    9900012    2    3    3    0    0  0.17869769104E+02 -0.11551403421E+00  0.32193776963E+02  0.54367064834E+02  0.39999955903E+02 0.  0.
         12    1    3    3    0    0 -0.17869769104E+02  0.11551403421E+00 -0.32193776963E+02  0.36820935166E+02  0.00000000000E+00 0. -1.
         11    1    4    4    0    0 -0.14554039172E+01 -0.68442143523E+01  0.14567829561E+02  0.16161161129E+02  0.51100000000E-03 0. -1.
        -11    1    4    4    0    0  0.15444025240E+01  0.12509380162E+02  0.14562577005E+02  0.19259761694E+02  0.51100000000E-03 0.  1.
         12    1    4    4    0    0  0.17780770497E+02 -0.57806798444E+01  0.30633703969E+01  0.18946142012E+02  0.00000000000E+00 0. -1.
</event>
<event>
 8    1  0.3011071E-007  0.9118800E+02  0.7816164E-02  0.1184000E+00
        -11   -1    0    0    0    0  0.00000000000E+00  0.00000000000E+00  0.45593999997E+02  0.45594000000E+02  0.51100000000E-03 0. -1.
         11   -1    0    0    0    0 -0.00000000000E+00 -0.00000000000E+00 -0.45593999997E+02  0.45594000000E+02  0.51100000000E-03 0.  1.
         23    2    1    2    0    0  0.00000000000E+00  0.00000000000E+00  0.00000000000E+00  0.91188000000E+02  0.91188000000E+02 0.  0.
    9900012    2    3    3    0    0 -0.47721400862E+01  0.28435831436E+02 -0.22899880281E+02  0.54367158790E+02  0.40000170094E+02 0.  0.
         12    1    3    3    0    0  0.47721400862E+01 -0.28435831436E+02  0.22899880281E+02  0.36820841210E+02  0.00000000000E+00 0. -1.
         11    1    4    4    0    0  0.64332308715E+01 -0.52160411723E+01 -0.58401968773E+01  0.10134172131E+02  0.51100000000E-03 0. -1.
        -11    1    4    4    0    0 -0.59759164081E+01  0.47495733823E+01 -0.12302981076E+02  0.14478721209E+02  0.51100000000E-03 0.  1.
         12    1    4    4    0    0 -0.52294545496E+01  0.28902299226E+02 -0.47567023284E+01  0.29754265451E+02  0.00000000000E+00 0. -1.
</event>
<event>
 8    1  0.3011071E-007  0.9118800E+02  0.7816164E-02  0.1184000E+00
        -11   -1    0    0    0    0  0.00000000000E+00  0.00000000000E+00  0.45593999997E+02  0.45594000000E+02  0.51100000000E-03 0.  1.
         11   -1    0    0    0    0 -0.00000000000E+00 -0.00000000000E+00 -0.45593999997E+02  0.45594000000E+02  0.51100000000E-03 0. -1.
         23    2    1    2    0    0  0.00000000000E+00  0.00000000000E+00  0.17763568394E-14  0.91188000000E+02  0.91188000000E+02 0.  0.
    9900012    2    3    3    0    0  0.81976172556E+01  0.34938098441E+02  0.82407157081E+01  0.54367067819E+02  0.39999962706E+02 0.  0.
         12    1    3    3    0    0 -0.81976172556E+01 -0.34938098441E+02 -0.82407157081E+01  0.36820932181E+02  0.00000000000E+00 0. -1.
         11    1    4    4    0    0 -0.21126714958E+01  0.14574811009E+02 -0.54876496282E+01  0.15716322582E+02  0.51100000000E-03 0. -1.
        -11    1    4    4    0    0  0.19746887143E+02  0.17165985857E+02  0.10118353786E+02  0.28053372451E+02  0.51100000000E-03 0.  1.
        -12    1    4    4    0    0 -0.94365983912E+01  0.31973015741E+01  0.36100115499E+01  0.10597372785E+02  0.00000000000E+00 0.  1.
</event>
<event>
 8    1  0.3011071E-007  0.9118800E+02  0.7816164E-02  0.1184000E+00
        -11   -1    0    0    0    0  0.00000000000E+00  0.00000000000E+00  0.45593999997E+02  0.45594000000E+02  0.51100000000E-03 0. -1.
         11   -1    0    0    0    0 -0.00000000000E+00 -0.00000000000E+00 -0.45593999997E+02  0.45594000000E+02  0.51100000000E-03 0.  1.
         23    2    1    2    0    0  0.11102230246E-15  0.00000000000E+00  0.00000000000E+00  0.91188000000E+02  0.91188000000E+02 0.  0.
    9900012    2    3    3    0    0 -0.92746034937E+00 -0.32297753580E+02 -0.17657153349E+02  0.54367080220E+02  0.39999990978E+02 0.  0.
         12    1    3    3    0    0  0.92746034937E+00  0.32297753580E+02  0.17657153349E+02  0.36820919780E+02  0.00000000000E+00 0. -1.
         11    1    4    4    0    0  0.12215414504E+02 -0.58422832127E+01 -0.11625702301E+01  0.13590444969E+02  0.51100000000E-03 0. -1.
        -11    1    4    4    0    0 -0.71408358051E+01 -0.26459118813E+02 -0.19906608874E+02  0.33872549084E+02  0.51100000000E-03 0.  1.
        -12    1    4    4    0    0 -0.60020390486E+01  0.36484455958E-02  0.34120257547E+01  0.69040861671E+01  0.00000000000E+00 0.  1.
</event>
<event>
 8    1  0.3011071E-007  0.9118800E+02  0.7816164E-02  0.1184000E+00
        -11   -1    0    0    0    0  0.00000000000E+00  0.00000000000E+00  0.45593999997E+02  0.45594000000E+02  0.51100000000E-03 0.  1.
         11   -1    0    0    0    0 -0.00000000000E+00 -0.00000000000E+00 -0.45593999997E+02  0.45594000000E+02  0.51100000000E-03 0. -1.
         23    2    1    2    0    0  0.00000000000E+00  0.00000000000E+00  0.71054273576E-14  0.91188000000E+02  0.91188000000E+02 0.  0.
    9900012    2    3    3    0    0 -0.64945729991E+01 -0.90356116852E+01 -0.35099289117E+02  0.54367056863E+02  0.39999937730E+02 0.  0.
        -12    1    3    3    0    0  0.64945729991E+01  0.90356116852E+01  0.35099289117E+02  0.36820943137E+02  0.00000000000E+00 0.  1.
         11    1    4    4    0    0  0.47320296844E+01 -0.89902593501E+00 -0.28567758520E+02  0.28970971328E+02  0.51100000000E-03 0. -1.
        -11    1    4    4    0    0  0.40461407392E+01 -0.19248015717E+01  0.38540202848E+01  0.59101259368E+01  0.51100000000E-03 0.  1.
         12    1    4    4    0    0 -0.15272743423E+02 -0.62117841785E+01 -0.10385550882E+02  0.19485959598E+02  0.00000000000E+00 0. -1.
</event>
<event>
 8    1  0.3011071E-007  0.9118800E+02  0.7816164E-02  0.1184000E+00
        -11   -1    0    0    0    0  0.00000000000E+00  0.00000000000E+00  0.45593999997E+02  0.45594000000E+02  0.51100000000E-03 0. -1.
         11   -1    0    0    0    0 -0.00000000000E+00 -0.00000000000E+00 -0.45593999997E+02  0.45594000000E+02  0.51100000000E-03 0.  1.
         23    2    1    2    0    0  0.00000000000E+00  0.00000000000E+00 -0.35527136788E-14  0.91188000000E+02  0.91188000000E+02 0.  0.
    9900012    2    3    3    0    0 -0.21363920300E+02 -0.18168921026E+02 -0.23859055394E+02  0.54367064296E+02  0.39999954675E+02 0.  0.
         12    1    3    3    0    0  0.21363920300E+02  0.18168921026E+02  0.23859055394E+02  0.36820935704E+02  0.00000000000E+00 0. -1.
         11    1    4    4    0    0  0.58096114378E+01  0.12173599633E+01 -0.12131211034E+02  0.13505548184E+02  0.51100000000E-03 0. -1.
        -11    1    4    4    0    0 -0.15222647221E+02 -0.17597725967E+02 -0.15782114758E+02  0.28115548974E+02  0.51100000000E-03 0.  1.
        -12    1    4    4    0    0 -0.11950884517E+02 -0.17885550219E+01  0.40542703980E+01  0.12745967137E+02  0.00000000000E+00 0.  1.
</event>
<event>
 8    1  0.3011071E-007  0.9118800E+02  0.7816164E-02  0.1184000E+00
        -11   -1    0    0    0    0  0.00000000000E+00  0.00000000000E+00  0.45593999997E+02  0.45594000000E+02  0.51100000000E-03 0.  1.
         11   -1    0    0    0    0 -0.00000000000E+00 -0.00000000000E+00 -0.45593999997E+02  0.45594000000E+02  0.51100000000E-03 0. -1.
         23    2    1    2    0    0 -0.12767564783E-14  0.00000000000E+00  0.00000000000E+00  0.91188000000E+02  0.91188000000E+02 0.  0.
    9900012    2    3    3    0    0 -0.36863917734E+00 -0.41058502538E+01 -0.36589429472E+02  0.54367078634E+02  0.39999987361E+02 0.  0.
        -12    1    3    3    0    0  0.36863917734E+00  0.41058502538E+01  0.36589429472E+02  0.36820921366E+02  0.00000000000E+00 0.  1.
         11    1    4    4    0    0  0.52293327728E+00 -0.31320840765E+01  0.57572105311E+01  0.65748675451E+01  0.51100000000E-03 0.  1.
        -11    1    4    4    0    0  0.68875266464E+01 -0.87389642345E+01 -0.19923200356E+02  0.22819759681E+02  0.51100000000E-03 0. -1.
        -12    1    4    4    0    0 -0.77790991011E+01  0.77651980572E+01 -0.22423439648E+02  0.24972451408E+02  0.00000000000E+00 0.  1.
</event>
<event>
 8    1  0.3011071E-007  0.9118800E+02  0.7816164E-02  0.1184000E+00
        -11   -1    0    0    0    0  0.00000000000E+00  0.00000000000E+00  0.45593999997E+02  0.45594000000E+02  0.51100000000E-03 0. -1.
         11   -1    0    0    0    0 -0.00000000000E+00 -0.00000000000E+00 -0.45593999997E+02  0.45594000000E+02  0.51100000000E-03 0.  1.
         23    2    1    2    0    0  0.00000000000E+00  0.77715611724E-15  0.00000000000E+00  0.91188000000E+02  0.91188000000E+02 0.  0.
    9900012    2    3    3    0    0 -0.27106285291E+02  0.86312338376E+00  0.24905490285E+02  0.54367093838E+02  0.40000022022E+02 0.  0.
        -12    1    3    3    0    0  0.27106285291E+02 -0.86312338376E+00 -0.24905490285E+02  0.36820906162E+02  0.00000000000E+00 0.  1.
         11    1    4    4    0    0 -0.71371203368E+01  0.24290168632E+01 -0.26519323673E+01  0.79919556534E+01  0.51100000000E-03 0.  1.
        -11    1    4    4    0    0 -0.37076170282E+01 -0.12221050904E+02  0.14932770606E+00  0.12771953971E+02  0.51100000000E-03 0. -1.
         12    1    4    4    0    0 -0.16261547926E+02  0.10655157424E+02  0.27408094946E+02  0.33603184213E+02  0.00000000000E+00 0. -1.
</event>
<event>
 8    1  0.3011071E-007  0.9118800E+02  0.7816164E-02  0.1184000E+00
        -11   -1    0    0    0    0  0.00000000000E+00  0.00000000000E+00  0.45593999997E+02  0.45594000000E+02  0.51100000000E-03 0.  1.
         11   -1    0    0    0    0 -0.00000000000E+00 -0.00000000000E+00 -0.45593999997E+02  0.45594000000E+02  0.51100000000E-03 0. -1.
         23    2    1    2    0    0  0.00000000000E+00  0.34000580129E-15 -0.35527136788E-14  0.91188000000E+02  0.91188000000E+02 0.  0.
    9900012    2    3    3    0    0 -0.22724463085E+02  0.46432947569E-01  0.28971977907E+02  0.54367097209E+02  0.40000029706E+02 0.  0.
         12    1    3    3    0    0  0.22724463085E+02 -0.46432947569E-01 -0.28971977907E+02  0.36820902791E+02  0.00000000000E+00 0. -1.
         11    1    4    4    0    0  0.22278294985E+01  0.47737645980E+01  0.94264420865E+01  0.10798604696E+02  0.51100000000E-03 0. -1.
        -11    1    4    4    0    0 -0.81056059978E+01 -0.17069091657E+01 -0.77547112029E+01  0.11346802792E+02  0.51100000000E-03 0.  1.
         12    1    4    4    0    0 -0.16846686586E+02 -0.30204224847E+01  0.27300247024E+02  0.32221689721E+02  0.00000000000E+00 0. -1.
</event>
<event>
 8    1  0.3011071E-007  0.9118800E+02  0.7816164E-02  0.1184000E+00
        -11   -1    0    0    0    0  0.00000000000E+00  0.00000000000E+00  0.45593999997E+02  0.45594000000E+02  0.51100000000E-03 0.  1.
         11   -1    0    0    0    0 -0.00000000000E+00 -0.00000000000E+00 -0.45593999997E+02  0.45594000000E+02  0.51100000000E-03 0. -1.
         23    2    1    2    0    0 -0.71054273576E-14 -0.66613381478E-15  0.00000000000E+00  0.91188000000E+02  0.91188000000E+02 0.  0.
    9900012    2    3    3    0    0  0.34306035751E+02  0.12820230352E+01  0.13312884014E+02  0.54367074526E+02  0.39999977996E+02 0.  0.
         12    1    3    3    0    0 -0.34306035751E+02 -0.12820230352E+01 -0.13312884014E+02  0.36820925474E+02  0.00000000000E+00 0. -1.
         11    1    4    4    0    0 -0.53312264988E+00 -0.19594043934E+01 -0.35491187192E+01  0.40889765567E+01  0.51100000000E-03 0. -1.
        -11    1    4    4    0    0  0.34450039924E+02  0.45298508598E+01  0.14179385585E+01  0.34775499272E+02  0.51100000000E-03 0.  1.
         12    1    4    4    0    0  0.38911847681E+00 -0.12884234312E+01  0.15444064175E+02  0.15502598697E+02  0.00000000000E+00 0. -1.
</event>
<event>
 8    1  0.3011071E-007  0.9118800E+02  0.7816164E-02  0.1184000E+00
        -11   -1    0    0    0    0  0.00000000000E+00  0.00000000000E+00  0.45593999997E+02  0.45594000000E+02  0.51100000000E-03 0.  1.
         11   -1    0    0    0    0 -0.00000000000E+00 -0.00000000000E+00 -0.45593999997E+02  0.45594000000E+02  0.51100000000E-03 0. -1.
         23    2    1    2    0    0  0.00000000000E+00  0.35527136788E-14  0.35527136788E-14  0.91188000000E+02  0.91188000000E+02 0.  0.
    9900012    2    3    3    0    0 -0.91814686913E+01  0.24473801371E+02  0.25932868750E+02  0.54367081998E+02  0.39999995031E+02 0.  0.
         12    1    3    3    0    0  0.91814686913E+01 -0.24473801371E+02 -0.25932868750E+02  0.36820918002E+02  0.00000000000E+00 0. -1.
         11    1    4    4    0    0  0.41038446361E+01  0.42866622931E+01  0.21753429727E+01  0.63205325505E+01  0.51100000000E-03 0. -1.
        -11    1    4    4    0    0 -0.69940388939E+01  0.22652986894E+02  0.30413053406E+02  0.38562004785E+02  0.51100000000E-03 0.  1.
        -12    1    4    4    0    0 -0.62912744336E+01 -0.24658478164E+01 -0.66555276283E+01  0.94845446629E+01  0.00000000000E+00 0.  1.
</event>
<event>
 8    1  0.3011071E-007  0.9118800E+02  0.7816164E-02  0.1184000E+00
        -11   -1    0    0    0    0  0.00000000000E+00  0.00000000000E+00  0.45593999997E+02  0.45594000000E+02  0.51100000000E-03 0. -1.
         11   -1    0    0    0    0 -0.00000000000E+00 -0.00000000000E+00 -0.45593999997E+02  0.45594000000E+02  0.51100000000E-03 0.  1.
         23    2    1    2    0    0 -0.35527136788E-14 -0.35527136788E-14  0.00000000000E+00  0.91188000000E+02  0.91188000000E+02 0.  0.
    9900012    2    3    3    0    0  0.26741323223E+02 -0.20138695940E+02  0.15333404737E+02  0.54367099106E+02  0.40000034031E+02 0.  0.
        -12    1    3    3    0    0 -0.26741323223E+02  0.20138695940E+02 -0.15333404737E+02  0.36820900894E+02  0.00000000000E+00 0.  1.
         11    1    4    4    0    0  0.13596722670E+02 -0.17725105131E+02  0.19815067712E+02  0.29861130721E+02  0.51100000000E-03 0. -1.
        -11    1    4    4    0    0  0.16210345194E+02 -0.68325602830E+01 -0.13688501729E+00  0.17591984228E+02  0.51100000000E-03 0.  1.
        -12    1    4    4    0    0 -0.30657446408E+01  0.44189694743E+01 -0.43447779571E+01  0.69139841563E+01  0.00000000000E+00 0.  1.
</event>
<event>
 8    1  0.3011071E-007  0.9118800E+02  0.7816164E-02  0.1184000E+00
        -11   -1    0    0    0    0  0.00000000000E+00  0.00000000000E+00  0.45593999997E+02  0.45594000000E+02  0.51100000000E-03 0. -1.
         11   -1    0    0    0    0 -0.00000000000E+00 -0.00000000000E+00 -0.45593999997E+02  0.45594000000E+02  0.51100000000E-03 0.  1.
         23    2    1    2    0    0  0.00000000000E+00  0.00000000000E+00  0.00000000000E+00  0.91188000000E+02  0.91188000000E+02 0.  0.
    9900012    2    3    3    0    0 -0.34117957372E+02  0.41732048013E+01 -0.13203193281E+02  0.54367150385E+02  0.40000150932E+02 0.  0.
         12    1    3    3    0    0  0.34117957372E+02 -0.41732048013E+01  0.13203193281E+02  0.36820849615E+02  0.00000000000E+00 0. -1.
         11    1    4    4    0    0 -0.14544375237E+02 -0.59267657676E+01 -0.39108651331E+01  0.16185186742E+02  0.51100000000E-03 0. -1.
        -11    1    4    4    0    0  0.64401440967E+01  0.63932713955E+01 -0.76246328745E+01  0.11852611605E+02  0.51100000000E-03 0.  1.
        -12    1    4    4    0    0 -0.26013726232E+02  0.37066991733E+01 -0.16676952732E+01  0.26329352038E+02  0.00000000000E+00 0.  1.
</event>
<event>
 8    1  0.3011071E-007  0.9118800E+02  0.7816164E-02  0.1184000E+00
        -11   -1    0    0    0    0  0.00000000000E+00  0.00000000000E+00  0.45593999997E+02  0.45594000000E+02  0.51100000000E-03 0. -1.
         11   -1    0    0    0    0 -0.00000000000E+00 -0.00000000000E+00 -0.45593999997E+02  0.45594000000E+02  0.51100000000E-03 0.  1.
         23    2    1    2    0    0  0.00000000000E+00 -0.35527136788E-14 -0.17763568394E-14  0.91188000000E+02  0.91188000000E+02 0.  0.
    9900012    2    3    3    0    0  0.26447099063E+02  0.24635508024E+02  0.70301163944E+01  0.54367084192E+02  0.40000000032E+02 0.  0.
        -12    1    3    3    0    0 -0.26447099063E+02 -0.24635508024E+02 -0.70301163944E+01  0.36820915808E+02  0.00000000000E+00 0.  1.
         11    1    4    4    0    0 -0.37568836726E+01  0.72663401950E+01 -0.66983034123E+00  0.82074690195E+01  0.51100000000E-03 0. -1.
        -11    1    4    4    0    0  0.16696637321E+02  0.21643046143E+02  0.13933761724E+02  0.30681409033E+02  0.51100000000E-03 0.  1.
        -12    1    4    4    0    0  0.13507345415E+02 -0.42738783148E+01 -0.62338149882E+01  0.15478206140E+02  0.00000000000E+00 0.  1.
</event>
<event>
 8    1  0.3011071E-007  0.9118800E+02  0.7816164E-02  0.1184000E+00
        -11   -1    0    0    0    0  0.00000000000E+00  0.00000000000E+00  0.45593999997E+02  0.45594000000E+02  0.51100000000E-03 0.  1.
         11   -1    0    0    0    0 -0.00000000000E+00 -0.00000000000E+00 -0.45593999997E+02  0.45594000000E+02  0.51100000000E-03 0. -1.
         23    2    1    2    0    0 -0.22204460493E-15  0.00000000000E+00  0.00000000000E+00  0.91188000000E+02  0.91188000000E+02 0.  0.
    9900012    2    3    3    0    0  0.18754237545E+01 -0.36694773439E+02 -0.23991758880E+01  0.54367086690E+02  0.40000005728E+02 0.  0.
        -12    1    3    3    0    0 -0.18754237545E+01  0.36694773439E+02  0.23991758880E+01  0.36820913310E+02  0.00000000000E+00 0.  1.
         11    1    4    4    0    0 -0.11661761410E+01  0.44792074793E+01 -0.31979297509E+01  0.56258351724E+01  0.51100000000E-03 0. -1.
        -11    1    4    4    0    0  0.13273599980E+02 -0.19594537426E+02  0.57395943390E+01  0.24353178371E+02  0.51100000000E-03 0.  1.
         12    1    4    4    0    0 -0.10232000084E+02 -0.21579443493E+02 -0.49408404760E+01  0.24388073146E+02  0.00000000000E+00 0. -1.
</event>
<event>
 8    1  0.3011071E-007  0.9118800E+02  0.7816164E-02  0.1184000E+00
        -11   -1    0    0    0    0  0.00000000000E+00  0.00000000000E+00  0.45593999997E+02  0.45594000000E+02  0.51100000000E-03 0. -1.
         11   -1    0    0    0    0 -0.00000000000E+00 -0.00000000000E+00 -0.45593999997E+02  0.45594000000E+02  0.51100000000E-03 0.  1.
         23    2    1    2    0    0  0.35527136788E-14 -0.35527136788E-14  0.00000000000E+00  0.91188000000E+02  0.91188000000E+02 0.  0.
    9900012    2    3    3    0    0  0.17971904099E+02 -0.31693129637E+02  0.53231514694E+01  0.54367085499E+02  0.40000003012E+02 0.  0.
         12    1    3    3    0    0 -0.17971904099E+02  0.31693129637E+02 -0.53231514694E+01  0.36820914501E+02  0.00000000000E+00 0. -1.
         11    1    4    4    0    0 -0.95871953672E+01 -0.20929031675E+02  0.38013298976E+01  0.23332140731E+02  0.51100000000E-03 0. -1.
        -11    1    4    4    0    0  0.85010114942E+01 -0.12599793212E+01  0.42096762262E+01  0.95695411857E+01  0.51100000000E-03 0.  1.
         12    1    4    4    0    0  0.19058087972E+02 -0.95041186411E+01 -0.26878546543E+01  0.21465403582E+02  0.00000000000E+00 0. -1.
</event>
<event>
 8    1  0.3011071E-007  0.9118800E+02  0.7816164E-02  0.1184000E+00
        -11   -1    0    0    0    0  0.00000000000E+00  0.00000000000E+00  0.45593999997E+02  0.45594000000E+02  0.51100000000E-03 0. -1.
         11   -1    0    0    0    0 -0.00000000000E+00 -0.00000000000E+00 -0.45593999997E+02  0.45594000000E+02  0.51100000000E-03 0.  1.
         23    2    1    2    0    0 -0.35527136788E-14  0.35527136788E-14  0.00000000000E+00  0.91188000000E+02  0.91188000000E+02 0.  0.
    9900012    2    3    3    0    0  0.14393456803E+02 -0.22252346763E+02 -0.25562499070E+02  0.54367083473E+02  0.39999998393E+02 0.  0.
         12    1    3    3    0    0 -0.14393456803E+02  0.22252346763E+02  0.25562499070E+02  0.36820916527E+02  0.00000000000E+00 0. -1.
         11    1    4    4    0    0  0.13913323537E+02 -0.13156030819E+02 -0.24951687050E+02  0.31452319559E+02  0.51100000000E-03 0.  1.
        -11    1    4    4    0    0 -0.47222595202E+01 -0.13235838774E+02 -0.50362680513E+01  0.14928200132E+02  0.51100000000E-03 0. -1.
        -12    1    4    4    0    0  0.52023927865E+01  0.41395228291E+01  0.44254560316E+01  0.79865637821E+01  0.00000000000E+00 0.  1.
</event>
<event>
 8    1  0.3011071E-007  0.9118800E+02  0.7816164E-02  0.1184000E+00
        -11   -1    0    0    0    0  0.00000000000E+00  0.00000000000E+00  0.45593999997E+02  0.45594000000E+02  0.51100000000E-03 0.  1.
         11   -1    0    0    0    0 -0.00000000000E+00 -0.00000000000E+00 -0.45593999997E+02  0.45594000000E+02  0.51100000000E-03 0. -1.
         23    2    1    2    0    0  0.17763568394E-14  0.00000000000E+00 -0.17763568394E-14  0.91188000000E+02  0.91188000000E+02 0.  0.
    9900012    2    3    3    0    0  0.15283627079E+02 -0.29552681324E+02  0.15774332065E+02  0.54367084989E+02  0.40000001850E+02 0.  0.
         12    1    3    3    0    0 -0.15283627079E+02  0.29552681324E+02 -0.15774332065E+02  0.36820915011E+02  0.00000000000E+00 0. -1.
         11    1    4    4    0    0 -0.92018684332E+01 -0.12037393624E+02  0.98055903225E+01  0.18047792933E+02  0.51100000000E-03 0. -1.
        -11    1    4    4    0    0  0.16624290669E+02 -0.21298732910E+02  0.34449580390E+01  0.27237305300E+02  0.51100000000E-03 0.  1.
        -12    1    4    4    0    0  0.78612048432E+01  0.37834452108E+01  0.25237837039E+01  0.90819867559E+01  0.00000000000E+00 0.  1.
</event>
<event>
 8    1  0.3011071E-007  0.9118800E+02  0.7816164E-02  0.1184000E+00
        -11   -1    0    0    0    0  0.00000000000E+00  0.00000000000E+00  0.45593999997E+02  0.45594000000E+02  0.51100000000E-03 0. -1.
         11   -1    0    0    0    0 -0.00000000000E+00 -0.00000000000E+00 -0.45593999997E+02  0.45594000000E+02  0.51100000000E-03 0.  1.
         23    2    1    2    0    0  0.00000000000E+00  0.17763568394E-14  0.35527136788E-14  0.91188000000E+02  0.91188000000E+02 0.  0.
    9900012    2    3    3    0    0 -0.29670883047E+02  0.12346657002E+02  0.17971600432E+02  0.54367086622E+02  0.40000005573E+02 0.  0.
        -12    1    3    3    0    0  0.29670883047E+02 -0.12346657002E+02 -0.17971600432E+02  0.36820913378E+02  0.00000000000E+00 0.  1.
         11    1    4    4    0    0 -0.46770320744E+00  0.62235496739E+01 -0.46416543718E+01  0.77779349703E+01  0.51100000000E-03 0. -1.
        -11    1    4    4    0    0 -0.25142662773E+02  0.15006480041E+02  0.22319691826E+02  0.36817340724E+02  0.51100000000E-03 0.  1.
        -12    1    4    4    0    0 -0.40605170665E+01 -0.88833727125E+01  0.29356297782E+00  0.97718109283E+01  0.00000000000E+00 0.  1.
</event>
<event>
 8    1  0.3011071E-007  0.9118800E+02  0.7816164E-02  0.1184000E+00
        -11   -1    0    0    0    0  0.00000000000E+00  0.00000000000E+00  0.45593999997E+02  0.45594000000E+02  0.51100000000E-03 0.  1.
         11   -1    0    0    0    0 -0.00000000000E+00 -0.00000000000E+00 -0.45593999997E+02  0.45594000000E+02  0.51100000000E-03 0. -1.
         23    2    1    2    0    0 -0.35527136788E-14  0.00000000000E+00  0.00000000000E+00  0.91188000000E+02  0.91188000000E+02 0.  0.
    9900012    2    3    3    0    0  0.27986726679E+02  0.78919580075E+01  0.22588519463E+02  0.54367067326E+02  0.39999961584E+02 0.  0.
         12    1    3    3    0    0 -0.27986726679E+02 -0.78919580075E+01 -0.22588519463E+02  0.36820932674E+02  0.00000000000E+00 0. -1.
         11    1    4    4    0    0 -0.55849597695E+01 -0.75020292646E+00  0.12662652611E+02  0.13859918884E+02  0.51100000000E-03 0. -1.
        -11    1    4    4    0    0  0.18674334522E+01  0.30057159105E+01  0.74052338790E+01  0.82072604988E+01  0.51100000000E-03 0.  1.
         12    1    4    4    0    0  0.31704252997E+02  0.56364450235E+01  0.25206329730E+01  0.32299887944E+02  0.00000000000E+00 0. -1.
</event>
<event>
 8    1  0.3011071E-007  0.9118800E+02  0.7816164E-02  0.1184000E+00
        -11   -1    0    0    0    0  0.00000000000E+00  0.00000000000E+00  0.45593999997E+02  0.45594000000E+02  0.51100000000E-03 0. -1.
         11   -1    0    0    0    0 -0.00000000000E+00 -0.00000000000E+00 -0.45593999997E+02  0.45594000000E+02  0.51100000000E-03 0.  1.
         23    2    1    2    0    0 -0.17763568394E-14 -0.35527136788E-14 -0.71054273576E-14  0.91188000000E+02  0.91188000000E+02 0.  0.
    9900012    2    3    3    0    0 -0.13693925819E+02 -0.96151728664E+01 -0.32799464476E+02  0.54367081713E+02  0.39999994381E+02 0.  0.
         12    1    3    3    0    0  0.13693925819E+02  0.96151728664E+01  0.32799464476E+02  0.36820918287E+02  0.00000000000E+00 0. -1.
         11    1    4    4    0    0  0.38665294300E+00 -0.14077111509E+02 -0.76259504920E+01  0.16014671090E+02  0.51100000000E-03 0. -1.
        -11    1    4    4    0    0 -0.16685162440E+02  0.59982221189E+00 -0.46847165470E+01  0.17340732444E+02  0.51100000000E-03 0.  1.
         12    1    4    4    0    0  0.26045836776E+01  0.38621164310E+01 -0.20488797437E+02  0.21011678179E+02  0.00000000000E+00 0. -1.
</event>
<event>
 8    1  0.3011071E-007  0.9118800E+02  0.7816164E-02  0.1184000E+00
        -11   -1    0    0    0    0  0.00000000000E+00  0.00000000000E+00  0.45593999997E+02  0.45594000000E+02  0.51100000000E-03 0.  1.
         11   -1    0    0    0    0 -0.00000000000E+00 -0.00000000000E+00 -0.45593999997E+02  0.45594000000E+02  0.51100000000E-03 0. -1.
         23    2    1    2    0    0  0.71054273576E-14  0.00000000000E+00  0.17763568394E-14  0.91188000000E+02  0.91188000000E+02 0.  0.
    9900012    2    3    3    0    0  0.32636463908E+02 -0.15494111853E+02  0.71115806386E+01  0.54367070385E+02  0.39999968556E+02 0.  0.
        -12    1    3    3    0    0 -0.32636463908E+02  0.15494111853E+02 -0.71115806386E+01  0.36820929615E+02  0.00000000000E+00 0.  1.
         11    1    4    4    0    0  0.18539346052E+02 -0.47208151021E+01  0.13736992270E+02  0.23552036093E+02  0.51100000000E-03 0. -1.
        -11    1    4    4    0    0 -0.27423759738E+01  0.27164186499E+01  0.49916420759E+01  0.63099958112E+01  0.51100000000E-03 0.  1.
         12    1    4    4    0    0  0.16839493831E+02 -0.13489715401E+02 -0.11617053707E+02  0.24505038480E+02  0.00000000000E+00 0. -1.
</event>
<event>
 8    1  0.3011071E-007  0.9118800E+02  0.7816164E-02  0.1184000E+00
        -11   -1    0    0    0    0  0.00000000000E+00  0.00000000000E+00  0.45593999997E+02  0.45594000000E+02  0.51100000000E-03 0.  1.
         11   -1    0    0    0    0 -0.00000000000E+00 -0.00000000000E+00 -0.45593999997E+02  0.45594000000E+02  0.51100000000E-03 0. -1.
         23    2    1    2    0    0  0.17763568394E-14  0.00000000000E+00  0.17763568394E-14  0.91188000000E+02  0.91188000000E+02 0.  0.
    9900012    2    3    3    0    0  0.15933380964E+02 -0.31471637606E+02  0.10556657646E+02  0.54367087148E+02  0.40000006772E+02 0.  0.
         12    1    3    3    0    0 -0.15933380964E+02  0.31471637606E+02 -0.10556657646E+02  0.36820912852E+02  0.00000000000E+00 0. -1.
         11    1    4    4    0    0  0.16287514640E+02  0.45622549447E+01  0.58582681866E+01  0.17900184629E+02  0.51100000000E-03 0. -1.
        -11    1    4    4    0    0 -0.16852753999E+01 -0.20222101681E+02  0.28711469804E+01  0.20494317135E+02  0.51100000000E-03 0.  1.
         12    1    4    4    0    0  0.13311417236E+01 -0.15811790870E+02  0.18272424788E+01  0.15972585385E+02  0.00000000000E+00 0. -1.
</event>
<event>
 8    1  0.3011071E-007  0.9118800E+02  0.7816164E-02  0.1184000E+00
        -11   -1    0    0    0    0  0.00000000000E+00  0.00000000000E+00  0.45593999997E+02  0.45594000000E+02  0.51100000000E-03 0.  1.
         11   -1    0    0    0    0 -0.00000000000E+00 -0.00000000000E+00 -0.45593999997E+02  0.45594000000E+02  0.51100000000E-03 0. -1.
         23    2    1    2    0    0  0.17763568394E-14  0.00000000000E+00  0.00000000000E+00  0.91188000000E+02  0.91188000000E+02 0.  0.
    9900012    2    3    3    0    0 -0.11427557483E+02 -0.34471728632E+02 -0.60737835257E+01  0.54367082151E+02  0.39999995379E+02 0.  0.
        -12    1    3    3    0    0  0.11427557483E+02  0.34471728632E+02  0.60737835257E+01  0.36820917849E+02  0.00000000000E+00 0.  1.
         11    1    4    4    0    0 -0.66603470410E+01 -0.23405262743E+02 -0.15437268851E+01  0.24383388603E+02  0.51100000000E-03 0. -1.
        -11    1    4    4    0    0  0.22644611178E+01 -0.16593603641E+02  0.44302717902E+01  0.17323474662E+02  0.51100000000E-03 0.  1.
        -12    1    4    4    0    0 -0.70316715601E+01  0.55271377523E+01 -0.89603284308E+01  0.12660218886E+02  0.00000000000E+00 0.  1.
</event>
<event>
 8    1  0.3011071E-007  0.9118800E+02  0.7816164E-02  0.1184000E+00
        -11   -1    0    0    0    0  0.00000000000E+00  0.00000000000E+00  0.45593999997E+02  0.45594000000E+02  0.51100000000E-03 0. -1.
         11   -1    0    0    0    0 -0.00000000000E+00 -0.00000000000E+00 -0.45593999997E+02  0.45594000000E+02  0.51100000000E-03 0.  1.
         23    2    1    2    0    0  0.35527136788E-14  0.00000000000E+00 -0.35527136788E-14  0.91188000000E+02  0.91188000000E+02 0.  0.
    9900012    2    3    3    0    0 -0.17971099582E+02  0.20944652501E+02  0.24375043746E+02  0.54367059678E+02  0.39999944149E+02 0.  0.
        -12    1    3    3    0    0  0.17971099582E+02 -0.20944652501E+02 -0.24375043746E+02  0.36820940322E+02  0.00000000000E+00 0.  1.
         11    1    4    4    0    0 -0.96576360312E+01  0.88026391787E+01  0.22737523226E+02  0.26225013879E+02  0.51100000000E-03 0. -1.
        -11    1    4    4    0    0 -0.15495999905E+02  0.10967530771E+02  0.56809813242E+01  0.19816313818E+02  0.51100000000E-03 0.  1.
        -12    1    4    4    0    0  0.71825363540E+01  0.11744825508E+01 -0.40434608052E+01  0.83257319811E+01  0.00000000000E+00 0.  1.
</event>
<event>
 8    1  0.3011071E-007  0.9118800E+02  0.7816164E-02  0.1184000E+00
        -11   -1    0    0    0    0  0.00000000000E+00  0.00000000000E+00  0.45593999997E+02  0.45594000000E+02  0.51100000000E-03 0.  1.
         11   -1    0    0    0    0 -0.00000000000E+00 -0.00000000000E+00 -0.45593999997E+02  0.45594000000E+02  0.51100000000E-03 0. -1.
         23    2    1    2    0    0  0.00000000000E+00 -0.88817841970E-15 -0.71054273576E-14  0.91188000000E+02  0.91188000000E+02 0.  0.
    9900012    2    3    3    0    0 -0.11063335902E+01 -0.53960745694E+01 -0.36406565462E+02  0.54367087416E+02  0.40000007382E+02 0.  0.
        -12    1    3    3    0    0  0.11063335902E+01  0.53960745694E+01  0.36406565462E+02  0.36820912584E+02  0.00000000000E+00 0.  1.
         11    1    4    4    0    0 -0.34595109055E+01  0.96449251336E+01 -0.34139990452E+02  0.35644519142E+02  0.51100000000E-03 0. -1.
        -11    1    4    4    0    0  0.17773550845E+01 -0.95912690552E+01  0.38709419155E+01  0.10494552147E+02  0.51100000000E-03 0.  1.
         12    1    4    4    0    0  0.57582223079E+00 -0.54497306477E+01 -0.61375169254E+01  0.82280161269E+01  0.00000000000E+00 0. -1.
</event>
<event>
 8    1  0.3011071E-007  0.9118800E+02  0.7816164E-02  0.1184000E+00
        -11   -1    0    0    0    0  0.00000000000E+00  0.00000000000E+00  0.45593999997E+02  0.45594000000E+02  0.51100000000E-03 0.  1.
         11   -1    0    0    0    0 -0.00000000000E+00 -0.00000000000E+00 -0.45593999997E+02  0.45594000000E+02  0.51100000000E-03 0. -1.
         23    2    1    2    0    0  0.00000000000E+00 -0.17763568394E-14  0.00000000000E+00  0.91188000000E+02  0.91188000000E+02 0.  0.
    9900012    2    3    3    0    0  0.58523481191E+01 -0.11052931875E+02 -0.34631801760E+02  0.54367095955E+02  0.40000026850E+02 0.  0.
        -12    1    3    3    0    0 -0.58523481191E+01  0.11052931875E+02  0.34631801760E+02  0.36820904045E+02  0.00000000000E+00 0.  1.
         11    1    4    4    0    0  0.11062183268E+02  0.21705484724E+01 -0.13418473000E+02  0.17525370103E+02  0.51100000000E-03 0. -1.
        -11    1    4    4    0    0  0.42038059550E+00  0.56553331273E+01  0.23407140561E+01  0.61350187595E+01  0.51100000000E-03 0.  1.
         12    1    4    4    0    0 -0.56302157443E+01 -0.18878813475E+02 -0.23554042815E+02  0.30706707093E+02  0.00000000000E+00 0. -1.
</event>
<event>
 8    1  0.3011071E-007  0.9118800E+02  0.7816164E-02  0.1184000E+00
        -11   -1    0    0    0    0  0.00000000000E+00  0.00000000000E+00  0.45593999997E+02  0.45594000000E+02  0.51100000000E-03 0. -1.
         11   -1    0    0    0    0 -0.00000000000E+00 -0.00000000000E+00 -0.45593999997E+02  0.45594000000E+02  0.51100000000E-03 0.  1.
         23    2    1    2    0    0  0.00000000000E+00  0.00000000000E+00  0.00000000000E+00  0.91188000000E+02  0.91188000000E+02 0.  0.
    9900012    2    3    3    0    0 -0.22225503718E+01 -0.95136734897E+01  0.35501143543E+02  0.54367069726E+02  0.39999967054E+02 0.  0.
        -12    1    3    3    0    0  0.22225503718E+01  0.95136734897E+01 -0.35501143543E+02  0.36820930274E+02  0.00000000000E+00 0.  1.
         11    1    4    4    0    0 -0.39742914822E+00 -0.82918525488E+01  0.23815183509E+02  0.25220541915E+02  0.51100000000E-03 0. -1.
        -11    1    4    4    0    0 -0.23094973442E+00 -0.97360107095E+01 -0.45462885020E+01  0.10747650056E+02  0.51100000000E-03 0.  1.
         12    1    4    4    0    0 -0.15941714891E+01  0.85141897686E+01  0.16232248535E+02  0.18398877755E+02  0.00000000000E+00 0. -1.
</event>
<event>
 8    1  0.3011071E-007  0.9118800E+02  0.7816164E-02  0.1184000E+00
        -11   -1    0    0    0    0  0.00000000000E+00  0.00000000000E+00  0.45593999997E+02  0.45594000000E+02  0.51100000000E-03 0.  1.
         11   -1    0    0    0    0 -0.00000000000E+00 -0.00000000000E+00 -0.45593999997E+02  0.45594000000E+02  0.51100000000E-03 0. -1.
         23    2    1    2    0    0 -0.17763568394E-14  0.71054273576E-14  0.00000000000E+00  0.91188000000E+02  0.91188000000E+02 0.  0.
    9900012    2    3    3    0    0  0.10173717142E+02 -0.34383812992E+02  0.83682745931E+01  0.54367093764E+02  0.40000021855E+02 0.  0.
         12    1    3    3    0    0 -0.10173717142E+02  0.34383812992E+02 -0.83682745931E+01  0.36820906236E+02  0.00000000000E+00 0. -1.
         11    1    4    4    0    0  0.92555707386E+01 -0.37681682500E+02 -0.17042541891E+01  0.38839146081E+02  0.51100000000E-03 0. -1.
        -11    1    4    4    0    0 -0.38428957486E+01  0.14533243483E+00  0.89046465727E+01  0.96995721605E+01  0.51100000000E-03 0.  1.
        -12    1    4    4    0    0  0.47610421522E+01  0.31525370735E+01  0.11678822095E+01  0.58283755224E+01  0.00000000000E+00 0.  1.
</event>
<event>
 8    1  0.3011071E-007  0.9118800E+02  0.7816164E-02  0.1184000E+00
        -11   -1    0    0    0    0  0.00000000000E+00  0.00000000000E+00  0.45593999997E+02  0.45594000000E+02  0.51100000000E-03 0.  1.
         11   -1    0    0    0    0 -0.00000000000E+00 -0.00000000000E+00 -0.45593999997E+02  0.45594000000E+02  0.51100000000E-03 0. -1.
         23    2    1    2    0    0 -0.17763568394E-14  0.00000000000E+00  0.00000000000E+00  0.91188000000E+02  0.91188000000E+02 0.  0.
    9900012    2    3    3    0    0 -0.46479943234E+01  0.17088920928E+02  0.32282286487E+02  0.54367067224E+02  0.39999961349E+02 0.  0.
         12    1    3    3    0    0  0.46479943234E+01 -0.17088920928E+02 -0.32282286487E+02  0.36820932776E+02  0.00000000000E+00 0. -1.
         11    1    4    4    0    0 -0.58830923218E+01 -0.11395442048E+02  0.75566392418E+01  0.14885216547E+02  0.51100000000E-03 0. -1.
        -11    1    4    4    0    0 -0.21280606876E+01  0.11685323349E+02  0.16876190622E+02  0.20636890130E+02  0.51100000000E-03 0.  1.
        -12    1    4    4    0    0  0.33631586860E+01  0.16799039627E+02  0.78494566228E+01  0.18844960547E+02  0.00000000000E+00 0.  1.
</event>
<event>
 8    1  0.3011071E-007  0.9118800E+02  0.7816164E-02  0.1184000E+00
        -11   -1    0    0    0    0  0.00000000000E+00  0.00000000000E+00  0.45593999997E+02  0.45594000000E+02  0.51100000000E-03 0.  1.
         11   -1    0    0    0    0 -0.00000000000E+00 -0.00000000000E+00 -0.45593999997E+02  0.45594000000E+02  0.51100000000E-03 0. -1.
         23    2    1    2    0    0  0.35527136788E-14 -0.44408920985E-15  0.35527136788E-14  0.91188000000E+02  0.91188000000E+02 0.  0.
    9900012    2    3    3    0    0 -0.25104758222E+02  0.30456323957E+01 -0.26762963309E+02  0.54367068899E+02  0.39999965169E+02 0.  0.
        -12    1    3    3    0    0  0.25104758222E+02 -0.30456323957E+01  0.26762963309E+02  0.36820931101E+02  0.00000000000E+00 0.  1.
         11    1    4    4    0    0 -0.12790847780E+02 -0.95394285357E+00 -0.17492803148E+02  0.21691333664E+02  0.51100000000E-03 0. -1.
        -11    1    4    4    0    0  0.25521211996E+01 -0.28724182067E+01 -0.14876886797E+02  0.15365086072E+02  0.51100000000E-03 0.  1.
         12    1    4    4    0    0 -0.14866031642E+02  0.68719934559E+01  0.56067266367E+01  0.17310649162E+02  0.00000000000E+00 0. -1.
</event>
<event>
 8    1  0.3011071E-007  0.9118800E+02  0.7816164E-02  0.1184000E+00
        -11   -1    0    0    0    0  0.00000000000E+00  0.00000000000E+00  0.45593999997E+02  0.45594000000E+02  0.51100000000E-03 0.  1.
         11   -1    0    0    0    0 -0.00000000000E+00 -0.00000000000E+00 -0.45593999997E+02  0.45594000000E+02  0.51100000000E-03 0. -1.
         23    2    1    2    0    0  0.00000000000E+00 -0.22204460493E-15  0.00000000000E+00  0.91188000000E+02  0.91188000000E+02 0.  0.
    9900012    2    3    3    0    0 -0.20032806550E+02  0.54395659963E+00  0.30889740074E+02  0.54367010484E+02  0.39999832001E+02 0.  0.
         12    1    3    3    0    0  0.20032806550E+02 -0.54395659963E+00 -0.30889740074E+02  0.36820989516E+02  0.00000000000E+00 0. -1.
         11    1    4    4    0    0 -0.22122898554E+02 -0.34616736797E+01  0.13291249902E+01  0.22431504599E+02  0.51100000000E-03 0. -1.
        -11    1    4    4    0    0 -0.41972892332E+01  0.19271727545E+01  0.67185215875E+01  0.81528991356E+01  0.51100000000E-03 0.  1.
        -12    1    4    4    0    0  0.62873812368E+01  0.20784575248E+01  0.22842093496E+02  0.23782606750E+02  0.00000000000E+00 0.  1.
</event>
<event>
 8    1  0.3011071E-007  0.9118800E+02  0.7816164E-02  0.1184000E+00
        -11   -1    0    0    0    0  0.00000000000E+00  0.00000000000E+00  0.45593999997E+02  0.45594000000E+02  0.51100000000E-03 0.  1.
         11   -1    0    0    0    0 -0.00000000000E+00 -0.00000000000E+00 -0.45593999997E+02  0.45594000000E+02  0.51100000000E-03 0. -1.
         23    2    1    2    0    0  0.17763568394E-14  0.00000000000E+00  0.00000000000E+00  0.91188000000E+02  0.91188000000E+02 0.  0.
    9900012    2    3    3    0    0 -0.99517313124E+01 -0.99076171710E+01 -0.34037956443E+02  0.54367077783E+02  0.39999985422E+02 0.  0.
        -12    1    3    3    0    0  0.99517313124E+01  0.99076171710E+01  0.34037956443E+02  0.36820922217E+02  0.00000000000E+00 0.  1.
         11    1    4    4    0    0  0.34972048943E+01  0.30498634538E+01 -0.17479451125E+02  0.18084892067E+02  0.51100000000E-03 0. -1.
        -11    1    4    4    0    0 -0.52165355216E+01 -0.35528217853E+01  0.71155105914E+01  0.95113236052E+01  0.51100000000E-03 0.  1.
        -12    1    4    4    0    0 -0.82324006850E+01 -0.94046588394E+01 -0.23674015909E+02  0.26770862111E+02  0.00000000000E+00 0.  1.
</event>
<event>
 8    1  0.3011071E-007  0.9118800E+02  0.7816164E-02  0.1184000E+00
        -11   -1    0    0    0    0  0.00000000000E+00  0.00000000000E+00  0.45593999997E+02  0.45594000000E+02  0.51100000000E-03 0.  1.
         11   -1    0    0    0    0 -0.00000000000E+00 -0.00000000000E+00 -0.45593999997E+02  0.45594000000E+02  0.51100000000E-03 0. -1.
         23    2    1    2    0    0  0.17763568394E-14  0.00000000000E+00 -0.71054273576E-14  0.91188000000E+02  0.91188000000E+02 0.  0.
    9900012    2    3    3    0    0  0.12768181089E+02  0.20946457305E+02 -0.27459046796E+02  0.54367085116E+02  0.40000002140E+02 0.  0.
        -12    1    3    3    0    0 -0.12768181089E+02 -0.20946457305E+02  0.27459046796E+02  0.36820914884E+02  0.00000000000E+00 0.  1.
         11    1    4    4    0    0  0.50088263644E+01 -0.35376145451E+01 -0.18825837074E+02  0.19799373728E+02  0.51100000000E-03 0. -1.
        -11    1    4    4    0    0  0.12057510932E+02  0.26179640490E+02 -0.69387982196E+01  0.29646316247E+02  0.51100000000E-03 0.  1.
         12    1    4    4    0    0 -0.42981562075E+01 -0.16955686399E+01 -0.16944115024E+01  0.49213951412E+01  0.00000000000E+00 0. -1.
</event>
<event>
 8    1  0.3011071E-007  0.9118800E+02  0.7816164E-02  0.1184000E+00
        -11   -1    0    0    0    0  0.00000000000E+00  0.00000000000E+00  0.45593999997E+02  0.45594000000E+02  0.51100000000E-03 0.  1.
         11   -1    0    0    0    0 -0.00000000000E+00 -0.00000000000E+00 -0.45593999997E+02  0.45594000000E+02  0.51100000000E-03 0. -1.
         23    2    1    2    0    0  0.00000000000E+00 -0.88817841970E-15 -0.15265566589E-15  0.91188000000E+02  0.91188000000E+02 0.  0.
    9900012    2    3    3    0    0  0.36126498865E+02  0.71166779153E+01  0.90559386661E-01  0.54367092546E+02  0.40000019076E+02 0.  0.
         12    1    3    3    0    0 -0.36126498865E+02 -0.71166779153E+01 -0.90559386661E-01  0.36820907454E+02  0.00000000000E+00 0. -1.
         11    1    4    4    0    0  0.14144751300E+01 -0.11562162967E+02 -0.58427780785E+01  0.13031592701E+02  0.51100000000E-03 0. -1.
        -11    1    4    4    0    0  0.95918894255E+01  0.26184954258E+01 -0.26859177239E+01  0.10299272563E+02  0.51100000000E-03 0.  1.
        -12    1    4    4    0    0  0.25120134309E+02  0.16060345457E+02  0.86192551891E+01  0.31036227282E+02  0.00000000000E+00 0.  1.
</event>
<event>
 8    1  0.3011071E-007  0.9118800E+02  0.7816164E-02  0.1184000E+00
        -11   -1    0    0    0    0  0.00000000000E+00  0.00000000000E+00  0.45593999997E+02  0.45594000000E+02  0.51100000000E-03 0. -1.
         11   -1    0    0    0    0 -0.00000000000E+00 -0.00000000000E+00 -0.45593999997E+02  0.45594000000E+02  0.51100000000E-03 0.  1.
         23    2    1    2    0    0  0.35527136788E-14  0.00000000000E+00  0.00000000000E+00  0.91188000000E+02  0.91188000000E+02 0.  0.
    9900012    2    3    3    0    0  0.17447914805E+02  0.10860139293E+02  0.30551710153E+02  0.54367090862E+02  0.40000015238E+02 0.  0.
        -12    1    3    3    0    0 -0.17447914805E+02 -0.10860139293E+02 -0.30551710153E+02  0.36820909138E+02  0.00000000000E+00 0.  1.
         11    1    4    4    0    0 -0.52425001232E+01 -0.90263487828E+00  0.30447879416E+01  0.61293793434E+01  0.51100000000E-03 0. -1.
        -11    1    4    4    0    0  0.20604343144E+02  0.30223116156E+01  0.16803303328E+01  0.20892506652E+02  0.51100000000E-03 0.  1.
         12    1    4    4    0    0  0.20860717844E+01  0.87404625553E+01  0.25826591878E+02  0.27345204867E+02  0.00000000000E+00 0. -1.
</event>
<event>
 8    1  0.3011071E-007  0.9118800E+02  0.7816164E-02  0.1184000E+00
        -11   -1    0    0    0    0  0.00000000000E+00  0.00000000000E+00  0.45593999997E+02  0.45594000000E+02  0.51100000000E-03 0. -1.
         11   -1    0    0    0    0 -0.00000000000E+00 -0.00000000000E+00 -0.45593999997E+02  0.45594000000E+02  0.51100000000E-03 0.  1.
         23    2    1    2    0    0  0.00000000000E+00 -0.71054273576E-14  0.00000000000E+00  0.91188000000E+02  0.91188000000E+02 0.  0.
    9900012    2    3    3    0    0 -0.17638646675E+02 -0.24802491650E+02 -0.20724298978E+02  0.54367054647E+02  0.39999932678E+02 0.  0.
         12    1    3    3    0    0  0.17638646675E+02  0.24802491650E+02  0.20724298978E+02  0.36820945353E+02  0.00000000000E+00 0. -1.
         11    1    4    4    0    0 -0.11817367434E+02 -0.15578759736E+02 -0.10953800709E+02  0.22412801659E+02  0.51100000000E-03 0. -1.
        -11    1    4    4    0    0 -0.28269744631E+01 -0.19223248019E+02 -0.92065332905E+01  0.21500821019E+02  0.51100000000E-03 0.  1.
         12    1    4    4    0    0 -0.29943047784E+01  0.99995161047E+01 -0.56396497871E+00  0.10453431969E+02  0.00000000000E+00 0. -1.
</event>
<event>
 8    1  0.3011071E-007  0.9118800E+02  0.7816164E-02  0.1184000E+00
        -11   -1    0    0    0    0  0.00000000000E+00  0.00000000000E+00  0.45593999997E+02  0.45594000000E+02  0.51100000000E-03 0.  1.
         11   -1    0    0    0    0 -0.00000000000E+00 -0.00000000000E+00 -0.45593999997E+02  0.45594000000E+02  0.51100000000E-03 0. -1.
         23    2    1    2    0    0  0.00000000000E+00  0.00000000000E+00  0.00000000000E+00  0.91188000000E+02  0.91188000000E+02 0.  0.
    9900012    2    3    3    0    0 -0.22587533042E+02  0.26395341980E+02 -0.12201171312E+02  0.54367091422E+02  0.40000016514E+02 0.  0.
        -12    1    3    3    0    0  0.22587533042E+02 -0.26395341980E+02  0.12201171312E+02  0.36820908578E+02  0.00000000000E+00 0.  1.
         11    1    4    4    0    0  0.71578054873E+01  0.10460109815E+02 -0.36690342478E+01  0.13195070645E+02  0.51100000000E-03 0. -1.
        -11    1    4    4    0    0 -0.34068002101E+01 -0.49705286494E+01 -0.40198040740E+01  0.72437053902E+01  0.51100000000E-03 0.  1.
        -12    1    4    4    0    0 -0.26338538319E+02  0.20905760813E+02 -0.45123329905E+01  0.33928315387E+02  0.00000000000E+00 0.  1.
</event>
<event>
 8    1  0.3011071E-007  0.9118800E+02  0.7816164E-02  0.1184000E+00
        -11   -1    0    0    0    0  0.00000000000E+00  0.00000000000E+00  0.45593999997E+02  0.45594000000E+02  0.51100000000E-03 0. -1.
         11   -1    0    0    0    0 -0.00000000000E+00 -0.00000000000E+00 -0.45593999997E+02  0.45594000000E+02  0.51100000000E-03 0.  1.
         23    2    1    2    0    0  0.00000000000E+00  0.00000000000E+00  0.00000000000E+00  0.91188000000E+02  0.91188000000E+02 0.  0.
    9900012    2    3    3    0    0 -0.17773950814E+02 -0.25512774494E+02  0.19722247512E+02  0.54367054373E+02  0.39999932055E+02 0.  0.
        -12    1    3    3    0    0  0.17773950814E+02  0.25512774494E+02 -0.19722247512E+02  0.36820945627E+02  0.00000000000E+00 0.  1.
         11    1    4    4    0    0  0.34885878523E+01 -0.17711961198E+02  0.10879160216E+02  0.21077000307E+02  0.51100000000E-03 0. -1.
        -11    1    4    4    0    0 -0.23283178873E+02 -0.79909027213E+01  0.13596404330E+02  0.28121578115E+02  0.51100000000E-03 0.  1.
         12    1    4    4    0    0  0.20206402068E+01  0.19008942461E+00 -0.47533170343E+01  0.51684759517E+01  0.00000000000E+00 0. -1.
</event>
<event>
 8    1  0.3011071E-007  0.9118800E+02  0.7816164E-02  0.1184000E+00
        -11   -1    0    0    0    0  0.00000000000E+00  0.00000000000E+00  0.45593999997E+02  0.45594000000E+02  0.51100000000E-03 0. -1.
         11   -1    0    0    0    0 -0.00000000000E+00 -0.00000000000E+00 -0.45593999997E+02  0.45594000000E+02  0.51100000000E-03 0.  1.
         23    2    1    2    0    0  0.88817841970E-15  0.00000000000E+00 -0.17763568394E-14  0.91188000000E+02  0.91188000000E+02 0.  0.
    9900012    2    3    3    0    0 -0.30346930282E+01  0.34882503691E+02 -0.11392156109E+02  0.54367086834E+02  0.40000006056E+02 0.  0.
         12    1    3    3    0    0  0.30346930282E+01 -0.34882503691E+02  0.11392156109E+02  0.36820913166E+02  0.00000000000E+00 0. -1.
         11    1    4    4    0    0  0.24915827434E+01 -0.19387251273E+01  0.16962692186E+01  0.35838483798E+01  0.51100000000E-03 0. -1.
        -11    1    4    4    0    0 -0.13605657080E+02  0.17275831190E+02 -0.18739517714E+02  0.28891828815E+02  0.51100000000E-03 0.  1.
        -12    1    4    4    0    0  0.80793813089E+01  0.19545397629E+02  0.56510923862E+01  0.21891409639E+02  0.00000000000E+00 0.  1.
</event>
<event>
 8    1  0.3011071E-007  0.9118800E+02  0.7816164E-02  0.1184000E+00
        -11   -1    0    0    0    0  0.00000000000E+00  0.00000000000E+00  0.45593999997E+02  0.45594000000E+02  0.51100000000E-03 0.  1.
         11   -1    0    0    0    0 -0.00000000000E+00 -0.00000000000E+00 -0.45593999997E+02  0.45594000000E+02  0.51100000000E-03 0. -1.
         23    2    1    2    0    0  0.00000000000E+00  0.35527136788E-14 -0.17763568394E-14  0.91188000000E+02  0.91188000000E+02 0.  0.
    9900012    2    3    3    0    0  0.23913541088E+02  0.26016599784E+02 -0.10346618211E+02  0.54367171383E+02  0.40000198800E+02 0.  0.
         12    1    3    3    0    0 -0.23913541088E+02 -0.26016599784E+02  0.10346618211E+02  0.36820828617E+02  0.00000000000E+00 0. -1.
         11    1    4    4    0    0 -0.54077432819E+01  0.99158358359E+00 -0.95692026868E+01  0.11036148138E+02  0.51100000000E-03 0. -1.
        -11    1    4    4    0    0  0.40482419239E+01  0.15816070345E+02  0.11295736004E+01  0.16364971146E+02  0.51100000000E-03 0.  1.
        -12    1    4    4    0    0  0.25273042446E+02  0.92089458549E+01 -0.19069891242E+01  0.26966052098E+02  0.00000000000E+00 0.  1.
</event>
<event>
 8    1  0.3011071E-007  0.9118800E+02  0.7816164E-02  0.1184000E+00
        -11   -1    0    0    0    0  0.00000000000E+00  0.00000000000E+00  0.45593999997E+02  0.45594000000E+02  0.51100000000E-03 0. -1.
         11   -1    0    0    0    0 -0.00000000000E+00 -0.00000000000E+00 -0.45593999997E+02  0.45594000000E+02  0.51100000000E-03 0.  1.
         23    2    1    2    0    0  0.00000000000E+00 -0.35527136788E-14  0.00000000000E+00  0.91188000000E+02  0.91188000000E+02 0.  0.
    9900012    2    3    3    0    0 -0.19072619981E+02 -0.29843376945E+02  0.10069167140E+02  0.54367080575E+02  0.39999991787E+02 0.  0.
         12    1    3    3    0    0  0.19072619981E+02  0.29843376945E+02 -0.10069167140E+02  0.36820919425E+02  0.00000000000E+00 0. -1.
         11    1    4    4    0    0 -0.24631942943E+02 -0.20771942932E+02  0.16306880122E+01  0.32262445195E+02  0.51100000000E-03 0. -1.
        -11    1    4    4    0    0  0.11799747251E+01  0.47551009285E+01 -0.71937366451E+00  0.49518505553E+01  0.51100000000E-03 0.  1.
         12    1    4    4    0    0  0.43793482373E+01 -0.13826534942E+02  0.91578527923E+01  0.17152784825E+02  0.00000000000E+00 0. -1.
</event>
<event>
 8    1  0.3011071E-007  0.9118800E+02  0.7816164E-02  0.1184000E+00
        -11   -1    0    0    0    0  0.00000000000E+00  0.00000000000E+00  0.45593999997E+02  0.45594000000E+02  0.51100000000E-03 0.  1.
         11   -1    0    0    0    0 -0.00000000000E+00 -0.00000000000E+00 -0.45593999997E+02  0.45594000000E+02  0.51100000000E-03 0. -1.
         23    2    1    2    0    0  0.00000000000E+00  0.00000000000E+00 -0.22204460493E-15  0.91188000000E+02  0.91188000000E+02 0.  0.
    9900012    2    3    3    0    0  0.35082685586E+02 -0.11176043022E+02 -0.29235581745E+00  0.54367024490E+02  0.39999863930E+02 0.  0.
        -12    1    3    3    0    0 -0.35082685586E+02  0.11176043022E+02  0.29235581745E+00  0.36820975510E+02  0.00000000000E+00 0.  1.
         11    1    4    4    0    0  0.56765669056E+01 -0.79656956311E+01  0.11403448399E+02  0.15023792942E+02  0.51100000000E-03 0. -1.
        -11    1    4    4    0    0 -0.83047002829E+00  0.45017392798E+01 -0.61228064348E+01  0.76448738322E+01  0.51100000000E-03 0.  1.
         12    1    4    4    0    0  0.30236588709E+02 -0.77120866710E+01 -0.55729977818E+01  0.31698357715E+02  0.00000000000E+00 0. -1.
</event>
<event>
 8    1  0.3011071E-007  0.9118800E+02  0.7816164E-02  0.1184000E+00
        -11   -1    0    0    0    0  0.00000000000E+00  0.00000000000E+00  0.45593999997E+02  0.45594000000E+02  0.51100000000E-03 0. -1.
         11   -1    0    0    0    0 -0.00000000000E+00 -0.00000000000E+00 -0.45593999997E+02  0.45594000000E+02  0.51100000000E-03 0.  1.
         23    2    1    2    0    0  0.35527136788E-14 -0.13322676296E-14  0.35527136788E-14  0.91188000000E+02  0.91188000000E+02 0.  0.
    9900012    2    3    3    0    0 -0.27423961652E+02 -0.23217431918E+01 -0.24460507821E+02  0.54367073789E+02  0.39999976316E+02 0.  0.
         12    1    3    3    0    0  0.27423961652E+02  0.23217431918E+01  0.24460507821E+02  0.36820926211E+02  0.00000000000E+00 0. -1.
         11    1    4    4    0    0 -0.82193178737E+01  0.12101472100E+02 -0.12908193905E+02  0.19509594651E+02  0.51100000000E-03 0. -1.
        -11    1    4    4    0    0 -0.77065560664E+01 -0.17233302019E+02 -0.13016914438E+02  0.22930716662E+02  0.51100000000E-03 0.  1.
         12    1    4    4    0    0 -0.11498087712E+02  0.28100867271E+01  0.14646005218E+01  0.11926762475E+02  0.00000000000E+00 0. -1.
</event>
<event>
 8    1  0.3011071E-007  0.9118800E+02  0.7816164E-02  0.1184000E+00
        -11   -1    0    0    0    0  0.00000000000E+00  0.00000000000E+00  0.45593999997E+02  0.45594000000E+02  0.51100000000E-03 0.  1.
         11   -1    0    0    0    0 -0.00000000000E+00 -0.00000000000E+00 -0.45593999997E+02  0.45594000000E+02  0.51100000000E-03 0. -1.
         23    2    1    2    0    0  0.00000000000E+00  0.35527136788E-14  0.35527136788E-14  0.91188000000E+02  0.91188000000E+02 0.  0.
    9900012    2    3    3    0    0 -0.15767526058E+02  0.26092692561E+02 -0.20648003236E+02  0.54367034223E+02  0.39999886119E+02 0.  0.
        -12    1    3    3    0    0  0.15767526058E+02 -0.26092692561E+02  0.20648003236E+02  0.36820965777E+02  0.00000000000E+00 0.  1.
         11    1    4    4    0    0 -0.62795168215E+01  0.19400833963E+01 -0.15315934220E+02  0.16666556224E+02  0.51100000000E-03 0. -1.
        -11    1    4    4    0    0  0.67771044230E+01  0.81960351604E+01 -0.98224109035E+01  0.14477012569E+02  0.51100000000E-03 0.  1.
         12    1    4    4    0    0 -0.16265113660E+02  0.15956574004E+02  0.44903418867E+01  0.23223465430E+02  0.00000000000E+00 0. -1.
</event>
<event>
 8    1  0.3011071E-007  0.9118800E+02  0.7816164E-02  0.1184000E+00
        -11   -1    0    0    0    0  0.00000000000E+00  0.00000000000E+00  0.45593999997E+02  0.45594000000E+02  0.51100000000E-03 0.  1.
         11   -1    0    0    0    0 -0.00000000000E+00 -0.00000000000E+00 -0.45593999997E+02  0.45594000000E+02  0.51100000000E-03 0. -1.
         23    2    1    2    0    0  0.35527136788E-14 -0.71054273576E-14  0.35527136788E-14  0.91188000000E+02  0.91188000000E+02 0.  0.
    9900012    2    3    3    0    0 -0.25087379687E+02  0.23574781374E+02 -0.13062710296E+02  0.54367063881E+02  0.39999953730E+02 0.  0.
         12    1    3    3    0    0  0.25087379687E+02 -0.23574781374E+02  0.13062710296E+02  0.36820936119E+02  0.00000000000E+00 0. -1.
         11    1    4    4    0    0 -0.20695736099E+02  0.21143418996E+02 -0.19274791530E+02  0.35311120746E+02  0.51100000000E-03 0. -1.
        -11    1    4    4    0    0 -0.84789722424E+01  0.67117310360E+01  0.49200384735E+00  0.10825080685E+02  0.51100000000E-03 0.  1.
         12    1    4    4    0    0  0.40873286544E+01 -0.42803686585E+01  0.57200773861E+01  0.82308624508E+01  0.00000000000E+00 0. -1.
</event>
<event>
 8    1  0.3011071E-007  0.9118800E+02  0.7816164E-02  0.1184000E+00
        -11   -1    0    0    0    0  0.00000000000E+00  0.00000000000E+00  0.45593999997E+02  0.45594000000E+02  0.51100000000E-03 0.  1.
         11   -1    0    0    0    0 -0.00000000000E+00 -0.00000000000E+00 -0.45593999997E+02  0.45594000000E+02  0.51100000000E-03 0. -1.
         23    2    1    2    0    0  0.00000000000E+00  0.35527136788E-14 -0.71054273576E-14  0.91188000000E+02  0.91188000000E+02 0.  0.
    9900012    2    3    3    0    0 -0.82903507125E+01  0.12860218515E+02 -0.33491279855E+02  0.54367068975E+02  0.39999965342E+02 0.  0.
        -12    1    3    3    0    0  0.82903507125E+01 -0.12860218515E+02  0.33491279855E+02  0.36820931025E+02  0.00000000000E+00 0.  1.
         11    1    4    4    0    0  0.12188244793E+01 -0.73116749202E+01 -0.11889349700E+02  0.14010808678E+02  0.51100000000E-03 0. -1.
        -11    1    4    4    0    0  0.64731934155E+01 -0.19771955344E+01 -0.39868786097E+01  0.78553635489E+01  0.51100000000E-03 0.  1.
         12    1    4    4    0    0 -0.15982368607E+02  0.22149088970E+02 -0.17615051545E+02  0.32500896748E+02  0.00000000000E+00 0. -1.
</event>
<event>
 8    1  0.3011071E-007  0.9118800E+02  0.7816164E-02  0.1184000E+00
        -11   -1    0    0    0    0  0.00000000000E+00  0.00000000000E+00  0.45593999997E+02  0.45594000000E+02  0.51100000000E-03 0. -1.
         11   -1    0    0    0    0 -0.00000000000E+00 -0.00000000000E+00 -0.45593999997E+02  0.45594000000E+02  0.51100000000E-03 0.  1.
         23    2    1    2    0    0  0.00000000000E+00 -0.88817841970E-15  0.71054273576E-14  0.91188000000E+02  0.91188000000E+02 0.  0.
    9900012    2    3    3    0    0  0.80624463013E+01  0.65728279532E+01 -0.35321028305E+02  0.54367080019E+02  0.39999990520E+02 0.  0.
         12    1    3    3    0    0 -0.80624463013E+01 -0.65728279532E+01  0.35321028305E+02  0.36820919981E+02  0.00000000000E+00 0. -1.
         11    1    4    4    0    0  0.44939211183E+01 -0.13842892907E+02 -0.12335984887E+02  0.19078719413E+02  0.51100000000E-03 0. -1.
        -11    1    4    4    0    0 -0.68765220538E+01  0.83651843464E+01 -0.92964235401E+01  0.14271872884E+02  0.51100000000E-03 0.  1.
         12    1    4    4    0    0  0.10445047237E+02  0.12050536513E+02 -0.13688619879E+02  0.21016487723E+02  0.00000000000E+00 0. -1.
</event>
<event>
 8    1  0.3011071E-007  0.9118800E+02  0.7816164E-02  0.1184000E+00
        -11   -1    0    0    0    0  0.00000000000E+00  0.00000000000E+00  0.45593999997E+02  0.45594000000E+02  0.51100000000E-03 0. -1.
         11   -1    0    0    0    0 -0.00000000000E+00 -0.00000000000E+00 -0.45593999997E+02  0.45594000000E+02  0.51100000000E-03 0.  1.
         23    2    1    2    0    0 -0.35527136788E-14  0.00000000000E+00  0.35527136788E-14  0.91188000000E+02  0.91188000000E+02 0.  0.
    9900012    2    3    3    0    0 -0.16836085484E+02  0.15337400926E+02  0.28932506906E+02  0.54367087498E+02  0.40000007570E+02 0.  0.
        -12    1    3    3    0    0  0.16836085484E+02 -0.15337400926E+02 -0.28932506906E+02  0.36820912502E+02  0.00000000000E+00 0.  1.
         11    1    4    4    0    0 -0.15152045123E+01 -0.71564682266E+01  0.33199750179E+01  0.80332506853E+01  0.51100000000E-03 0. -1.
        -11    1    4    4    0    0  0.45203629193E+01  0.14416325378E+02  0.18225625033E+02  0.23673561761E+02  0.51100000000E-03 0.  1.
         12    1    4    4    0    0 -0.19841243891E+02  0.80775437743E+01  0.73869068550E+01  0.22660275053E+02  0.00000000000E+00 0. -1.
</event>
<event>
 8    1  0.3011071E-007  0.9118800E+02  0.7816164E-02  0.1184000E+00
        -11   -1    0    0    0    0  0.00000000000E+00  0.00000000000E+00  0.45593999997E+02  0.45594000000E+02  0.51100000000E-03 0.  1.
         11   -1    0    0    0    0 -0.00000000000E+00 -0.00000000000E+00 -0.45593999997E+02  0.45594000000E+02  0.51100000000E-03 0. -1.
         23    2    1    2    0    0  0.00000000000E+00  0.44408920985E-15 -0.35527136788E-14  0.91188000000E+02  0.91188000000E+02 0.  0.
    9900012    2    3    3    0    0  0.32128345990E+02 -0.14366038284E+01 -0.17930006113E+02  0.54367087928E+02  0.40000008549E+02 0.  0.
        -12    1    3    3    0    0 -0.32128345990E+02  0.14366038284E+01  0.17930006113E+02  0.36820912072E+02  0.00000000000E+00 0.  1.
         11    1    4    4    0    0  0.20117529129E+01  0.36500459191E+01 -0.99269827726E+01  0.10766381575E+02  0.51100000000E-03 0. -1.
        -11    1    4    4    0    0  0.26831294224E+02  0.29443130015E+01  0.55029989153E+01  0.27547601095E+02  0.51100000000E-03 0.  1.
         12    1    4    4    0    0  0.32852988530E+01 -0.80309627489E+01 -0.13506022256E+02  0.16053105258E+02  0.00000000000E+00 0. -1.
</event>
<event>
 8    1  0.3011071E-007  0.9118800E+02  0.7816164E-02  0.1184000E+00
        -11   -1    0    0    0    0  0.00000000000E+00  0.00000000000E+00  0.45593999997E+02  0.45594000000E+02  0.51100000000E-03 0.  1.
         11   -1    0    0    0    0 -0.00000000000E+00 -0.00000000000E+00 -0.45593999997E+02  0.45594000000E+02  0.51100000000E-03 0. -1.
         23    2    1    2    0    0  0.00000000000E+00  0.00000000000E+00 -0.12767564783E-14  0.91188000000E+02  0.91188000000E+02 0.  0.
    9900012    2    3    3    0    0 -0.13617803369E+02 -0.34207008277E+02 -0.46436623165E+00  0.54367087194E+02  0.40000006876E+02 0.  0.
        -12    1    3    3    0    0  0.13617803369E+02  0.34207008277E+02  0.46436623165E+00  0.36820912806E+02  0.00000000000E+00 0.  1.
         11    1    4    4    0    0 -0.32439369472E+01 -0.18283366643E+02 -0.14542081546E+02  0.23585520106E+02  0.51100000000E-03 0. -1.
        -11    1    4    4    0    0 -0.93772019811E+01  0.14870464206E+01  0.23981098892E+01  0.97925561195E+01  0.51100000000E-03 0.  1.
         12    1    4    4    0    0 -0.99666444033E+00 -0.17410688055E+02  0.11679605425E+02  0.20989010969E+02  0.00000000000E+00 0. -1.
</event>
<event>
 8    1  0.3011071E-007  0.9118800E+02  0.7816164E-02  0.1184000E+00
        -11   -1    0    0    0    0  0.00000000000E+00  0.00000000000E+00  0.45593999997E+02  0.45594000000E+02  0.51100000000E-03 0. -1.
         11   -1    0    0    0    0 -0.00000000000E+00 -0.00000000000E+00 -0.45593999997E+02  0.45594000000E+02  0.51100000000E-03 0.  1.
         23    2    1    2    0    0 -0.17763568394E-14 -0.17763568394E-14  0.00000000000E+00  0.91188000000E+02  0.91188000000E+02 0.  0.
    9900012    2    3    3    0    0 -0.11520233041E+02  0.97103140649E+01 -0.33597223110E+02  0.54367090597E+02  0.40000014634E+02 0.  0.
         12    1    3    3    0    0  0.11520233041E+02 -0.97103140649E+01  0.33597223110E+02  0.36820909403E+02  0.00000000000E+00 0. -1.
         11    1    4    4    0    0  0.72635240537E+01  0.13607567537E+02 -0.32020216730E+01  0.15753654148E+02  0.51100000000E-03 0. -1.
        -11    1    4    4    0    0 -0.11240776461E+02 -0.46445271385E+01 -0.28217215553E+02  0.30726827718E+02  0.51100000000E-03 0.  1.
         12    1    4    4    0    0 -0.75429806332E+01  0.74727366623E+00 -0.21779858844E+01  0.78866087311E+01  0.00000000000E+00 0. -1.
</event>
<event>
 8    1  0.3011071E-007  0.9118800E+02  0.7816164E-02  0.1184000E+00
        -11   -1    0    0    0    0  0.00000000000E+00  0.00000000000E+00  0.45593999997E+02  0.45594000000E+02  0.51100000000E-03 0.  1.
         11   -1    0    0    0    0 -0.00000000000E+00 -0.00000000000E+00 -0.45593999997E+02  0.45594000000E+02  0.51100000000E-03 0. -1.
         23    2    1    2    0    0  0.00000000000E+00  0.00000000000E+00  0.00000000000E+00  0.91188000000E+02  0.91188000000E+02 0.  0.
    9900012    2    3    3    0    0 -0.16251432800E+02 -0.28641515443E+02  0.16472230435E+02  0.54367084063E+02  0.39999999738E+02 0.  0.
         12    1    3    3    0    0  0.16251432800E+02  0.28641515443E+02 -0.16472230435E+02  0.36820915937E+02  0.00000000000E+00 0. -1.
         11    1    4    4    0    0  0.38614793362E+01 -0.11287449349E+02  0.10068264509E+02  0.15610492816E+02  0.51100000000E-03 0. -1.
        -11    1    4    4    0    0 -0.91477705476E+01 -0.67554755028E+01 -0.10858061436E+02  0.15723093006E+02  0.51100000000E-03 0.  1.
        -12    1    4    4    0    0 -0.10965141588E+02 -0.10598590591E+02  0.17262027362E+02  0.23033498241E+02  0.00000000000E+00 0.  1.
</event>
<event>
 8    1  0.3011071E-007  0.9118800E+02  0.7816164E-02  0.1184000E+00
        -11   -1    0    0    0    0  0.00000000000E+00  0.00000000000E+00  0.45593999997E+02  0.45594000000E+02  0.51100000000E-03 0.  1.
         11   -1    0    0    0    0 -0.00000000000E+00 -0.00000000000E+00 -0.45593999997E+02  0.45594000000E+02  0.51100000000E-03 0. -1.
         23    2    1    2    0    0  0.00000000000E+00  0.00000000000E+00  0.00000000000E+00  0.91188000000E+02  0.91188000000E+02 0.  0.
    9900012    2    3    3    0    0  0.30769804085E+02 -0.65705297982E+01 -0.19126613351E+02  0.54367081441E+02  0.39999993760E+02 0.  0.
        -12    1    3    3    0    0 -0.30769804085E+02  0.65705297982E+01  0.19126613351E+02  0.36820918559E+02  0.00000000000E+00 0.  1.
         11    1    4    4    0    0  0.19089045125E+02 -0.15691881652E+02 -0.47966968290E+01  0.25172109453E+02  0.51100000000E-03 0. -1.
        -11    1    4    4    0    0  0.15135034615E+02  0.27015614293E+01 -0.29110624457E+01  0.15647427641E+02  0.51100000000E-03 0.  1.
         12    1    4    4    0    0 -0.34542756552E+01  0.64197904249E+01 -0.11418854076E+02  0.13547544346E+02  0.00000000000E+00 0. -1.
</event>
<event>
 8    1  0.3011071E-007  0.9118800E+02  0.7816164E-02  0.1184000E+00
        -11   -1    0    0    0    0  0.00000000000E+00  0.00000000000E+00  0.45593999997E+02  0.45594000000E+02  0.51100000000E-03 0.  1.
         11   -1    0    0    0    0 -0.00000000000E+00 -0.00000000000E+00 -0.45593999997E+02  0.45594000000E+02  0.51100000000E-03 0. -1.
         23    2    1    2    0    0 -0.44408920985E-15  0.00000000000E+00  0.00000000000E+00  0.91188000000E+02  0.91188000000E+02 0.  0.
    9900012    2    3    3    0    0  0.72294010393E+00 -0.53709329140E+01  0.36419934198E+02  0.54367066148E+02  0.39999958897E+02 0.  0.
         12    1    3    3    0    0 -0.72294010393E+00  0.53709329140E+01 -0.36419934198E+02  0.36820933852E+02  0.00000000000E+00 0. -1.
         11    1    4    4    0    0  0.41345188917E+01 -0.97696937621E+01  0.11246991203E+02  0.15460788274E+02  0.51100000000E-03 0. -1.
        -11    1    4    4    0    0 -0.47726204122E+00  0.46105259979E+01 -0.60072468124E+01  0.75876045996E+01  0.51100000000E-03 0.  1.
         12    1    4    4    0    0 -0.29343167465E+01 -0.21176514983E+00  0.31180189807E+02  0.31318673274E+02  0.00000000000E+00 0. -1.
</event>
<event>
 8    1  0.3011071E-007  0.9118800E+02  0.7816164E-02  0.1184000E+00
        -11   -1    0    0    0    0  0.00000000000E+00  0.00000000000E+00  0.45593999997E+02  0.45594000000E+02  0.51100000000E-03 0.  1.
         11   -1    0    0    0    0 -0.00000000000E+00 -0.00000000000E+00 -0.45593999997E+02  0.45594000000E+02  0.51100000000E-03 0. -1.
         23    2    1    2    0    0  0.00000000000E+00  0.00000000000E+00  0.13322676296E-14  0.91188000000E+02  0.91188000000E+02 0.  0.
    9900012    2    3    3    0    0  0.32539926770E+02 -0.16966035961E+02 -0.30145740893E+01  0.54367070254E+02  0.39999968259E+02 0.  0.
        -12    1    3    3    0    0 -0.32539926770E+02  0.16966035961E+02  0.30145740893E+01  0.36820929746E+02  0.00000000000E+00 0.  1.
         11    1    4    4    0    0 -0.31980773490E+01  0.90756352760E+00 -0.44635875797E+01  0.55655174629E+01  0.51100000000E-03 0. -1.
        -11    1    4    4    0    0  0.13503187871E+00 -0.38073612741E+01  0.90088405538E+01  0.97812801751E+01  0.51100000000E-03 0.  1.
         12    1    4    4    0    0  0.35602972240E+02 -0.14066238214E+02 -0.75598270634E+01  0.39020272616E+02  0.00000000000E+00 0. -1.
</event>
<event>
 8    1  0.3011071E-007  0.9118800E+02  0.7816164E-02  0.1184000E+00
        -11   -1    0    0    0    0  0.00000000000E+00  0.00000000000E+00  0.45593999997E+02  0.45594000000E+02  0.51100000000E-03 0.  1.
         11   -1    0    0    0    0 -0.00000000000E+00 -0.00000000000E+00 -0.45593999997E+02  0.45594000000E+02  0.51100000000E-03 0. -1.
         23    2    1    2    0    0  0.00000000000E+00  0.88817841970E-15  0.35527136788E-14  0.91188000000E+02  0.91188000000E+02 0.  0.
    9900012    2    3    3    0    0  0.25609179877E+02  0.65668536055E+01  0.25628613474E+02  0.54367088973E+02  0.40000010932E+02 0.  0.
         12    1    3    3    0    0 -0.25609179877E+02 -0.65668536055E+01 -0.25628613474E+02  0.36820911027E+02  0.00000000000E+00 0. -1.
         11    1    4    4    0    0 -0.48167399351E+01 -0.24457919561E+01  0.18950699980E+02  0.19705631477E+02  0.51100000000E-03 0.  1.
        -11    1    4    4    0    0  0.13578986888E+02  0.81280508823E+01 -0.15319215893E+01  0.15899713207E+02  0.51100000000E-03 0. -1.
        -12    1    4    4    0    0  0.16846932924E+02  0.88459467930E+00  0.82098350834E+01  0.18761744290E+02  0.00000000000E+00 0.  1.
</event>
<event>
 8    1  0.3011071E-007  0.9118800E+02  0.7816164E-02  0.1184000E+00
        -11   -1    0    0    0    0  0.00000000000E+00  0.00000000000E+00  0.45593999997E+02  0.45594000000E+02  0.51100000000E-03 0. -1.
         11   -1    0    0    0    0 -0.00000000000E+00 -0.00000000000E+00 -0.45593999997E+02  0.45594000000E+02  0.51100000000E-03 0.  1.
         23    2    1    2    0    0  0.35527136788E-14 -0.17763568394E-14 -0.71054273576E-14  0.91188000000E+02  0.91188000000E+02 0.  0.
    9900012    2    3    3    0    0  0.16710616271E+02 -0.90940847682E+01 -0.31525104631E+02  0.54367091593E+02  0.40000016904E+02 0.  0.
         12    1    3    3    0    0 -0.16710616271E+02  0.90940847682E+01  0.31525104631E+02  0.36820908407E+02  0.00000000000E+00 0. -1.
         11    1    4    4    0    0 -0.41212859405E+01 -0.11831677159E+01 -0.24545839510E+02  0.24917526385E+02  0.51100000000E-03 0.  1.
        -11    1    4    4    0    0 -0.23758002275E+01  0.52262934715E+00  0.20263819963E+01  0.31660373358E+01  0.51100000000E-03 0. -1.
        -12    1    4    4    0    0  0.23207702439E+02 -0.84335463994E+01 -0.90056471174E+01  0.26283527872E+02  0.00000000000E+00 0.  1.
</event>
<event>
 8    1  0.3011071E-007  0.9118800E+02  0.7816164E-02  0.1184000E+00
        -11   -1    0    0    0    0  0.00000000000E+00  0.00000000000E+00  0.45593999997E+02  0.45594000000E+02  0.51100000000E-03 0. -1.
         11   -1    0    0    0    0 -0.00000000000E+00 -0.00000000000E+00 -0.45593999997E+02  0.45594000000E+02  0.51100000000E-03 0.  1.
         23    2    1    2    0    0  0.00000000000E+00  0.35527136788E-14  0.17763568394E-14  0.91188000000E+02  0.91188000000E+02 0.  0.
    9900012    2    3    3    0    0 -0.21836830266E+02  0.26923819440E+02  0.12411332227E+02  0.54367076913E+02  0.39999983439E+02 0.  0.
        -12    1    3    3    0    0  0.21836830266E+02 -0.26923819440E+02 -0.12411332227E+02  0.36820923087E+02  0.00000000000E+00 0.  1.
         11    1    4    4    0    0 -0.53107453132E+01  0.11797864972E+02 -0.81761450515E+01  0.15304998590E+02  0.51100000000E-03 0. -1.
        -11    1    4    4    0    0 -0.99174337146E+01 -0.40644040422E+01  0.85086277890E+00  0.10751690073E+02  0.51100000000E-03 0.  1.
         12    1    4    4    0    0 -0.66086512378E+01  0.19190358511E+02  0.19736614500E+02  0.28310388250E+02  0.00000000000E+00 0. -1.
</event>
<event>
 8    1  0.3011071E-007  0.9118800E+02  0.7816164E-02  0.1184000E+00
        -11   -1    0    0    0    0  0.00000000000E+00  0.00000000000E+00  0.45593999997E+02  0.45594000000E+02  0.51100000000E-03 0.  1.
         11   -1    0    0    0    0 -0.00000000000E+00 -0.00000000000E+00 -0.45593999997E+02  0.45594000000E+02  0.51100000000E-03 0. -1.
         23    2    1    2    0    0 -0.35527136788E-14  0.35527136788E-14  0.17763568394E-14  0.91188000000E+02  0.91188000000E+02 0.  0.
    9900012    2    3    3    0    0 -0.12913948192E+02  0.31136452597E+02 -0.14816839775E+02  0.54366980471E+02  0.39999763580E+02 0.  0.
        -12    1    3    3    0    0  0.12913948192E+02 -0.31136452597E+02  0.14816839775E+02  0.36821019529E+02  0.00000000000E+00 0.  1.
         11    1    4    4    0    0  0.70617995997E+00  0.21556821965E+01  0.41161396367E+01  0.46998150643E+01  0.51100000000E-03 0. -1.
        -11    1    4    4    0    0 -0.16252491300E+02  0.32657385077E+01 -0.17001445411E+02  0.23745687351E+02  0.51100000000E-03 0.  1.
         12    1    4    4    0    0  0.26323631487E+01  0.25715031893E+02 -0.19315340006E+01  0.25921478056E+02  0.00000000000E+00 0. -1.
</event>
<event>
 8    1  0.3011071E-007  0.9118800E+02  0.7816164E-02  0.1184000E+00
        -11   -1    0    0    0    0  0.00000000000E+00  0.00000000000E+00  0.45593999997E+02  0.45594000000E+02  0.51100000000E-03 0. -1.
         11   -1    0    0    0    0 -0.00000000000E+00 -0.00000000000E+00 -0.45593999997E+02  0.45594000000E+02  0.51100000000E-03 0.  1.
         23    2    1    2    0    0  0.00000000000E+00 -0.88817841970E-15  0.00000000000E+00  0.91188000000E+02  0.91188000000E+02 0.  0.
    9900012    2    3    3    0    0  0.33042588895E+02  0.68766665997E+01 -0.14719952955E+02  0.54367105940E+02  0.40000049611E+02 0.  0.
        -12    1    3    3    0    0 -0.33042588895E+02 -0.68766665997E+01  0.14719952955E+02  0.36820894060E+02  0.00000000000E+00 0.  1.
         11    1    4    4    0    0  0.31794340722E+02 -0.24893195896E+01 -0.16821562431E+02  0.36056092090E+02  0.51100000000E-03 0. -1.
        -11    1    4    4    0    0  0.83933490482E+00  0.75225513651E+01  0.86509670227E+01  0.11494889856E+02  0.51100000000E-03 0.  1.
        -12    1    4    4    0    0  0.40891326779E+00  0.18434348242E+01 -0.65493575470E+01  0.68161239932E+01  0.00000000000E+00 0.  1.
</event>
<event>
 8    1  0.3011071E-007  0.9118800E+02  0.7816164E-02  0.1184000E+00
        -11   -1    0    0    0    0  0.00000000000E+00  0.00000000000E+00  0.45593999997E+02  0.45594000000E+02  0.51100000000E-03 0. -1.
         11   -1    0    0    0    0 -0.00000000000E+00 -0.00000000000E+00 -0.45593999997E+02  0.45594000000E+02  0.51100000000E-03 0.  1.
         23    2    1    2    0    0  0.00000000000E+00 -0.17763568394E-14  0.00000000000E+00  0.91188000000E+02  0.91188000000E+02 0.  0.
    9900012    2    3    3    0    0  0.26539352318E+02  0.11383277301E+02 -0.22844333894E+02  0.54367084550E+02  0.40000000848E+02 0.  0.
         12    1    3    3    0    0 -0.26539352318E+02 -0.11383277301E+02  0.22844333894E+02  0.36820915450E+02  0.00000000000E+00 0. -1.
         11    1    4    4    0    0  0.77173602559E+01 -0.74698206006E+00  0.21235472772E+01  0.80389728708E+01  0.51100000000E-03 0. -1.
        -11    1    4    4    0    0  0.13100598364E+02 -0.78202204554E+01 -0.20256740389E+01  0.15391064974E+02  0.51100000000E-03 0.  1.
        -12    1    4    4    0    0  0.57213936976E+01  0.19950479816E+02 -0.22942207132E+02  0.30937046705E+02  0.00000000000E+00 0.  1.
</event>
<event>
 8    1  0.3011071E-007  0.9118800E+02  0.7816164E-02  0.1184000E+00
        -11   -1    0    0    0    0  0.00000000000E+00  0.00000000000E+00  0.45593999997E+02  0.45594000000E+02  0.51100000000E-03 0.  1.
         11   -1    0    0    0    0 -0.00000000000E+00 -0.00000000000E+00 -0.45593999997E+02  0.45594000000E+02  0.51100000000E-03 0. -1.
         23    2    1    2    0    0  0.00000000000E+00  0.17763568394E-14  0.00000000000E+00  0.91188000000E+02  0.91188000000E+02 0.  0.
    9900012    2    3    3    0    0  0.18234688092E+02  0.10325992318E+02 -0.30276230104E+02  0.54367080993E+02  0.39999992741E+02 0.  0.
        -12    1    3    3    0    0 -0.18234688092E+02 -0.10325992318E+02  0.30276230104E+02  0.36820919007E+02  0.00000000000E+00 0.  1.
         11    1    4    4    0    0  0.51863772185E+01  0.18601967064E+02 -0.18133391435E+02  0.26490594039E+02  0.51100000000E-03 0. -1.
        -11    1    4    4    0    0  0.11244766043E+02  0.18144237507E+01 -0.13357475061E+02  0.17554459182E+02  0.51100000000E-03 0.  1.
        -12    1    4    4    0    0  0.18035448303E+01 -0.10090398497E+02  0.12146363920E+01  0.10322027773E+02  0.00000000000E+00 0.  1.
</event>
<event>
 8    1  0.3011071E-007  0.9118800E+02  0.7816164E-02  0.1184000E+00
        -11   -1    0    0    0    0  0.00000000000E+00  0.00000000000E+00  0.45593999997E+02  0.45594000000E+02  0.51100000000E-03 0.  1.
         11   -1    0    0    0    0 -0.00000000000E+00 -0.00000000000E+00 -0.45593999997E+02  0.45594000000E+02  0.51100000000E-03 0. -1.
         23    2    1    2    0    0  0.17763568394E-14 -0.26645352591E-14  0.00000000000E+00  0.91188000000E+02  0.91188000000E+02 0.  0.
    9900012    2    3    3    0    0 -0.15282383998E+02 -0.33826739846E+01 -0.33328435541E+02  0.54367104309E+02  0.40000045892E+02 0.  0.
        -12    1    3    3    0    0  0.15282383998E+02  0.33826739846E+01  0.33328435541E+02  0.36820895691E+02  0.00000000000E+00 0.  1.
         11    1    4    4    0    0 -0.83429116573E+01 -0.17608942591E+02 -0.35678336741E+01  0.19809302650E+02  0.51100000000E-03 0.  1.
        -11    1    4    4    0    0 -0.50226465664E+01  0.42553458358E+01 -0.68619400643E+01  0.95090045967E+01  0.51100000000E-03 0. -1.
        -12    1    4    4    0    0 -0.19168257740E+01  0.99709227701E+01 -0.22898661802E+02  0.25048797062E+02  0.00000000000E+00 0.  1.
</event>
<event>
 8    1  0.3011071E-007  0.9118800E+02  0.7816164E-02  0.1184000E+00
        -11   -1    0    0    0    0  0.00000000000E+00  0.00000000000E+00  0.45593999997E+02  0.45594000000E+02  0.51100000000E-03 0. -1.
         11   -1    0    0    0    0 -0.00000000000E+00 -0.00000000000E+00 -0.45593999997E+02  0.45594000000E+02  0.51100000000E-03 0.  1.
         23    2    1    2    0    0  0.00000000000E+00 -0.35527136788E-14  0.00000000000E+00  0.91188000000E+02  0.91188000000E+02 0.  0.
    9900012    2    3    3    0    0  0.28395903209E+02 -0.22999629539E+02 -0.45249829120E+01  0.54367003974E+02  0.39999817160E+02 0.  0.
        -12    1    3    3    0    0 -0.28395903209E+02  0.22999629539E+02  0.45249829120E+01  0.36820996026E+02  0.00000000000E+00 0.  1.
         11    1    4    4    0    0  0.18228623276E+02 -0.10684651987E+02  0.16819927389E+02  0.27006563133E+02  0.51100000000E-03 0.  1.
        -11    1    4    4    0    0  0.77182004409E+01 -0.11361990686E+02 -0.14239215054E+02  0.19784354829E+02  0.51100000000E-03 0. -1.
        -12    1    4    4    0    0  0.24490794919E+01 -0.95298686603E+00 -0.71056952471E+01  0.75760860125E+01  0.00000000000E+00 0.  1.
</event>
<event>
 8    1  0.3011071E-007  0.9118800E+02  0.7816164E-02  0.1184000E+00
        -11   -1    0    0    0    0  0.00000000000E+00  0.00000000000E+00  0.45593999997E+02  0.45594000000E+02  0.51100000000E-03 0. -1.
         11   -1    0    0    0    0 -0.00000000000E+00 -0.00000000000E+00 -0.45593999997E+02  0.45594000000E+02  0.51100000000E-03 0.  1.
         23    2    1    2    0    0 -0.35527136788E-14  0.00000000000E+00  0.00000000000E+00  0.91188000000E+02  0.91188000000E+02 0.  0.
    9900012    2    3    3    0    0 -0.14862769185E+02  0.18712788189E+02  0.28012642050E+02  0.54367102886E+02  0.40000042650E+02 0.  0.
        -12    1    3    3    0    0  0.14862769185E+02 -0.18712788189E+02 -0.28012642050E+02  0.36820897114E+02  0.00000000000E+00 0.  1.
         11    1    4    4    0    0 -0.19913091639E+02  0.11814893210E+02  0.10302481887E+02  0.25342929063E+02  0.51100000000E-03 0. -1.
        -11    1    4    4    0    0 -0.65177335801E+01  0.80465552966E+01  0.41309748498E+01  0.11148670622E+02  0.51100000000E-03 0.  1.
         12    1    4    4    0    0  0.11568056034E+02 -0.11486603180E+01  0.13579185314E+02  0.17875503202E+02  0.00000000000E+00 0. -1.
</event>
<event>
 8    1  0.3011071E-007  0.9118800E+02  0.7816164E-02  0.1184000E+00
        -11   -1    0    0    0    0  0.00000000000E+00  0.00000000000E+00  0.45593999997E+02  0.45594000000E+02  0.51100000000E-03 0.  1.
         11   -1    0    0    0    0 -0.00000000000E+00 -0.00000000000E+00 -0.45593999997E+02  0.45594000000E+02  0.51100000000E-03 0. -1.
         23    2    1    2    0    0  0.00000000000E+00  0.00000000000E+00 -0.88817841970E-15  0.91188000000E+02  0.91188000000E+02 0.  0.
    9900012    2    3    3    0    0  0.32811369142E+02  0.16392834666E+02 -0.32355841760E+01  0.54367082326E+02  0.39999995779E+02 0.  0.
         12    1    3    3    0    0 -0.32811369142E+02 -0.16392834666E+02  0.32355841760E+01  0.36820917674E+02  0.00000000000E+00 0. -1.
         11    1    4    4    0    0 -0.31294665722E+01  0.96630838820E+00 -0.19059482668E+01  0.37894527289E+01  0.51100000000E-03 0. -1.
        -11    1    4    4    0    0  0.35395555053E+02  0.21486554058E+02  0.51068325570E+01  0.41720463346E+02  0.51100000000E-03 0.  1.
        -12    1    4    4    0    0  0.54528066179E+00 -0.60600277797E+01 -0.64364684661E+01  0.88571662515E+01  0.00000000000E+00 0.  1.
</event>
<event>
 8    1  0.3011071E-007  0.9118800E+02  0.7816164E-02  0.1184000E+00
        -11   -1    0    0    0    0  0.00000000000E+00  0.00000000000E+00  0.45593999997E+02  0.45594000000E+02  0.51100000000E-03 0. -1.
         11   -1    0    0    0    0 -0.00000000000E+00 -0.00000000000E+00 -0.45593999997E+02  0.45594000000E+02  0.51100000000E-03 0.  1.
         23    2    1    2    0    0  0.35527136788E-14  0.00000000000E+00  0.00000000000E+00  0.91188000000E+02  0.91188000000E+02 0.  0.
    9900012    2    3    3    0    0  0.28773277589E+02 -0.20578510593E+02  0.10217765428E+02  0.54367091106E+02  0.40000015795E+02 0.  0.
         12    1    3    3    0    0 -0.28773277589E+02  0.20578510593E+02 -0.10217765428E+02  0.36820908894E+02  0.00000000000E+00 0. -1.
         11    1    4    4    0    0  0.38973907035E+01 -0.19277761702E+02  0.80006822342E+01  0.21232820514E+02  0.51100000000E-03 0. -1.
        -11    1    4    4    0    0  0.98077873702E+01  0.33624308886E+01 -0.90402681229E+01  0.13755910823E+02  0.51100000000E-03 0.  1.
        -12    1    4    4    0    0  0.15068099515E+02 -0.46631797796E+01  0.11257351316E+02  0.19378359769E+02  0.00000000000E+00 0.  1.
</event>
<event>
 8    1  0.3011071E-007  0.9118800E+02  0.7816164E-02  0.1184000E+00
        -11   -1    0    0    0    0  0.00000000000E+00  0.00000000000E+00  0.45593999997E+02  0.45594000000E+02  0.51100000000E-03 0. -1.
         11   -1    0    0    0    0 -0.00000000000E+00 -0.00000000000E+00 -0.45593999997E+02  0.45594000000E+02  0.51100000000E-03 0.  1.
         23    2    1    2    0    0 -0.88817841970E-15  0.00000000000E+00  0.88817841970E-15  0.91188000000E+02  0.91188000000E+02 0.  0.
    9900012    2    3    3    0    0  0.57624351437E+01 -0.36062864556E+02  0.46951138326E+01  0.54367082675E+02  0.39999996574E+02 0.  0.
        -12    1    3    3    0    0 -0.57624351437E+01  0.36062864556E+02 -0.46951138326E+01  0.36820917325E+02  0.00000000000E+00 0.  1.
         11    1    4    4    0    0  0.42588495004E-01  0.23905385036E+00  0.85560079438E-01  0.25745157136E+00  0.51100000000E-03 0. -1.
        -11    1    4    4    0    0 -0.45171210219E+01 -0.59384697005E+01 -0.14851284778E+02  0.16620182445E+02  0.51100000000E-03 0.  1.
         12    1    4    4    0    0  0.10236967671E+02 -0.30363448706E+02  0.19460838531E+02  0.37489448658E+02  0.00000000000E+00 0. -1.
</event>
<event>
 8    1  0.3011071E-007  0.9118800E+02  0.7816164E-02  0.1184000E+00
        -11   -1    0    0    0    0  0.00000000000E+00  0.00000000000E+00  0.45593999997E+02  0.45594000000E+02  0.51100000000E-03 0.  1.
         11   -1    0    0    0    0 -0.00000000000E+00 -0.00000000000E+00 -0.45593999997E+02  0.45594000000E+02  0.51100000000E-03 0. -1.
         23    2    1    2    0    0  0.00000000000E+00  0.00000000000E+00  0.00000000000E+00  0.91188000000E+02  0.91188000000E+02 0.  0.
    9900012    2    3    3    0    0 -0.80400162108E+01 -0.12358726870E+02  0.33740179465E+02  0.54367086095E+02  0.40000004370E+02 0.  0.
         12    1    3    3    0    0  0.80400162108E+01  0.12358726870E+02 -0.33740179465E+02  0.36820913905E+02  0.00000000000E+00 0. -1.
         11    1    4    4    0    0 -0.12338933477E+02  0.90095875307E+00 -0.21998746636E+01  0.12565844771E+02  0.51100000000E-03 0. -1.
        -11    1    4    4    0    0  0.10250299492E+02 -0.58920300713E+01  0.21393938550E+02  0.24443511716E+02  0.51100000000E-03 0.  1.
        -12    1    4    4    0    0 -0.59513822259E+01 -0.73676555517E+01  0.14546115578E+02  0.17357729608E+02  0.00000000000E+00 0.  1.
</event>
<event>
 8    1  0.3011071E-007  0.9118800E+02  0.7816164E-02  0.1184000E+00
        -11   -1    0    0    0    0  0.00000000000E+00  0.00000000000E+00  0.45593999997E+02  0.45594000000E+02  0.51100000000E-03 0.  1.
         11   -1    0    0    0    0 -0.00000000000E+00 -0.00000000000E+00 -0.45593999997E+02  0.45594000000E+02  0.51100000000E-03 0. -1.
         23    2    1    2    0    0  0.00000000000E+00 -0.17763568394E-14  0.35527136788E-14  0.91188000000E+02  0.91188000000E+02 0.  0.
    9900012    2    3    3    0    0 -0.28510907922E+02 -0.81621312729E+01  0.21824026291E+02  0.54367076858E+02  0.39999983314E+02 0.  0.
         12    1    3    3    0    0  0.28510907922E+02  0.81621312729E+01 -0.21824026291E+02  0.36820923142E+02  0.00000000000E+00 0. -1.
         11    1    4    4    0    0  0.67108699574E+01 -0.23365463814E+01  0.35246311264E+01  0.79321024587E+01  0.51100000000E-03 0. -1.
        -11    1    4    4    0    0 -0.23504359476E+02 -0.14398014572E+02  0.15586113035E+02  0.31665196317E+02  0.51100000000E-03 0.  1.
         12    1    4    4    0    0 -0.11717418404E+02  0.85724296811E+01  0.27132821288E+01  0.14769778082E+02  0.00000000000E+00 0. -1.
</event>
<event>
 8    1  0.3011071E-007  0.9118800E+02  0.7816164E-02  0.1184000E+00
        -11   -1    0    0    0    0  0.00000000000E+00  0.00000000000E+00  0.45593999997E+02  0.45594000000E+02  0.51100000000E-03 0.  1.
         11   -1    0    0    0    0 -0.00000000000E+00 -0.00000000000E+00 -0.45593999997E+02  0.45594000000E+02  0.51100000000E-03 0. -1.
         23    2    1    2    0    0  0.17763568394E-14  0.17763568394E-14 -0.71054273576E-14  0.91188000000E+02  0.91188000000E+02 0.  0.
    9900012    2    3    3    0    0  0.90733746005E+01  0.85965361146E+01 -0.34634565189E+02  0.54367086572E+02  0.40000005458E+02 0.  0.
        -12    1    3    3    0    0 -0.90733746005E+01 -0.85965361146E+01  0.34634565189E+02  0.36820913428E+02  0.00000000000E+00 0.  1.
         11    1    4    4    0    0  0.50547616464E+01  0.16340322966E+02 -0.21388663122E+02  0.27386706271E+02  0.51100000000E-03 0. -1.
        -11    1    4    4    0    0 -0.36145258253E+01  0.22430731349E+01 -0.13757408420E+02  0.14400085441E+02  0.51100000000E-03 0.  1.
        -12    1    4    4    0    0  0.76331387793E+01 -0.99868599864E+01  0.51150635276E+00  0.12580294860E+02  0.00000000000E+00 0.  1.
</event>
<event>
 8    1  0.3011071E-007  0.9118800E+02  0.7816164E-02  0.1184000E+00
        -11   -1    0    0    0    0  0.00000000000E+00  0.00000000000E+00  0.45593999997E+02  0.45594000000E+02  0.51100000000E-03 0. -1.
         11   -1    0    0    0    0 -0.00000000000E+00 -0.00000000000E+00 -0.45593999997E+02  0.45594000000E+02  0.51100000000E-03 0.  1.
         23    2    1    2    0    0  0.00000000000E+00 -0.17763568394E-14  0.00000000000E+00  0.91188000000E+02  0.91188000000E+02 0.  0.
    9900012    2    3    3    0    0 -0.15133489087E+02  0.10975720899E+02  0.31722079474E+02  0.54367091981E+02  0.40000017789E+02 0.  0.
        -12    1    3    3    0    0  0.15133489087E+02 -0.10975720899E+02 -0.31722079474E+02  0.36820908019E+02  0.00000000000E+00 0.  1.
         11    1    4    4    0    0 -0.53920706596E+01 -0.75052215906E+01  0.20964260237E+02  0.22910761328E+02  0.51100000000E-03 0. -1.
        -11    1    4    4    0    0 -0.16108556809E+02  0.10026461422E+02  0.70643319173E+01  0.20246489000E+02  0.51100000000E-03 0.  1.
        -12    1    4    4    0    0  0.63671383818E+01  0.84544810673E+01  0.36934873201E+01  0.11209841653E+02  0.00000000000E+00 0.  1.
</event>
<event>
 8    1  0.3011071E-007  0.9118800E+02  0.7816164E-02  0.1184000E+00
        -11   -1    0    0    0    0  0.00000000000E+00  0.00000000000E+00  0.45593999997E+02  0.45594000000E+02  0.51100000000E-03 0. -1.
         11   -1    0    0    0    0 -0.00000000000E+00 -0.00000000000E+00 -0.45593999997E+02  0.45594000000E+02  0.51100000000E-03 0.  1.
         23    2    1    2    0    0  0.35527136788E-14 -0.35527136788E-14 -0.17763568394E-14  0.91188000000E+02  0.91188000000E+02 0.  0.
    9900012    2    3    3    0    0  0.21597658171E+02  0.25702621783E+02  0.15122690627E+02  0.54367090495E+02  0.40000014401E+02 0.  0.
        -12    1    3    3    0    0 -0.21597658171E+02 -0.25702621783E+02 -0.15122690627E+02  0.36820909505E+02  0.00000000000E+00 0.  1.
         11    1    4    4    0    0  0.28872994800E+00  0.66344541668E+01  0.70810061177E+01  0.97077286208E+01  0.51100000000E-03 0. -1.
        -11    1    4    4    0    0  0.28689735366E+02  0.21823294293E+02  0.63531695286E+01  0.36602183712E+02  0.51100000000E-03 0.  1.
        -12    1    4    4    0    0 -0.73808071433E+01 -0.27551266767E+01  0.16885149811E+01  0.80571781619E+01  0.00000000000E+00 0.  1.
</event>
<event>
 8    1  0.3011071E-007  0.9118800E+02  0.7816164E-02  0.1184000E+00
        -11   -1    0    0    0    0  0.00000000000E+00  0.00000000000E+00  0.45593999997E+02  0.45594000000E+02  0.51100000000E-03 0.  1.
         11   -1    0    0    0    0 -0.00000000000E+00 -0.00000000000E+00 -0.45593999997E+02  0.45594000000E+02  0.51100000000E-03 0. -1.
         23    2    1    2    0    0  0.00000000000E+00  0.00000000000E+00  0.00000000000E+00  0.91188000000E+02  0.91188000000E+02 0.  0.
    9900012    2    3    3    0    0 -0.17865098622E+02  0.19986777598E+02  0.25241836001E+02  0.54367037055E+02  0.39999892574E+02 0.  0.
         12    1    3    3    0    0  0.17865098622E+02 -0.19986777598E+02 -0.25241836001E+02  0.36820962945E+02  0.00000000000E+00 0. -1.
         11    1    4    4    0    0 -0.87917589086E+01  0.70280899996E+01 -0.93120378826E+01  0.14608323776E+02  0.51100000000E-03 0. -1.
        -11    1    4    4    0    0 -0.57116772848E+01  0.54277631227E+01  0.28388684569E+02  0.29461861478E+02  0.51100000000E-03 0.  1.
        -12    1    4    4    0    0 -0.33616624284E+01  0.75309244755E+01  0.61651893139E+01  0.10296851801E+02  0.00000000000E+00 0.  1.
</event>
<event>
 8    1  0.3011071E-007  0.9118800E+02  0.7816164E-02  0.1184000E+00
        -11   -1    0    0    0    0  0.00000000000E+00  0.00000000000E+00  0.45593999997E+02  0.45594000000E+02  0.51100000000E-03 0.  1.
         11   -1    0    0    0    0 -0.00000000000E+00 -0.00000000000E+00 -0.45593999997E+02  0.45594000000E+02  0.51100000000E-03 0. -1.
         23    2    1    2    0    0 -0.44408920985E-15  0.35527136788E-14  0.14210854715E-13  0.91188000000E+02  0.91188000000E+02 0.  0.
    9900012    2    3    3    0    0 -0.38890280239E+01  0.15922873439E+02  0.32971459695E+02  0.54367087573E+02  0.40000007741E+02 0.  0.
         12    1    3    3    0    0  0.38890280239E+01 -0.15922873439E+02 -0.32971459695E+02  0.36820912427E+02  0.00000000000E+00 0. -1.
         11    1    4    4    0    0  0.51181494973E+01  0.68140959169E+01 -0.12382621671E+01  0.86116578483E+01  0.51100000000E-03 0. -1.
        -11    1    4    4    0    0 -0.15914199435E+02  0.14538639661E+02  0.25398801454E+02  0.33312653789E+02  0.51100000000E-03 0.  1.
         12    1    4    4    0    0  0.69070219143E+01 -0.54298621389E+01  0.88109204077E+01  0.12442775936E+02  0.00000000000E+00 0. -1.
</event>
<event>
 8    1  0.3011071E-007  0.9118800E+02  0.7816164E-02  0.1184000E+00
        -11   -1    0    0    0    0  0.00000000000E+00  0.00000000000E+00  0.45593999997E+02  0.45594000000E+02  0.51100000000E-03 0.  1.
         11   -1    0    0    0    0 -0.00000000000E+00 -0.00000000000E+00 -0.45593999997E+02  0.45594000000E+02  0.51100000000E-03 0. -1.
         23    2    1    2    0    0  0.00000000000E+00  0.00000000000E+00  0.00000000000E+00  0.91188000000E+02  0.91188000000E+02 0.  0.
    9900012    2    3    3    0    0 -0.26506986447E+02 -0.15459978422E+02 -0.20350676119E+02  0.54367064626E+02  0.39999955428E+02 0.  0.
        -12    1    3    3    0    0  0.26506986447E+02  0.15459978422E+02  0.20350676119E+02  0.36820935374E+02  0.00000000000E+00 0.  1.
         11    1    4    4    0    0 -0.14276571262E+02 -0.17859997182E+02 -0.21052106873E+02  0.31080398814E+02  0.51100000000E-03 0. -1.
        -11    1    4    4    0    0 -0.31976161076E+00  0.64775949796E+01  0.67143768321E+01  0.93351133208E+01  0.51100000000E-03 0.  1.
        -12    1    4    4    0    0 -0.11910653574E+02 -0.40775762192E+01 -0.60129460782E+01  0.13951552491E+02  0.00000000000E+00 0.  1.
</event>
<event>
 8    1  0.3011071E-007  0.9118800E+02  0.7816164E-02  0.1184000E+00
        -11   -1    0    0    0    0  0.00000000000E+00  0.00000000000E+00  0.45593999997E+02  0.45594000000E+02  0.51100000000E-03 0.  1.
         11   -1    0    0    0    0 -0.00000000000E+00 -0.00000000000E+00 -0.45593999997E+02  0.45594000000E+02  0.51100000000E-03 0. -1.
         23    2    1    2    0    0  0.00000000000E+00  0.00000000000E+00  0.35527136788E-14  0.91188000000E+02  0.91188000000E+02 0.  0.
    9900012    2    3    3    0    0  0.25987640819E+02 -0.11305071012E+02 -0.23507822121E+02  0.54367084656E+02  0.40000001089E+02 0.  0.
        -12    1    3    3    0    0 -0.25987640819E+02  0.11305071012E+02  0.23507822121E+02  0.36820915344E+02  0.00000000000E+00 0.  1.
         11    1    4    4    0    0 -0.34495011124E+01 -0.49195960369E+01 -0.14327709428E+02  0.15536561421E+02  0.51100000000E-03 0. -1.
        -11    1    4    4    0    0  0.10044567995E+02  0.30433153379E+01 -0.13232829457E+02  0.16889727355E+02  0.51100000000E-03 0.  1.
        -12    1    4    4    0    0  0.19392573937E+02 -0.94287903126E+01  0.40527167630E+01  0.21940795879E+02  0.00000000000E+00 0.  1.
</event>
<event>
 8    1  0.3011071E-007  0.9118800E+02  0.7816164E-02  0.1184000E+00
        -11   -1    0    0    0    0  0.00000000000E+00  0.00000000000E+00  0.45593999997E+02  0.45594000000E+02  0.51100000000E-03 0.  1.
         11   -1    0    0    0    0 -0.00000000000E+00 -0.00000000000E+00 -0.45593999997E+02  0.45594000000E+02  0.51100000000E-03 0. -1.
         23    2    1    2    0    0  0.00000000000E+00  0.35527136788E-14  0.71054273576E-14  0.91188000000E+02  0.91188000000E+02 0.  0.
    9900012    2    3    3    0    0  0.11314929076E+02 -0.16480902890E+02 -0.30921373494E+02  0.54367093998E+02  0.40000022387E+02 0.  0.
        -12    1    3    3    0    0 -0.11314929076E+02  0.16480902890E+02  0.30921373494E+02  0.36820906002E+02  0.00000000000E+00 0.  1.
         11    1    4    4    0    0  0.23650543706E+02 -0.12942211346E+02 -0.24820242285E+02  0.36645511041E+02  0.51100000000E-03 0. -1.
        -11    1    4    4    0    0 -0.60261273321E+01 -0.94483502325E+00 -0.85244969376E+01  0.10482078618E+02  0.51100000000E-03 0.  1.
        -12    1    4    4    0    0 -0.63094872982E+01 -0.25938565208E+01  0.24233657289E+01  0.72395043389E+01  0.00000000000E+00 0.  1.
</event>
<event>
 8    1  0.3011071E-007  0.9118800E+02  0.7816164E-02  0.1184000E+00
        -11   -1    0    0    0    0  0.00000000000E+00  0.00000000000E+00  0.45593999997E+02  0.45594000000E+02  0.51100000000E-03 0.  1.
         11   -1    0    0    0    0 -0.00000000000E+00 -0.00000000000E+00 -0.45593999997E+02  0.45594000000E+02  0.51100000000E-03 0. -1.
         23    2    1    2    0    0  0.17763568394E-14 -0.35527136788E-14  0.35527136788E-14  0.91188000000E+02  0.91188000000E+02 0.  0.
    9900012    2    3    3    0    0  0.97457928096E+01 -0.27916485262E+02  0.21942411686E+02  0.54367081252E+02  0.39999993329E+02 0.  0.
         12    1    3    3    0    0 -0.97457928096E+01  0.27916485262E+02 -0.21942411686E+02  0.36820918748E+02  0.00000000000E+00 0. -1.
         11    1    4    4    0    0 -0.13153791119E+02 -0.20387623932E+01  0.62536569121E+01  0.14706699083E+02  0.51100000000E-03 0. -1.
        -11    1    4    4    0    0  0.94710724773E+01 -0.85490489988E+01  0.11832527920E+02  0.17401039333E+02  0.51100000000E-03 0.  1.
        -12    1    4    4    0    0  0.13428511451E+02 -0.17328673870E+02  0.38562268541E+01  0.22259342835E+02  0.00000000000E+00 0.  1.
</event>
<event>
 8    1  0.3011071E-007  0.9118800E+02  0.7816164E-02  0.1184000E+00
        -11   -1    0    0    0    0  0.00000000000E+00  0.00000000000E+00  0.45593999997E+02  0.45594000000E+02  0.51100000000E-03 0.  1.
         11   -1    0    0    0    0 -0.00000000000E+00 -0.00000000000E+00 -0.45593999997E+02  0.45594000000E+02  0.51100000000E-03 0. -1.
         23    2    1    2    0    0  0.00000000000E+00 -0.17763568394E-14  0.00000000000E+00  0.91188000000E+02  0.91188000000E+02 0.  0.
    9900012    2    3    3    0    0 -0.19179996712E+02  0.15465919738E+02  0.27362943752E+02  0.54366842523E+02  0.39999449096E+02 0.  0.
         12    1    3    3    0    0  0.19179996712E+02 -0.15465919738E+02 -0.27362943752E+02  0.36821157477E+02  0.00000000000E+00 0. -1.
         11    1    4    4    0    0 -0.15313672478E+02  0.51720084626E+00  0.94049004254E+01  0.17978548711E+02  0.51100000000E-03 0. -1.
        -11    1    4    4    0    0 -0.12703242559E+02  0.17533645476E+02  0.16134361689E+02  0.27002198477E+02  0.51100000000E-03 0.  1.
         12    1    4    4    0    0  0.88369183248E+01 -0.25849265850E+01  0.18236816370E+01  0.93860953352E+01  0.00000000000E+00 0. -1.
</event>
<event>
 8    1  0.3011071E-007  0.9118800E+02  0.7816164E-02  0.1184000E+00
        -11   -1    0    0    0    0  0.00000000000E+00  0.00000000000E+00  0.45593999997E+02  0.45594000000E+02  0.51100000000E-03 0.  1.
         11   -1    0    0    0    0 -0.00000000000E+00 -0.00000000000E+00 -0.45593999997E+02  0.45594000000E+02  0.51100000000E-03 0. -1.
         23    2    1    2    0    0  0.00000000000E+00  0.00000000000E+00 -0.39968028887E-14  0.91188000000E+02  0.91188000000E+02 0.  0.
    9900012    2    3    3    0    0 -0.26628161401E+02  0.25126296020E+02  0.39230580157E+01  0.54367080464E+02  0.39999991533E+02 0.  0.
        -12    1    3    3    0    0  0.26628161401E+02 -0.25126296020E+02 -0.39230580157E+01  0.36820919536E+02  0.00000000000E+00 0.  1.
         11    1    4    4    0    0 -0.13973153861E+02  0.45703273769E+01  0.41328505370E+01  0.15271456216E+02  0.51100000000E-03 0. -1.
        -11    1    4    4    0    0 -0.29995162423E+01  0.24353098425E+01  0.13739796037E+02  0.14272695159E+02  0.51100000000E-03 0.  1.
         12    1    4    4    0    0 -0.96554912983E+01  0.18120658801E+02 -0.13949588558E+02  0.24822929088E+02  0.00000000000E+00 0. -1.
</event>
<event>
 8    1  0.3011071E-007  0.9118800E+02  0.7816164E-02  0.1184000E+00
        -11   -1    0    0    0    0  0.00000000000E+00  0.00000000000E+00  0.45593999997E+02  0.45594000000E+02  0.51100000000E-03 0. -1.
         11   -1    0    0    0    0 -0.00000000000E+00 -0.00000000000E+00 -0.45593999997E+02  0.45594000000E+02  0.51100000000E-03 0.  1.
         23    2    1    2    0    0  0.35527136788E-14  0.00000000000E+00  0.00000000000E+00  0.91188000000E+02  0.91188000000E+02 0.  0.
    9900012    2    3    3    0    0  0.31120150365E+02 -0.59743304744E+01 -0.18751762445E+02  0.54367014433E+02  0.39999841003E+02 0.  0.
         12    1    3    3    0    0 -0.31120150365E+02  0.59743304744E+01  0.18751762445E+02  0.36820985567E+02  0.00000000000E+00 0. -1.
         11    1    4    4    0    0  0.16799993382E+01  0.60380591791E+01 -0.76700202982E+01  0.99050375094E+01  0.51100000000E-03 0. -1.
        -11    1    4    4    0    0  0.21861513868E+02 -0.15573839408E+02 -0.19040730720E+02  0.32909264488E+02  0.51100000000E-03 0.  1.
        -12    1    4    4    0    0  0.75786371580E+01  0.35614497541E+01  0.79589885729E+01  0.11552712436E+02  0.00000000000E+00 0.  1.
</event>
<event>
 8    1  0.3011071E-007  0.9118800E+02  0.7816164E-02  0.1184000E+00
        -11   -1    0    0    0    0  0.00000000000E+00  0.00000000000E+00  0.45593999997E+02  0.45594000000E+02  0.51100000000E-03 0. -1.
         11   -1    0    0    0    0 -0.00000000000E+00 -0.00000000000E+00 -0.45593999997E+02  0.45594000000E+02  0.51100000000E-03 0.  1.
         23    2    1    2    0    0  0.35527136788E-14  0.35527136788E-14  0.35527136788E-14  0.91188000000E+02  0.91188000000E+02 0.  0.
    9900012    2    3    3    0    0  0.20803862949E+02  0.21285565457E+02  0.21677259545E+02  0.54367087575E+02  0.40000007745E+02 0.  0.
         12    1    3    3    0    0 -0.20803862949E+02 -0.21285565457E+02 -0.21677259545E+02  0.36820912425E+02  0.00000000000E+00 0. -1.
         11    1    4    4    0    0  0.16045759629E+02 -0.27877747670E+01  0.49045184244E+01  0.17008597575E+02  0.51100000000E-03 0.  1.
        -11    1    4    4    0    0  0.10988853893E+02  0.21856628128E+02  0.18324470399E+02  0.30565557719E+02  0.51100000000E-03 0. -1.
         12    1    4    4    0    0 -0.62307505737E+01  0.22167120959E+01 -0.15517292784E+01  0.67929322815E+01  0.00000000000E+00 0. -1.
</event>
<event>
 8    1  0.3011071E-007  0.9118800E+02  0.7816164E-02  0.1184000E+00
        -11   -1    0    0    0    0  0.00000000000E+00  0.00000000000E+00  0.45593999997E+02  0.45594000000E+02  0.51100000000E-03 0.  1.
         11   -1    0    0    0    0 -0.00000000000E+00 -0.00000000000E+00 -0.45593999997E+02  0.45594000000E+02  0.51100000000E-03 0. -1.
         23    2    1    2    0    0  0.00000000000E+00  0.00000000000E+00 -0.88817841970E-15  0.91188000000E+02  0.91188000000E+02 0.  0.
    9900012    2    3    3    0    0  0.69826752755E+01 -0.35725619100E+02 -0.55408359395E+01  0.54367102713E+02  0.40000042255E+02 0.  0.
         12    1    3    3    0    0 -0.69826752755E+01  0.35725619100E+02  0.55408359395E+01  0.36820897287E+02  0.00000000000E+00 0. -1.
         11    1    4    4    0    0 -0.10099486814E+01 -0.32411735321E+02  0.46816065798E+01  0.32763669258E+02  0.51100000000E-03 0. -1.
        -11    1    4    4    0    0  0.10617673638E+02  0.33796301834E+01 -0.32956746137E+01  0.11619740319E+02  0.51100000000E-03 0.  1.
         12    1    4    4    0    0 -0.26250496815E+01 -0.66935139633E+01 -0.69267679056E+01  0.99836931356E+01  0.00000000000E+00 0. -1.
</event>
<event>
 8    1  0.3011071E-007  0.9118800E+02  0.7816164E-02  0.1184000E+00
        -11   -1    0    0    0    0  0.00000000000E+00  0.00000000000E+00  0.45593999997E+02  0.45594000000E+02  0.51100000000E-03 0.  1.
         11   -1    0    0    0    0 -0.00000000000E+00 -0.00000000000E+00 -0.45593999997E+02  0.45594000000E+02  0.51100000000E-03 0. -1.
         23    2    1    2    0    0  0.00000000000E+00  0.35527136788E-14 -0.88817841970E-15  0.91188000000E+02  0.91188000000E+02 0.  0.
    9900012    2    3    3    0    0 -0.30775102202E+02 -0.19223877784E+02  0.62541933138E+01  0.54367091177E+02  0.40000015955E+02 0.  0.
        -12    1    3    3    0    0  0.30775102202E+02  0.19223877784E+02 -0.62541933138E+01  0.36820908823E+02  0.00000000000E+00 0.  1.
         11    1    4    4    0    0 -0.47391416882E+00 -0.13017418594E+02  0.13857390633E+01  0.13099544057E+02  0.51100000000E-03 0. -1.
        -11    1    4    4    0    0  0.45329716098E+01 -0.32926769958E+01 -0.13498485955E+01  0.57629545292E+01  0.51100000000E-03 0.  1.
         12    1    4    4    0    0 -0.34834159643E+02 -0.29137821939E+01  0.62183028460E+01  0.35504592590E+02  0.00000000000E+00 0. -1.
</event>
<event>
 8    1  0.3011071E-007  0.9118800E+02  0.7816164E-02  0.1184000E+00
        -11   -1    0    0    0    0  0.00000000000E+00  0.00000000000E+00  0.45593999997E+02  0.45594000000E+02  0.51100000000E-03 0. -1.
         11   -1    0    0    0    0 -0.00000000000E+00 -0.00000000000E+00 -0.45593999997E+02  0.45594000000E+02  0.51100000000E-03 0.  1.
         23    2    1    2    0    0  0.35527136788E-14  0.00000000000E+00  0.00000000000E+00  0.91188000000E+02  0.91188000000E+02 0.  0.
    9900012    2    3    3    0    0 -0.28021004805E+02 -0.13983368623E+02 -0.19366650056E+02  0.54367103179E+02  0.40000043317E+02 0.  0.
         12    1    3    3    0    0  0.28021004805E+02  0.13983368623E+02  0.19366650056E+02  0.36820896821E+02  0.00000000000E+00 0. -1.
         11    1    4    4    0    0 -0.18145080097E+02  0.10438458756E+02 -0.73210471644E+01  0.22176633757E+02  0.51100000000E-03 0. -1.
        -11    1    4    4    0    0 -0.37003465310E+00  0.10798021621E+01  0.14231341537E+01  0.18243380812E+01  0.51100000000E-03 0.  1.
        -12    1    4    4    0    0 -0.95058900551E+01 -0.25501629542E+02 -0.13468737045E+02  0.30366131341E+02  0.00000000000E+00 0.  1.
</event>
<event>
 8    1  0.3011071E-007  0.9118800E+02  0.7816164E-02  0.1184000E+00
        -11   -1    0    0    0    0  0.00000000000E+00  0.00000000000E+00  0.45593999997E+02  0.45594000000E+02  0.51100000000E-03 0.  1.
         11   -1    0    0    0    0 -0.00000000000E+00 -0.00000000000E+00 -0.45593999997E+02  0.45594000000E+02  0.51100000000E-03 0. -1.
         23    2    1    2    0    0 -0.35527136788E-14  0.00000000000E+00 -0.88817841970E-15  0.91188000000E+02  0.91188000000E+02 0.  0.
    9900012    2    3    3    0    0  0.30344824523E+02  0.20444850816E+02  0.41206308246E+01  0.54367083409E+02  0.39999998247E+02 0.  0.
        -12    1    3    3    0    0 -0.30344824523E+02 -0.20444850816E+02 -0.41206308246E+01  0.36820916591E+02  0.00000000000E+00 0.  1.
         11    1    4    4    0    0  0.16088929390E+02  0.26820038018E+01 -0.36899029758E+01  0.16723103108E+02  0.51100000000E-03 0. -1.
        -11    1    4    4    0    0  0.96317671623E+01 -0.61266205961E+01  0.68064708395E+01  0.13290389917E+02  0.51100000000E-03 0.  1.
         12    1    4    4    0    0  0.46241279705E+01  0.23889467610E+02  0.10040629609E+01  0.24353590384E+02  0.00000000000E+00 0. -1.
</event>
<event>
 8    1  0.3011071E-007  0.9118800E+02  0.7816164E-02  0.1184000E+00
        -11   -1    0    0    0    0  0.00000000000E+00  0.00000000000E+00  0.45593999997E+02  0.45594000000E+02  0.51100000000E-03 0.  1.
         11   -1    0    0    0    0 -0.00000000000E+00 -0.00000000000E+00 -0.45593999997E+02  0.45594000000E+02  0.51100000000E-03 0. -1.
         23    2    1    2    0    0 -0.35527136788E-14  0.00000000000E+00  0.00000000000E+00  0.91188000000E+02  0.91188000000E+02 0.  0.
    9900012    2    3    3    0    0 -0.28883301536E+02 -0.16145513953E+01  0.22779988267E+02  0.54367085437E+02  0.40000002870E+02 0.  0.
         12    1    3    3    0    0  0.28883301536E+02  0.16145513953E+01 -0.22779988267E+02  0.36820914563E+02  0.00000000000E+00 0. -1.
         11    1    4    4    0    0 -0.26990451088E+02 -0.77024918202E+01  0.15880566869E+02  0.32249112151E+02  0.51100000000E-03 0. -1.
        -11    1    4    4    0    0 -0.10459265833E+02  0.21998375153E+01  0.68789797936E+01  0.12710463805E+02  0.51100000000E-03 0.  1.
         12    1    4    4    0    0  0.85664153849E+01  0.38881029096E+01  0.20441604555E-01  0.94075094814E+01  0.00000000000E+00 0. -1.
</event>
<event>
 8    1  0.3011071E-007  0.9118800E+02  0.7816164E-02  0.1184000E+00
        -11   -1    0    0    0    0  0.00000000000E+00  0.00000000000E+00  0.45593999997E+02  0.45594000000E+02  0.51100000000E-03 0.  1.
         11   -1    0    0    0    0 -0.00000000000E+00 -0.00000000000E+00 -0.45593999997E+02  0.45594000000E+02  0.51100000000E-03 0. -1.
         23    2    1    2    0    0  0.12490009027E-14  0.71054273576E-14 -0.44408920985E-15  0.91188000000E+02  0.91188000000E+02 0.  0.
    9900012    2    3    3    0    0  0.40397454834E-01  0.36630042057E+02  0.37441224637E+01  0.54367081134E+02  0.39999993062E+02 0.  0.
        -12    1    3    3    0    0 -0.40397454834E-01 -0.36630042057E+02 -0.37441224637E+01  0.36820918866E+02  0.00000000000E+00 0.  1.
         11    1    4    4    0    0 -0.89144589897E+01  0.10435096644E+01 -0.14949299130E+01  0.90989728654E+01  0.51100000000E-03 0. -1.
        -11    1    4    4    0    0 -0.45959052077E+01  0.25268997542E+02 -0.38379387338E+01  0.25968718787E+02  0.51100000000E-03 0.  1.
         12    1    4    4    0    0  0.13550761652E+02  0.10317534851E+02  0.90769911105E+01  0.19299389482E+02  0.00000000000E+00 0. -1.
</event>
<event>
 8    1  0.3011071E-007  0.9118800E+02  0.7816164E-02  0.1184000E+00
        -11   -1    0    0    0    0  0.00000000000E+00  0.00000000000E+00  0.45593999997E+02  0.45594000000E+02  0.51100000000E-03 0.  1.
         11   -1    0    0    0    0 -0.00000000000E+00 -0.00000000000E+00 -0.45593999997E+02  0.45594000000E+02  0.51100000000E-03 0. -1.
         23    2    1    2    0    0  0.00000000000E+00  0.00000000000E+00  0.00000000000E+00  0.91188000000E+02  0.91188000000E+02 0.  0.
    9900012    2    3    3    0    0 -0.19453702385E+02 -0.30969845057E+02 -0.42665211142E+01  0.54367067886E+02  0.39999962860E+02 0.  0.
        -12    1    3    3    0    0  0.19453702385E+02  0.30969845057E+02  0.42665211142E+01  0.36820932114E+02  0.00000000000E+00 0.  1.
         11    1    4    4    0    0 -0.37705105368E+01 -0.34474770045E+02 -0.51721724262E+01  0.35063911465E+02  0.51100000000E-03 0.  1.
        -11    1    4    4    0    0 -0.42005697471E+01  0.28215564903E+01 -0.43345004524E+01  0.66628718779E+01  0.51100000000E-03 0. -1.
        -12    1    4    4    0    0 -0.11482622101E+02  0.68336849826E+00  0.52401517643E+01  0.12640284543E+02  0.00000000000E+00 0.  1.
</event>
<event>
 8    1  0.3011071E-007  0.9118800E+02  0.7816164E-02  0.1184000E+00
        -11   -1    0    0    0    0  0.00000000000E+00  0.00000000000E+00  0.45593999997E+02  0.45594000000E+02  0.51100000000E-03 0. -1.
         11   -1    0    0    0    0 -0.00000000000E+00 -0.00000000000E+00 -0.45593999997E+02  0.45594000000E+02  0.51100000000E-03 0.  1.
         23    2    1    2    0    0  0.17763568394E-14  0.71054273576E-14  0.00000000000E+00  0.91188000000E+02  0.91188000000E+02 0.  0.
    9900012    2    3    3    0    0 -0.89488266074E+01 -0.28009368198E+02 -0.22162399259E+02  0.54367107216E+02  0.40000052520E+02 0.  0.
         12    1    3    3    0    0  0.89488266074E+01  0.28009368198E+02  0.22162399259E+02  0.36820892784E+02  0.00000000000E+00 0. -1.
         11    1    4    4    0    0  0.14534391999E+02 -0.32704990830E+01 -0.89584465038E+01  0.17383856852E+02  0.51100000000E-03 0. -1.
        -11    1    4    4    0    0 -0.13181620936E+02 -0.15105379901E+02 -0.49831414464E+01  0.20658154114E+02  0.51100000000E-03 0.  1.
         12    1    4    4    0    0 -0.10301597670E+02 -0.96334892139E+01 -0.82208113087E+01  0.16325096250E+02  0.00000000000E+00 0. -1.
</event>
<event>
 8    1  0.3011071E-007  0.9118800E+02  0.7816164E-02  0.1184000E+00
        -11   -1    0    0    0    0  0.00000000000E+00  0.00000000000E+00  0.45593999997E+02  0.45594000000E+02  0.51100000000E-03 0. -1.
         11   -1    0    0    0    0 -0.00000000000E+00 -0.00000000000E+00 -0.45593999997E+02  0.45594000000E+02  0.51100000000E-03 0.  1.
         23    2    1    2    0    0  0.00000000000E+00  0.00000000000E+00  0.00000000000E+00  0.91188000000E+02  0.91188000000E+02 0.  0.
    9900012    2    3    3    0    0 -0.20903118620E+02 -0.27193349707E+02 -0.13392523966E+02  0.54367104648E+02  0.40000046666E+02 0.  0.
        -12    1    3    3    0    0  0.20903118620E+02  0.27193349707E+02  0.13392523966E+02  0.36820895352E+02  0.00000000000E+00 0.  1.
         11    1    4    4    0    0 -0.24085349692E+02 -0.56252096480E+01 -0.70588886254E+01  0.25721099554E+02  0.51100000000E-03 0. -1.
        -11    1    4    4    0    0  0.19217074665E+01 -0.21554287137E+02 -0.10671976783E+02  0.24128227086E+02  0.51100000000E-03 0.  1.
        -12    1    4    4    0    0  0.12605236059E+01 -0.13852921865E-01  0.43383414418E+01  0.45177780081E+01  0.00000000000E+00 0.  1.
</event>
<event>
 8    1  0.3011071E-007  0.9118800E+02  0.7816164E-02  0.1184000E+00
        -11   -1    0    0    0    0  0.00000000000E+00  0.00000000000E+00  0.45593999997E+02  0.45594000000E+02  0.51100000000E-03 0.  1.
         11   -1    0    0    0    0 -0.00000000000E+00 -0.00000000000E+00 -0.45593999997E+02  0.45594000000E+02  0.51100000000E-03 0. -1.
         23    2    1    2    0    0  0.00000000000E+00  0.00000000000E+00  0.26645352591E-14  0.91188000000E+02  0.91188000000E+02 0.  0.
    9900012    2    3    3    0    0  0.34011245432E+02  0.13437680007E+02 -0.42935497448E+01  0.54367209281E+02  0.40000285196E+02 0.  0.
        -12    1    3    3    0    0 -0.34011245432E+02 -0.13437680007E+02  0.42935497448E+01  0.36820790719E+02  0.00000000000E+00 0.  1.
         11    1    4    4    0    0  0.93733165454E+01  0.56579010223E+01 -0.10795892868E+02  0.15376027124E+02  0.51100000000E-03 0. -1.
        -11    1    4    4    0    0  0.11041511866E+02 -0.36579289966E+01 -0.95472158785E+01  0.15048081609E+02  0.51100000000E-03 0.  1.
         12    1    4    4    0    0  0.13596417020E+02  0.11437707982E+02  0.16049559002E+02  0.23943100547E+02  0.00000000000E+00 0. -1.
</event>
<event>
 8    1  0.3011071E-007  0.9118800E+02  0.7816164E-02  0.1184000E+00
        -11   -1    0    0    0    0  0.00000000000E+00  0.00000000000E+00  0.45593999997E+02  0.45594000000E+02  0.51100000000E-03 0.  1.
         11   -1    0    0    0    0 -0.00000000000E+00 -0.00000000000E+00 -0.45593999997E+02  0.45594000000E+02  0.51100000000E-03 0. -1.
         23    2    1    2    0    0  0.00000000000E+00  0.00000000000E+00  0.00000000000E+00  0.91188000000E+02  0.91188000000E+02 0.  0.
    9900012    2    3    3    0    0  0.34589295405E+02 -0.88602683959E+01 -0.89920264780E+01  0.54367078598E+02  0.39999987281E+02 0.  0.
        -12    1    3    3    0    0 -0.34589295405E+02  0.88602683959E+01  0.89920264780E+01  0.36820921402E+02  0.00000000000E+00 0.  1.
         11    1    4    4    0    0  0.65767199986E+01 -0.95700152039E+00 -0.30842981507E+01  0.73267996556E+01  0.51100000000E-03 0. -1.
        -11    1    4    4    0    0  0.20503235756E+02 -0.20649781842E+02  0.37981028922E+01  0.29346579910E+02  0.51100000000E-03 0.  1.
        -12    1    4    4    0    0  0.75093396506E+01  0.12746514967E+02 -0.97058312195E+01  0.17693699032E+02  0.00000000000E+00 0.  1.
</event>
<event>
 8    1  0.3011071E-007  0.9118800E+02  0.7816164E-02  0.1184000E+00
        -11   -1    0    0    0    0  0.00000000000E+00  0.00000000000E+00  0.45593999997E+02  0.45594000000E+02  0.51100000000E-03 0. -1.
         11   -1    0    0    0    0 -0.00000000000E+00 -0.00000000000E+00 -0.45593999997E+02  0.45594000000E+02  0.51100000000E-03 0.  1.
         23    2    1    2    0    0  0.35527136788E-14  0.35527136788E-14 -0.35527136788E-14  0.91188000000E+02  0.91188000000E+02 0.  0.
    9900012    2    3    3    0    0 -0.23744495507E+02 -0.23047922629E+02  0.16148502218E+02  0.54367055848E+02  0.39999935416E+02 0.  0.
        -12    1    3    3    0    0  0.23744495507E+02  0.23047922629E+02 -0.16148502218E+02  0.36820944152E+02  0.00000000000E+00 0.  1.
         11    1    4    4    0    0 -0.14267960943E+02 -0.13218771989E+02  0.23940826835E+02  0.30845969464E+02  0.51100000000E-03 0. -1.
        -11    1    4    4    0    0  0.26764336980E+01 -0.84722515029E+00 -0.79261157561E+01  0.84085907877E+01  0.51100000000E-03 0.  1.
        -12    1    4    4    0    0 -0.12152968262E+02 -0.89819254894E+01  0.13379113943E+00  0.15112495596E+02  0.00000000000E+00 0.  1.
</event>
<event>
 8    1  0.3011071E-007  0.9118800E+02  0.7816164E-02  0.1184000E+00
        -11   -1    0    0    0    0  0.00000000000E+00  0.00000000000E+00  0.45593999997E+02  0.45594000000E+02  0.51100000000E-03 0.  1.
         11   -1    0    0    0    0 -0.00000000000E+00 -0.00000000000E+00 -0.45593999997E+02  0.45594000000E+02  0.51100000000E-03 0. -1.
         23    2    1    2    0    0  0.35527136788E-14 -0.11102230246E-15  0.00000000000E+00  0.91188000000E+02  0.91188000000E+02 0.  0.
    9900012    2    3    3    0    0 -0.27562931204E+02 -0.72978668947E+00  0.24403600138E+02  0.54367034982E+02  0.39999887848E+02 0.  0.
         12    1    3    3    0    0  0.27562931204E+02  0.72978668947E+00 -0.24403600138E+02  0.36820965018E+02  0.00000000000E+00 0. -1.
         11    1    4    4    0    0 -0.54217462522E+01  0.15503142944E+02  0.97783077320E+01  0.19114342152E+02  0.51100000000E-03 0. -1.
        -11    1    4    4    0    0 -0.22439456533E+02 -0.11993732433E+02  0.16789306701E+02  0.30483760381E+02  0.51100000000E-03 0.  1.
         12    1    4    4    0    0  0.29827158164E+00 -0.42391971998E+01 -0.21640142948E+01  0.47689324490E+01  0.00000000000E+00 0. -1.
</event>
<event>
 8    1  0.3011071E-007  0.9118800E+02  0.7816164E-02  0.1184000E+00
        -11   -1    0    0    0    0  0.00000000000E+00  0.00000000000E+00  0.45593999997E+02  0.45594000000E+02  0.51100000000E-03 0. -1.
         11   -1    0    0    0    0 -0.00000000000E+00 -0.00000000000E+00 -0.45593999997E+02  0.45594000000E+02  0.51100000000E-03 0.  1.
         23    2    1    2    0    0  0.88817841970E-15  0.00000000000E+00  0.35527136788E-14  0.91188000000E+02  0.91188000000E+02 0.  0.
    9900012    2    3    3    0    0  0.77014226424E+01  0.20596875506E+02 -0.29533625697E+02  0.54367105957E+02  0.40000049649E+02 0.  0.
         12    1    3    3    0    0 -0.77014226424E+01 -0.20596875506E+02  0.29533625697E+02  0.36820894043E+02  0.00000000000E+00 0. -1.
         11    1    4    4    0    0  0.44804839903E+01  0.13438535643E+02 -0.20472125802E+02  0.24895319080E+02  0.51100000000E-03 0.  1.
        -11    1    4    4    0    0  0.32508072857E+01 -0.52226411784E+01  0.69176926008E+01  0.92573322328E+01  0.51100000000E-03 0. -1.
         12    1    4    4    0    0 -0.29868633686E-01  0.12380981042E+02 -0.15979192496E+02  0.20214454644E+02  0.00000000000E+00 0. -1.
</event>
<event>
 8    1  0.3011071E-007  0.9118800E+02  0.7816164E-02  0.1184000E+00
        -11   -1    0    0    0    0  0.00000000000E+00  0.00000000000E+00  0.45593999997E+02  0.45594000000E+02  0.51100000000E-03 0. -1.
         11   -1    0    0    0    0 -0.00000000000E+00 -0.00000000000E+00 -0.45593999997E+02  0.45594000000E+02  0.51100000000E-03 0.  1.
         23    2    1    2    0    0 -0.35527136788E-14  0.17763568394E-14  0.00000000000E+00  0.91188000000E+02  0.91188000000E+02 0.  0.
    9900012    2    3    3    0    0 -0.18392921320E+02 -0.12556256274E+02 -0.29322679091E+02  0.54367100563E+02  0.40000037353E+02 0.  0.
         12    1    3    3    0    0  0.18392921320E+02  0.12556256274E+02  0.29322679091E+02  0.36820899437E+02  0.00000000000E+00 0. -1.
         11    1    4    4    0    0 -0.16707733191E+02 -0.76577426257E+01 -0.27485349737E+02  0.33064086574E+02  0.51100000000E-03 0. -1.
        -11    1    4    4    0    0 -0.27107989360E+01 -0.61250750704E+01 -0.10521630799E+02  0.12472757931E+02  0.51100000000E-03 0.  1.
         12    1    4    4    0    0  0.10256108068E+01  0.12265614218E+01  0.86843014454E+01  0.88302560576E+01  0.00000000000E+00 0. -1.
</event>
<event>
 8    1  0.3011071E-007  0.9118800E+02  0.7816164E-02  0.1184000E+00
        -11   -1    0    0    0    0  0.00000000000E+00  0.00000000000E+00  0.45593999997E+02  0.45594000000E+02  0.51100000000E-03 0.  1.
         11   -1    0    0    0    0 -0.00000000000E+00 -0.00000000000E+00 -0.45593999997E+02  0.45594000000E+02  0.51100000000E-03 0. -1.
         23    2    1    2    0    0  0.00000000000E+00  0.35527136788E-14 -0.17763568394E-14  0.91188000000E+02  0.91188000000E+02 0.  0.
    9900012    2    3    3    0    0  0.22813515422E+02  0.28661920039E+02  0.37172899955E+01  0.54367076721E+02  0.39999983000E+02 0.  0.
        -12    1    3    3    0    0 -0.22813515422E+02 -0.28661920039E+02 -0.37172899955E+01  0.36820923279E+02  0.00000000000E+00 0.  1.
         11    1    4    4    0    0 -0.61052607331E+01  0.18772463317E+01  0.40750322684E+01  0.75765526897E+01  0.51100000000E-03 0. -1.
        -11    1    4    4    0    0  0.13263236497E+02  0.19741904134E+02  0.11002623496E+02  0.26205227442E+02  0.51100000000E-03 0.  1.
         12    1    4    4    0    0  0.15655539658E+02  0.70427695733E+01 -0.11360365769E+02  0.20585296589E+02  0.00000000000E+00 0. -1.
</event>
<event>
 8    1  0.3011071E-007  0.9118800E+02  0.7816164E-02  0.1184000E+00
        -11   -1    0    0    0    0  0.00000000000E+00  0.00000000000E+00  0.45593999997E+02  0.45594000000E+02  0.51100000000E-03 0.  1.
         11   -1    0    0    0    0 -0.00000000000E+00 -0.00000000000E+00 -0.45593999997E+02  0.45594000000E+02  0.51100000000E-03 0. -1.
         23    2    1    2    0    0 -0.35527136788E-14 -0.35527136788E-14  0.00000000000E+00  0.91188000000E+02  0.91188000000E+02 0.  0.
    9900012    2    3    3    0    0 -0.23676288869E+02 -0.27002294825E+02  0.81295104954E+01  0.54367088532E+02  0.40000009927E+02 0.  0.
         12    1    3    3    0    0  0.23676288869E+02  0.27002294825E+02 -0.81295104954E+01  0.36820911468E+02  0.00000000000E+00 0. -1.
         11    1    4    4    0    0 -0.39996879700E+01 -0.21676273170E+02  0.77985855823E+00  0.22055985628E+02  0.51100000000E-03 0. -1.
        -11    1    4    4    0    0 -0.14479322158E+02 -0.12550644605E+02  0.11651598051E+02  0.22426082751E+02  0.51100000000E-03 0.  1.
         12    1    4    4    0    0 -0.51972787410E+01  0.72246229493E+01 -0.43019461135E+01  0.98850201535E+01  0.00000000000E+00 0. -1.
</event>
<event>
 8    1  0.3011071E-007  0.9118800E+02  0.7816164E-02  0.1184000E+00
        -11   -1    0    0    0    0  0.00000000000E+00  0.00000000000E+00  0.45593999997E+02  0.45594000000E+02  0.51100000000E-03 0. -1.
         11   -1    0    0    0    0 -0.00000000000E+00 -0.00000000000E+00 -0.45593999997E+02  0.45594000000E+02  0.51100000000E-03 0.  1.
         23    2    1    2    0    0  0.14210854715E-13  0.88817841970E-15 -0.22204460493E-15  0.91188000000E+02  0.91188000000E+02 0.  0.
    9900012    2    3    3    0    0 -0.36409473461E+02 -0.52768476539E+01  0.15113629077E+01  0.54367094298E+02  0.40000023071E+02 0.  0.
        -12    1    3    3    0    0  0.36409473461E+02  0.52768476539E+01 -0.15113629077E+01  0.36820905702E+02  0.00000000000E+00 0.  1.
         11    1    4    4    0    0 -0.78339531190E+01 -0.14906925340E+02  0.18470608130E+01  0.16941041246E+02  0.51100000000E-03 0. -1.
        -11    1    4    4    0    0 -0.31968739845E+02  0.62170081246E+01 -0.90146615190E+00  0.32580119073E+02  0.51100000000E-03 0.  1.
         12    1    4    4    0    0  0.33932195030E+01  0.34130695619E+01  0.56576824663E+00  0.48459339800E+01  0.00000000000E+00 0. -1.
</event>
<event>
 8    1  0.3011071E-007  0.9118800E+02  0.7816164E-02  0.1184000E+00
        -11   -1    0    0    0    0  0.00000000000E+00  0.00000000000E+00  0.45593999997E+02  0.45594000000E+02  0.51100000000E-03 0. -1.
         11   -1    0    0    0    0 -0.00000000000E+00 -0.00000000000E+00 -0.45593999997E+02  0.45594000000E+02  0.51100000000E-03 0.  1.
         23    2    1    2    0    0 -0.35527136788E-14  0.17763568394E-14  0.00000000000E+00  0.91188000000E+02  0.91188000000E+02 0.  0.
    9900012    2    3    3    0    0 -0.27585410381E+02  0.13985487379E+02 -0.19980765943E+02  0.54367085688E+02  0.40000003442E+02 0.  0.
         12    1    3    3    0    0  0.27585410381E+02 -0.13985487379E+02  0.19980765943E+02  0.36820914312E+02  0.00000000000E+00 0. -1.
         11    1    4    4    0    0 -0.10796028416E+02  0.83978251913E+01 -0.45888959571E+01  0.14426907633E+02  0.51100000000E-03 0. -1.
        -11    1    4    4    0    0 -0.12580346733E+02  0.18944879445E+02 -0.11006560372E+02  0.25264955029E+02  0.51100000000E-03 0.  1.
        -12    1    4    4    0    0 -0.42090352317E+01 -0.13357217257E+02 -0.43853096141E+01  0.14675223026E+02  0.00000000000E+00 0.  1.
</event>
<event>
 8    1  0.3011071E-007  0.9118800E+02  0.7816164E-02  0.1184000E+00
        -11   -1    0    0    0    0  0.00000000000E+00  0.00000000000E+00  0.45593999997E+02  0.45594000000E+02  0.51100000000E-03 0.  1.
         11   -1    0    0    0    0 -0.00000000000E+00 -0.00000000000E+00 -0.45593999997E+02  0.45594000000E+02  0.51100000000E-03 0. -1.
         23    2    1    2    0    0  0.00000000000E+00 -0.17763568394E-14  0.00000000000E+00  0.91188000000E+02  0.91188000000E+02 0.  0.
    9900012    2    3    3    0    0 -0.10342671340E+02 -0.97477319894E+01 -0.33967477587E+02  0.54367100187E+02  0.40000036497E+02 0.  0.
        -12    1    3    3    0    0  0.10342671340E+02  0.97477319894E+01  0.33967477587E+02  0.36820899813E+02  0.00000000000E+00 0.  1.
         11    1    4    4    0    0  0.73081006826E+01  0.48288892084E+01 -0.22885945212E+02  0.24504958582E+02  0.51100000000E-03 0. -1.
        -11    1    4    4    0    0 -0.12167943472E+02 -0.92513519840E+01  0.12687340136E+01  0.15338058812E+02  0.51100000000E-03 0.  1.
        -12    1    4    4    0    0 -0.54828285511E+01 -0.53252692138E+01 -0.12350266389E+02  0.14524082794E+02  0.00000000000E+00 0.  1.
</event>
<event>
 8    1  0.3011071E-007  0.9118800E+02  0.7816164E-02  0.1184000E+00
        -11   -1    0    0    0    0  0.00000000000E+00  0.00000000000E+00  0.45593999997E+02  0.45594000000E+02  0.51100000000E-03 0.  1.
         11   -1    0    0    0    0 -0.00000000000E+00 -0.00000000000E+00 -0.45593999997E+02  0.45594000000E+02  0.51100000000E-03 0. -1.
         23    2    1    2    0    0 -0.35527136788E-14  0.51347814889E-15  0.35527136788E-14  0.91188000000E+02  0.91188000000E+02 0.  0.
    9900012    2    3    3    0    0 -0.20119331270E+02  0.12155662343E+00  0.30837915785E+02  0.54367091311E+02  0.40000016261E+02 0.  0.
         12    1    3    3    0    0  0.20119331270E+02 -0.12155662343E+00 -0.30837915785E+02  0.36820908689E+02  0.00000000000E+00 0. -1.
         11    1    4    4    0    0  0.50680992515E+01 -0.10530081535E+02  0.13556559193E+02  0.17898283286E+02  0.51100000000E-03 0. -1.
        -11    1    4    4    0    0  0.19011678907E+00  0.56144552774E+01  0.52089512319E+00  0.56417713926E+01  0.51100000000E-03 0.  1.
        -12    1    4    4    0    0 -0.25377547311E+02  0.50371828813E+01  0.16760461468E+02  0.30827036632E+02  0.00000000000E+00 0.  1.
</event>
<event>
 8    1  0.3011071E-007  0.9118800E+02  0.7816164E-02  0.1184000E+00
        -11   -1    0    0    0    0  0.00000000000E+00  0.00000000000E+00  0.45593999997E+02  0.45594000000E+02  0.51100000000E-03 0. -1.
         11   -1    0    0    0    0 -0.00000000000E+00 -0.00000000000E+00 -0.45593999997E+02  0.45594000000E+02  0.51100000000E-03 0.  1.
         23    2    1    2    0    0  0.00000000000E+00 -0.35527136788E-14  0.35527136788E-14  0.91188000000E+02  0.91188000000E+02 0.  0.
    9900012    2    3    3    0    0  0.16160606393E+02 -0.17306943219E+02  0.28197251537E+02  0.54367075557E+02  0.39999980348E+02 0.  0.
        -12    1    3    3    0    0 -0.16160606393E+02  0.17306943219E+02 -0.28197251537E+02  0.36820924443E+02  0.00000000000E+00 0.  1.
         11    1    4    4    0    0 -0.20724296231E+01  0.81500327085E+01  0.18450537469E+02  0.20276595643E+02  0.51100000000E-03 0. -1.
        -11    1    4    4    0    0  0.30395077369E+01 -0.27607603192E+00  0.20948841989E+01  0.37018056846E+01  0.51100000000E-03 0.  1.
         12    1    4    4    0    0  0.15193528280E+02 -0.25180899895E+02  0.76518298686E+01  0.30388674230E+02  0.00000000000E+00 0. -1.
</event>
<event>
 8    1  0.3011071E-007  0.9118800E+02  0.7816164E-02  0.1184000E+00
        -11   -1    0    0    0    0  0.00000000000E+00  0.00000000000E+00  0.45593999997E+02  0.45594000000E+02  0.51100000000E-03 0.  1.
         11   -1    0    0    0    0 -0.00000000000E+00 -0.00000000000E+00 -0.45593999997E+02  0.45594000000E+02  0.51100000000E-03 0. -1.
         23    2    1    2    0    0 -0.17763568394E-14  0.00000000000E+00  0.17763568394E-14  0.91188000000E+02  0.91188000000E+02 0.  0.
    9900012    2    3    3    0    0 -0.10565130726E+02  0.32801499657E+02  0.12969934331E+02  0.54367087959E+02  0.40000008620E+02 0.  0.
         12    1    3    3    0    0  0.10565130726E+02 -0.32801499657E+02 -0.12969934331E+02  0.36820912041E+02  0.00000000000E+00 0. -1.
         11    1    4    4    0    0  0.49021267750E+01  0.55690823708E+01  0.66285527453E+00  0.74488188827E+01  0.51100000000E-03 0. -1.
        -11    1    4    4    0    0  0.94165189768E+01  0.10849034129E+02 -0.75994204441E+00  0.14385752791E+02  0.51100000000E-03 0.  1.
         12    1    4    4    0    0 -0.24883776478E+02  0.16383383156E+02  0.13067021101E+02  0.32532516286E+02  0.00000000000E+00 0. -1.
</event>
<event>
 8    1  0.3011071E-007  0.9118800E+02  0.7816164E-02  0.1184000E+00
        -11   -1    0    0    0    0  0.00000000000E+00  0.00000000000E+00  0.45593999997E+02  0.45594000000E+02  0.51100000000E-03 0.  1.
         11   -1    0    0    0    0 -0.00000000000E+00 -0.00000000000E+00 -0.45593999997E+02  0.45594000000E+02  0.51100000000E-03 0. -1.
         23    2    1    2    0    0  0.00000000000E+00  0.53290705182E-14 -0.88817841970E-15  0.91188000000E+02  0.91188000000E+02 0.  0.
    9900012    2    3    3    0    0  0.33501288978E+02 -0.14985856407E+02  0.29779769190E+01  0.54367073858E+02  0.39999976475E+02 0.  0.
        -12    1    3    3    0    0 -0.33501288978E+02  0.14985856407E+02 -0.29779769190E+01  0.36820926142E+02  0.00000000000E+00 0.  1.
         11    1    4    4    0    0  0.11281845325E+02 -0.18499583015E+02  0.47211781876E+01  0.22176657309E+02  0.51100000000E-03 0.  1.
        -11    1    4    4    0    0  0.11872471376E+02 -0.82437041458E+01  0.47807816446E+01  0.15223997767E+02  0.51100000000E-03 0. -1.
         12    1    4    4    0    0  0.10346972276E+02  0.11757430754E+02 -0.65239829132E+01  0.16966418782E+02  0.00000000000E+00 0. -1.
</event>
<event>
 8    1  0.3011071E-007  0.9118800E+02  0.7816164E-02  0.1184000E+00
        -11   -1    0    0    0    0  0.00000000000E+00  0.00000000000E+00  0.45593999997E+02  0.45594000000E+02  0.51100000000E-03 0.  1.
         11   -1    0    0    0    0 -0.00000000000E+00 -0.00000000000E+00 -0.45593999997E+02  0.45594000000E+02  0.51100000000E-03 0. -1.
         23    2    1    2    0    0  0.88817841970E-15 -0.35527136788E-14  0.00000000000E+00  0.91188000000E+02  0.91188000000E+02 0.  0.
    9900012    2    3    3    0    0  0.69519280130E+01 -0.29351741589E+02  0.21117037583E+02  0.54367037035E+02  0.39999892528E+02 0.  0.
         12    1    3    3    0    0 -0.69519280130E+01  0.29351741589E+02 -0.21117037583E+02  0.36820962965E+02  0.00000000000E+00 0. -1.
         11    1    4    4    0    0  0.67532375397E+01 -0.55904477919E+01 -0.67516913796E-01  0.87672049467E+01  0.51100000000E-03 0. -1.
        -11    1    4    4    0    0  0.67314632321E+01 -0.16425490859E+02  0.28344541320E+02  0.33444317456E+02  0.51100000000E-03 0.  1.
         12    1    4    4    0    0 -0.65327727588E+01 -0.73358029380E+01 -0.71599868232E+01  0.12155514632E+02  0.00000000000E+00 0. -1.
</event>
<event>
 8    1  0.3011071E-007  0.9118800E+02  0.7816164E-02  0.1184000E+00
        -11   -1    0    0    0    0  0.00000000000E+00  0.00000000000E+00  0.45593999997E+02  0.45594000000E+02  0.51100000000E-03 0.  1.
         11   -1    0    0    0    0 -0.00000000000E+00 -0.00000000000E+00 -0.45593999997E+02  0.45594000000E+02  0.51100000000E-03 0. -1.
         23    2    1    2    0    0  0.00000000000E+00  0.00000000000E+00  0.35527136788E-14  0.91188000000E+02  0.91188000000E+02 0.  0.
    9900012    2    3    3    0    0  0.32304961607E+02  0.66485155416E+01 -0.16369841797E+02  0.54367013813E+02  0.39999839589E+02 0.  0.
         12    1    3    3    0    0 -0.32304961607E+02 -0.66485155416E+01  0.16369841797E+02  0.36820986187E+02  0.00000000000E+00 0. -1.
         11    1    4    4    0    0  0.60852206366E+01  0.48822718629E+01 -0.17808289127E+02  0.19442264545E+02  0.51100000000E-03 0. -1.
        -11    1    4    4    0    0  0.19443952967E+02  0.27441252642E+01 -0.96604705727E+01  0.21884291681E+02  0.51100000000E-03 0.  1.
         12    1    4    4    0    0  0.67757880034E+01 -0.97788158555E+00  0.11098917903E+02  0.13040457587E+02  0.00000000000E+00 0. -1.
</event>
<event>
 8    1  0.3011071E-007  0.9118800E+02  0.7816164E-02  0.1184000E+00
        -11   -1    0    0    0    0  0.00000000000E+00  0.00000000000E+00  0.45593999997E+02  0.45594000000E+02  0.51100000000E-03 0. -1.
         11   -1    0    0    0    0 -0.00000000000E+00 -0.00000000000E+00 -0.45593999997E+02  0.45594000000E+02  0.51100000000E-03 0.  1.
         23    2    1    2    0    0 -0.22204460493E-15  0.00000000000E+00  0.00000000000E+00  0.91188000000E+02  0.91188000000E+02 0.  0.
    9900012    2    3    3    0    0  0.13937747945E+01  0.28683764323E+02  0.23045151858E+02  0.54367082466E+02  0.39999996097E+02 0.  0.
        -12    1    3    3    0    0 -0.13937747945E+01 -0.28683764323E+02 -0.23045151858E+02  0.36820917534E+02  0.00000000000E+00 0.  1.
         11    1    4    4    0    0  0.76433518823E+01  0.70254444386E+01  0.29281196067E+01  0.10786639062E+02  0.51100000000E-03 0. -1.
        -11    1    4    4    0    0  0.60154713411E+01 -0.35656972097E+01  0.12813202840E+02  0.14597200393E+02  0.51100000000E-03 0.  1.
        -12    1    4    4    0    0 -0.12265048429E+02  0.25224017094E+02  0.73038294110E+01  0.28983243010E+02  0.00000000000E+00 0.  1.
</event>
<event>
 8    1  0.3011071E-007  0.9118800E+02  0.7816164E-02  0.1184000E+00
        -11   -1    0    0    0    0  0.00000000000E+00  0.00000000000E+00  0.45593999997E+02  0.45594000000E+02  0.51100000000E-03 0.  1.
         11   -1    0    0    0    0 -0.00000000000E+00 -0.00000000000E+00 -0.45593999997E+02  0.45594000000E+02  0.51100000000E-03 0. -1.
         23    2    1    2    0    0 -0.35527136788E-14  0.26645352591E-14 -0.35527136788E-14  0.91188000000E+02  0.91188000000E+02 0.  0.
    9900012    2    3    3    0    0  0.22979404807E+02  0.21950217601E+01  0.28686385439E+02  0.54367083725E+02  0.39999998968E+02 0.  0.
         12    1    3    3    0    0 -0.22979404807E+02 -0.21950217601E+01 -0.28686385439E+02  0.36820916275E+02  0.00000000000E+00 0. -1.
         11    1    4    4    0    0  0.10001471356E+02 -0.15460727535E+02  0.10116383643E+02  0.21009634539E+02  0.51100000000E-03 0. -1.
        -11    1    4    4    0    0  0.13105360834E+02  0.35147012063E+01  0.91876701210E+01  0.16386484970E+02  0.51100000000E-03 0.  1.
         12    1    4    4    0    0 -0.12742738271E+00  0.14141048089E+02  0.93823316751E+01  0.16970964217E+02  0.00000000000E+00 0. -1.
</event>
<event>
 8    1  0.3011071E-007  0.9118800E+02  0.7816164E-02  0.1184000E+00
        -11   -1    0    0    0    0  0.00000000000E+00  0.00000000000E+00  0.45593999997E+02  0.45594000000E+02  0.51100000000E-03 0. -1.
         11   -1    0    0    0    0 -0.00000000000E+00 -0.00000000000E+00 -0.45593999997E+02  0.45594000000E+02  0.51100000000E-03 0.  1.
         23    2    1    2    0    0  0.35527136788E-14 -0.88817841970E-15  0.71054273576E-14  0.91188000000E+02  0.91188000000E+02 0.  0.
    9900012    2    3    3    0    0  0.13581614653E+02 -0.49425721648E+01 -0.33865711431E+02  0.54367140601E+02  0.40000128627E+02 0.  0.
         12    1    3    3    0    0 -0.13581614653E+02  0.49425721648E+01  0.33865711431E+02  0.36820859399E+02  0.00000000000E+00 0. -1.
         11    1    4    4    0    0 -0.11380923851E+02  0.55396345537E+01 -0.13091640752E+02  0.18209998257E+02  0.51100000000E-03 0. -1.
        -11    1    4    4    0    0  0.66457147375E+01  0.13698480730E+01 -0.92845103005E+01  0.11499745210E+02  0.51100000000E-03 0.  1.
         12    1    4    4    0    0  0.18316823767E+02 -0.11852054791E+02 -0.11489560378E+02  0.24657397133E+02  0.00000000000E+00 0. -1.
</event>
<event>
 8    1  0.3011071E-007  0.9118800E+02  0.7816164E-02  0.1184000E+00
        -11   -1    0    0    0    0  0.00000000000E+00  0.00000000000E+00  0.45593999997E+02  0.45594000000E+02  0.51100000000E-03 0.  1.
         11   -1    0    0    0    0 -0.00000000000E+00 -0.00000000000E+00 -0.45593999997E+02  0.45594000000E+02  0.51100000000E-03 0. -1.
         23    2    1    2    0    0  0.00000000000E+00  0.00000000000E+00  0.71054273576E-14  0.91188000000E+02  0.91188000000E+02 0.  0.
    9900012    2    3    3    0    0 -0.74371981751E+01 -0.54418131772E+01  0.35649030827E+02  0.54367100415E+02  0.40000037016E+02 0.  0.
         12    1    3    3    0    0  0.74371981751E+01  0.54418131772E+01 -0.35649030827E+02  0.36820899585E+02  0.00000000000E+00 0. -1.
         11    1    4    4    0    0 -0.16360217337E+02 -0.38057583496E+01  0.15049644882E+02  0.22552878292E+02  0.51100000000E-03 0. -1.
        -11    1    4    4    0    0  0.65854102469E+01 -0.84117513811E+01  0.22049744427E+02  0.24501355452E+02  0.51100000000E-03 0.  1.
        -12    1    4    4    0    0  0.23376089147E+01  0.67756965535E+01 -0.14503584819E+01  0.73128666711E+01  0.00000000000E+00 0.  1.
</event>
<event>
 8    1  0.3011071E-007  0.9118800E+02  0.7816164E-02  0.1184000E+00
        -11   -1    0    0    0    0  0.00000000000E+00  0.00000000000E+00  0.45593999997E+02  0.45594000000E+02  0.51100000000E-03 0.  1.
         11   -1    0    0    0    0 -0.00000000000E+00 -0.00000000000E+00 -0.45593999997E+02  0.45594000000E+02  0.51100000000E-03 0. -1.
         23    2    1    2    0    0  0.00000000000E+00 -0.17763568394E-14  0.71054273576E-14  0.91188000000E+02  0.91188000000E+02 0.  0.
    9900012    2    3    3    0    0 -0.42647091502E+01  0.54948715829E+01 -0.36157953566E+02  0.54367096101E+02  0.40000027182E+02 0.  0.
        -12    1    3    3    0    0  0.42647091502E+01 -0.54948715829E+01  0.36157953566E+02  0.36820903899E+02  0.00000000000E+00 0.  1.
         11    1    4    4    0    0 -0.29791558522E+01  0.54227449957E+01 -0.11352888862E+02  0.12929409061E+02  0.51100000000E-03 0. -1.
        -11    1    4    4    0    0 -0.53254996664E+01  0.32346072132E+01 -0.31999934436E+02  0.32600911563E+02  0.51100000000E-03 0.  1.
        -12    1    4    4    0    0  0.40399463684E+01 -0.31624806260E+01  0.71948697327E+01  0.88367754775E+01  0.00000000000E+00 0.  1.
</event>
<event>
 8    1  0.3011071E-007  0.9118800E+02  0.7816164E-02  0.1184000E+00
        -11   -1    0    0    0    0  0.00000000000E+00  0.00000000000E+00  0.45593999997E+02  0.45594000000E+02  0.51100000000E-03 0. -1.
         11   -1    0    0    0    0 -0.00000000000E+00 -0.00000000000E+00 -0.45593999997E+02  0.45594000000E+02  0.51100000000E-03 0.  1.
         23    2    1    2    0    0  0.23800406090E-14  0.00000000000E+00  0.00000000000E+00  0.91188000000E+02  0.91188000000E+02 0.  0.
    9900012    2    3    3    0    0  0.48153384497E-01 -0.99550962601E+01  0.35449581502E+02  0.54367094403E+02  0.40000023311E+02 0.  0.
        -12    1    3    3    0    0 -0.48153384497E-01  0.99550962601E+01 -0.35449581502E+02  0.36820905597E+02  0.00000000000E+00 0.  1.
         11    1    4    4    0    0 -0.13953137908E+02 -0.71844775728E+01  0.28193318536E+01  0.15945388294E+02  0.51100000000E-03 0. -1.
        -11    1    4    4    0    0  0.85727356815E+01 -0.83304102888E+00  0.45209541712E+01  0.97275269879E+01  0.51100000000E-03 0.  1.
         12    1    4    4    0    0  0.54285556113E+01 -0.19375776584E+01  0.28109295477E+02  0.28694179121E+02  0.00000000000E+00 0. -1.
</event>
<event>
 8    1  0.3011071E-007  0.9118800E+02  0.7816164E-02  0.1184000E+00
        -11   -1    0    0    0    0  0.00000000000E+00  0.00000000000E+00  0.45593999997E+02  0.45594000000E+02  0.51100000000E-03 0.  1.
         11   -1    0    0    0    0 -0.00000000000E+00 -0.00000000000E+00 -0.45593999997E+02  0.45594000000E+02  0.51100000000E-03 0. -1.
         23    2    1    2    0    0  0.00000000000E+00  0.17763568394E-14 -0.35527136788E-14  0.91188000000E+02  0.91188000000E+02 0.  0.
    9900012    2    3    3    0    0 -0.12710274506E+02 -0.14490954522E+02  0.31372621320E+02  0.54367079188E+02  0.39999988625E+02 0.  0.
         12    1    3    3    0    0  0.12710274506E+02  0.14490954522E+02 -0.31372621320E+02  0.36820920812E+02  0.00000000000E+00 0. -1.
         11    1    4    4    0    0  0.33546397445E+00  0.81043827315E+00 -0.56082413421E+01  0.56764176630E+01  0.51100000000E-03 0. -1.
        -11    1    4    4    0    0  0.56933647092E+01 -0.95832690600E+01  0.80487767157E+01  0.13749045584E+02  0.51100000000E-03 0.  1.
         12    1    4    4    0    0 -0.18739103190E+02 -0.57181237348E+01  0.28932085946E+02  0.34941615941E+02  0.00000000000E+00 0. -1.
</event>
<event>
 8    1  0.3011071E-007  0.9118800E+02  0.7816164E-02  0.1184000E+00
        -11   -1    0    0    0    0  0.00000000000E+00  0.00000000000E+00  0.45593999997E+02  0.45594000000E+02  0.51100000000E-03 0. -1.
         11   -1    0    0    0    0 -0.00000000000E+00 -0.00000000000E+00 -0.45593999997E+02  0.45594000000E+02  0.51100000000E-03 0.  1.
         23    2    1    2    0    0 -0.17763568394E-14 -0.35527136788E-14 -0.35527136788E-14  0.91188000000E+02  0.91188000000E+02 0.  0.
    9900012    2    3    3    0    0 -0.10329425104E+02 -0.16791553371E+02 -0.31098668322E+02  0.54367075799E+02  0.39999980899E+02 0.  0.
         12    1    3    3    0    0  0.10329425104E+02  0.16791553371E+02  0.31098668322E+02  0.36820924201E+02  0.00000000000E+00 0. -1.
         11    1    4    4    0    0 -0.47217679018E+01  0.13548122821E+01  0.90244907745E+00  0.49944992778E+01  0.51100000000E-03 0. -1.
        -11    1    4    4    0    0 -0.53653590356E+01 -0.25449031018E+02 -0.13126898869E+02  0.29133412631E+02  0.51100000000E-03 0.  1.
        -12    1    4    4    0    0 -0.24229816658E+00  0.73026653651E+01 -0.18874218531E+02  0.20239163890E+02  0.00000000000E+00 0.  1.
</event>
<event>
 8    1  0.3011071E-007  0.9118800E+02  0.7816164E-02  0.1184000E+00
        -11   -1    0    0    0    0  0.00000000000E+00  0.00000000000E+00  0.45593999997E+02  0.45594000000E+02  0.51100000000E-03 0. -1.
         11   -1    0    0    0    0 -0.00000000000E+00 -0.00000000000E+00 -0.45593999997E+02  0.45594000000E+02  0.51100000000E-03 0.  1.
         23    2    1    2    0    0 -0.88817841970E-15  0.71054273576E-14 -0.26645352591E-14  0.91188000000E+02  0.91188000000E+02 0.  0.
    9900012    2    3    3    0    0 -0.45651835501E+01  0.36132560136E+02 -0.54200787933E+01  0.54367081259E+02  0.39999993345E+02 0.  0.
         12    1    3    3    0    0  0.45651835501E+01 -0.36132560136E+02  0.54200787933E+01  0.36820918741E+02  0.00000000000E+00 0. -1.
         11    1    4    4    0    0 -0.57764050776E+01  0.12256152778E+02 -0.56435676200E+01  0.14677533590E+02  0.51100000000E-03 0. -1.
        -11    1    4    4    0    0 -0.95806231201E+01  0.42831322042E+01 -0.10533230580E+02  0.14868843518E+02  0.51100000000E-03 0.  1.
         12    1    4    4    0    0  0.10791844648E+02  0.19593275154E+02  0.10756719407E+02  0.24820704151E+02  0.00000000000E+00 0. -1.
</event>
<event>
 8    1  0.3011071E-007  0.9118800E+02  0.7816164E-02  0.1184000E+00
        -11   -1    0    0    0    0  0.00000000000E+00  0.00000000000E+00  0.45593999997E+02  0.45594000000E+02  0.51100000000E-03 0.  1.
         11   -1    0    0    0    0 -0.00000000000E+00 -0.00000000000E+00 -0.45593999997E+02  0.45594000000E+02  0.51100000000E-03 0. -1.
         23    2    1    2    0    0  0.00000000000E+00 -0.17763568394E-14  0.35527136788E-14  0.91188000000E+02  0.91188000000E+02 0.  0.
    9900012    2    3    3    0    0  0.26802999685E+02 -0.10336458976E+02 -0.23033394592E+02  0.54367076020E+02  0.39999981403E+02 0.  0.
        -12    1    3    3    0    0 -0.26802999685E+02  0.10336458976E+02  0.23033394592E+02  0.36820923980E+02  0.00000000000E+00 0.  1.
         11    1    4    4    0    0 -0.36481156452E+01  0.43152503176E+01  0.12098072251E+01  0.57787340177E+01  0.51100000000E-03 0. -1.
        -11    1    4    4    0    0  0.18025698005E+02  0.42869508418E+01 -0.16010978844E+02  0.24487857806E+02  0.51100000000E-03 0.  1.
         12    1    4    4    0    0  0.12425417325E+02 -0.18938660135E+02 -0.82322229732E+01  0.24100484197E+02  0.00000000000E+00 0. -1.
</event>
<event>
 8    1  0.3011071E-007  0.9118800E+02  0.7816164E-02  0.1184000E+00
        -11   -1    0    0    0    0  0.00000000000E+00  0.00000000000E+00  0.45593999997E+02  0.45594000000E+02  0.51100000000E-03 0. -1.
         11   -1    0    0    0    0 -0.00000000000E+00 -0.00000000000E+00 -0.45593999997E+02  0.45594000000E+02  0.51100000000E-03 0.  1.
         23    2    1    2    0    0 -0.71054273576E-14  0.00000000000E+00  0.00000000000E+00  0.91188000000E+02  0.91188000000E+02 0.  0.
    9900012    2    3    3    0    0  0.33826025727E+02 -0.82838572057E+01 -0.11956102178E+02  0.54367208509E+02  0.40000283438E+02 0.  0.
         12    1    3    3    0    0 -0.33826025727E+02  0.82838572057E+01  0.11956102178E+02  0.36820791491E+02  0.00000000000E+00 0. -1.
         11    1    4    4    0    0 -0.39434893323E+01 -0.95141118442E+00 -0.22366300337E+01  0.46323650034E+01  0.51100000000E-03 0. -1.
        -11    1    4    4    0    0  0.42156675760E+02 -0.56074593271E+01 -0.12416853940E+02  0.44303579689E+02  0.51100000000E-03 0.  1.
        -12    1    4    4    0    0 -0.43871607002E+01 -0.17249866942E+01  0.26973817953E+01  0.54312638174E+01  0.00000000000E+00 0.  1.
</event>
<event>
 8    1  0.3011071E-007  0.9118800E+02  0.7816164E-02  0.1184000E+00
        -11   -1    0    0    0    0  0.00000000000E+00  0.00000000000E+00  0.45593999997E+02  0.45594000000E+02  0.51100000000E-03 0. -1.
         11   -1    0    0    0    0 -0.00000000000E+00 -0.00000000000E+00 -0.45593999997E+02  0.45594000000E+02  0.51100000000E-03 0.  1.
         23    2    1    2    0    0  0.71054273576E-14  0.00000000000E+00  0.35527136788E-14  0.91188000000E+02  0.91188000000E+02 0.  0.
    9900012    2    3    3    0    0 -0.27499135961E+02  0.11886877834E+02 -0.21407487337E+02  0.54367070390E+02  0.39999968569E+02 0.  0.
         12    1    3    3    0    0  0.27499135961E+02 -0.11886877834E+02  0.21407487337E+02  0.36820929610E+02  0.00000000000E+00 0. -1.
         11    1    4    4    0    0 -0.12971472630E+02  0.38356484644E+01 -0.63473716143E+01  0.14941901753E+02  0.51100000000E-03 0.  1.
        -11    1    4    4    0    0 -0.10402091620E+02  0.16654552528E+02  0.21435275176E+01  0.19752780576E+02  0.51100000000E-03 0. -1.
        -12    1    4    4    0    0 -0.41255717116E+01 -0.86033231589E+01 -0.17203643240E+02  0.19672388062E+02  0.00000000000E+00 0.  1.
</event>
<event>
 8    1  0.3011071E-007  0.9118800E+02  0.7816164E-02  0.1184000E+00
        -11   -1    0    0    0    0  0.00000000000E+00  0.00000000000E+00  0.45593999997E+02  0.45594000000E+02  0.51100000000E-03 0.  1.
         11   -1    0    0    0    0 -0.00000000000E+00 -0.00000000000E+00 -0.45593999997E+02  0.45594000000E+02  0.51100000000E-03 0. -1.
         23    2    1    2    0    0  0.00000000000E+00 -0.35527136788E-14 -0.35527136788E-14  0.91188000000E+02  0.91188000000E+02 0.  0.
    9900012    2    3    3    0    0 -0.57363475232E+01  0.18819227424E+02  0.31124114688E+02  0.54367088566E+02  0.40000010003E+02 0.  0.
         12    1    3    3    0    0  0.57363475232E+01 -0.18819227424E+02 -0.31124114688E+02  0.36820911434E+02  0.00000000000E+00 0. -1.
         11    1    4    4    0    0 -0.34808548835E+01  0.19682844927E+01  0.23766070541E+02  0.24100137008E+02  0.51100000000E-03 0. -1.
        -11    1    4    4    0    0 -0.12714260048E+02  0.12257906082E+02  0.64732163473E+01  0.18809869755E+02  0.51100000000E-03 0.  1.
         12    1    4    4    0    0  0.10458767408E+02  0.45930368494E+01  0.88482779936E+00  0.11457081802E+02  0.00000000000E+00 0. -1.
</event>
<event>
 8    1  0.3011071E-007  0.9118800E+02  0.7816164E-02  0.1184000E+00
        -11   -1    0    0    0    0  0.00000000000E+00  0.00000000000E+00  0.45593999997E+02  0.45594000000E+02  0.51100000000E-03 0. -1.
         11   -1    0    0    0    0 -0.00000000000E+00 -0.00000000000E+00 -0.45593999997E+02  0.45594000000E+02  0.51100000000E-03 0.  1.
         23    2    1    2    0    0  0.00000000000E+00  0.00000000000E+00  0.35527136788E-14  0.91188000000E+02  0.91188000000E+02 0.  0.
    9900012    2    3    3    0    0 -0.32424751264E+02  0.40757423473E+01 -0.16964786585E+02  0.54367079940E+02  0.39999990338E+02 0.  0.
        -12    1    3    3    0    0  0.32424751264E+02 -0.40757423473E+01  0.16964786585E+02  0.36820920060E+02  0.00000000000E+00 0.  1.
         11    1    4    4    0    0  0.47164113419E+01  0.38060086769E+01 -0.81702556648E+01  0.10172674962E+02  0.51100000000E-03 0. -1.
        -11    1    4    4    0    0 -0.19786955091E+02 -0.64019352407E+01 -0.13776608810E+02  0.24946008041E+02  0.51100000000E-03 0.  1.
         12    1    4    4    0    0 -0.17354207515E+02  0.66716689112E+01  0.49820778901E+01  0.19248396937E+02  0.00000000000E+00 0. -1.
</event>
<event>
 8    1  0.3011071E-007  0.9118800E+02  0.7816164E-02  0.1184000E+00
        -11   -1    0    0    0    0  0.00000000000E+00  0.00000000000E+00  0.45593999997E+02  0.45594000000E+02  0.51100000000E-03 0.  1.
         11   -1    0    0    0    0 -0.00000000000E+00 -0.00000000000E+00 -0.45593999997E+02  0.45594000000E+02  0.51100000000E-03 0. -1.
         23    2    1    2    0    0  0.00000000000E+00 -0.17763568394E-14  0.00000000000E+00  0.91188000000E+02  0.91188000000E+02 0.  0.
    9900012    2    3    3    0    0  0.25073770936E+02  0.10100713435E+02  0.25001242881E+02  0.54367074612E+02  0.39999978193E+02 0.  0.
         12    1    3    3    0    0 -0.25073770936E+02 -0.10100713435E+02 -0.25001242881E+02  0.36820925388E+02  0.00000000000E+00 0. -1.
         11    1    4    4    0    0 -0.51151354807E+01 -0.13639656622E+01  0.94099013680E+01  0.10796817000E+02  0.51100000000E-03 0. -1.
        -11    1    4    4    0    0  0.31289218150E+01  0.22019402622E+01  0.14447978808E+02  0.14945995602E+02  0.51100000000E-03 0.  1.
         12    1    4    4    0    0  0.27059984601E+02  0.92627388346E+01  0.11433627048E+01  0.28624262010E+02  0.00000000000E+00 0. -1.
</event>
<event>
 8    1  0.3011071E-007  0.9118800E+02  0.7816164E-02  0.1184000E+00
        -11   -1    0    0    0    0  0.00000000000E+00  0.00000000000E+00  0.45593999997E+02  0.45594000000E+02  0.51100000000E-03 0.  1.
         11   -1    0    0    0    0 -0.00000000000E+00 -0.00000000000E+00 -0.45593999997E+02  0.45594000000E+02  0.51100000000E-03 0. -1.
         23    2    1    2    0    0  0.88817841970E-15  0.00000000000E+00  0.00000000000E+00  0.91188000000E+02  0.91188000000E+02 0.  0.
    9900012    2    3    3    0    0  0.41823546593E+01  0.33760700133E+02 -0.14089199666E+02  0.54367047932E+02  0.39999917369E+02 0.  0.
        -12    1    3    3    0    0 -0.41823546593E+01 -0.33760700133E+02  0.14089199666E+02  0.36820952068E+02  0.00000000000E+00 0.  1.
         11    1    4    4    0    0  0.45461874782E+01  0.12256625103E+02  0.63394057900E+01  0.14528618157E+02  0.51100000000E-03 0. -1.
        -11    1    4    4    0    0  0.73052767834E+01 -0.27462660315E+01 -0.91202940534E+01  0.12003699841E+02  0.51100000000E-03 0.  1.
        -12    1    4    4    0    0 -0.76691096023E+01  0.24250341062E+02 -0.11308311403E+02  0.27834729934E+02  0.00000000000E+00 0.  1.
</event>
<event>
 8    1  0.3011071E-007  0.9118800E+02  0.7816164E-02  0.1184000E+00
        -11   -1    0    0    0    0  0.00000000000E+00  0.00000000000E+00  0.45593999997E+02  0.45594000000E+02  0.51100000000E-03 0. -1.
         11   -1    0    0    0    0 -0.00000000000E+00 -0.00000000000E+00 -0.45593999997E+02  0.45594000000E+02  0.51100000000E-03 0.  1.
         23    2    1    2    0    0  0.00000000000E+00 -0.88817841970E-15  0.88817841970E-15  0.91188000000E+02  0.91188000000E+02 0.  0.
    9900012    2    3    3    0    0  0.36206185778E+02 -0.50380440368E+01 -0.44170770044E+01  0.54367077340E+02  0.39999984412E+02 0.  0.
        -12    1    3    3    0    0 -0.36206185778E+02  0.50380440368E+01  0.44170770044E+01  0.36820922660E+02  0.00000000000E+00 0.  1.
         11    1    4    4    0    0  0.13462880137E+02 -0.85309587678E+01  0.11432144669E+02  0.19614288952E+02  0.51100000000E-03 0. -1.
        -11    1    4    4    0    0  0.21061785915E+02 -0.35251711400E+01 -0.53538143488E+01  0.22015653200E+02  0.51100000000E-03 0.  1.
        -12    1    4    4    0    0  0.16815197261E+01  0.70180858711E+01 -0.10495407325E+02  0.12737135188E+02  0.00000000000E+00 0.  1.
</event>
<event>
 8    1  0.3011071E-007  0.9118800E+02  0.7816164E-02  0.1184000E+00
        -11   -1    0    0    0    0  0.00000000000E+00  0.00000000000E+00  0.45593999997E+02  0.45594000000E+02  0.51100000000E-03 0. -1.
         11   -1    0    0    0    0 -0.00000000000E+00 -0.00000000000E+00 -0.45593999997E+02  0.45594000000E+02  0.51100000000E-03 0.  1.
         23    2    1    2    0    0  0.00000000000E+00 -0.35527136788E-14 -0.35527136788E-14  0.91188000000E+02  0.91188000000E+02 0.  0.
    9900012    2    3    3    0    0  0.22801315347E+02 -0.23363781587E+02 -0.17029752484E+02  0.54367099125E+02  0.40000034075E+02 0.  0.
        -12    1    3    3    0    0 -0.22801315347E+02  0.23363781587E+02  0.17029752484E+02  0.36820900875E+02  0.00000000000E+00 0.  1.
         11    1    4    4    0    0 -0.53379011864E+01 -0.45157619410E+01 -0.29348014468E+01  0.75827669605E+01  0.51100000000E-03 0. -1.
        -11    1    4    4    0    0  0.89100535247E+01  0.64944917458E+01 -0.96710957822E+01  0.14666205056E+02  0.51100000000E-03 0.  1.
         12    1    4    4    0    0  0.19229163008E+02 -0.25342511392E+02 -0.44238552554E+01  0.32118127109E+02  0.00000000000E+00 0. -1.
</event>
<event>
 8    1  0.3011071E-007  0.9118800E+02  0.7816164E-02  0.1184000E+00
        -11   -1    0    0    0    0  0.00000000000E+00  0.00000000000E+00  0.45593999997E+02  0.45594000000E+02  0.51100000000E-03 0. -1.
         11   -1    0    0    0    0 -0.00000000000E+00 -0.00000000000E+00 -0.45593999997E+02  0.45594000000E+02  0.51100000000E-03 0.  1.
         23    2    1    2    0    0  0.53290705182E-14  0.00000000000E+00  0.00000000000E+00  0.91188000000E+02  0.91188000000E+02 0.  0.
    9900012    2    3    3    0    0  0.14486181644E+02 -0.52731040956E+01 -0.33438408952E+02  0.54367051090E+02  0.39999924569E+02 0.  0.
         12    1    3    3    0    0 -0.14486181644E+02  0.52731040956E+01  0.33438408952E+02  0.36820948910E+02  0.00000000000E+00 0. -1.
         11    1    4    4    0    0  0.75669063382E+01  0.10873780308E+00  0.38336681700E+01  0.84833311464E+01  0.51100000000E-03 0.  1.
        -11    1    4    4    0    0  0.11237212241E+02 -0.11924999390E-01 -0.40347019218E+01  0.11939593838E+02  0.51100000000E-03 0. -1.
        -12    1    4    4    0    0 -0.43179369347E+01 -0.53699168993E+01 -0.33237375200E+02  0.33944126105E+02  0.00000000000E+00 0.  1.
</event>
<event>
 8    1  0.3011071E-007  0.9118800E+02  0.7816164E-02  0.1184000E+00
        -11   -1    0    0    0    0  0.00000000000E+00  0.00000000000E+00  0.45593999997E+02  0.45594000000E+02  0.51100000000E-03 0. -1.
         11   -1    0    0    0    0 -0.00000000000E+00 -0.00000000000E+00 -0.45593999997E+02  0.45594000000E+02  0.51100000000E-03 0.  1.
         23    2    1    2    0    0  0.35527136788E-14  0.00000000000E+00 -0.35527136788E-14  0.91188000000E+02  0.91188000000E+02 0.  0.
    9900012    2    3    3    0    0 -0.27570104819E+02  0.13991082500E+02  0.19997979351E+02  0.54367078673E+02  0.39999987451E+02 0.  0.
        -12    1    3    3    0    0  0.27570104819E+02 -0.13991082500E+02 -0.19997979351E+02  0.36820921327E+02  0.00000000000E+00 0.  1.
         11    1    4    4    0    0  0.39195552837E+01  0.42906022092E+01  0.23428489736E+01  0.62658696535E+01  0.51100000000E-03 0. -1.
        -11    1    4    4    0    0 -0.32670801287E+02 -0.21825470740E+01  0.11835289878E+02  0.34816933455E+02  0.51100000000E-03 0.  1.
        -12    1    4    4    0    0  0.11811411840E+01  0.11883027365E+02  0.58198404987E+01  0.13284275565E+02  0.00000000000E+00 0.  1.
</event>
<event>
 8    1  0.3011071E-007  0.9118800E+02  0.7816164E-02  0.1184000E+00
        -11   -1    0    0    0    0  0.00000000000E+00  0.00000000000E+00  0.45593999997E+02  0.45594000000E+02  0.51100000000E-03 0.  1.
         11   -1    0    0    0    0 -0.00000000000E+00 -0.00000000000E+00 -0.45593999997E+02  0.45594000000E+02  0.51100000000E-03 0. -1.
         23    2    1    2    0    0  0.00000000000E+00  0.35527136788E-14 -0.35527136788E-14  0.91188000000E+02  0.91188000000E+02 0.  0.
    9900012    2    3    3    0    0 -0.19458109954E+02  0.26010552603E+02 -0.17338221032E+02  0.54367071192E+02  0.39999970397E+02 0.  0.
        -12    1    3    3    0    0  0.19458109954E+02 -0.26010552603E+02  0.17338221032E+02  0.36820928808E+02  0.00000000000E+00 0.  1.
         11    1    4    4    0    0 -0.49660306208E+01  0.26277814039E+02 -0.37271810264E+01  0.27001423101E+02  0.51100000000E-03 0. -1.
        -11    1    4    4    0    0  0.36646733369E+01 -0.21728677242E+01 -0.65028136441E+01  0.77741732913E+01  0.51100000000E-03 0.  1.
        -12    1    4    4    0    0 -0.18156752670E+02  0.19056062883E+01 -0.71082263620E+01  0.19591474800E+02  0.00000000000E+00 0.  1.
</event>
<event>
 8    1  0.3011071E-007  0.9118800E+02  0.7816164E-02  0.1184000E+00
        -11   -1    0    0    0    0  0.00000000000E+00  0.00000000000E+00  0.45593999997E+02  0.45594000000E+02  0.51100000000E-03 0.  1.
         11   -1    0    0    0    0 -0.00000000000E+00 -0.00000000000E+00 -0.45593999997E+02  0.45594000000E+02  0.51100000000E-03 0. -1.
         23    2    1    2    0    0 -0.44408920985E-14  0.00000000000E+00  0.88817841970E-15  0.91188000000E+02  0.91188000000E+02 0.  0.
    9900012    2    3    3    0    0  0.56620948408E+01 -0.35745862614E+02 -0.67778346356E+01  0.54367284984E+02  0.40000457774E+02 0.  0.
        -12    1    3    3    0    0 -0.56620948408E+01  0.35745862614E+02  0.67778346356E+01  0.36820715016E+02  0.00000000000E+00 0.  1.
         11    1    4    4    0    0  0.19930122722E+02 -0.11431722696E+02 -0.86335428622E+01  0.24544493030E+02  0.51100000000E-03 0.  1.
        -11    1    4    4    0    0 -0.34336483206E+01 -0.15173079277E+02  0.27147752687E+00  0.15559112309E+02  0.51100000000E-03 0. -1.
        -12    1    4    4    0    0 -0.10834379560E+02 -0.91410606405E+01  0.15842306997E+01  0.14263679644E+02  0.00000000000E+00 0.  1.
</event>
<event>
 8    1  0.3011071E-007  0.9118800E+02  0.7816164E-02  0.1184000E+00
        -11   -1    0    0    0    0  0.00000000000E+00  0.00000000000E+00  0.45593999997E+02  0.45594000000E+02  0.51100000000E-03 0. -1.
         11   -1    0    0    0    0 -0.00000000000E+00 -0.00000000000E+00 -0.45593999997E+02  0.45594000000E+02  0.51100000000E-03 0.  1.
         23    2    1    2    0    0  0.00000000000E+00  0.00000000000E+00  0.00000000000E+00  0.91188000000E+02  0.91188000000E+02 0.  0.
    9900012    2    3    3    0    0 -0.28116817680E+02 -0.20036740768E+02  0.12796591991E+02  0.54367093118E+02  0.40000020380E+02 0.  0.
         12    1    3    3    0    0  0.28116817680E+02  0.20036740768E+02 -0.12796591991E+02  0.36820906882E+02  0.00000000000E+00 0. -1.
         11    1    4    4    0    0  0.18802644079E+01  0.32241719904E+01  0.12825027884E+02  0.13357096232E+02  0.51100000000E-03 0. -1.
        -11    1    4    4    0    0 -0.90070204098E+01 -0.16462107644E+02  0.19063194128E+01  0.18861639873E+02  0.51100000000E-03 0.  1.
        -12    1    4    4    0    0 -0.20990061678E+02 -0.67988051146E+01 -0.19347553062E+01  0.22148357012E+02  0.00000000000E+00 0.  1.
</event>
<event>
 8    1  0.3011071E-007  0.9118800E+02  0.7816164E-02  0.1184000E+00
        -11   -1    0    0    0    0  0.00000000000E+00  0.00000000000E+00  0.45593999997E+02  0.45594000000E+02  0.51100000000E-03 0. -1.
         11   -1    0    0    0    0 -0.00000000000E+00 -0.00000000000E+00 -0.45593999997E+02  0.45594000000E+02  0.51100000000E-03 0.  1.
         23    2    1    2    0    0  0.10658141036E-13  0.53290705182E-14 -0.35527136788E-14  0.91188000000E+02  0.91188000000E+02 0.  0.
    9900012    2    3    3    0    0 -0.25615795857E+02 -0.11156514752E+02  0.23982151374E+02  0.54367076555E+02  0.39999982623E+02 0.  0.
        -12    1    3    3    0    0  0.25615795857E+02  0.11156514752E+02 -0.23982151374E+02  0.36820923445E+02  0.00000000000E+00 0.  1.
         11    1    4    4    0    0 -0.79183661723E+01 -0.14653620372E+02 -0.77328053353E+00  0.16674143933E+02  0.51100000000E-03 0. -1.
        -11    1    4    4    0    0 -0.17861011034E+02 -0.16129539880E+01  0.26749740525E+02  0.32205061002E+02  0.51100000000E-03 0.  1.
         12    1    4    4    0    0  0.16358134916E+00  0.51100596082E+01 -0.19943086180E+01  0.54878716203E+01  0.00000000000E+00 0. -1.
</event>
<event>
 8    1  0.3011071E-007  0.9118800E+02  0.7816164E-02  0.1184000E+00
        -11   -1    0    0    0    0  0.00000000000E+00  0.00000000000E+00  0.45593999997E+02  0.45594000000E+02  0.51100000000E-03 0. -1.
         11   -1    0    0    0    0 -0.00000000000E+00 -0.00000000000E+00 -0.45593999997E+02  0.45594000000E+02  0.51100000000E-03 0.  1.
         23    2    1    2    0    0  0.35527136788E-14 -0.88817841970E-15 -0.35527136788E-14  0.91188000000E+02  0.91188000000E+02 0.  0.
    9900012    2    3    3    0    0 -0.27343834113E+02 -0.44772365380E+01  0.24249713972E+02  0.54367088296E+02  0.40000009388E+02 0.  0.
        -12    1    3    3    0    0  0.27343834113E+02  0.44772365380E+01 -0.24249713972E+02  0.36820911704E+02  0.00000000000E+00 0.  1.
         11    1    4    4    0    0  0.54027195025E+01 -0.57893899703E+01  0.79316815040E+01  0.11207942987E+02  0.51100000000E-03 0. -1.
        -11    1    4    4    0    0 -0.63403371854E+01  0.94646018856E+01  0.69595151436E+00  0.11413277936E+02  0.51100000000E-03 0.  1.
         12    1    4    4    0    0 -0.26406216430E+02 -0.81524484533E+01  0.15622080953E+02  0.31745867373E+02  0.00000000000E+00 0. -1.
</event>
<event>
 8    1  0.3011071E-007  0.9118800E+02  0.7816164E-02  0.1184000E+00
        -11   -1    0    0    0    0  0.00000000000E+00  0.00000000000E+00  0.45593999997E+02  0.45594000000E+02  0.51100000000E-03 0.  1.
         11   -1    0    0    0    0 -0.00000000000E+00 -0.00000000000E+00 -0.45593999997E+02  0.45594000000E+02  0.51100000000E-03 0. -1.
         23    2    1    2    0    0  0.00000000000E+00  0.35527136788E-14  0.35527136788E-14  0.91188000000E+02  0.91188000000E+02 0.  0.
    9900012    2    3    3    0    0  0.26685423742E+02 -0.23501720863E+02 -0.95571073759E+01  0.54367068111E+02  0.39999963372E+02 0.  0.
         12    1    3    3    0    0 -0.26685423742E+02  0.23501720863E+02  0.95571073759E+01  0.36820931889E+02  0.00000000000E+00 0. -1.
         11    1    4    4    0    0  0.12409274312E+02 -0.25438392109E+01 -0.20357701639E+02  0.23977014475E+02  0.51100000000E-03 0. -1.
        -11    1    4    4    0    0  0.81320036722E+01 -0.76660773248E+01 -0.14871766162E+01  0.11274303518E+02  0.51100000000E-03 0.  1.
        -12    1    4    4    0    0  0.61441457577E+01 -0.13291804328E+02  0.12287770879E+02  0.19115750117E+02  0.00000000000E+00 0.  1.
</event>
<event>
 8    1  0.3011071E-007  0.9118800E+02  0.7816164E-02  0.1184000E+00
        -11   -1    0    0    0    0  0.00000000000E+00  0.00000000000E+00  0.45593999997E+02  0.45594000000E+02  0.51100000000E-03 0. -1.
         11   -1    0    0    0    0 -0.00000000000E+00 -0.00000000000E+00 -0.45593999997E+02  0.45594000000E+02  0.51100000000E-03 0.  1.
         23    2    1    2    0    0 -0.17763568394E-14  0.35527136788E-14  0.00000000000E+00  0.91188000000E+02  0.91188000000E+02 0.  0.
    9900012    2    3    3    0    0 -0.15947636312E+02  0.16624035595E+02 -0.28724466635E+02  0.54367073248E+02  0.39999975084E+02 0.  0.
         12    1    3    3    0    0  0.15947636312E+02 -0.16624035595E+02  0.28724466635E+02  0.36820926752E+02  0.00000000000E+00 0. -1.
         11    1    4    4    0    0  0.52840249286E+01  0.10963689602E+02 -0.21914934385E+02  0.25067663602E+02  0.51100000000E-03 0.  1.
        -11    1    4    4    0    0 -0.12708911640E+02 -0.45130550974E+01  0.16103283778E+01  0.13582240579E+02  0.51100000000E-03 0. -1.
        -12    1    4    4    0    0 -0.85227495999E+01  0.10173401090E+02 -0.84198606282E+01  0.15717169067E+02  0.00000000000E+00 0.  1.
</event>
<event>
 8    1  0.3011071E-007  0.9118800E+02  0.7816164E-02  0.1184000E+00
        -11   -1    0    0    0    0  0.00000000000E+00  0.00000000000E+00  0.45593999997E+02  0.45594000000E+02  0.51100000000E-03 0.  1.
         11   -1    0    0    0    0 -0.00000000000E+00 -0.00000000000E+00 -0.45593999997E+02  0.45594000000E+02  0.51100000000E-03 0. -1.
         23    2    1    2    0    0  0.00000000000E+00  0.17763568394E-14  0.35527136788E-14  0.91188000000E+02  0.91188000000E+02 0.  0.
    9900012    2    3    3    0    0  0.28702095732E+02  0.15253455318E+02 -0.17300239576E+02  0.54367129723E+02  0.40000103829E+02 0.  0.
        -12    1    3    3    0    0 -0.28702095732E+02 -0.15253455318E+02  0.17300239576E+02  0.36820870277E+02  0.00000000000E+00 0.  1.
         11    1    4    4    0    0 -0.30401678977E+01  0.72395557869E+01 -0.95078767301E+01  0.12330997892E+02  0.51100000000E-03 0. -1.
        -11    1    4    4    0    0  0.31579153711E+02 -0.61168561840E+00 -0.10001303573E+02  0.33130698481E+02  0.51100000000E-03 0.  1.
         12    1    4    4    0    0  0.16310991936E+00  0.86255851496E+01  0.22089407270E+01  0.89054333502E+01  0.00000000000E+00 0. -1.
</event>
<event>
 8    1  0.3011071E-007  0.9118800E+02  0.7816164E-02  0.1184000E+00
        -11   -1    0    0    0    0  0.00000000000E+00  0.00000000000E+00  0.45593999997E+02  0.45594000000E+02  0.51100000000E-03 0.  1.
         11   -1    0    0    0    0 -0.00000000000E+00 -0.00000000000E+00 -0.45593999997E+02  0.45594000000E+02  0.51100000000E-03 0. -1.
         23    2    1    2    0    0  0.00000000000E+00  0.88817841970E-15  0.00000000000E+00  0.91188000000E+02  0.91188000000E+02 0.  0.
    9900012    2    3    3    0    0  0.33754315868E+02  0.69756374907E+01 -0.12952513283E+02  0.54367069017E+02  0.39999965437E+02 0.  0.
        -12    1    3    3    0    0 -0.33754315868E+02 -0.69756374907E+01  0.12952513283E+02  0.36820930983E+02  0.00000000000E+00 0.  1.
         11    1    4    4    0    0  0.10584729956E+02  0.12932502041E+02  0.23517900624E+01  0.16876523162E+02  0.51100000000E-03 0. -1.
        -11    1    4    4    0    0  0.25627238176E+02 -0.24756836612E+01 -0.48476343997E+01  0.26198929475E+02  0.51100000000E-03 0.  1.
        -12    1    4    4    0    0 -0.24576522635E+01 -0.34811808886E+01 -0.10456668946E+02  0.11291616380E+02  0.00000000000E+00 0.  1.
</event>
<event>
 8    1  0.3011071E-007  0.9118800E+02  0.7816164E-02  0.1184000E+00
        -11   -1    0    0    0    0  0.00000000000E+00  0.00000000000E+00  0.45593999997E+02  0.45594000000E+02  0.51100000000E-03 0.  1.
         11   -1    0    0    0    0 -0.00000000000E+00 -0.00000000000E+00 -0.45593999997E+02  0.45594000000E+02  0.51100000000E-03 0. -1.
         23    2    1    2    0    0  0.00000000000E+00  0.35527136788E-14 -0.17763568394E-14  0.91188000000E+02  0.91188000000E+02 0.  0.
    9900012    2    3    3    0    0  0.13027276997E+02  0.30976957964E+02 -0.15049836309E+02  0.54367089587E+02  0.40000012332E+02 0.  0.
         12    1    3    3    0    0 -0.13027276997E+02 -0.30976957964E+02  0.15049836309E+02  0.36820910413E+02  0.00000000000E+00 0. -1.
         11    1    4    4    0    0  0.34236889227E+01 -0.32989955351E+01 -0.81158657223E+01  0.94059711920E+01  0.51100000000E-03 0. -1.
        -11    1    4    4    0    0 -0.77607085078E+01  0.16912848547E+02  0.22499416001E+01  0.18743939820E+02  0.51100000000E-03 0.  1.
         12    1    4    4    0    0  0.17364296583E+02  0.17363104952E+02 -0.91839121867E+01  0.26217178575E+02  0.00000000000E+00 0. -1.
</event>
<event>
 8    1  0.3011071E-007  0.9118800E+02  0.7816164E-02  0.1184000E+00
        -11   -1    0    0    0    0  0.00000000000E+00  0.00000000000E+00  0.45593999997E+02  0.45594000000E+02  0.51100000000E-03 0. -1.
         11   -1    0    0    0    0 -0.00000000000E+00 -0.00000000000E+00 -0.45593999997E+02  0.45594000000E+02  0.51100000000E-03 0.  1.
         23    2    1    2    0    0 -0.35527136788E-14 -0.35527136788E-14  0.00000000000E+00  0.91188000000E+02  0.91188000000E+02 0.  0.
    9900012    2    3    3    0    0  0.26919183630E+02  0.19232483497E+02 -0.16163401609E+02  0.54366994849E+02  0.39999796357E+02 0.  0.
         12    1    3    3    0    0 -0.26919183630E+02 -0.19232483497E+02  0.16163401609E+02  0.36821005151E+02  0.00000000000E+00 0. -1.
         11    1    4    4    0    0  0.28464174805E+02  0.92847423953E+00 -0.10629540069E+02  0.30398329462E+02  0.51100000000E-03 0. -1.
        -11    1    4    4    0    0 -0.19994182380E+01  0.10160778237E+01 -0.62700499507E+01  0.66591000954E+01  0.51100000000E-03 0.  1.
         12    1    4    4    0    0  0.45442706250E+00  0.17287931434E+02  0.73618841132E+00  0.17309565292E+02  0.00000000000E+00 0. -1.
</event>
<event>
 8    1  0.3011071E-007  0.9118800E+02  0.7816164E-02  0.1184000E+00
        -11   -1    0    0    0    0  0.00000000000E+00  0.00000000000E+00  0.45593999997E+02  0.45594000000E+02  0.51100000000E-03 0. -1.
         11   -1    0    0    0    0 -0.00000000000E+00 -0.00000000000E+00 -0.45593999997E+02  0.45594000000E+02  0.51100000000E-03 0.  1.
         23    2    1    2    0    0 -0.71054273576E-14  0.00000000000E+00  0.00000000000E+00  0.91188000000E+02  0.91188000000E+02 0.  0.
    9900012    2    3    3    0    0 -0.19364869585E+02  0.10792954845E+02  0.29398860922E+02  0.54367094636E+02  0.40000023841E+02 0.  0.
        -12    1    3    3    0    0  0.19364869585E+02 -0.10792954845E+02 -0.29398860922E+02  0.36820905364E+02  0.00000000000E+00 0.  1.
         11    1    4    4    0    0 -0.80726923458E+01 -0.35328523085E+01  0.97319011425E+01  0.13128568363E+02  0.51100000000E-03 0. -1.
        -11    1    4    4    0    0 -0.18896952616E+02  0.52917910862E+01  0.21698680515E+02  0.29256291758E+02  0.51100000000E-03 0.  1.
         12    1    4    4    0    0  0.76047753766E+01  0.90340160671E+01 -0.20317207353E+01  0.11982234515E+02  0.00000000000E+00 0. -1.
</event>
<event>
 8    1  0.3011071E-007  0.9118800E+02  0.7816164E-02  0.1184000E+00
        -11   -1    0    0    0    0  0.00000000000E+00  0.00000000000E+00  0.45593999997E+02  0.45594000000E+02  0.51100000000E-03 0. -1.
         11   -1    0    0    0    0 -0.00000000000E+00 -0.00000000000E+00 -0.45593999997E+02  0.45594000000E+02  0.51100000000E-03 0.  1.
         23    2    1    2    0    0 -0.88817841970E-15  0.17763568394E-14  0.00000000000E+00  0.91188000000E+02  0.91188000000E+02 0.  0.
    9900012    2    3    3    0    0 -0.57846766341E+01  0.80944136265E+01 -0.35451322900E+02  0.54367104966E+02  0.40000047391E+02 0.  0.
         12    1    3    3    0    0  0.57846766341E+01 -0.80944136265E+01  0.35451322900E+02  0.36820895034E+02  0.00000000000E+00 0. -1.
         11    1    4    4    0    0 -0.82475493053E+01  0.92913385766E+01 -0.31394149294E+02  0.33763051584E+02  0.51100000000E-03 0. -1.
        -11    1    4    4    0    0  0.43747051595E+01  0.86717750591E+01 -0.41230721208E+01  0.10551656357E+02  0.51100000000E-03 0.  1.
         12    1    4    4    0    0 -0.19118324882E+01 -0.98687000092E+01  0.65898514644E-01  0.10052397025E+02  0.00000000000E+00 0. -1.
</event>
<event>
 8    1  0.3011071E-007  0.9118800E+02  0.7816164E-02  0.1184000E+00
        -11   -1    0    0    0    0  0.00000000000E+00  0.00000000000E+00  0.45593999997E+02  0.45594000000E+02  0.51100000000E-03 0.  1.
         11   -1    0    0    0    0 -0.00000000000E+00 -0.00000000000E+00 -0.45593999997E+02  0.45594000000E+02  0.51100000000E-03 0. -1.
         23    2    1    2    0    0  0.00000000000E+00  0.00000000000E+00 -0.35527136788E-14  0.91188000000E+02  0.91188000000E+02 0.  0.
    9900012    2    3    3    0    0 -0.21377591330E+02 -0.25263557622E+02 -0.16140960605E+02  0.54367090668E+02  0.40000014796E+02 0.  0.
        -12    1    3    3    0    0  0.21377591330E+02  0.25263557622E+02  0.16140960605E+02  0.36820909332E+02  0.00000000000E+00 0.  1.
         11    1    4    4    0    0 -0.48792164949E+01 -0.38548041362E+01 -0.13197846347E+02  0.14589359719E+02  0.51100000000E-03 0. -1.
        -11    1    4    4    0    0  0.47682496512E+01  0.23951180549E+00 -0.77005576775E+01  0.90604723634E+01  0.51100000000E-03 0.  1.
         12    1    4    4    0    0 -0.21266624486E+02 -0.21648265291E+02  0.47574434199E+01  0.30717258586E+02  0.00000000000E+00 0. -1.
</event>
<event>
 8    1  0.3011071E-007  0.9118800E+02  0.7816164E-02  0.1184000E+00
        -11   -1    0    0    0    0  0.00000000000E+00  0.00000000000E+00  0.45593999997E+02  0.45594000000E+02  0.51100000000E-03 0. -1.
         11   -1    0    0    0    0 -0.00000000000E+00 -0.00000000000E+00 -0.45593999997E+02  0.45594000000E+02  0.51100000000E-03 0.  1.
         23    2    1    2    0    0  0.13322676296E-14  0.00000000000E+00  0.00000000000E+00  0.91188000000E+02  0.91188000000E+02 0.  0.
    9900012    2    3    3    0    0 -0.24980553078E+01 -0.82728430091E+01  0.35792446131E+02  0.54367090020E+02  0.40000013317E+02 0.  0.
        -12    1    3    3    0    0  0.24980553078E+01  0.82728430091E+01 -0.35792446131E+02  0.36820909980E+02  0.00000000000E+00 0.  1.
         11    1    4    4    0    0 -0.76691713078E+01  0.14637135687E+01  0.18260293457E+02  0.19859430087E+02  0.51100000000E-03 0. -1.
        -11    1    4    4    0    0  0.12337677709E+02 -0.73556667420E+01  0.21592366334E+02  0.25933653978E+02  0.51100000000E-03 0.  1.
        -12    1    4    4    0    0 -0.71665617091E+01 -0.23808898357E+01 -0.40602136609E+01  0.85740059548E+01  0.00000000000E+00 0.  1.
</event>
<event>
 8    1  0.3011071E-007  0.9118800E+02  0.7816164E-02  0.1184000E+00
        -11   -1    0    0    0    0  0.00000000000E+00  0.00000000000E+00  0.45593999997E+02  0.45594000000E+02  0.51100000000E-03 0. -1.
         11   -1    0    0    0    0 -0.00000000000E+00 -0.00000000000E+00 -0.45593999997E+02  0.45594000000E+02  0.51100000000E-03 0.  1.
         23    2    1    2    0    0  0.00000000000E+00  0.00000000000E+00  0.00000000000E+00  0.91188000000E+02  0.91188000000E+02 0.  0.
    9900012    2    3    3    0    0  0.15592394380E+02 -0.31634732034E+02 -0.10578327201E+02  0.54367081492E+02  0.39999993878E+02 0.  0.
         12    1    3    3    0    0 -0.15592394380E+02  0.31634732034E+02  0.10578327201E+02  0.36820918508E+02  0.00000000000E+00 0. -1.
         11    1    4    4    0    0  0.54030895142E+01 -0.27606147471E+02 -0.59428013641E+01  0.28750819863E+02  0.51100000000E-03 0. -1.
        -11    1    4    4    0    0 -0.30441620637E+01  0.44740391357E+00 -0.10143361479E+02  0.10599758265E+02  0.51100000000E-03 0.  1.
         12    1    4    4    0    0  0.13233466930E+02 -0.44759884772E+01  0.55078356417E+01  0.15016503364E+02  0.00000000000E+00 0. -1.
</event>
<event>
 8    1  0.3011071E-007  0.9118800E+02  0.7816164E-02  0.1184000E+00
        -11   -1    0    0    0    0  0.00000000000E+00  0.00000000000E+00  0.45593999997E+02  0.45594000000E+02  0.51100000000E-03 0. -1.
         11   -1    0    0    0    0 -0.00000000000E+00 -0.00000000000E+00 -0.45593999997E+02  0.45594000000E+02  0.51100000000E-03 0.  1.
         23    2    1    2    0    0 -0.11102230246E-15  0.00000000000E+00 -0.35527136788E-14  0.91188000000E+02  0.91188000000E+02 0.  0.
    9900012    2    3    3    0    0  0.55940896111E+00  0.25012058286E+02 -0.27015981259E+02  0.54367092332E+02  0.40000018590E+02 0.  0.
         12    1    3    3    0    0 -0.55940896111E+00 -0.25012058286E+02  0.27015981259E+02  0.36820907668E+02  0.00000000000E+00 0. -1.
         11    1    4    4    0    0  0.68163640033E+01 -0.23806191699E+01 -0.12070763528E+01  0.73203278233E+01  0.51100000000E-03 0. -1.
        -11    1    4    4    0    0 -0.10579957547E+02  0.10541815062E+02  0.11309763097E+01  0.14978133200E+02  0.51100000000E-03 0.  1.
        -12    1    4    4    0    0  0.43230025043E+01  0.16850862394E+02 -0.26939881216E+02  0.32068631308E+02  0.00000000000E+00 0.  1.
</event>
<event>
 8    1  0.3011071E-007  0.9118800E+02  0.7816164E-02  0.1184000E+00
        -11   -1    0    0    0    0  0.00000000000E+00  0.00000000000E+00  0.45593999997E+02  0.45594000000E+02  0.51100000000E-03 0.  1.
         11   -1    0    0    0    0 -0.00000000000E+00 -0.00000000000E+00 -0.45593999997E+02  0.45594000000E+02  0.51100000000E-03 0. -1.
         23    2    1    2    0    0  0.00000000000E+00 -0.22204460493E-14  0.00000000000E+00  0.91188000000E+02  0.91188000000E+02 0.  0.
    9900012    2    3    3    0    0  0.23502380800E+01 -0.22590584755E+01  0.36676347711E+02  0.54367062402E+02  0.39999950357E+02 0.  0.
         12    1    3    3    0    0 -0.23502380800E+01  0.22590584755E+01 -0.36676347711E+02  0.36820937598E+02  0.00000000000E+00 0. -1.
         11    1    4    4    0    0 -0.38865084447E+01 -0.86557784544E+01  0.95814741327E+01  0.13484513167E+02  0.51100000000E-03 0. -1.
        -11    1    4    4    0    0  0.24787788791E+01 -0.41238039778E+01 -0.49759196858E+01  0.69216963932E+01  0.51100000000E-03 0.  1.
        -12    1    4    4    0    0  0.37579676456E+01  0.10520523957E+02  0.32070793264E+02  0.33960852841E+02  0.00000000000E+00 0.  1.
</event>
<event>
 8    1  0.3011071E-007  0.9118800E+02  0.7816164E-02  0.1184000E+00
        -11   -1    0    0    0    0  0.00000000000E+00  0.00000000000E+00  0.45593999997E+02  0.45594000000E+02  0.51100000000E-03 0.  1.
         11   -1    0    0    0    0 -0.00000000000E+00 -0.00000000000E+00 -0.45593999997E+02  0.45594000000E+02  0.51100000000E-03 0. -1.
         23    2    1    2    0    0  0.35527136788E-14  0.00000000000E+00  0.00000000000E+00  0.91188000000E+02  0.91188000000E+02 0.  0.
    9900012    2    3    3    0    0 -0.29275216468E+02  0.19135108577E+02  0.11514738139E+02  0.54367083745E+02  0.39999999013E+02 0.  0.
         12    1    3    3    0    0  0.29275216468E+02 -0.19135108577E+02 -0.11514738139E+02  0.36820916255E+02  0.00000000000E+00 0. -1.
         11    1    4    4    0    0 -0.53833635517E+01 -0.11080649194E+02  0.16552427516E+01  0.12429851911E+02  0.51100000000E-03 0. -1.
        -11    1    4    4    0    0 -0.25764005106E+01  0.13048279347E+02  0.45564948341E+01  0.14059056830E+02  0.51100000000E-03 0.  1.
        -12    1    4    4    0    0 -0.21315452405E+02  0.17167478424E+02  0.53030005532E+01  0.27878175004E+02  0.00000000000E+00 0.  1.
</event>
<event>
 8    1  0.3011071E-007  0.9118800E+02  0.7816164E-02  0.1184000E+00
        -11   -1    0    0    0    0  0.00000000000E+00  0.00000000000E+00  0.45593999997E+02  0.45594000000E+02  0.51100000000E-03 0.  1.
         11   -1    0    0    0    0 -0.00000000000E+00 -0.00000000000E+00 -0.45593999997E+02  0.45594000000E+02  0.51100000000E-03 0. -1.
         23    2    1    2    0    0  0.00000000000E+00 -0.14432899320E-14  0.00000000000E+00  0.91188000000E+02  0.91188000000E+02 0.  0.
    9900012    2    3    3    0    0 -0.35819597039E+02 -0.14660631716E+00  0.85272797821E+01  0.54367088470E+02  0.40000009785E+02 0.  0.
         12    1    3    3    0    0  0.35819597039E+02  0.14660631716E+00 -0.85272797821E+01  0.36820911530E+02  0.00000000000E+00 0. -1.
         11    1    4    4    0    0 -0.27469941653E+02  0.17245229198E+02  0.34392042167E+01  0.32616311110E+02  0.51100000000E-03 0. -1.
        -11    1    4    4    0    0 -0.37954441304E+01 -0.10204280266E+01 -0.25232937260E+00  0.39383168839E+01  0.51100000000E-03 0.  1.
         12    1    4    4    0    0 -0.45542112557E+01 -0.16371407489E+02  0.53404049380E+01  0.17812460476E+02  0.00000000000E+00 0. -1.
</event>
<event>
 8    1  0.3011071E-007  0.9118800E+02  0.7816164E-02  0.1184000E+00
        -11   -1    0    0    0    0  0.00000000000E+00  0.00000000000E+00  0.45593999997E+02  0.45594000000E+02  0.51100000000E-03 0. -1.
         11   -1    0    0    0    0 -0.00000000000E+00 -0.00000000000E+00 -0.45593999997E+02  0.45594000000E+02  0.51100000000E-03 0.  1.
         23    2    1    2    0    0  0.00000000000E+00  0.17763568394E-14 -0.17763568394E-14  0.91188000000E+02  0.91188000000E+02 0.  0.
    9900012    2    3    3    0    0 -0.32232478367E+02 -0.11024204740E+02  0.13975486172E+02  0.54367082500E+02  0.39999996175E+02 0.  0.
        -12    1    3    3    0    0  0.32232478367E+02  0.11024204740E+02 -0.13975486172E+02  0.36820917500E+02  0.00000000000E+00 0.  1.
         11    1    4    4    0    0 -0.67226194737E+01 -0.17249830768E+02  0.44372208069E+01  0.19037836086E+02  0.51100000000E-03 0. -1.
        -11    1    4    4    0    0 -0.10880873274E+02  0.58103073696E+01  0.15254463473E+02  0.19617638264E+02  0.51100000000E-03 0.  1.
         12    1    4    4    0    0 -0.14628985619E+02  0.41531865783E+00 -0.57161981082E+01  0.15711608149E+02  0.00000000000E+00 0. -1.
</event>
<event>
 8    1  0.3011071E-007  0.9118800E+02  0.7816164E-02  0.1184000E+00
        -11   -1    0    0    0    0  0.00000000000E+00  0.00000000000E+00  0.45593999997E+02  0.45594000000E+02  0.51100000000E-03 0.  1.
         11   -1    0    0    0    0 -0.00000000000E+00 -0.00000000000E+00 -0.45593999997E+02  0.45594000000E+02  0.51100000000E-03 0. -1.
         23    2    1    2    0    0  0.00000000000E+00  0.35527136788E-14  0.00000000000E+00  0.91188000000E+02  0.91188000000E+02 0.  0.
    9900012    2    3    3    0    0 -0.12392400811E+02 -0.22996984927E+02 -0.25948949469E+02  0.54367069918E+02  0.39999967491E+02 0.  0.
        -12    1    3    3    0    0  0.12392400811E+02  0.22996984927E+02  0.25948949469E+02  0.36820930082E+02  0.00000000000E+00 0.  1.
         11    1    4    4    0    0  0.56460120404E+01 -0.97972204735E-01 -0.62478473810E+01  0.84215585060E+01  0.51100000000E-03 0. -1.
        -11    1    4    4    0    0  0.58331146486E+01 -0.11038023478E+02 -0.13866519486E+02  0.18658605300E+02  0.51100000000E-03 0.  1.
        -12    1    4    4    0    0 -0.23871527500E+02 -0.11860989244E+02 -0.58345826017E+01  0.27286906112E+02  0.00000000000E+00 0.  1.
</event>
<event>
 8    1  0.3011071E-007  0.9118800E+02  0.7816164E-02  0.1184000E+00
        -11   -1    0    0    0    0  0.00000000000E+00  0.00000000000E+00  0.45593999997E+02  0.45594000000E+02  0.51100000000E-03 0. -1.
         11   -1    0    0    0    0 -0.00000000000E+00 -0.00000000000E+00 -0.45593999997E+02  0.45594000000E+02  0.51100000000E-03 0.  1.
         23    2    1    2    0    0  0.00000000000E+00  0.17763568394E-14  0.00000000000E+00  0.91188000000E+02  0.91188000000E+02 0.  0.
    9900012    2    3    3    0    0 -0.12556807756E+02 -0.12301054064E+02  0.32354139295E+02  0.54367086355E+02  0.40000004964E+02 0.  0.
        -12    1    3    3    0    0  0.12556807756E+02  0.12301054064E+02 -0.32354139295E+02  0.36820913645E+02  0.00000000000E+00 0.  1.
         11    1    4    4    0    0 -0.14817779474E+02 -0.13233570026E+02  0.13171646991E+02  0.23836657671E+02  0.51100000000E-03 0. -1.
        -11    1    4    4    0    0 -0.85316301924E+01 -0.55057233100E+01  0.42340997591E+01  0.11001331917E+02  0.51100000000E-03 0.  1.
         12    1    4    4    0    0  0.10792601911E+02  0.64382392711E+01  0.14948392544E+02  0.19529096768E+02  0.00000000000E+00 0. -1.
</event>
<event>
 8    1  0.3011071E-007  0.9118800E+02  0.7816164E-02  0.1184000E+00
        -11   -1    0    0    0    0  0.00000000000E+00  0.00000000000E+00  0.45593999997E+02  0.45594000000E+02  0.51100000000E-03 0. -1.
         11   -1    0    0    0    0 -0.00000000000E+00 -0.00000000000E+00 -0.45593999997E+02  0.45594000000E+02  0.51100000000E-03 0.  1.
         23    2    1    2    0    0  0.00000000000E+00 -0.35527136788E-14  0.35527136788E-14  0.91188000000E+02  0.91188000000E+02 0.  0.
    9900012    2    3    3    0    0 -0.17463044737E+02  0.26249574151E+02 -0.19020556430E+02  0.54367086900E+02  0.40000006206E+02 0.  0.
         12    1    3    3    0    0  0.17463044737E+02 -0.26249574151E+02  0.19020556430E+02  0.36820913100E+02  0.00000000000E+00 0. -1.
         11    1    4    4    0    0 -0.52030696331E+01  0.26631062215E+02 -0.53330084080E+01  0.27653686685E+02  0.51100000000E-03 0. -1.
        -11    1    4    4    0    0 -0.22107878529E+01 -0.91017488763E+01 -0.76903701990E+01  0.12119043262E+02  0.51100000000E-03 0.  1.
        -12    1    4    4    0    0 -0.10049187251E+02  0.87202608126E+01 -0.59971778230E+01  0.14594356953E+02  0.00000000000E+00 0.  1.
</event>
<event>
 8    1  0.3011071E-007  0.9118800E+02  0.7816164E-02  0.1184000E+00
        -11   -1    0    0    0    0  0.00000000000E+00  0.00000000000E+00  0.45593999997E+02  0.45594000000E+02  0.51100000000E-03 0. -1.
         11   -1    0    0    0    0 -0.00000000000E+00 -0.00000000000E+00 -0.45593999997E+02  0.45594000000E+02  0.51100000000E-03 0.  1.
         23    2    1    2    0    0  0.00000000000E+00 -0.88817841970E-15  0.00000000000E+00  0.91188000000E+02  0.91188000000E+02 0.  0.
    9900012    2    3    3    0    0  0.14515138722E+02  0.28735329909E+01  0.33716957650E+02  0.54367086417E+02  0.40000005104E+02 0.  0.
        -12    1    3    3    0    0 -0.14515138722E+02 -0.28735329909E+01 -0.33716957650E+02  0.36820913583E+02  0.00000000000E+00 0.  1.
         11    1    4    4    0    0  0.18983457434E+02  0.45487119302E+00  0.16507392701E+02  0.25160933567E+02  0.51100000000E-03 0. -1.
        -11    1    4    4    0    0 -0.24292703904E+01 -0.94960976969E+01  0.13259525729E+02  0.16489155495E+02  0.51100000000E-03 0.  1.
        -12    1    4    4    0    0 -0.20390483216E+01  0.11914759495E+02  0.39500392199E+01  0.12716997355E+02  0.00000000000E+00 0.  1.
</event>
<event>
 8    1  0.3011071E-007  0.9118800E+02  0.7816164E-02  0.1184000E+00
        -11   -1    0    0    0    0  0.00000000000E+00  0.00000000000E+00  0.45593999997E+02  0.45594000000E+02  0.51100000000E-03 0.  1.
         11   -1    0    0    0    0 -0.00000000000E+00 -0.00000000000E+00 -0.45593999997E+02  0.45594000000E+02  0.51100000000E-03 0. -1.
         23    2    1    2    0    0  0.00000000000E+00  0.35527136788E-14 -0.61062266354E-15  0.91188000000E+02  0.91188000000E+02 0.  0.
    9900012    2    3    3    0    0 -0.27169220406E+02  0.24850119133E+02  0.29069167636E+00  0.54367089364E+02  0.40000011824E+02 0.  0.
        -12    1    3    3    0    0  0.27169220406E+02 -0.24850119133E+02 -0.29069167636E+00  0.36820910636E+02  0.00000000000E+00 0.  1.
         11    1    4    4    0    0 -0.18022737710E+02  0.53508448329E+01  0.43556623667E+01  0.19298248882E+02  0.51100000000E-03 0. -1.
        -11    1    4    4    0    0 -0.67569711441E+01  0.64488110653E+01 -0.15138017513E+02  0.17787731662E+02  0.51100000000E-03 0.  1.
        -12    1    4    4    0    0 -0.23895115509E+01  0.13050463235E+02  0.11073046823E+02  0.17281108820E+02  0.00000000000E+00 0.  1.
</event>
<event>
 8    1  0.3011071E-007  0.9118800E+02  0.7816164E-02  0.1184000E+00
        -11   -1    0    0    0    0  0.00000000000E+00  0.00000000000E+00  0.45593999997E+02  0.45594000000E+02  0.51100000000E-03 0.  1.
         11   -1    0    0    0    0 -0.00000000000E+00 -0.00000000000E+00 -0.45593999997E+02  0.45594000000E+02  0.51100000000E-03 0. -1.
         23    2    1    2    0    0  0.00000000000E+00  0.26645352591E-14  0.00000000000E+00  0.91188000000E+02  0.91188000000E+02 0.  0.
    9900012    2    3    3    0    0  0.95589775180E+01  0.50572203357E+01  0.35197032157E+02  0.54367073866E+02  0.39999976492E+02 0.  0.
         12    1    3    3    0    0 -0.95589775180E+01 -0.50572203357E+01 -0.35197032157E+02  0.36820926134E+02  0.00000000000E+00 0. -1.
         11    1    4    4    0    0  0.12711445888E+02 -0.11763390462E+02  0.12838599772E+02  0.21558939122E+02  0.51100000000E-03 0. -1.
        -11    1    4    4    0    0 -0.83663165882E+01  0.16630886699E+02  0.19016937431E+02  0.26612507495E+02  0.51100000000E-03 0.  1.
         12    1    4    4    0    0  0.52138482183E+01  0.18972409834E+00  0.33414949539E+01  0.61956272486E+01  0.00000000000E+00 0. -1.
</event>
<event>
 8    1  0.3011071E-007  0.9118800E+02  0.7816164E-02  0.1184000E+00
        -11   -1    0    0    0    0  0.00000000000E+00  0.00000000000E+00  0.45593999997E+02  0.45594000000E+02  0.51100000000E-03 0.  1.
         11   -1    0    0    0    0 -0.00000000000E+00 -0.00000000000E+00 -0.45593999997E+02  0.45594000000E+02  0.51100000000E-03 0. -1.
         23    2    1    2    0    0 -0.17763568394E-14 -0.17763568394E-14  0.00000000000E+00  0.91188000000E+02  0.91188000000E+02 0.  0.
    9900012    2    3    3    0    0  0.14680395881E+02 -0.12683141782E+02 -0.31295419072E+02  0.54367090674E+02  0.40000014809E+02 0.  0.
        -12    1    3    3    0    0 -0.14680395881E+02  0.12683141782E+02  0.31295419072E+02  0.36820909326E+02  0.00000000000E+00 0.  1.
         11    1    4    4    0    0  0.87457462871E+01 -0.68487500141E+01  0.54986608276E+01  0.12394705565E+02  0.51100000000E-03 0.  1.
        -11    1    4    4    0    0  0.74458578428E+01 -0.10216525233E+02 -0.34613202945E+02  0.36849586229E+02  0.51100000000E-03 0. -1.
        -12    1    4    4    0    0 -0.15112082491E+01  0.43821334651E+01 -0.21808769548E+01  0.51227988805E+01  0.00000000000E+00 0.  1.
</event>
<event>
 8    1  0.3011071E-007  0.9118800E+02  0.7816164E-02  0.1184000E+00
        -11   -1    0    0    0    0  0.00000000000E+00  0.00000000000E+00  0.45593999997E+02  0.45594000000E+02  0.51100000000E-03 0. -1.
         11   -1    0    0    0    0 -0.00000000000E+00 -0.00000000000E+00 -0.45593999997E+02  0.45594000000E+02  0.51100000000E-03 0.  1.
         23    2    1    2    0    0  0.00000000000E+00  0.44408920985E-15  0.00000000000E+00  0.91188000000E+02  0.91188000000E+02 0.  0.
    9900012    2    3    3    0    0 -0.36731136332E+02  0.25082502348E+00  0.25572671136E+01  0.54367096908E+02  0.40000029020E+02 0.  0.
        -12    1    3    3    0    0  0.36731136332E+02 -0.25082502348E+00 -0.25572671136E+01  0.36820903092E+02  0.00000000000E+00 0.  1.
         11    1    4    4    0    0 -0.23477850807E+02 -0.47624595846E+01 -0.11099576528E+02  0.26402482823E+02  0.51100000000E-03 0. -1.
        -11    1    4    4    0    0  0.72777905892E+00 -0.56209285837E+01  0.73925453490E+01  0.93152685146E+01  0.51100000000E-03 0.  1.
         12    1    4    4    0    0 -0.13981064584E+02  0.10634213192E+02  0.62642982927E+01  0.18649345570E+02  0.00000000000E+00 0. -1.
</event>
<event>
 8    1  0.3011071E-007  0.9118800E+02  0.7816164E-02  0.1184000E+00
        -11   -1    0    0    0    0  0.00000000000E+00  0.00000000000E+00  0.45593999997E+02  0.45594000000E+02  0.51100000000E-03 0.  1.
         11   -1    0    0    0    0 -0.00000000000E+00 -0.00000000000E+00 -0.45593999997E+02  0.45594000000E+02  0.51100000000E-03 0. -1.
         23    2    1    2    0    0 -0.88817841970E-15 -0.88817841970E-15  0.00000000000E+00  0.91188000000E+02  0.91188000000E+02 0.  0.
    9900012    2    3    3    0    0  0.68237378210E+01 -0.26342903271E+01 -0.36087078398E+02  0.54367080530E+02  0.39999991683E+02 0.  0.
        -12    1    3    3    0    0 -0.68237378210E+01  0.26342903271E+01  0.36087078398E+02  0.36820919470E+02  0.00000000000E+00 0.  1.
         11    1    4    4    0    0  0.14991653307E+02 -0.51547880228E+00 -0.12633594838E+02  0.19611810372E+02  0.51100000000E-03 0.  1.
        -11    1    4    4    0    0 -0.44288637320E+01 -0.10166141259E+02 -0.23385558091E+02  0.25881452617E+02  0.51100000000E-03 0. -1.
        -12    1    4    4    0    0 -0.37390517542E+01  0.80473297344E+01 -0.67925468090E-01  0.88738175406E+01  0.00000000000E+00 0.  1.
</event>
<event>
 8    1  0.3011071E-007  0.9118800E+02  0.7816164E-02  0.1184000E+00
        -11   -1    0    0    0    0  0.00000000000E+00  0.00000000000E+00  0.45593999997E+02  0.45594000000E+02  0.51100000000E-03 0. -1.
         11   -1    0    0    0    0 -0.00000000000E+00 -0.00000000000E+00 -0.45593999997E+02  0.45594000000E+02  0.51100000000E-03 0.  1.
         23    2    1    2    0    0  0.00000000000E+00  0.88817841970E-15  0.00000000000E+00  0.91188000000E+02  0.91188000000E+02 0.  0.
    9900012    2    3    3    0    0  0.16511804564E+02  0.74539994720E+01 -0.32055819867E+02  0.54367117536E+02  0.40000076046E+02 0.  0.
         12    1    3    3    0    0 -0.16511804564E+02 -0.74539994720E+01  0.32055819867E+02  0.36820882464E+02  0.00000000000E+00 0. -1.
         11    1    4    4    0    0  0.57676146531E+01  0.96644719140E+00  0.48912560054E+01  0.76238956270E+01  0.51100000000E-03 0. -1.
        -11    1    4    4    0    0  0.32692638495E+01 -0.98139193260E+01 -0.17176336971E+02  0.20050627188E+02  0.51100000000E-03 0.  1.
        -12    1    4    4    0    0  0.74749260614E+01  0.16301471607E+02 -0.19770738902E+02  0.26692594720E+02  0.00000000000E+00 0.  1.
</event>
<event>
 8    1  0.3011071E-007  0.9118800E+02  0.7816164E-02  0.1184000E+00
        -11   -1    0    0    0    0  0.00000000000E+00  0.00000000000E+00  0.45593999997E+02  0.45594000000E+02  0.51100000000E-03 0.  1.
         11   -1    0    0    0    0 -0.00000000000E+00 -0.00000000000E+00 -0.45593999997E+02  0.45594000000E+02  0.51100000000E-03 0. -1.
         23    2    1    2    0    0  0.44408920985E-15  0.00000000000E+00  0.71054273576E-14  0.91188000000E+02  0.91188000000E+02 0.  0.
    9900012    2    3    3    0    0 -0.27942702375E+01 -0.75366921267E+01 -0.35932607199E+02  0.54367327348E+02  0.40000554352E+02 0.  0.
        -12    1    3    3    0    0  0.27942702375E+01  0.75366921267E+01  0.35932607199E+02  0.36820672652E+02  0.00000000000E+00 0.  1.
         11    1    4    4    0    0 -0.31893735727E+01  0.14558974370E+02 -0.15736986684E+02  0.21674607001E+02  0.51100000000E-03 0. -1.
        -11    1    4    4    0    0  0.47790208146E+01 -0.12426888450E+02 -0.17025512676E+02  0.21613298652E+02  0.51100000000E-03 0.  1.
        -12    1    4    4    0    0 -0.43839174794E+01 -0.96687780470E+01 -0.31701078392E+01  0.11079421695E+02  0.00000000000E+00 0.  1.
</event>
<event>
 8    1  0.3011071E-007  0.9118800E+02  0.7816164E-02  0.1184000E+00
        -11   -1    0    0    0    0  0.00000000000E+00  0.00000000000E+00  0.45593999997E+02  0.45594000000E+02  0.51100000000E-03 0. -1.
         11   -1    0    0    0    0 -0.00000000000E+00 -0.00000000000E+00 -0.45593999997E+02  0.45594000000E+02  0.51100000000E-03 0.  1.
         23    2    1    2    0    0  0.00000000000E+00 -0.88817841970E-15  0.88817841970E-15  0.91188000000E+02  0.91188000000E+02 0.  0.
    9900012    2    3    3    0    0  0.35446060992E+02 -0.60487786569E+01 -0.79226906336E+01  0.54367082168E+02  0.39999995419E+02 0.  0.
        -12    1    3    3    0    0 -0.35446060992E+02  0.60487786569E+01  0.79226906336E+01  0.36820917832E+02  0.00000000000E+00 0.  1.
         11    1    4    4    0    0  0.71245020101E+01 -0.11497341383E+02 -0.70256908625E-01  0.13525986991E+02  0.51100000000E-03 0. -1.
        -11    1    4    4    0    0  0.18995708457E+02  0.15511948405E+02  0.94475520443E+00  0.24542820656E+02  0.51100000000E-03 0.  1.
        -12    1    4    4    0    0  0.93258505251E+01 -0.10063385678E+02 -0.87971889294E+01  0.16298274522E+02  0.00000000000E+00 0.  1.
</event>
<event>
 8    1  0.3011071E-007  0.9118800E+02  0.7816164E-02  0.1184000E+00
        -11   -1    0    0    0    0  0.00000000000E+00  0.00000000000E+00  0.45593999997E+02  0.45594000000E+02  0.51100000000E-03 0. -1.
         11   -1    0    0    0    0 -0.00000000000E+00 -0.00000000000E+00 -0.45593999997E+02  0.45594000000E+02  0.51100000000E-03 0.  1.
         23    2    1    2    0    0  0.00000000000E+00  0.00000000000E+00  0.17763568394E-14  0.91188000000E+02  0.91188000000E+02 0.  0.
    9900012    2    3    3    0    0 -0.28980359148E+02  0.22680764807E+02  0.12251355212E+01  0.54367092005E+02  0.40000017843E+02 0.  0.
         12    1    3    3    0    0  0.28980359148E+02 -0.22680764807E+02 -0.12251355212E+01  0.36820907995E+02  0.00000000000E+00 0. -1.
         11    1    4    4    0    0 -0.55535886790E+01 -0.11095008542E+01  0.14590082680E+02  0.15650682165E+02  0.51100000000E-03 0. -1.
        -11    1    4    4    0    0  0.16965513544E+01  0.18573714628E+00 -0.14604272616E+01  0.22462486135E+01  0.51100000000E-03 0.  1.
        -12    1    4    4    0    0 -0.25123321823E+02  0.23604528515E+02 -0.11904519898E+02  0.36470161226E+02  0.00000000000E+00 0.  1.
</event>
<event>
 8    1  0.3011071E-007  0.9118800E+02  0.7816164E-02  0.1184000E+00
        -11   -1    0    0    0    0  0.00000000000E+00  0.00000000000E+00  0.45593999997E+02  0.45594000000E+02  0.51100000000E-03 0.  1.
         11   -1    0    0    0    0 -0.00000000000E+00 -0.00000000000E+00 -0.45593999997E+02  0.45594000000E+02  0.51100000000E-03 0. -1.
         23    2    1    2    0    0  0.00000000000E+00 -0.17763568394E-14  0.00000000000E+00  0.91188000000E+02  0.91188000000E+02 0.  0.
    9900012    2    3    3    0    0 -0.17373400578E+02  0.14037100422E+02 -0.29272944339E+02  0.54367075159E+02  0.39999979440E+02 0.  0.
        -12    1    3    3    0    0  0.17373400578E+02 -0.14037100422E+02  0.29272944339E+02  0.36820924841E+02  0.00000000000E+00 0.  1.
         11    1    4    4    0    0  0.15188998658E+01  0.17849648141E+02 -0.11006965803E+01  0.17947939402E+02  0.51100000000E-03 0. -1.
        -11    1    4    4    0    0 -0.70918086181E+01 -0.37723081701E+01 -0.29222525185E+01  0.85477259227E+01  0.51100000000E-03 0.  1.
         12    1    4    4    0    0 -0.11800491826E+02 -0.40239548499E-01 -0.25249995240E+02  0.27871409835E+02  0.00000000000E+00 0. -1.
</event>
<event>
 8    1  0.3011071E-007  0.9118800E+02  0.7816164E-02  0.1184000E+00
        -11   -1    0    0    0    0  0.00000000000E+00  0.00000000000E+00  0.45593999997E+02  0.45594000000E+02  0.51100000000E-03 0.  1.
         11   -1    0    0    0    0 -0.00000000000E+00 -0.00000000000E+00 -0.45593999997E+02  0.45594000000E+02  0.51100000000E-03 0. -1.
         23    2    1    2    0    0  0.00000000000E+00  0.00000000000E+00  0.00000000000E+00  0.91188000000E+02  0.91188000000E+02 0.  0.
    9900012    2    3    3    0    0  0.41244212504E+01  0.13806375813E+02 -0.33884435560E+02  0.54367057087E+02  0.39999938242E+02 0.  0.
        -12    1    3    3    0    0 -0.41244212504E+01 -0.13806375813E+02  0.33884435560E+02  0.36820942913E+02  0.00000000000E+00 0.  1.
         11    1    4    4    0    0  0.24383509972E+01  0.49942159862E+01 -0.17169692865E+02  0.18046775398E+02  0.51100000000E-03 0. -1.
        -11    1    4    4    0    0  0.14583360700E+02  0.93644436352E+01 -0.15676974032E+02  0.23369525647E+02  0.51100000000E-03 0.  1.
        -12    1    4    4    0    0 -0.12897290447E+02 -0.55228380807E+00 -0.10377686628E+01  0.12950756043E+02  0.00000000000E+00 0.  1.
</event>
<event>
 8    1  0.3011071E-007  0.9118800E+02  0.7816164E-02  0.1184000E+00
        -11   -1    0    0    0    0  0.00000000000E+00  0.00000000000E+00  0.45593999997E+02  0.45594000000E+02  0.51100000000E-03 0.  1.
         11   -1    0    0    0    0 -0.00000000000E+00 -0.00000000000E+00 -0.45593999997E+02  0.45594000000E+02  0.51100000000E-03 0. -1.
         23    2    1    2    0    0  0.00000000000E+00  0.00000000000E+00 -0.71054273576E-14  0.91188000000E+02  0.91188000000E+02 0.  0.
    9900012    2    3    3    0    0  0.83139595555E+01  0.22501109862E+02 -0.27934917622E+02  0.54367061784E+02  0.39999948949E+02 0.  0.
        -12    1    3    3    0    0 -0.83139595555E+01 -0.22501109862E+02  0.27934917622E+02  0.36820938216E+02  0.00000000000E+00 0.  1.
         11    1    4    4    0    0 -0.62667330390E+01  0.88768759813E+01 -0.15930032932E+02  0.19283070805E+02  0.51100000000E-03 0. -1.
        -11    1    4    4    0    0  0.16711928377E+02  0.10757515311E+02 -0.18831333643E+02  0.27379404902E+02  0.51100000000E-03 0.  1.
        -12    1    4    4    0    0 -0.21312357826E+01  0.28667185702E+01  0.68264489530E+01  0.77045860778E+01  0.00000000000E+00 0.  1.
</event>
<event>
 8    1  0.3011071E-007  0.9118800E+02  0.7816164E-02  0.1184000E+00
        -11   -1    0    0    0    0  0.00000000000E+00  0.00000000000E+00  0.45593999997E+02  0.45594000000E+02  0.51100000000E-03 0. -1.
         11   -1    0    0    0    0 -0.00000000000E+00 -0.00000000000E+00 -0.45593999997E+02  0.45594000000E+02  0.51100000000E-03 0.  1.
         23    2    1    2    0    0  0.35527136788E-14  0.35527136788E-14  0.17763568394E-14  0.91188000000E+02  0.91188000000E+02 0.  0.
    9900012    2    3    3    0    0  0.29636989344E+02 -0.16054293888E+02 -0.14821855816E+02  0.54367096977E+02  0.40000029178E+02 0.  0.
         12    1    3    3    0    0 -0.29636989344E+02  0.16054293888E+02  0.14821855816E+02  0.36820903023E+02  0.00000000000E+00 0. -1.
         11    1    4    4    0    0  0.91572152362E+01  0.30712848321E+01 -0.61339207043E+00  0.96779972874E+01  0.51100000000E-03 0. -1.
        -11    1    4    4    0    0  0.24434587130E+02 -0.23912366258E+02 -0.65168461874E+01  0.34804016906E+02  0.51100000000E-03 0.  1.
         12    1    4    4    0    0 -0.39548130223E+01  0.47867875377E+01 -0.76916175585E+01  0.98850827836E+01  0.00000000000E+00 0. -1.
</event>
<event>
 8    1  0.3011071E-007  0.9118800E+02  0.7816164E-02  0.1184000E+00
        -11   -1    0    0    0    0  0.00000000000E+00  0.00000000000E+00  0.45593999997E+02  0.45594000000E+02  0.51100000000E-03 0.  1.
         11   -1    0    0    0    0 -0.00000000000E+00 -0.00000000000E+00 -0.45593999997E+02  0.45594000000E+02  0.51100000000E-03 0. -1.
         23    2    1    2    0    0  0.88817841970E-15  0.44408920985E-15  0.00000000000E+00  0.91188000000E+02  0.91188000000E+02 0.  0.
    9900012    2    3    3    0    0  0.68969091152E+01 -0.19069389033E+01 -0.36118925704E+02  0.54367074356E+02  0.39999977609E+02 0.  0.
        -12    1    3    3    0    0 -0.68969091152E+01  0.19069389033E+01  0.36118925704E+02  0.36820925644E+02  0.00000000000E+00 0.  1.
         11    1    4    4    0    0  0.17577101305E+01 -0.97772276892E+01  0.24071660001E+01  0.10221456579E+02  0.51100000000E-03 0. -1.
        -11    1    4    4    0    0  0.12108248120E+02  0.77626371266E+01 -0.28651821693E+02  0.32059243507E+02  0.51100000000E-03 0.  1.
        -12    1    4    4    0    0 -0.69690491348E+01  0.10765165930E+00 -0.98742700109E+01  0.12086374269E+02  0.00000000000E+00 0.  1.
</event>
<event>
 8    1  0.3011071E-007  0.9118800E+02  0.7816164E-02  0.1184000E+00
        -11   -1    0    0    0    0  0.00000000000E+00  0.00000000000E+00  0.45593999997E+02  0.45594000000E+02  0.51100000000E-03 0.  1.
         11   -1    0    0    0    0 -0.00000000000E+00 -0.00000000000E+00 -0.45593999997E+02  0.45594000000E+02  0.51100000000E-03 0. -1.
         23    2    1    2    0    0  0.00000000000E+00  0.00000000000E+00  0.00000000000E+00  0.91188000000E+02  0.91188000000E+02 0.  0.
    9900012    2    3    3    0    0 -0.12844996744E+02  0.33932933840E+02  0.62722907761E+01  0.54367087845E+02  0.40000008360E+02 0.  0.
         12    1    3    3    0    0  0.12844996744E+02 -0.33932933840E+02 -0.62722907761E+01  0.36820912155E+02  0.00000000000E+00 0. -1.
         11    1    4    4    0    0 -0.11356974848E+02 -0.53585092990E+01  0.69508049900E+01  0.14352985399E+02  0.51100000000E-03 0. -1.
        -11    1    4    4    0    0 -0.39851651675E+01  0.15518943832E+02  0.98719522731E+00  0.16052841298E+02  0.51100000000E-03 0.  1.
        -12    1    4    4    0    0  0.24971432711E+01  0.23772499307E+02 -0.16657094412E+01  0.23961261148E+02  0.00000000000E+00 0.  1.
</event>
<event>
 8    1  0.3011071E-007  0.9118800E+02  0.7816164E-02  0.1184000E+00
        -11   -1    0    0    0    0  0.00000000000E+00  0.00000000000E+00  0.45593999997E+02  0.45594000000E+02  0.51100000000E-03 0.  1.
         11   -1    0    0    0    0 -0.00000000000E+00 -0.00000000000E+00 -0.45593999997E+02  0.45594000000E+02  0.51100000000E-03 0. -1.
         23    2    1    2    0    0  0.00000000000E+00  0.00000000000E+00  0.00000000000E+00  0.91188000000E+02  0.91188000000E+02 0.  0.
    9900012    2    3    3    0    0 -0.28712087448E+02  0.14212035655E+01  0.23008173145E+02  0.54367084522E+02  0.40000000785E+02 0.  0.
         12    1    3    3    0    0  0.28712087448E+02 -0.14212035655E+01 -0.23008173145E+02  0.36820915478E+02  0.00000000000E+00 0. -1.
         11    1    4    4    0    0 -0.41711145565E+01 -0.57284447741E+00  0.12248040154E+02  0.12951480044E+02  0.51100000000E-03 0.  1.
        -11    1    4    4    0    0 -0.32100860961E+01 -0.58958078968E+01 -0.90406906160E+01  0.11260519108E+02  0.51100000000E-03 0. -1.
         12    1    4    4    0    0 -0.21330886795E+02  0.78898559397E+01  0.19800823606E+02  0.30155085370E+02  0.00000000000E+00 0. -1.
</event>
<event>
 8    1  0.3011071E-007  0.9118800E+02  0.7816164E-02  0.1184000E+00
        -11   -1    0    0    0    0  0.00000000000E+00  0.00000000000E+00  0.45593999997E+02  0.45594000000E+02  0.51100000000E-03 0. -1.
         11   -1    0    0    0    0 -0.00000000000E+00 -0.00000000000E+00 -0.45593999997E+02  0.45594000000E+02  0.51100000000E-03 0.  1.
         23    2    1    2    0    0 -0.17763568394E-14  0.49960036108E-15  0.71054273576E-14  0.91188000000E+02  0.91188000000E+02 0.  0.
    9900012    2    3    3    0    0  0.93420433630E+01 -0.28299328724E+00  0.35614972089E+02  0.54367080724E+02  0.39999992127E+02 0.  0.
        -12    1    3    3    0    0 -0.93420433630E+01  0.28299328724E+00 -0.35614972089E+02  0.36820919276E+02  0.00000000000E+00 0.  1.
         11    1    4    4    0    0  0.35692479545E+01  0.87645981083E+01  0.15465762593E+02  0.18131396080E+02  0.51100000000E-03 0. -1.
        -11    1    4    4    0    0 -0.60127070257E+01 -0.13551666772E+02  0.33039254688E+01  0.15189346327E+02  0.51100000000E-03 0.  1.
        -12    1    4    4    0    0  0.11785502434E+02  0.45040753762E+01  0.16845284027E+02  0.21046338318E+02  0.00000000000E+00 0.  1.
</event>
<event>
 8    1  0.3011071E-007  0.9118800E+02  0.7816164E-02  0.1184000E+00
        -11   -1    0    0    0    0  0.00000000000E+00  0.00000000000E+00  0.45593999997E+02  0.45594000000E+02  0.51100000000E-03 0. -1.
         11   -1    0    0    0    0 -0.00000000000E+00 -0.00000000000E+00 -0.45593999997E+02  0.45594000000E+02  0.51100000000E-03 0.  1.
         23    2    1    2    0    0  0.00000000000E+00  0.00000000000E+00  0.00000000000E+00  0.91188000000E+02  0.91188000000E+02 0.  0.
    9900012    2    3    3    0    0  0.33203178870E+02  0.47818734784E+01  0.15180986439E+02  0.54367085423E+02  0.40000002838E+02 0.  0.
        -12    1    3    3    0    0 -0.33203178870E+02 -0.47818734784E+01 -0.15180986439E+02  0.36820914577E+02  0.00000000000E+00 0.  1.
         11    1    4    4    0    0 -0.33453637152E+00 -0.72591559700E+01 -0.60987066524E+01  0.94869111450E+01  0.51100000000E-03 0.  1.
        -11    1    4    4    0    0  0.11261910512E+02  0.69210807678E+01  0.17150689665E+02  0.21653594242E+02  0.51100000000E-03 0. -1.
        -12    1    4    4    0    0  0.22275804729E+02  0.51199486806E+01  0.41290034269E+01  0.23226580035E+02  0.00000000000E+00 0.  1.
</event>
<event>
 8    1  0.3011071E-007  0.9118800E+02  0.7816164E-02  0.1184000E+00
        -11   -1    0    0    0    0  0.00000000000E+00  0.00000000000E+00  0.45593999997E+02  0.45594000000E+02  0.51100000000E-03 0.  1.
         11   -1    0    0    0    0 -0.00000000000E+00 -0.00000000000E+00 -0.45593999997E+02  0.45594000000E+02  0.51100000000E-03 0. -1.
         23    2    1    2    0    0 -0.35527136788E-14  0.00000000000E+00  0.00000000000E+00  0.91188000000E+02  0.91188000000E+02 0.  0.
    9900012    2    3    3    0    0  0.18723199988E+02  0.28436465147E+02  0.14020947797E+02  0.54367112654E+02  0.40000064918E+02 0.  0.
        -12    1    3    3    0    0 -0.18723199988E+02 -0.28436465147E+02 -0.14020947797E+02  0.36820887346E+02  0.00000000000E+00 0.  1.
         11    1    4    4    0    0  0.53654772947E+01 -0.48835329311E+00 -0.37688623990E+01  0.65750406525E+01  0.51100000000E-03 0. -1.
        -11    1    4    4    0    0  0.12090113658E+02  0.91922528499E+01 -0.64582895570E+01  0.16503874242E+02  0.51100000000E-03 0.  1.
        -12    1    4    4    0    0  0.12676090347E+01  0.19732565590E+02  0.24248099753E+02  0.31288197760E+02  0.00000000000E+00 0.  1.
</event>
<event>
 8    1  0.3011071E-007  0.9118800E+02  0.7816164E-02  0.1184000E+00
        -11   -1    0    0    0    0  0.00000000000E+00  0.00000000000E+00  0.45593999997E+02  0.45594000000E+02  0.51100000000E-03 0.  1.
         11   -1    0    0    0    0 -0.00000000000E+00 -0.00000000000E+00 -0.45593999997E+02  0.45594000000E+02  0.51100000000E-03 0. -1.
         23    2    1    2    0    0  0.00000000000E+00  0.00000000000E+00  0.00000000000E+00  0.91188000000E+02  0.91188000000E+02 0.  0.
    9900012    2    3    3    0    0 -0.16468510171E+02 -0.52697710921E+01 -0.32508605723E+02  0.54366922331E+02  0.39999631037E+02 0.  0.
        -12    1    3    3    0    0  0.16468510171E+02  0.52697710921E+01  0.32508605723E+02  0.36821077669E+02  0.00000000000E+00 0.  1.
         11    1    4    4    0    0  0.10499207048E+02  0.52242061315E+01 -0.93499721073E+01  0.14998255132E+02  0.51100000000E-03 0. -1.
        -11    1    4    4    0    0 -0.12723664141E+02  0.14743091598E+01 -0.12644614728E+02  0.17998652687E+02  0.51100000000E-03 0.  1.
         12    1    4    4    0    0 -0.14244053079E+02 -0.11968286383E+02 -0.10514018887E+02  0.21370014512E+02  0.00000000000E+00 0. -1.
</event>
<event>
 8    1  0.3011071E-007  0.9118800E+02  0.7816164E-02  0.1184000E+00
        -11   -1    0    0    0    0  0.00000000000E+00  0.00000000000E+00  0.45593999997E+02  0.45594000000E+02  0.51100000000E-03 0.  1.
         11   -1    0    0    0    0 -0.00000000000E+00 -0.00000000000E+00 -0.45593999997E+02  0.45594000000E+02  0.51100000000E-03 0. -1.
         23    2    1    2    0    0  0.17763568394E-14  0.00000000000E+00  0.00000000000E+00  0.91188000000E+02  0.91188000000E+02 0.  0.
    9900012    2    3    3    0    0 -0.97306964332E+01  0.18942839100E+02  0.30037703903E+02  0.54367064895E+02  0.39999956042E+02 0.  0.
         12    1    3    3    0    0  0.97306964332E+01 -0.18942839100E+02 -0.30037703903E+02  0.36820935105E+02  0.00000000000E+00 0. -1.
         11    1    4    4    0    0  0.40114162450E+01  0.10888146633E+02  0.27953851043E+01  0.11935550911E+02  0.51100000000E-03 0. -1.
        -11    1    4    4    0    0 -0.19943980545E+02  0.37401846869E+01  0.80934957857E+01  0.21846189960E+02  0.51100000000E-03 0.  1.
         12    1    4    4    0    0  0.62018678672E+01  0.43145077796E+01  0.19148823013E+02  0.20585324024E+02  0.00000000000E+00 0. -1.
</event>
<event>
 8    1  0.3011071E-007  0.9118800E+02  0.7816164E-02  0.1184000E+00
        -11   -1    0    0    0    0  0.00000000000E+00  0.00000000000E+00  0.45593999997E+02  0.45594000000E+02  0.51100000000E-03 0.  1.
         11   -1    0    0    0    0 -0.00000000000E+00 -0.00000000000E+00 -0.45593999997E+02  0.45594000000E+02  0.51100000000E-03 0. -1.
         23    2    1    2    0    0 -0.17763568394E-14 -0.71054273576E-14  0.35527136788E-14  0.91188000000E+02  0.91188000000E+02 0.  0.
    9900012    2    3    3    0    0  0.13316579123E+02  0.32543695175E+02 -0.10924952919E+02  0.54367109578E+02  0.40000057904E+02 0.  0.
         12    1    3    3    0    0 -0.13316579123E+02 -0.32543695175E+02  0.10924952919E+02  0.36820890422E+02  0.00000000000E+00 0. -1.
         11    1    4    4    0    0  0.12763700039E+01 -0.17810726274E+01 -0.28241407293E+01  0.35745085272E+01  0.51100000000E-03 0. -1.
        -11    1    4    4    0    0  0.45535760846E+01 -0.20742795021E+01  0.86795361794E+01  0.10018584689E+02  0.51100000000E-03 0.  1.
         12    1    4    4    0    0  0.74866330345E+01  0.36399047305E+02 -0.16780348369E+02  0.40774016362E+02  0.00000000000E+00 0. -1.
</event>
<event>
 8    1  0.3011071E-007  0.9118800E+02  0.7816164E-02  0.1184000E+00
        -11   -1    0    0    0    0  0.00000000000E+00  0.00000000000E+00  0.45593999997E+02  0.45594000000E+02  0.51100000000E-03 0. -1.
         11   -1    0    0    0    0 -0.00000000000E+00 -0.00000000000E+00 -0.45593999997E+02  0.45594000000E+02  0.51100000000E-03 0.  1.
         23    2    1    2    0    0  0.22204460493E-14  0.00000000000E+00 -0.35527136788E-14  0.91188000000E+02  0.91188000000E+02 0.  0.
    9900012    2    3    3    0    0 -0.27596163578E+01 -0.33026440627E+02 -0.16044276016E+02  0.54367081274E+02  0.39999993381E+02 0.  0.
         12    1    3    3    0    0  0.27596163578E+01  0.33026440627E+02  0.16044276016E+02  0.36820918726E+02  0.00000000000E+00 0. -1.
         11    1    4    4    0    0  0.16841606275E+02 -0.11206165167E+02 -0.70938838126E+01  0.21436908068E+02  0.51100000000E-03 0. -1.
        -11    1    4    4    0    0 -0.15813013090E+02 -0.20909466841E+02 -0.38267496352E+01  0.26493418042E+02  0.51100000000E-03 0.  1.
        -12    1    4    4    0    0 -0.37882095432E+01 -0.91080861937E+00 -0.51236425678E+01  0.64367551644E+01  0.00000000000E+00 0.  1.
</event>
<event>
 8    1  0.3011071E-007  0.9118800E+02  0.7816164E-02  0.1184000E+00
        -11   -1    0    0    0    0  0.00000000000E+00  0.00000000000E+00  0.45593999997E+02  0.45594000000E+02  0.51100000000E-03 0. -1.
         11   -1    0    0    0    0 -0.00000000000E+00 -0.00000000000E+00 -0.45593999997E+02  0.45594000000E+02  0.51100000000E-03 0.  1.
         23    2    1    2    0    0 -0.71054273576E-14  0.00000000000E+00  0.35527136788E-14  0.91188000000E+02  0.91188000000E+02 0.  0.
    9900012    2    3    3    0    0 -0.32929252635E+02  0.36826499593E+01  0.16058666541E+02  0.54367104290E+02  0.40000045850E+02 0.  0.
        -12    1    3    3    0    0  0.32929252635E+02 -0.36826499593E+01 -0.16058666541E+02  0.36820895710E+02  0.00000000000E+00 0.  1.
         11    1    4    4    0    0 -0.11917230484E+02  0.20551877844E+01 -0.19035652364E+01  0.12242048036E+02  0.51100000000E-03 0. -1.
        -11    1    4    4    0    0  0.78991532219E+01 -0.25218351286E+01  0.72522165752E+01  0.11015939341E+02  0.51100000000E-03 0.  1.
         12    1    4    4    0    0 -0.28911175373E+02  0.41492973035E+01  0.10710015202E+02  0.31109116914E+02  0.00000000000E+00 0. -1.
</event>
<event>
 8    1  0.3011071E-007  0.9118800E+02  0.7816164E-02  0.1184000E+00
        -11   -1    0    0    0    0  0.00000000000E+00  0.00000000000E+00  0.45593999997E+02  0.45594000000E+02  0.51100000000E-03 0. -1.
         11   -1    0    0    0    0 -0.00000000000E+00 -0.00000000000E+00 -0.45593999997E+02  0.45594000000E+02  0.51100000000E-03 0.  1.
         23    2    1    2    0    0  0.00000000000E+00  0.71054273576E-14  0.48572257327E-15  0.91188000000E+02  0.91188000000E+02 0.  0.
    9900012    2    3    3    0    0  0.77898815458E+01 -0.35987432536E+02 -0.42166828576E-01  0.54367091088E+02  0.40000015754E+02 0.  0.
        -12    1    3    3    0    0 -0.77898815458E+01  0.35987432536E+02  0.42166828576E-01  0.36820908912E+02  0.00000000000E+00 0.  1.
         11    1    4    4    0    0 -0.53915732344E+01 -0.21277951527E+02 -0.13758292747E+02  0.25905808281E+02  0.51100000000E-03 0.  1.
        -11    1    4    4    0    0  0.78866670365E+01 -0.64384138115E+01  0.15436008299E+02  0.18491161181E+02  0.51100000000E-03 0. -1.
         12    1    4    4    0    0  0.52947877437E+01 -0.82710671982E+01 -0.17198823803E+01  0.99701216267E+01  0.00000000000E+00 0. -1.
</event>
<event>
 8    1  0.3011071E-007  0.9118800E+02  0.7816164E-02  0.1184000E+00
        -11   -1    0    0    0    0  0.00000000000E+00  0.00000000000E+00  0.45593999997E+02  0.45594000000E+02  0.51100000000E-03 0. -1.
         11   -1    0    0    0    0 -0.00000000000E+00 -0.00000000000E+00 -0.45593999997E+02  0.45594000000E+02  0.51100000000E-03 0.  1.
         23    2    1    2    0    0 -0.88817841970E-15  0.00000000000E+00  0.00000000000E+00  0.91188000000E+02  0.91188000000E+02 0.  0.
    9900012    2    3    3    0    0  0.23694360169E+01 -0.30676079558E+02 -0.20227295113E+02  0.54367088120E+02  0.40000008988E+02 0.  0.
         12    1    3    3    0    0 -0.23694360169E+01  0.30676079558E+02  0.20227295113E+02  0.36820911880E+02  0.00000000000E+00 0. -1.
         11    1    4    4    0    0  0.11598276563E+02 -0.13828111615E+02 -0.10493244816E+02  0.20876898168E+02  0.51100000000E-03 0. -1.
        -11    1    4    4    0    0  0.25746727294E+01  0.52510724593E+01  0.14930666846E+01  0.60358885032E+01  0.51100000000E-03 0.  1.
         12    1    4    4    0    0 -0.11803513276E+02 -0.22099040402E+02 -0.11227116981E+02  0.27454301449E+02  0.00000000000E+00 0. -1.
</event>
<event>
 8    1  0.3011071E-007  0.9118800E+02  0.7816164E-02  0.1184000E+00
        -11   -1    0    0    0    0  0.00000000000E+00  0.00000000000E+00  0.45593999997E+02  0.45594000000E+02  0.51100000000E-03 0. -1.
         11   -1    0    0    0    0 -0.00000000000E+00 -0.00000000000E+00 -0.45593999997E+02  0.45594000000E+02  0.51100000000E-03 0.  1.
         23    2    1    2    0    0  0.00000000000E+00 -0.35527136788E-14  0.00000000000E+00  0.91188000000E+02  0.91188000000E+02 0.  0.
    9900012    2    3    3    0    0  0.30827082556E+02 -0.18256859095E+02  0.84945827717E+01  0.54367083941E+02  0.39999999461E+02 0.  0.
         12    1    3    3    0    0 -0.30827082556E+02  0.18256859095E+02 -0.84945827717E+01  0.36820916059E+02  0.00000000000E+00 0. -1.
         11    1    4    4    0    0  0.54112016332E+01 -0.18487599797E+02 -0.86906320455E+01  0.21132901717E+02  0.51100000000E-03 0. -1.
        -11    1    4    4    0    0  0.23336033901E+02 -0.20016019926E+01  0.10074492338E+02  0.25496515152E+02  0.51100000000E-03 0.  1.
        -12    1    4    4    0    0  0.20798470224E+01  0.22323426950E+01  0.71107224790E+01  0.77376670720E+01  0.00000000000E+00 0.  1.
</event>
<event>
 8    1  0.3011071E-007  0.9118800E+02  0.7816164E-02  0.1184000E+00
        -11   -1    0    0    0    0  0.00000000000E+00  0.00000000000E+00  0.45593999997E+02  0.45594000000E+02  0.51100000000E-03 0. -1.
         11   -1    0    0    0    0 -0.00000000000E+00 -0.00000000000E+00 -0.45593999997E+02  0.45594000000E+02  0.51100000000E-03 0.  1.
         23    2    1    2    0    0  0.00000000000E+00  0.35527136788E-14  0.00000000000E+00  0.91188000000E+02  0.91188000000E+02 0.  0.
    9900012    2    3    3    0    0 -0.24291440030E+02 -0.24994790684E+02 -0.11872955391E+02  0.54367072665E+02  0.39999973754E+02 0.  0.
         12    1    3    3    0    0  0.24291440030E+02  0.24994790684E+02  0.11872955391E+02  0.36820927335E+02  0.00000000000E+00 0. -1.
         11    1    4    4    0    0 -0.62490677140E+01  0.90792357372E+01  0.26256895633E+01  0.11330384583E+02  0.51100000000E-03 0. -1.
        -11    1    4    4    0    0 -0.20155772683E+01 -0.41411135802E+00  0.14195460218E+01  0.24998302163E+01  0.51100000000E-03 0.  1.
        -12    1    4    4    0    0 -0.16026795048E+02 -0.33659915064E+02 -0.15918190976E+02  0.40536857865E+02  0.00000000000E+00 0.  1.
</event>
<event>
 8    1  0.3011071E-007  0.9118800E+02  0.7816164E-02  0.1184000E+00
        -11   -1    0    0    0    0  0.00000000000E+00  0.00000000000E+00  0.45593999997E+02  0.45594000000E+02  0.51100000000E-03 0. -1.
         11   -1    0    0    0    0 -0.00000000000E+00 -0.00000000000E+00 -0.45593999997E+02  0.45594000000E+02  0.51100000000E-03 0.  1.
         23    2    1    2    0    0  0.35527136788E-14 -0.35527136788E-14  0.00000000000E+00  0.91188000000E+02  0.91188000000E+02 0.  0.
    9900012    2    3    3    0    0  0.18988868122E+02  0.18942701575E+02 -0.25226526079E+02  0.54367072886E+02  0.39999974259E+02 0.  0.
         12    1    3    3    0    0 -0.18988868122E+02 -0.18942701575E+02  0.25226526079E+02  0.36820927114E+02  0.00000000000E+00 0. -1.
         11    1    4    4    0    0  0.15773714896E+02  0.19132955815E+02 -0.25419271305E+02  0.35510835442E+02  0.51100000000E-03 0. -1.
        -11    1    4    4    0    0 -0.47541232717E+01 -0.68445175649E+01 -0.10520263375E+01  0.83997540710E+01  0.51100000000E-03 0.  1.
        -12    1    4    4    0    0  0.79692764972E+01  0.66542633250E+01  0.12447715637E+01  0.10456483373E+02  0.00000000000E+00 0.  1.
</event>
<event>
 8    1  0.3011071E-007  0.9118800E+02  0.7816164E-02  0.1184000E+00
        -11   -1    0    0    0    0  0.00000000000E+00  0.00000000000E+00  0.45593999997E+02  0.45594000000E+02  0.51100000000E-03 0. -1.
         11   -1    0    0    0    0 -0.00000000000E+00 -0.00000000000E+00 -0.45593999997E+02  0.45594000000E+02  0.51100000000E-03 0.  1.
         23    2    1    2    0    0  0.00000000000E+00  0.00000000000E+00  0.00000000000E+00  0.91188000000E+02  0.91188000000E+02 0.  0.
    9900012    2    3    3    0    0  0.15722947548E+02 -0.91486516488E+01 -0.32013600103E+02  0.54367088847E+02  0.40000010645E+02 0.  0.
         12    1    3    3    0    0 -0.15722947548E+02  0.91486516488E+01  0.32013600103E+02  0.36820911153E+02  0.00000000000E+00 0. -1.
         11    1    4    4    0    0 -0.26122914861E+01  0.72400052001E+01 -0.82037916121E+01  0.11249175045E+02  0.51100000000E-03 0. -1.
        -11    1    4    4    0    0  0.45253531190E+01 -0.30747181773E+01 -0.23294486116E+02  0.23928347130E+02  0.51100000000E-03 0.  1.
         12    1    4    4    0    0  0.13809885915E+02 -0.13313938672E+02 -0.51532237533E+00  0.19189566673E+02  0.00000000000E+00 0. -1.
</event>
<event>
 8    1  0.3011071E-007  0.9118800E+02  0.7816164E-02  0.1184000E+00
        -11   -1    0    0    0    0  0.00000000000E+00  0.00000000000E+00  0.45593999997E+02  0.45594000000E+02  0.51100000000E-03 0. -1.
         11   -1    0    0    0    0 -0.00000000000E+00 -0.00000000000E+00 -0.45593999997E+02  0.45594000000E+02  0.51100000000E-03 0.  1.
         23    2    1    2    0    0  0.00000000000E+00 -0.88817841970E-15  0.00000000000E+00  0.91188000000E+02  0.91188000000E+02 0.  0.
    9900012    2    3    3    0    0  0.17235192676E+02  0.40100948523E+01 -0.32290050519E+02  0.54367080813E+02  0.39999992329E+02 0.  0.
         12    1    3    3    0    0 -0.17235192676E+02 -0.40100948523E+01  0.32290050519E+02  0.36820919187E+02  0.00000000000E+00 0. -1.
         11    1    4    4    0    0 -0.61275998496E+01  0.83262500146E+01 -0.21645115672E+02  0.23987183076E+02  0.51100000000E-03 0.  1.
        -11    1    4    4    0    0  0.15785474408E+02 -0.18989795019E+01  0.13838754534E+01  0.15959399643E+02  0.51100000000E-03 0. -1.
         12    1    4    4    0    0  0.75773181176E+01 -0.24171756604E+01 -0.12028810301E+02  0.14420498094E+02  0.00000000000E+00 0. -1.
</event>
<event>
 8    1  0.3011071E-007  0.9118800E+02  0.7816164E-02  0.1184000E+00
        -11   -1    0    0    0    0  0.00000000000E+00  0.00000000000E+00  0.45593999997E+02  0.45594000000E+02  0.51100000000E-03 0. -1.
         11   -1    0    0    0    0 -0.00000000000E+00 -0.00000000000E+00 -0.45593999997E+02  0.45594000000E+02  0.51100000000E-03 0.  1.
         23    2    1    2    0    0 -0.71054273576E-14 -0.17763568394E-14  0.35527136788E-14  0.91188000000E+02  0.91188000000E+02 0.  0.
    9900012    2    3    3    0    0 -0.28933118541E+02 -0.12306404311E+02  0.19162851040E+02  0.54366976174E+02  0.39999753784E+02 0.  0.
        -12    1    3    3    0    0  0.28933118541E+02  0.12306404311E+02 -0.19162851040E+02  0.36821023826E+02  0.00000000000E+00 0.  1.
         11    1    4    4    0    0 -0.15032553720E+02 -0.66812904254E+01  0.12145833493E+01  0.16495227372E+02  0.51100000000E-03 0. -1.
        -11    1    4    4    0    0 -0.21197820149E+02 -0.10252751623E+02  0.84159321408E+01  0.25005887487E+02  0.51100000000E-03 0.  1.
         12    1    4    4    0    0  0.72972553275E+01  0.46276377384E+01  0.95323355500E+01  0.12865861316E+02  0.00000000000E+00 0. -1.
</event>
<event>
 8    1  0.3011071E-007  0.9118800E+02  0.7816164E-02  0.1184000E+00
        -11   -1    0    0    0    0  0.00000000000E+00  0.00000000000E+00  0.45593999997E+02  0.45594000000E+02  0.51100000000E-03 0.  1.
         11   -1    0    0    0    0 -0.00000000000E+00 -0.00000000000E+00 -0.45593999997E+02  0.45594000000E+02  0.51100000000E-03 0. -1.
         23    2    1    2    0    0  0.00000000000E+00  0.00000000000E+00 -0.88817841970E-15  0.91188000000E+02  0.91188000000E+02 0.  0.
    9900012    2    3    3    0    0 -0.14464362108E+02  0.33354498400E+02 -0.58344819609E+01  0.54367061467E+02  0.39999948226E+02 0.  0.
        -12    1    3    3    0    0  0.14464362108E+02 -0.33354498400E+02  0.58344819609E+01  0.36820938533E+02  0.00000000000E+00 0.  1.
         11    1    4    4    0    0  0.54890704983E+01  0.20184754237E+00 -0.38536847138E+01  0.67098080077E+01  0.51100000000E-03 0.  1.
        -11    1    4    4    0    0  0.53692994903E+01 -0.61549676637E+00 -0.42910699787E-01  0.54046327234E+01  0.51100000000E-03 0. -1.
        -12    1    4    4    0    0 -0.25322732097E+02  0.33768147624E+02 -0.19378865473E+01  0.42252620736E+02  0.00000000000E+00 0.  1.
</event>
<event>
 8    1  0.3011071E-007  0.9118800E+02  0.7816164E-02  0.1184000E+00
        -11   -1    0    0    0    0  0.00000000000E+00  0.00000000000E+00  0.45593999997E+02  0.45594000000E+02  0.51100000000E-03 0. -1.
         11   -1    0    0    0    0 -0.00000000000E+00 -0.00000000000E+00 -0.45593999997E+02  0.45594000000E+02  0.51100000000E-03 0.  1.
         23    2    1    2    0    0  0.17763568394E-14  0.35527136788E-14  0.00000000000E+00  0.91188000000E+02  0.91188000000E+02 0.  0.
    9900012    2    3    3    0    0 -0.13654378665E+02 -0.26927990200E+02  0.21076549731E+02  0.54367086628E+02  0.40000005587E+02 0.  0.
        -12    1    3    3    0    0  0.13654378665E+02  0.26927990200E+02 -0.21076549731E+02  0.36820913372E+02  0.00000000000E+00 0.  1.
         11    1    4    4    0    0  0.53811703815E+01  0.33237434074E+01  0.14128720122E+02  0.15479825499E+02  0.51100000000E-03 0. -1.
        -11    1    4    4    0    0 -0.16616004095E+02 -0.31431252219E+02  0.67515296496E+01  0.36188373285E+02  0.51100000000E-03 0.  1.
        -12    1    4    4    0    0 -0.24195449518E+01  0.11795186113E+01  0.19629995954E+00  0.26988878454E+01  0.00000000000E+00 0.  1.
</event>
<event>
 8    1  0.3011071E-007  0.9118800E+02  0.7816164E-02  0.1184000E+00
        -11   -1    0    0    0    0  0.00000000000E+00  0.00000000000E+00  0.45593999997E+02  0.45594000000E+02  0.51100000000E-03 0. -1.
         11   -1    0    0    0    0 -0.00000000000E+00 -0.00000000000E+00 -0.45593999997E+02  0.45594000000E+02  0.51100000000E-03 0.  1.
         23    2    1    2    0    0  0.00000000000E+00  0.13322676296E-14  0.00000000000E+00  0.91188000000E+02  0.91188000000E+02 0.  0.
    9900012    2    3    3    0    0 -0.35385387670E+02 -0.19458902115E+01 -0.99932114890E+01  0.54367130576E+02  0.40000105775E+02 0.  0.
         12    1    3    3    0    0  0.35385387670E+02  0.19458902115E+01  0.99932114890E+01  0.36820869424E+02  0.00000000000E+00 0. -1.
         11    1    4    4    0    0 -0.30782269201E+01  0.10266662469E+02 -0.33220685660E+01  0.11221228945E+02  0.51100000000E-03 0. -1.
        -11    1    4    4    0    0 -0.64514154439E+01  0.34218338319E+01 -0.10393301811E+02  0.12702378943E+02  0.51100000000E-03 0.  1.
        -12    1    4    4    0    0 -0.25855745306E+02 -0.15634386512E+02  0.37221588881E+01  0.30443522689E+02  0.00000000000E+00 0.  1.
</event>
<event>
 8    1  0.3011071E-007  0.9118800E+02  0.7816164E-02  0.1184000E+00
        -11   -1    0    0    0    0  0.00000000000E+00  0.00000000000E+00  0.45593999997E+02  0.45594000000E+02  0.51100000000E-03 0.  1.
         11   -1    0    0    0    0 -0.00000000000E+00 -0.00000000000E+00 -0.45593999997E+02  0.45594000000E+02  0.51100000000E-03 0. -1.
         23    2    1    2    0    0 -0.35527136788E-14  0.00000000000E+00  0.00000000000E+00  0.91188000000E+02  0.91188000000E+02 0.  0.
    9900012    2    3    3    0    0  0.23836803031E+02  0.27378679539E+02  0.61638960303E+01  0.54367097155E+02  0.40000029584E+02 0.  0.
        -12    1    3    3    0    0 -0.23836803031E+02 -0.27378679539E+02 -0.61638960303E+01  0.36820902845E+02  0.00000000000E+00 0.  1.
         11    1    4    4    0    0  0.25966475564E+01 -0.53516916715E+01 -0.75015113257E+00  0.59954907440E+01  0.51100000000E-03 0. -1.
        -11    1    4    4    0    0  0.72865620114E+01 -0.41186629124E+01  0.24250766960E+01  0.87142622967E+01  0.51100000000E-03 0.  1.
        -12    1    4    4    0    0  0.13953593464E+02  0.36849034123E+02  0.44889704669E+01  0.39657344114E+02  0.00000000000E+00 0.  1.
</event>
<event>
 8    1  0.3011071E-007  0.9118800E+02  0.7816164E-02  0.1184000E+00
        -11   -1    0    0    0    0  0.00000000000E+00  0.00000000000E+00  0.45593999997E+02  0.45594000000E+02  0.51100000000E-03 0.  1.
         11   -1    0    0    0    0 -0.00000000000E+00 -0.00000000000E+00 -0.45593999997E+02  0.45594000000E+02  0.51100000000E-03 0. -1.
         23    2    1    2    0    0  0.00000000000E+00  0.00000000000E+00  0.00000000000E+00  0.91188000000E+02  0.91188000000E+02 0.  0.
    9900012    2    3    3    0    0  0.11537493824E+02  0.33115000294E+02  0.11227794297E+02  0.54367076967E+02  0.39999983562E+02 0.  0.
         12    1    3    3    0    0 -0.11537493824E+02 -0.33115000294E+02 -0.11227794297E+02  0.36820923033E+02  0.00000000000E+00 0. -1.
         11    1    4    4    0    0 -0.32391226534E+01  0.17751978123E+02  0.59542767183E+01  0.19002053951E+02  0.51100000000E-03 0. -1.
        -11    1    4    4    0    0 -0.56768768539E+01  0.11586678009E+02 -0.25333020214E+01  0.13148979333E+02  0.51100000000E-03 0.  1.
         12    1    4    4    0    0  0.20453493331E+02  0.37763441624E+01  0.78068195999E+01  0.22216043684E+02  0.00000000000E+00 0. -1.
</event>
<event>
 8    1  0.3011071E-007  0.9118800E+02  0.7816164E-02  0.1184000E+00
        -11   -1    0    0    0    0  0.00000000000E+00  0.00000000000E+00  0.45593999997E+02  0.45594000000E+02  0.51100000000E-03 0. -1.
         11   -1    0    0    0    0 -0.00000000000E+00 -0.00000000000E+00 -0.45593999997E+02  0.45594000000E+02  0.51100000000E-03 0.  1.
         23    2    1    2    0    0 -0.22204460493E-15  0.00000000000E+00  0.35527136788E-14  0.91188000000E+02  0.91188000000E+02 0.  0.
    9900012    2    3    3    0    0  0.62501314790E+00  0.26479681583E+02 -0.25577649494E+02  0.54367077527E+02  0.39999984838E+02 0.  0.
         12    1    3    3    0    0 -0.62501314790E+00 -0.26479681583E+02  0.25577649494E+02  0.36820922473E+02  0.00000000000E+00 0. -1.
         11    1    4    4    0    0 -0.92990125575E+01  0.16545891075E+02  0.19881420397E+01  0.19083785134E+02  0.51100000000E-03 0. -1.
        -11    1    4    4    0    0  0.70249371896E+01 -0.36466294582E+01 -0.76778632645E+01  0.11027113561E+02  0.51100000000E-03 0.  1.
        -12    1    4    4    0    0  0.28990885158E+01  0.13580419966E+02 -0.19887928269E+02  0.24256178831E+02  0.00000000000E+00 0.  1.
</event>
<event>
 8    1  0.3011071E-007  0.9118800E+02  0.7816164E-02  0.1184000E+00
        -11   -1    0    0    0    0  0.00000000000E+00  0.00000000000E+00  0.45593999997E+02  0.45594000000E+02  0.51100000000E-03 0. -1.
         11   -1    0    0    0    0 -0.00000000000E+00 -0.00000000000E+00 -0.45593999997E+02  0.45594000000E+02  0.51100000000E-03 0.  1.
         23    2    1    2    0    0  0.35527136788E-14  0.00000000000E+00  0.00000000000E+00  0.91188000000E+02  0.91188000000E+02 0.  0.
    9900012    2    3    3    0    0 -0.27060439963E+02 -0.17612786145E+02  0.17700352694E+02  0.54367080236E+02  0.39999991015E+02 0.  0.
         12    1    3    3    0    0  0.27060439963E+02  0.17612786145E+02 -0.17700352694E+02  0.36820919764E+02  0.00000000000E+00 0. -1.
         11    1    4    4    0    0  0.38277324407E+01  0.31657003156E+01  0.10867297959E+02  0.11948696971E+02  0.51100000000E-03 0. -1.
        -11    1    4    4    0    0 -0.29276511370E+02 -0.99730956384E+01  0.46232572118E+01  0.31272212299E+02  0.51100000000E-03 0.  1.
         12    1    4    4    0    0 -0.16116610337E+01 -0.10805390822E+02  0.22097975234E+01  0.11146170966E+02  0.00000000000E+00 0. -1.
</event>
<event>
 8    1  0.3011071E-007  0.9118800E+02  0.7816164E-02  0.1184000E+00
        -11   -1    0    0    0    0  0.00000000000E+00  0.00000000000E+00  0.45593999997E+02  0.45594000000E+02  0.51100000000E-03 0. -1.
         11   -1    0    0    0    0 -0.00000000000E+00 -0.00000000000E+00 -0.45593999997E+02  0.45594000000E+02  0.51100000000E-03 0.  1.
         23    2    1    2    0    0  0.35527136788E-14  0.00000000000E+00 -0.35527136788E-14  0.91188000000E+02  0.91188000000E+02 0.  0.
    9900012    2    3    3    0    0 -0.31697528947E+02  0.12205466386E+02  0.14215302858E+02  0.54367060490E+02  0.39999945999E+02 0.  0.
        -12    1    3    3    0    0  0.31697528947E+02 -0.12205466386E+02 -0.14215302858E+02  0.36820939510E+02  0.00000000000E+00 0.  1.
         11    1    4    4    0    0  0.10969060063E+01  0.71179462200E+01  0.11089569009E+02  0.13222968738E+02  0.51100000000E-03 0. -1.
        -11    1    4    4    0    0 -0.32753126270E+02 -0.76353989413E+00  0.77734675388E+01  0.33671606309E+02  0.51100000000E-03 0.  1.
        -12    1    4    4    0    0 -0.41308683221E-01  0.58510600606E+01 -0.46477336898E+01  0.74724854427E+01  0.00000000000E+00 0.  1.
</event>
<event>
 8    1  0.3011071E-007  0.9118800E+02  0.7816164E-02  0.1184000E+00
        -11   -1    0    0    0    0  0.00000000000E+00  0.00000000000E+00  0.45593999997E+02  0.45594000000E+02  0.51100000000E-03 0.  1.
         11   -1    0    0    0    0 -0.00000000000E+00 -0.00000000000E+00 -0.45593999997E+02  0.45594000000E+02  0.51100000000E-03 0. -1.
         23    2    1    2    0    0 -0.17763568394E-14  0.00000000000E+00  0.00000000000E+00  0.91188000000E+02  0.91188000000E+02 0.  0.
    9900012    2    3    3    0    0  0.11792097387E+02  0.28322295765E+02 -0.20361075909E+02  0.54367090039E+02  0.40000013361E+02 0.  0.
        -12    1    3    3    0    0 -0.11792097387E+02 -0.28322295765E+02  0.20361075909E+02  0.36820909961E+02  0.00000000000E+00 0.  1.
         11    1    4    4    0    0  0.12313005908E+02 -0.37276088903E+01 -0.90277209504E+01  0.15716390436E+02  0.51100000000E-03 0.  1.
        -11    1    4    4    0    0 -0.38642108130E+00  0.33342050990E+02 -0.69261793627E+01  0.34056036855E+02  0.51100000000E-03 0. -1.
         12    1    4    4    0    0 -0.13448743959E+00 -0.12921463345E+01 -0.44071755961E+01  0.45946627467E+01  0.00000000000E+00 0. -1.
</event>
<event>
 8    1  0.3011071E-007  0.9118800E+02  0.7816164E-02  0.1184000E+00
        -11   -1    0    0    0    0  0.00000000000E+00  0.00000000000E+00  0.45593999997E+02  0.45594000000E+02  0.51100000000E-03 0. -1.
         11   -1    0    0    0    0 -0.00000000000E+00 -0.00000000000E+00 -0.45593999997E+02  0.45594000000E+02  0.51100000000E-03 0.  1.
         23    2    1    2    0    0  0.00000000000E+00  0.00000000000E+00  0.88817841970E-15  0.91188000000E+02  0.91188000000E+02 0.  0.
    9900012    2    3    3    0    0  0.20687154074E+02  0.29442890698E+02 -0.78062754933E+01  0.54367080764E+02  0.39999992217E+02 0.  0.
         12    1    3    3    0    0 -0.20687154074E+02 -0.29442890698E+02  0.78062754933E+01  0.36820919236E+02  0.00000000000E+00 0. -1.
         11    1    4    4    0    0 -0.90497249506E+01  0.18171761827E+01  0.17462691380E+01  0.93940995909E+01  0.51100000000E-03 0. -1.
        -11    1    4    4    0    0  0.12669399284E+02  0.42066370106E+01  0.25113119943E+01  0.13583672602E+02  0.51100000000E-03 0.  1.
        -12    1    4    4    0    0  0.17067479740E+02  0.23419077505E+02 -0.12063856626E+02  0.31389308571E+02  0.00000000000E+00 0.  1.
</event>
<event>
 8    1  0.3011071E-007  0.9118800E+02  0.7816164E-02  0.1184000E+00
        -11   -1    0    0    0    0  0.00000000000E+00  0.00000000000E+00  0.45593999997E+02  0.45594000000E+02  0.51100000000E-03 0.  1.
         11   -1    0    0    0    0 -0.00000000000E+00 -0.00000000000E+00 -0.45593999997E+02  0.45594000000E+02  0.51100000000E-03 0. -1.
         23    2    1    2    0    0 -0.17763568394E-14  0.00000000000E+00 -0.35527136788E-14  0.91188000000E+02  0.91188000000E+02 0.  0.
    9900012    2    3    3    0    0  0.12876887625E+02 -0.16515354679E+02 -0.30285446173E+02  0.54367089841E+02  0.40000012909E+02 0.  0.
        -12    1    3    3    0    0 -0.12876887625E+02  0.16515354679E+02  0.30285446173E+02  0.36820910159E+02  0.00000000000E+00 0.  1.
         11    1    4    4    0    0  0.67226502930E+01  0.11284741912E+01  0.51733093651E+01  0.85574885925E+01  0.51100000000E-03 0. -1.
        -11    1    4    4    0    0  0.74842314161E+01  0.80475057730E+00 -0.21073989888E+02  0.22377989039E+02  0.51100000000E-03 0.  1.
         12    1    4    4    0    0 -0.13299940837E+01 -0.18448579448E+02 -0.14384765650E+02  0.23431612209E+02  0.00000000000E+00 0. -1.
</event>
<event>
 8    1  0.3011071E-007  0.9118800E+02  0.7816164E-02  0.1184000E+00
        -11   -1    0    0    0    0  0.00000000000E+00  0.00000000000E+00  0.45593999997E+02  0.45594000000E+02  0.51100000000E-03 0. -1.
         11   -1    0    0    0    0 -0.00000000000E+00 -0.00000000000E+00 -0.45593999997E+02  0.45594000000E+02  0.51100000000E-03 0.  1.
         23    2    1    2    0    0  0.00000000000E+00  0.00000000000E+00  0.35527136788E-14  0.91188000000E+02  0.91188000000E+02 0.  0.
    9900012    2    3    3    0    0  0.18900170355E+02 -0.18853751287E+02  0.25359423533E+02  0.54367071998E+02  0.39999972233E+02 0.  0.
        -12    1    3    3    0    0 -0.18900170355E+02  0.18853751287E+02 -0.25359423533E+02  0.36820928002E+02  0.00000000000E+00 0.  1.
         11    1    4    4    0    0 -0.48080064714E+01 -0.18978312175E+02  0.86093326350E+01  0.21387236098E+02  0.51100000000E-03 0. -1.
        -11    1    4    4    0    0  0.15853213776E+02 -0.35442700935E+01  0.26958692064E+01  0.16466752824E+02  0.51100000000E-03 0.  1.
         12    1    4    4    0    0  0.78549630504E+01  0.36688309817E+01  0.14054221691E+02  0.16513083075E+02  0.00000000000E+00 0. -1.
</event>
<event>
 8    1  0.3011071E-007  0.9118800E+02  0.7816164E-02  0.1184000E+00
        -11   -1    0    0    0    0  0.00000000000E+00  0.00000000000E+00  0.45593999997E+02  0.45594000000E+02  0.51100000000E-03 0.  1.
         11   -1    0    0    0    0 -0.00000000000E+00 -0.00000000000E+00 -0.45593999997E+02  0.45594000000E+02  0.51100000000E-03 0. -1.
         23    2    1    2    0    0  0.00000000000E+00  0.11102230246E-14  0.00000000000E+00  0.91188000000E+02  0.91188000000E+02 0.  0.
    9900012    2    3    3    0    0  0.12689164880E+02  0.17925762760E+01  0.34518852415E+02  0.54367090083E+02  0.40000013463E+02 0.  0.
         12    1    3    3    0    0 -0.12689164880E+02 -0.17925762760E+01 -0.34518852415E+02  0.36820909917E+02  0.00000000000E+00 0. -1.
         11    1    4    4    0    0  0.78788116038E+01 -0.74401259255E+00  0.21178552097E+02  0.22608854376E+02  0.51100000000E-03 0. -1.
        -11    1    4    4    0    0 -0.46743676776E+01  0.13517476818E+02  0.62561951786E+01  0.15611273846E+02  0.51100000000E-03 0.  1.
         12    1    4    4    0    0  0.94847209539E+01 -0.10980887949E+02  0.70841051395E+01  0.16146961862E+02  0.00000000000E+00 0. -1.
</event>
<event>
 8    1  0.3011071E-007  0.9118800E+02  0.7816164E-02  0.1184000E+00
        -11   -1    0    0    0    0  0.00000000000E+00  0.00000000000E+00  0.45593999997E+02  0.45594000000E+02  0.51100000000E-03 0.  1.
         11   -1    0    0    0    0 -0.00000000000E+00 -0.00000000000E+00 -0.45593999997E+02  0.45594000000E+02  0.51100000000E-03 0. -1.
         23    2    1    2    0    0 -0.88817841970E-15  0.00000000000E+00  0.00000000000E+00  0.91188000000E+02  0.91188000000E+02 0.  0.
    9900012    2    3    3    0    0 -0.77466695323E+01  0.25273413048E+02 -0.25632521177E+02  0.54367048928E+02  0.39999919641E+02 0.  0.
         12    1    3    3    0    0  0.77466695323E+01 -0.25273413048E+02  0.25632521177E+02  0.36820951072E+02  0.00000000000E+00 0. -1.
         11    1    4    4    0    0 -0.11009261625E+02  0.10695804600E+01  0.25764680121E+01  0.11357201749E+02  0.51100000000E-03 0. -1.
        -11    1    4    4    0    0  0.44299719948E+01  0.95329199785E+01 -0.26106181412E+02  0.28143097259E+02  0.51100000000E-03 0.  1.
        -12    1    4    4    0    0 -0.11673799025E+01  0.14670912610E+02 -0.21028077776E+01  0.14866749920E+02  0.00000000000E+00 0.  1.
</event>
<event>
 8    1  0.3011071E-007  0.9118800E+02  0.7816164E-02  0.1184000E+00
        -11   -1    0    0    0    0  0.00000000000E+00  0.00000000000E+00  0.45593999997E+02  0.45594000000E+02  0.51100000000E-03 0.  1.
         11   -1    0    0    0    0 -0.00000000000E+00 -0.00000000000E+00 -0.45593999997E+02  0.45594000000E+02  0.51100000000E-03 0. -1.
         23    2    1    2    0    0  0.00000000000E+00  0.00000000000E+00 -0.35527136788E-14  0.91188000000E+02  0.91188000000E+02 0.  0.
    9900012    2    3    3    0    0  0.16643494410E+02  0.25635436707E+02 -0.20532653765E+02  0.54367198923E+02  0.40000261583E+02 0.  0.
         12    1    3    3    0    0 -0.16643494410E+02 -0.25635436707E+02  0.20532653765E+02  0.36820801077E+02  0.00000000000E+00 0. -1.
         11    1    4    4    0    0  0.77082707582E+00 -0.32996967470E+00 -0.91647784505E+01  0.92030548556E+01  0.51100000000E-03 0. -1.
        -11    1    4    4    0    0 -0.57918991975E+01 -0.47771330016E+00 -0.92369831790E+01  0.10913118932E+02  0.51100000000E-03 0.  1.
        -12    1    4    4    0    0  0.21664566532E+02  0.26443119681E+02 -0.21308921359E+01  0.34251025135E+02  0.00000000000E+00 0.  1.
</event>
<event>
 8    1  0.3011071E-007  0.9118800E+02  0.7816164E-02  0.1184000E+00
        -11   -1    0    0    0    0  0.00000000000E+00  0.00000000000E+00  0.45593999997E+02  0.45594000000E+02  0.51100000000E-03 0.  1.
         11   -1    0    0    0    0 -0.00000000000E+00 -0.00000000000E+00 -0.45593999997E+02  0.45594000000E+02  0.51100000000E-03 0. -1.
         23    2    1    2    0    0 -0.77715611724E-15 -0.17763568394E-14  0.71054273576E-14  0.91188000000E+02  0.91188000000E+02 0.  0.
    9900012    2    3    3    0    0  0.26388453843E+00  0.59939999373E+01 -0.36328807620E+02  0.54367082937E+02  0.39999997172E+02 0.  0.
        -12    1    3    3    0    0 -0.26388453843E+00 -0.59939999373E+01  0.36328807620E+02  0.36820917063E+02  0.00000000000E+00 0.  1.
         11    1    4    4    0    0  0.44069928785E+00 -0.15946210338E+01 -0.23213669985E+02  0.23272548346E+02  0.51100000000E-03 0. -1.
        -11    1    4    4    0    0 -0.46764151302E+01  0.15876400593E+02 -0.22427078468E+01  0.16702056550E+02  0.51100000000E-03 0.  1.
        -12    1    4    4    0    0  0.44996003808E+01 -0.82877796220E+01 -0.10872429788E+02  0.14392478040E+02  0.00000000000E+00 0.  1.
</event>
<event>
 8    1  0.3011071E-007  0.9118800E+02  0.7816164E-02  0.1184000E+00
        -11   -1    0    0    0    0  0.00000000000E+00  0.00000000000E+00  0.45593999997E+02  0.45594000000E+02  0.51100000000E-03 0.  1.
         11   -1    0    0    0    0 -0.00000000000E+00 -0.00000000000E+00 -0.45593999997E+02  0.45594000000E+02  0.51100000000E-03 0. -1.
         23    2    1    2    0    0  0.00000000000E+00  0.00000000000E+00  0.71054273576E-14  0.91188000000E+02  0.91188000000E+02 0.  0.
    9900012    2    3    3    0    0 -0.18251543330E+02  0.39459509275E+01  0.31734683129E+02  0.54367089148E+02  0.40000011330E+02 0.  0.
         12    1    3    3    0    0  0.18251543330E+02 -0.39459509275E+01 -0.31734683129E+02  0.36820910852E+02  0.00000000000E+00 0. -1.
         11    1    4    4    0    0  0.85669563927E+00  0.11047445910E+02  0.11231882844E+02  0.15777679837E+02  0.51100000000E-03 0. -1.
        -11    1    4    4    0    0 -0.14980048795E+02 -0.15964794744E+02  0.18377950878E+02  0.28583659875E+02  0.51100000000E-03 0.  1.
        -12    1    4    4    0    0 -0.41281901746E+01  0.88632997611E+01  0.21248494071E+01  0.10005749436E+02  0.00000000000E+00 0.  1.
</event>
<event>
 8    1  0.3011071E-007  0.9118800E+02  0.7816164E-02  0.1184000E+00
        -11   -1    0    0    0    0  0.00000000000E+00  0.00000000000E+00  0.45593999997E+02  0.45594000000E+02  0.51100000000E-03 0. -1.
         11   -1    0    0    0    0 -0.00000000000E+00 -0.00000000000E+00 -0.45593999997E+02  0.45594000000E+02  0.51100000000E-03 0.  1.
         23    2    1    2    0    0  0.71054273576E-14 -0.17763568394E-14 -0.88817841970E-15  0.91188000000E+02  0.91188000000E+02 0.  0.
    9900012    2    3    3    0    0 -0.32798391772E+02  0.15819767901E+02  0.54571930976E+01  0.54367075028E+02  0.39999979141E+02 0.  0.
        -12    1    3    3    0    0  0.32798391772E+02 -0.15819767901E+02 -0.54571930976E+01  0.36820924972E+02  0.00000000000E+00 0.  1.
         11    1    4    4    0    0  0.77569782598E+01  0.72153604937E+01 -0.33816223791E+01  0.11120589416E+02  0.51100000000E-03 0. -1.
        -11    1    4    4    0    0 -0.14858424762E+01  0.13728017168E+01 -0.10811219499E+01  0.22937169288E+01  0.51100000000E-03 0.  1.
        -12    1    4    4    0    0 -0.39069527556E+02  0.72316056901E+01  0.99199374267E+01  0.40952768684E+02  0.00000000000E+00 0.  1.
</event>
<event>
 8    1  0.3011071E-007  0.9118800E+02  0.7816164E-02  0.1184000E+00
        -11   -1    0    0    0    0  0.00000000000E+00  0.00000000000E+00  0.45593999997E+02  0.45594000000E+02  0.51100000000E-03 0.  1.
         11   -1    0    0    0    0 -0.00000000000E+00 -0.00000000000E+00 -0.45593999997E+02  0.45594000000E+02  0.51100000000E-03 0. -1.
         23    2    1    2    0    0  0.71054273576E-14  0.00000000000E+00  0.00000000000E+00  0.91188000000E+02  0.91188000000E+02 0.  0.
    9900012    2    3    3    0    0  0.32817714432E+02  0.23383751154E+01  0.16531966989E+02  0.54367132122E+02  0.40000109299E+02 0.  0.
         12    1    3    3    0    0 -0.32817714432E+02 -0.23383751154E+01 -0.16531966989E+02  0.36820867878E+02  0.00000000000E+00 0. -1.
         11    1    4    4    0    0  0.22721038133E+02 -0.15479790760E+02  0.16921151399E+02  0.32283042929E+02  0.51100000000E-03 0. -1.
        -11    1    4    4    0    0  0.90050396521E+00 -0.62375771750E+00 -0.97737343950E+00  0.14680736299E+01  0.51100000000E-03 0.  1.
        -12    1    4    4    0    0  0.91961723342E+01  0.18441923592E+02  0.58818902995E+00  0.20616015564E+02  0.00000000000E+00 0.  1.
</event>
<event>
 8    1  0.3011071E-007  0.9118800E+02  0.7816164E-02  0.1184000E+00
        -11   -1    0    0    0    0  0.00000000000E+00  0.00000000000E+00  0.45593999997E+02  0.45594000000E+02  0.51100000000E-03 0.  1.
         11   -1    0    0    0    0 -0.00000000000E+00 -0.00000000000E+00 -0.45593999997E+02  0.45594000000E+02  0.51100000000E-03 0. -1.
         23    2    1    2    0    0  0.00000000000E+00  0.00000000000E+00  0.00000000000E+00  0.91188000000E+02  0.91188000000E+02 0.  0.
    9900012    2    3    3    0    0 -0.19297039174E+02  0.17420878930E+02 -0.26075204901E+02  0.54367094875E+02  0.40000024386E+02 0.  0.
        -12    1    3    3    0    0  0.19297039174E+02 -0.17420878930E+02  0.26075204901E+02  0.36820905125E+02  0.00000000000E+00 0.  1.
         11    1    4    4    0    0 -0.20705362790E+02  0.16920506365E+02 -0.54183540974E+00  0.26745264436E+02  0.51100000000E-03 0.  1.
        -11    1    4    4    0    0  0.59077083521E+01 -0.48629260842E-01 -0.12577590122E+02  0.13896012245E+02  0.51100000000E-03 0. -1.
        -12    1    4    4    0    0 -0.44993847367E+01  0.54900182626E+00 -0.12955779369E+02  0.13725818194E+02  0.00000000000E+00 0.  1.
</event>
<event>
 8    1  0.3011071E-007  0.9118800E+02  0.7816164E-02  0.1184000E+00
        -11   -1    0    0    0    0  0.00000000000E+00  0.00000000000E+00  0.45593999997E+02  0.45594000000E+02  0.51100000000E-03 0. -1.
         11   -1    0    0    0    0 -0.00000000000E+00 -0.00000000000E+00 -0.45593999997E+02  0.45594000000E+02  0.51100000000E-03 0.  1.
         23    2    1    2    0    0  0.00000000000E+00  0.17763568394E-14  0.00000000000E+00  0.91188000000E+02  0.91188000000E+02 0.  0.
    9900012    2    3    3    0    0  0.32579695497E+02  0.10702639472E+02  0.13408790432E+02  0.54367099533E+02  0.40000035007E+02 0.  0.
        -12    1    3    3    0    0 -0.32579695497E+02 -0.10702639472E+02 -0.13408790432E+02  0.36820900467E+02  0.00000000000E+00 0.  1.
         11    1    4    4    0    0 -0.91038911906E+00 -0.51969878804E+01 -0.51265309414E+01  0.73565488601E+01  0.51100000000E-03 0.  1.
        -11    1    4    4    0    0  0.15290904711E+02  0.89177379192E+01  0.20884520849E+02  0.27377016416E+02  0.51100000000E-03 0. -1.
         12    1    4    4    0    0  0.18199179905E+02  0.69818894328E+01 -0.23491994762E+01  0.19633534257E+02  0.00000000000E+00 0. -1.
</event>
<event>
 8    1  0.3011071E-007  0.9118800E+02  0.7816164E-02  0.1184000E+00
        -11   -1    0    0    0    0  0.00000000000E+00  0.00000000000E+00  0.45593999997E+02  0.45594000000E+02  0.51100000000E-03 0.  1.
         11   -1    0    0    0    0 -0.00000000000E+00 -0.00000000000E+00 -0.45593999997E+02  0.45594000000E+02  0.51100000000E-03 0. -1.
         23    2    1    2    0    0  0.00000000000E+00 -0.17763568394E-14 -0.35527136788E-14  0.91188000000E+02  0.91188000000E+02 0.  0.
    9900012    2    3    3    0    0  0.27522997299E+02 -0.12118029409E+02 -0.21246601860E+02  0.54367080570E+02  0.39999991774E+02 0.  0.
        -12    1    3    3    0    0 -0.27522997299E+02  0.12118029409E+02  0.21246601860E+02  0.36820919430E+02  0.00000000000E+00 0.  1.
         11    1    4    4    0    0  0.74174166735E+01  0.53820006004E+01 -0.89135948252E+01  0.12784215797E+02  0.51100000000E-03 0. -1.
        -11    1    4    4    0    0  0.27603444346E+02 -0.15423310218E+02 -0.77602632250E+01  0.32558414019E+02  0.51100000000E-03 0.  1.
        -12    1    4    4    0    0 -0.74978637201E+01 -0.20767197915E+01 -0.45727438100E+01  0.90244507539E+01  0.00000000000E+00 0.  1.
</event>
<event>
 8    1  0.3011071E-007  0.9118800E+02  0.7816164E-02  0.1184000E+00
        -11   -1    0    0    0    0  0.00000000000E+00  0.00000000000E+00  0.45593999997E+02  0.45594000000E+02  0.51100000000E-03 0. -1.
         11   -1    0    0    0    0 -0.00000000000E+00 -0.00000000000E+00 -0.45593999997E+02  0.45594000000E+02  0.51100000000E-03 0.  1.
         23    2    1    2    0    0  0.00000000000E+00  0.00000000000E+00  0.35527136788E-14  0.91188000000E+02  0.91188000000E+02 0.  0.
    9900012    2    3    3    0    0  0.17100629976E+02 -0.22353492410E+02 -0.23741709360E+02  0.54367096537E+02  0.40000028175E+02 0.  0.
         12    1    3    3    0    0 -0.17100629976E+02  0.22353492410E+02  0.23741709360E+02  0.36820903463E+02  0.00000000000E+00 0. -1.
         11    1    4    4    0    0  0.52638455310E+01 -0.43510589699E+01 -0.16261391380E+02  0.17637251311E+02  0.51100000000E-03 0.  1.
        -11    1    4    4    0    0  0.95977352684E+01 -0.12742673408E+02  0.96680360477E+01  0.18653770910E+02  0.51100000000E-03 0. -1.
         12    1    4    4    0    0  0.22390491765E+01 -0.52597600318E+01 -0.17148354028E+02  0.18076074316E+02  0.00000000000E+00 0. -1.
</event>
<event>
 8    1  0.3011071E-007  0.9118800E+02  0.7816164E-02  0.1184000E+00
        -11   -1    0    0    0    0  0.00000000000E+00  0.00000000000E+00  0.45593999997E+02  0.45594000000E+02  0.51100000000E-03 0. -1.
         11   -1    0    0    0    0 -0.00000000000E+00 -0.00000000000E+00 -0.45593999997E+02  0.45594000000E+02  0.51100000000E-03 0.  1.
         23    2    1    2    0    0 -0.88817841970E-15 -0.35527136788E-14  0.00000000000E+00  0.91188000000E+02  0.91188000000E+02 0.  0.
    9900012    2    3    3    0    0 -0.54129132114E+01 -0.12704356190E+02  0.34133248827E+02  0.54367096003E+02  0.40000026959E+02 0.  0.
        -12    1    3    3    0    0  0.54129132114E+01  0.12704356190E+02 -0.34133248827E+02  0.36820903997E+02  0.00000000000E+00 0.  1.
         11    1    4    4    0    0 -0.86882453907E+01 -0.45658420644E+01  0.37811462545E+02  0.39064551985E+02  0.51100000000E-03 0. -1.
        -11    1    4    4    0    0  0.18991444721E+01 -0.10991900671E+02 -0.10827880313E+01  0.11207187884E+02  0.51100000000E-03 0.  1.
        -12    1    4    4    0    0  0.13761877072E+01  0.28533865448E+01 -0.25954256862E+01  0.40953561350E+01  0.00000000000E+00 0.  1.
</event>
<event>
 8    1  0.3011071E-007  0.9118800E+02  0.7816164E-02  0.1184000E+00
        -11   -1    0    0    0    0  0.00000000000E+00  0.00000000000E+00  0.45593999997E+02  0.45594000000E+02  0.51100000000E-03 0.  1.
         11   -1    0    0    0    0 -0.00000000000E+00 -0.00000000000E+00 -0.45593999997E+02  0.45594000000E+02  0.51100000000E-03 0. -1.
         23    2    1    2    0    0 -0.17763568394E-14  0.00000000000E+00  0.71054273576E-14  0.91188000000E+02  0.91188000000E+02 0.  0.
    9900012    2    3    3    0    0  0.55002563103E+01 -0.89395062187E+01 -0.35293237376E+02  0.54367079378E+02  0.39999989059E+02 0.  0.
        -12    1    3    3    0    0 -0.55002563103E+01  0.89395062187E+01  0.35293237376E+02  0.36820920622E+02  0.00000000000E+00 0.  1.
         11    1    4    4    0    0  0.58238607311E+01  0.17183485603E+01 -0.30494527519E+02  0.31093187107E+02  0.51100000000E-03 0. -1.
        -11    1    4    4    0    0  0.23480760027E+01  0.14172483825E+01 -0.96176454683E+01  0.10001057869E+02  0.51100000000E-03 0.  1.
        -12    1    4    4    0    0 -0.26716804235E+01 -0.12075103162E+02  0.48189356108E+01  0.13272834402E+02  0.00000000000E+00 0.  1.
</event>
<event>
 8    1  0.3011071E-007  0.9118800E+02  0.7816164E-02  0.1184000E+00
        -11   -1    0    0    0    0  0.00000000000E+00  0.00000000000E+00  0.45593999997E+02  0.45594000000E+02  0.51100000000E-03 0.  1.
         11   -1    0    0    0    0 -0.00000000000E+00 -0.00000000000E+00 -0.45593999997E+02  0.45594000000E+02  0.51100000000E-03 0. -1.
         23    2    1    2    0    0 -0.88817841970E-15  0.00000000000E+00  0.00000000000E+00  0.91188000000E+02  0.91188000000E+02 0.  0.
    9900012    2    3    3    0    0 -0.45059628377E+01  0.35651919553E+02  0.80260203106E+01  0.54367081069E+02  0.39999992912E+02 0.  0.
        -12    1    3    3    0    0  0.45059628377E+01 -0.35651919553E+02 -0.80260203106E+01  0.36820918931E+02  0.00000000000E+00 0.  1.
         11    1    4    4    0    0  0.36274433331E+01  0.88745286368E+01 -0.10754502999E+02  0.14407461216E+02  0.51100000000E-03 0. -1.
        -11    1    4    4    0    0  0.80159825325E+00  0.20623582975E+02  0.30687109670E+01  0.20866042311E+02  0.51100000000E-03 0.  1.
        -12    1    4    4    0    0 -0.89350044240E+01  0.61538079415E+01  0.15711812343E+02  0.19093577542E+02  0.00000000000E+00 0.  1.
</event>
<event>
 8    1  0.3011071E-007  0.9118800E+02  0.7816164E-02  0.1184000E+00
        -11   -1    0    0    0    0  0.00000000000E+00  0.00000000000E+00  0.45593999997E+02  0.45594000000E+02  0.51100000000E-03 0.  1.
         11   -1    0    0    0    0 -0.00000000000E+00 -0.00000000000E+00 -0.45593999997E+02  0.45594000000E+02  0.51100000000E-03 0. -1.
         23    2    1    2    0    0  0.53290705182E-14 -0.26645352591E-14  0.71054273576E-14  0.91188000000E+02  0.91188000000E+02 0.  0.
    9900012    2    3    3    0    0 -0.14471724544E+02 -0.66204392921E+01 -0.33204194132E+02  0.54367088338E+02  0.40000009484E+02 0.  0.
        -12    1    3    3    0    0  0.14471724544E+02  0.66204392921E+01  0.33204194132E+02  0.36820911662E+02  0.00000000000E+00 0.  1.
         11    1    4    4    0    0  0.33490463261E+00  0.60123776136E+01  0.12716911760E+00  0.60230405882E+01  0.51100000000E-03 0.  1.
        -11    1    4    4    0    0 -0.16044302413E+02  0.25313848471E+01 -0.27718752364E+02  0.32127196921E+02  0.51100000000E-03 0. -1.
         12    1    4    4    0    0  0.12376732359E+01 -0.15164201753E+02 -0.56126108853E+01  0.16216850828E+02  0.00000000000E+00 0. -1.
</event>
<event>
 8    1  0.3011071E-007  0.9118800E+02  0.7816164E-02  0.1184000E+00
        -11   -1    0    0    0    0  0.00000000000E+00  0.00000000000E+00  0.45593999997E+02  0.45594000000E+02  0.51100000000E-03 0.  1.
         11   -1    0    0    0    0 -0.00000000000E+00 -0.00000000000E+00 -0.45593999997E+02  0.45594000000E+02  0.51100000000E-03 0. -1.
         23    2    1    2    0    0  0.35527136788E-14  0.00000000000E+00  0.35527136788E-14  0.91188000000E+02  0.91188000000E+02 0.  0.
    9900012    2    3    3    0    0  0.24353674253E+02 -0.10242156199E+02  0.25647135576E+02  0.54367098647E+02  0.40000032986E+02 0.  0.
         12    1    3    3    0    0 -0.24353674253E+02  0.10242156199E+02 -0.25647135576E+02  0.36820901353E+02  0.00000000000E+00 0. -1.
         11    1    4    4    0    0  0.10850634496E+02  0.11060997943E+02 -0.13850572087E+01  0.15556359735E+02  0.51100000000E-03 0. -1.
        -11    1    4    4    0    0  0.53520614036E+01 -0.16172817109E+02  0.11565246148E+02  0.20590276667E+02  0.51100000000E-03 0.  1.
         12    1    4    4    0    0  0.81509783527E+01 -0.51303370325E+01  0.15466946636E+02  0.18220462245E+02  0.00000000000E+00 0. -1.
</event>
<event>
 8    1  0.3011071E-007  0.9118800E+02  0.7816164E-02  0.1184000E+00
        -11   -1    0    0    0    0  0.00000000000E+00  0.00000000000E+00  0.45593999997E+02  0.45594000000E+02  0.51100000000E-03 0.  1.
         11   -1    0    0    0    0 -0.00000000000E+00 -0.00000000000E+00 -0.45593999997E+02  0.45594000000E+02  0.51100000000E-03 0. -1.
         23    2    1    2    0    0 -0.71054273576E-14  0.17763568394E-14 -0.88817841970E-15  0.91188000000E+02  0.91188000000E+02 0.  0.
    9900012    2    3    3    0    0  0.35349241337E+02  0.86347109233E+01  0.56261329947E+01  0.54367075673E+02  0.39999980611E+02 0.  0.
        -12    1    3    3    0    0 -0.35349241337E+02 -0.86347109233E+01 -0.56261329947E+01  0.36820924327E+02  0.00000000000E+00 0.  1.
         11    1    4    4    0    0  0.26943966523E+02 -0.21564223257E+01 -0.59386273928E+01  0.27674804151E+02  0.51100000000E-03 0. -1.
        -11    1    4    4    0    0  0.10608956719E+02  0.13209456368E+02  0.25891509243E+01  0.17138944045E+02  0.51100000000E-03 0.  1.
        -12    1    4    4    0    0 -0.22036819048E+01 -0.24183231188E+01  0.89756094632E+01  0.95533274769E+01  0.00000000000E+00 0.  1.
</event>
<event>
 8    1  0.3011071E-007  0.9118800E+02  0.7816164E-02  0.1184000E+00
        -11   -1    0    0    0    0  0.00000000000E+00  0.00000000000E+00  0.45593999997E+02  0.45594000000E+02  0.51100000000E-03 0.  1.
         11   -1    0    0    0    0 -0.00000000000E+00 -0.00000000000E+00 -0.45593999997E+02  0.45594000000E+02  0.51100000000E-03 0. -1.
         23    2    1    2    0    0 -0.35527136788E-14 -0.16653345369E-15  0.00000000000E+00  0.91188000000E+02  0.91188000000E+02 0.  0.
    9900012    2    3    3    0    0 -0.25503263224E+02  0.34013421959E+00 -0.26556524197E+02  0.54367067043E+02  0.39999960938E+02 0.  0.
        -12    1    3    3    0    0  0.25503263224E+02 -0.34013421959E+00  0.26556524197E+02  0.36820932957E+02  0.00000000000E+00 0.  1.
         11    1    4    4    0    0 -0.29165879856E+02 -0.33248489056E+00 -0.11956442428E+02  0.31523255063E+02  0.51100000000E-03 0.  1.
        -11    1    4    4    0    0 -0.16088858786E+01 -0.14106748811E+01 -0.16672016528E+02  0.16808767140E+02  0.51100000000E-03 0. -1.
         12    1    4    4    0    0  0.52715025104E+01  0.20832939913E+01  0.20719347588E+01  0.60350448396E+01  0.00000000000E+00 0. -1.
</event>
<event>
 8    1  0.3011071E-007  0.9118800E+02  0.7816164E-02  0.1184000E+00
        -11   -1    0    0    0    0  0.00000000000E+00  0.00000000000E+00  0.45593999997E+02  0.45594000000E+02  0.51100000000E-03 0. -1.
         11   -1    0    0    0    0 -0.00000000000E+00 -0.00000000000E+00 -0.45593999997E+02  0.45594000000E+02  0.51100000000E-03 0.  1.
         23    2    1    2    0    0 -0.88817841970E-15  0.00000000000E+00  0.00000000000E+00  0.91188000000E+02  0.91188000000E+02 0.  0.
    9900012    2    3    3    0    0  0.55622804660E+01  0.35391367062E+02 -0.85025798744E+01  0.54367059069E+02  0.39999942760E+02 0.  0.
        -12    1    3    3    0    0 -0.55622804660E+01 -0.35391367062E+02  0.85025798744E+01  0.36820940931E+02  0.00000000000E+00 0.  1.
         11    1    4    4    0    0  0.13218055451E+02  0.18321459956E+02 -0.16302939728E+02  0.27859984366E+02  0.51100000000E-03 0. -1.
        -11    1    4    4    0    0  0.40391397913E+01  0.12143290198E+00 -0.92088073739E+00  0.41445648502E+01  0.51100000000E-03 0.  1.
         12    1    4    4    0    0 -0.11694914776E+02  0.16948474204E+02  0.87212405913E+01  0.22362509853E+02  0.00000000000E+00 0. -1.
</event>
<event>
 8    1  0.3011071E-007  0.9118800E+02  0.7816164E-02  0.1184000E+00
        -11   -1    0    0    0    0  0.00000000000E+00  0.00000000000E+00  0.45593999997E+02  0.45594000000E+02  0.51100000000E-03 0. -1.
         11   -1    0    0    0    0 -0.00000000000E+00 -0.00000000000E+00 -0.45593999997E+02  0.45594000000E+02  0.51100000000E-03 0.  1.
         23    2    1    2    0    0  0.35527136788E-14  0.00000000000E+00  0.17763568394E-14  0.91188000000E+02  0.91188000000E+02 0.  0.
    9900012    2    3    3    0    0 -0.25237411012E+02 -0.22557213392E+02 -0.14492239442E+02  0.54367084821E+02  0.40000001466E+02 0.  0.
         12    1    3    3    0    0  0.25237411012E+02  0.22557213392E+02  0.14492239442E+02  0.36820915179E+02  0.00000000000E+00 0. -1.
         11    1    4    4    0    0 -0.14553272813E+02 -0.48219382654E+01 -0.42116561575E+01  0.15899273130E+02  0.51100000000E-03 0. -1.
        -11    1    4    4    0    0 -0.19411952013E+01 -0.93111613545E+01  0.10644955985E+02  0.14275190113E+02  0.51100000000E-03 0.  1.
         12    1    4    4    0    0 -0.87429429977E+01 -0.84241137717E+01 -0.20925539270E+02  0.24192621578E+02  0.00000000000E+00 0. -1.
</event>
<event>
 8    1  0.3011071E-007  0.9118800E+02  0.7816164E-02  0.1184000E+00
        -11   -1    0    0    0    0  0.00000000000E+00  0.00000000000E+00  0.45593999997E+02  0.45594000000E+02  0.51100000000E-03 0.  1.
         11   -1    0    0    0    0 -0.00000000000E+00 -0.00000000000E+00 -0.45593999997E+02  0.45594000000E+02  0.51100000000E-03 0. -1.
         23    2    1    2    0    0  0.66613381478E-15  0.17763568394E-14  0.00000000000E+00  0.91188000000E+02  0.91188000000E+02 0.  0.
    9900012    2    3    3    0    0 -0.99507721883E+00 -0.10258659522E+02 -0.35348978009E+02  0.54367074969E+02  0.39999979007E+02 0.  0.
        -12    1    3    3    0    0  0.99507721883E+00  0.10258659522E+02  0.35348978009E+02  0.36820925031E+02  0.00000000000E+00 0.  1.
         11    1    4    4    0    0  0.97599021426E+01  0.32883794644E+01  0.22301700578E+01  0.10537684190E+02  0.51100000000E-03 0.  1.
        -11    1    4    4    0    0 -0.14120690366E+02 -0.10262260361E+02 -0.25843161914E+02  0.31186165235E+02  0.51100000000E-03 0. -1.
        -12    1    4    4    0    0  0.33657110041E+01 -0.32847786259E+01 -0.11735986153E+02  0.12643225544E+02  0.00000000000E+00 0.  1.
</event>
<event>
 8    1  0.3011071E-007  0.9118800E+02  0.7816164E-02  0.1184000E+00
        -11   -1    0    0    0    0  0.00000000000E+00  0.00000000000E+00  0.45593999997E+02  0.45594000000E+02  0.51100000000E-03 0.  1.
         11   -1    0    0    0    0 -0.00000000000E+00 -0.00000000000E+00 -0.45593999997E+02  0.45594000000E+02  0.51100000000E-03 0. -1.
         23    2    1    2    0    0  0.00000000000E+00  0.00000000000E+00  0.00000000000E+00  0.91188000000E+02  0.91188000000E+02 0.  0.
    9900012    2    3    3    0    0 -0.72539993111E+00  0.22208555436E+02  0.29360405908E+02  0.54367087807E+02  0.40000008274E+02 0.  0.
         12    1    3    3    0    0  0.72539993111E+00 -0.22208555436E+02 -0.29360405908E+02  0.36820912193E+02  0.00000000000E+00 0. -1.
         11    1    4    4    0    0 -0.79969252496E+01  0.32618162705E+01  0.89119212089E+01  0.12410181253E+02  0.51100000000E-03 0. -1.
        -11    1    4    4    0    0  0.10858177921E+02 -0.40533372793E+01  0.10172314456E+01  0.11634617782E+02  0.51100000000E-03 0.  1.
        -12    1    4    4    0    0 -0.35866526028E+01  0.23000076445E+02  0.19431253254E+02  0.30322288772E+02  0.00000000000E+00 0.  1.
</event>
<event>
 8    1  0.3011071E-007  0.9118800E+02  0.7816164E-02  0.1184000E+00
        -11   -1    0    0    0    0  0.00000000000E+00  0.00000000000E+00  0.45593999997E+02  0.45594000000E+02  0.51100000000E-03 0. -1.
         11   -1    0    0    0    0 -0.00000000000E+00 -0.00000000000E+00 -0.45593999997E+02  0.45594000000E+02  0.51100000000E-03 0.  1.
         23    2    1    2    0    0  0.00000000000E+00  0.00000000000E+00  0.00000000000E+00  0.91188000000E+02  0.91188000000E+02 0.  0.
    9900012    2    3    3    0    0 -0.15287462571E+02 -0.25652566454E+01  0.33398982344E+02  0.54367094591E+02  0.40000023739E+02 0.  0.
        -12    1    3    3    0    0  0.15287462571E+02  0.25652566454E+01 -0.33398982344E+02  0.36820905409E+02  0.00000000000E+00 0.  1.
         11    1    4    4    0    0  0.87077539621E+01  0.87728254615E+01  0.16168598933E+02  0.20352175249E+02  0.51100000000E-03 0. -1.
        -11    1    4    4    0    0 -0.13248846614E+02 -0.18337383870E+01  0.27969409401E+01  0.13664457982E+02  0.51100000000E-03 0.  1.
         12    1    4    4    0    0 -0.10746369919E+02 -0.95043437200E+01  0.14433442471E+02  0.20350461360E+02  0.00000000000E+00 0. -1.
</event>
<event>
 8    1  0.3011071E-007  0.9118800E+02  0.7816164E-02  0.1184000E+00
        -11   -1    0    0    0    0  0.00000000000E+00  0.00000000000E+00  0.45593999997E+02  0.45594000000E+02  0.51100000000E-03 0.  1.
         11   -1    0    0    0    0 -0.00000000000E+00 -0.00000000000E+00 -0.45593999997E+02  0.45594000000E+02  0.51100000000E-03 0. -1.
         23    2    1    2    0    0  0.00000000000E+00  0.00000000000E+00  0.00000000000E+00  0.91188000000E+02  0.91188000000E+02 0.  0.
    9900012    2    3    3    0    0  0.33790529054E+02 -0.49851863859E+01 -0.13752405457E+02  0.54367073981E+02  0.39999976754E+02 0.  0.
        -12    1    3    3    0    0 -0.33790529054E+02  0.49851863859E+01  0.13752405457E+02  0.36820926019E+02  0.00000000000E+00 0.  1.
         11    1    4    4    0    0  0.12228116958E+02 -0.32592583756E+01 -0.24817083420E+02  0.27857444952E+02  0.51100000000E-03 0. -1.
        -11    1    4    4    0    0  0.31988806340E+01  0.34577652364E+01  0.39423322591E+01  0.61425533488E+01  0.51100000000E-03 0.  1.
         12    1    4    4    0    0  0.18363531462E+02 -0.51836932467E+01  0.71223457037E+01  0.20367075680E+02  0.00000000000E+00 0. -1.
</event>
<event>
 8    1  0.3011071E-007  0.9118800E+02  0.7816164E-02  0.1184000E+00
        -11   -1    0    0    0    0  0.00000000000E+00  0.00000000000E+00  0.45593999997E+02  0.45594000000E+02  0.51100000000E-03 0. -1.
         11   -1    0    0    0    0 -0.00000000000E+00 -0.00000000000E+00 -0.45593999997E+02  0.45594000000E+02  0.51100000000E-03 0.  1.
         23    2    1    2    0    0  0.35527136788E-14  0.00000000000E+00  0.00000000000E+00  0.91188000000E+02  0.91188000000E+02 0.  0.
    9900012    2    3    3    0    0  0.18081753101E+02  0.24162103872E+02 -0.21095488772E+02  0.54367126772E+02  0.40000097103E+02 0.  0.
         12    1    3    3    0    0 -0.18081753101E+02 -0.24162103872E+02  0.21095488772E+02  0.36820873228E+02  0.00000000000E+00 0. -1.
         11    1    4    4    0    0 -0.82808718253E+01  0.20552348592E+02 -0.12546293893E+02  0.25463333669E+02  0.51100000000E-03 0. -1.
        -11    1    4    4    0    0  0.17857230318E+02  0.54532063734E+01 -0.75642010726E+01  0.20145353621E+02  0.51100000000E-03 0.  1.
        -12    1    4    4    0    0  0.85053946082E+01 -0.18434510936E+01 -0.98499380721E+00  0.87584394829E+01  0.00000000000E+00 0.  1.
</event>
<event>
 8    1  0.3011071E-007  0.9118800E+02  0.7816164E-02  0.1184000E+00
        -11   -1    0    0    0    0  0.00000000000E+00  0.00000000000E+00  0.45593999997E+02  0.45594000000E+02  0.51100000000E-03 0.  1.
         11   -1    0    0    0    0 -0.00000000000E+00 -0.00000000000E+00 -0.45593999997E+02  0.45594000000E+02  0.51100000000E-03 0. -1.
         23    2    1    2    0    0  0.00000000000E+00  0.17763568394E-14  0.00000000000E+00  0.91188000000E+02  0.91188000000E+02 0.  0.
    9900012    2    3    3    0    0 -0.91513984873E+01  0.55089959127E+01  0.35237476693E+02  0.54367124210E+02  0.40000091261E+02 0.  0.
         12    1    3    3    0    0  0.91513984873E+01 -0.55089959127E+01 -0.35237476693E+02  0.36820875790E+02  0.00000000000E+00 0. -1.
         11    1    4    4    0    0 -0.25149324201E+01 -0.75823945583E+01  0.14459917470E+02  0.16519891216E+02  0.51100000000E-03 0. -1.
        -11    1    4    4    0    0  0.88331583974E+01  0.13523704799E+02  0.10261499499E+02  0.19136709514E+02  0.51100000000E-03 0.  1.
        -12    1    4    4    0    0 -0.15469624465E+02 -0.43231432833E+00  0.10516059724E+02  0.18710523480E+02  0.00000000000E+00 0.  1.
</event>
<event>
 8    1  0.3011071E-007  0.9118800E+02  0.7816164E-02  0.1184000E+00
        -11   -1    0    0    0    0  0.00000000000E+00  0.00000000000E+00  0.45593999997E+02  0.45594000000E+02  0.51100000000E-03 0. -1.
         11   -1    0    0    0    0 -0.00000000000E+00 -0.00000000000E+00 -0.45593999997E+02  0.45594000000E+02  0.51100000000E-03 0.  1.
         23    2    1    2    0    0  0.00000000000E+00 -0.17763568394E-14  0.88817841970E-15  0.91188000000E+02  0.91188000000E+02 0.  0.
    9900012    2    3    3    0    0 -0.32779016017E+02 -0.15386925387E+02  0.66751881438E+01  0.54367088812E+02  0.40000010566E+02 0.  0.
        -12    1    3    3    0    0  0.32779016017E+02  0.15386925387E+02 -0.66751881438E+01  0.36820911188E+02  0.00000000000E+00 0.  1.
         11    1    4    4    0    0  0.20509434805E+01 -0.80180088268E+00  0.37392434401E-01  0.22024196401E+01  0.51100000000E-03 0.  1.
        -11    1    4    4    0    0 -0.21426607528E+01 -0.18194481492E+02  0.59821566457E+01  0.19272165168E+02  0.51100000000E-03 0. -1.
         12    1    4    4    0    0 -0.32687298745E+02  0.36093569874E+01  0.65563906369E+00  0.32892504004E+02  0.00000000000E+00 0. -1.
</event>
<event>
 8    1  0.3011071E-007  0.9118800E+02  0.7816164E-02  0.1184000E+00
        -11   -1    0    0    0    0  0.00000000000E+00  0.00000000000E+00  0.45593999997E+02  0.45594000000E+02  0.51100000000E-03 0. -1.
         11   -1    0    0    0    0 -0.00000000000E+00 -0.00000000000E+00 -0.45593999997E+02  0.45594000000E+02  0.51100000000E-03 0.  1.
         23    2    1    2    0    0  0.13322676296E-14  0.00000000000E+00  0.88817841970E-15  0.91188000000E+02  0.91188000000E+02 0.  0.
    9900012    2    3    3    0    0 -0.24847577266E+01  0.36284589505E+02 -0.57475125676E+01  0.54367090760E+02  0.40000015006E+02 0.  0.
        -12    1    3    3    0    0  0.24847577266E+01 -0.36284589505E+02  0.57475125676E+01  0.36820909240E+02  0.00000000000E+00 0.  1.
         11    1    4    4    0    0  0.15379942319E+01 -0.19731815681E+00  0.25547540559E+01  0.29884994997E+01  0.51100000000E-03 0. -1.
        -11    1    4    4    0    0 -0.91946798536E+01  0.45382862400E+01 -0.15158358697E+02  0.18300656225E+02  0.51100000000E-03 0.  1.
         12    1    4    4    0    0  0.51719278952E+01  0.31943621422E+02  0.68560920738E+01  0.33077935036E+02  0.00000000000E+00 0. -1.
</event>
<event>
 8    1  0.3011071E-007  0.9118800E+02  0.7816164E-02  0.1184000E+00
        -11   -1    0    0    0    0  0.00000000000E+00  0.00000000000E+00  0.45593999997E+02  0.45594000000E+02  0.51100000000E-03 0.  1.
         11   -1    0    0    0    0 -0.00000000000E+00 -0.00000000000E+00 -0.45593999997E+02  0.45594000000E+02  0.51100000000E-03 0. -1.
         23    2    1    2    0    0 -0.35527136788E-14  0.00000000000E+00  0.35527136788E-14  0.91188000000E+02  0.91188000000E+02 0.  0.
    9900012    2    3    3    0    0 -0.21848244764E+02 -0.73856025940E+01  0.28703257668E+02  0.54367218833E+02  0.40000306973E+02 0.  0.
         12    1    3    3    0    0  0.21848244764E+02  0.73856025940E+01 -0.28703257668E+02  0.36820781167E+02  0.00000000000E+00 0. -1.
         11    1    4    4    0    0  0.16456952061E+01  0.10512628963E+02  0.60475680907E+01  0.12239148683E+02  0.51100000000E-03 0. -1.
        -11    1    4    4    0    0 -0.57312594074E+01 -0.15600612568E+02  0.15855124462E+02  0.22969793618E+02  0.51100000000E-03 0.  1.
        -12    1    4    4    0    0 -0.17762680563E+02 -0.22976189888E+01  0.68005651158E+01  0.19158276532E+02  0.00000000000E+00 0.  1.
</event>
<event>
 8    1  0.3011071E-007  0.9118800E+02  0.7816164E-02  0.1184000E+00
        -11   -1    0    0    0    0  0.00000000000E+00  0.00000000000E+00  0.45593999997E+02  0.45594000000E+02  0.51100000000E-03 0. -1.
         11   -1    0    0    0    0 -0.00000000000E+00 -0.00000000000E+00 -0.45593999997E+02  0.45594000000E+02  0.51100000000E-03 0.  1.
         23    2    1    2    0    0 -0.13322676296E-14  0.00000000000E+00 -0.35527136788E-14  0.91188000000E+02  0.91188000000E+02 0.  0.
    9900012    2    3    3    0    0 -0.11984397033E+01 -0.34679654177E+02 -0.12315308787E+02  0.54367061635E+02  0.39999948609E+02 0.  0.
         12    1    3    3    0    0  0.11984397033E+01  0.34679654177E+02  0.12315308787E+02  0.36820938365E+02  0.00000000000E+00 0. -1.
         11    1    4    4    0    0 -0.36332156715E+01  0.93330758018E+00 -0.17300692116E+01  0.41309150188E+01  0.51100000000E-03 0. -1.
        -11    1    4    4    0    0 -0.12060376942E+02 -0.19911070195E+02 -0.15930895365E+02  0.28208098760E+02  0.51100000000E-03 0.  1.
        -12    1    4    4    0    0  0.14495152910E+02 -0.15701891563E+02  0.53456557901E+01  0.22028047856E+02  0.00000000000E+00 0.  1.
</event>
<event>
 8    1  0.3011071E-007  0.9118800E+02  0.7816164E-02  0.1184000E+00
        -11   -1    0    0    0    0  0.00000000000E+00  0.00000000000E+00  0.45593999997E+02  0.45594000000E+02  0.51100000000E-03 0.  1.
         11   -1    0    0    0    0 -0.00000000000E+00 -0.00000000000E+00 -0.45593999997E+02  0.45594000000E+02  0.51100000000E-03 0. -1.
         23    2    1    2    0    0 -0.35527136788E-14  0.44408920985E-15  0.00000000000E+00  0.91188000000E+02  0.91188000000E+02 0.  0.
    9900012    2    3    3    0    0 -0.29719879460E+02 -0.38049970261E+01  0.21401652569E+02  0.54367082438E+02  0.39999996033E+02 0.  0.
         12    1    3    3    0    0  0.29719879460E+02  0.38049970261E+01 -0.21401652569E+02  0.36820917562E+02  0.00000000000E+00 0. -1.
         11    1    4    4    0    0 -0.24105782307E+01  0.47597516340E+01 -0.48347983054E+01  0.72000970784E+01  0.51100000000E-03 0.  1.
        -11    1    4    4    0    0 -0.47592195835E+00 -0.98808828630E+01  0.41003567011E+00  0.99008321556E+01  0.51100000000E-03 0. -1.
        -12    1    4    4    0    0 -0.26833379271E+02  0.13161342029E+01  0.25826415204E+02  0.37266153204E+02  0.00000000000E+00 0.  1.
</event>
<event>
 8    1  0.3011071E-007  0.9118800E+02  0.7816164E-02  0.1184000E+00
        -11   -1    0    0    0    0  0.00000000000E+00  0.00000000000E+00  0.45593999997E+02  0.45594000000E+02  0.51100000000E-03 0.  1.
         11   -1    0    0    0    0 -0.00000000000E+00 -0.00000000000E+00 -0.45593999997E+02  0.45594000000E+02  0.51100000000E-03 0. -1.
         23    2    1    2    0    0  0.00000000000E+00 -0.35527136788E-14 -0.35527136788E-14  0.91188000000E+02  0.91188000000E+02 0.  0.
    9900012    2    3    3    0    0  0.67730373619E+01  0.17344103958E+02  0.31766122648E+02  0.54367102058E+02  0.40000040761E+02 0.  0.
         12    1    3    3    0    0 -0.67730373619E+01 -0.17344103958E+02 -0.31766122648E+02  0.36820897942E+02  0.00000000000E+00 0. -1.
         11    1    4    4    0    0 -0.72332870584E+00  0.25429522236E+02  0.10352050764E+02  0.27465410261E+02  0.51100000000E-03 0. -1.
        -11    1    4    4    0    0 -0.20711507334E+01 -0.47968392414E+00  0.98463174758E+01  0.10073218459E+02  0.51100000000E-03 0.  1.
         12    1    4    4    0    0  0.95675168012E+01 -0.76057343539E+01  0.11567754409E+02  0.16828473337E+02  0.00000000000E+00 0. -1.
</event>
<event>
 8    1  0.3011071E-007  0.9118800E+02  0.7816164E-02  0.1184000E+00
        -11   -1    0    0    0    0  0.00000000000E+00  0.00000000000E+00  0.45593999997E+02  0.45594000000E+02  0.51100000000E-03 0.  1.
         11   -1    0    0    0    0 -0.00000000000E+00 -0.00000000000E+00 -0.45593999997E+02  0.45594000000E+02  0.51100000000E-03 0. -1.
         23    2    1    2    0    0  0.00000000000E+00  0.35527136788E-14  0.88817841970E-15  0.91188000000E+02  0.91188000000E+02 0.  0.
    9900012    2    3    3    0    0 -0.24235025124E+02 -0.27080134928E+02 -0.59253890268E+01  0.54367076796E+02  0.39999983172E+02 0.  0.
        -12    1    3    3    0    0  0.24235025124E+02  0.27080134928E+02  0.59253890268E+01  0.36820923204E+02  0.00000000000E+00 0.  1.
         11    1    4    4    0    0 -0.86472505742E+01 -0.18739411405E+02 -0.17998219260E+02  0.27383870783E+02  0.51100000000E-03 0. -1.
        -11    1    4    4    0    0 -0.57986972521E+01 -0.12238847791E+02  0.76651734600E+01  0.15561785550E+02  0.51100000000E-03 0.  1.
        -12    1    4    4    0    0 -0.97890772976E+01  0.38981242680E+01  0.44076567733E+01  0.11421420462E+02  0.00000000000E+00 0.  1.
</event>
<event>
 8    1  0.3011071E-007  0.9118800E+02  0.7816164E-02  0.1184000E+00
        -11   -1    0    0    0    0  0.00000000000E+00  0.00000000000E+00  0.45593999997E+02  0.45594000000E+02  0.51100000000E-03 0. -1.
         11   -1    0    0    0    0 -0.00000000000E+00 -0.00000000000E+00 -0.45593999997E+02  0.45594000000E+02  0.51100000000E-03 0.  1.
         23    2    1    2    0    0  0.71054273576E-14  0.17763568394E-14 -0.17763568394E-14  0.91188000000E+02  0.91188000000E+02 0.  0.
    9900012    2    3    3    0    0  0.33617157780E+02  0.13714616543E+02 -0.61299009832E+01  0.54367086239E+02  0.40000004700E+02 0.  0.
         12    1    3    3    0    0 -0.33617157780E+02 -0.13714616543E+02  0.61299009832E+01  0.36820913761E+02  0.00000000000E+00 0. -1.
         11    1    4    4    0    0  0.32277791732E+02  0.86913583179E+01  0.10817608417E+02  0.35134259643E+02  0.51100000000E-03 0. -1.
        -11    1    4    4    0    0  0.20834394366E+01  0.11547631347E+00 -0.12155543503E+02  0.12333340699E+02  0.51100000000E-03 0.  1.
        -12    1    4    4    0    0 -0.74407338894E+00  0.49077819118E+01 -0.47919658970E+01  0.68994858983E+01  0.00000000000E+00 0.  1.
</event>
<event>
 8    1  0.3011071E-007  0.9118800E+02  0.7816164E-02  0.1184000E+00
        -11   -1    0    0    0    0  0.00000000000E+00  0.00000000000E+00  0.45593999997E+02  0.45594000000E+02  0.51100000000E-03 0.  1.
         11   -1    0    0    0    0 -0.00000000000E+00 -0.00000000000E+00 -0.45593999997E+02  0.45594000000E+02  0.51100000000E-03 0. -1.
         23    2    1    2    0    0  0.66613381478E-15 -0.17763568394E-14  0.00000000000E+00  0.91188000000E+02  0.91188000000E+02 0.  0.
    9900012    2    3    3    0    0 -0.17935551553E+01 -0.12574453498E+02 -0.34560717939E+02  0.54367123513E+02  0.40000089672E+02 0.  0.
        -12    1    3    3    0    0  0.17935551553E+01  0.12574453498E+02  0.34560717939E+02  0.36820876487E+02  0.00000000000E+00 0.  1.
         11    1    4    4    0    0 -0.46872967670E+01 -0.18743516483E+01 -0.24351857574E+02  0.24869598160E+02  0.51100000000E-03 0. -1.
        -11    1    4    4    0    0 -0.16744300849E+01  0.67049763853E+01  0.26277376704E+01  0.73936073714E+01  0.51100000000E-03 0.  1.
        -12    1    4    4    0    0  0.45681716966E+01 -0.17405078235E+02 -0.12836598035E+02  0.22103917981E+02  0.00000000000E+00 0.  1.
</event>
<event>
 8    1  0.3011071E-007  0.9118800E+02  0.7816164E-02  0.1184000E+00
        -11   -1    0    0    0    0  0.00000000000E+00  0.00000000000E+00  0.45593999997E+02  0.45594000000E+02  0.51100000000E-03 0. -1.
         11   -1    0    0    0    0 -0.00000000000E+00 -0.00000000000E+00 -0.45593999997E+02  0.45594000000E+02  0.51100000000E-03 0.  1.
         23    2    1    2    0    0  0.71054273576E-14 -0.13322676296E-14  0.00000000000E+00  0.91188000000E+02  0.91188000000E+02 0.  0.
    9900012    2    3    3    0    0  0.34813308208E+02 -0.33520944378E+01 -0.11514205818E+02  0.54367083374E+02  0.39999998169E+02 0.  0.
         12    1    3    3    0    0 -0.34813308208E+02  0.33520944378E+01  0.11514205818E+02  0.36820916626E+02  0.00000000000E+00 0. -1.
         11    1    4    4    0    0  0.68038196431E+01  0.27867193106E+01 -0.18110947877E+02  0.19546462583E+02  0.51100000000E-03 0. -1.
        -11    1    4    4    0    0  0.25279528889E+02  0.22087098671E+01  0.42431847906E+01  0.25728147962E+02  0.51100000000E-03 0.  1.
        -12    1    4    4    0    0  0.27299596764E+01 -0.83475236156E+01  0.23535572682E+01  0.90924728299E+01  0.00000000000E+00 0.  1.
</event>
<event>
 8    1  0.3011071E-007  0.9118800E+02  0.7816164E-02  0.1184000E+00
        -11   -1    0    0    0    0  0.00000000000E+00  0.00000000000E+00  0.45593999997E+02  0.45594000000E+02  0.51100000000E-03 0.  1.
         11   -1    0    0    0    0 -0.00000000000E+00 -0.00000000000E+00 -0.45593999997E+02  0.45594000000E+02  0.51100000000E-03 0. -1.
         23    2    1    2    0    0  0.00000000000E+00  0.35527136788E-14  0.00000000000E+00  0.91188000000E+02  0.91188000000E+02 0.  0.
    9900012    2    3    3    0    0 -0.19250388567E+02  0.21796530456E+02  0.22585723107E+02  0.54367067256E+02  0.39999961423E+02 0.  0.
         12    1    3    3    0    0  0.19250388567E+02 -0.21796530456E+02 -0.22585723107E+02  0.36820932744E+02  0.00000000000E+00 0. -1.
         11    1    4    4    0    0  0.29335034409E+01  0.91820049713E+00  0.15289702802E+02  0.15595625881E+02  0.51100000000E-03 0. -1.
        -11    1    4    4    0    0 -0.46945108026E+01 -0.32581672638E+01  0.69038667016E+01  0.89620009645E+01  0.51100000000E-03 0.  1.
         12    1    4    4    0    0 -0.17489381205E+02  0.24136497222E+02  0.39215360334E+00  0.29809440410E+02  0.00000000000E+00 0. -1.
</event>
<event>
 8    1  0.3011071E-007  0.9118800E+02  0.7816164E-02  0.1184000E+00
        -11   -1    0    0    0    0  0.00000000000E+00  0.00000000000E+00  0.45593999997E+02  0.45594000000E+02  0.51100000000E-03 0. -1.
         11   -1    0    0    0    0 -0.00000000000E+00 -0.00000000000E+00 -0.45593999997E+02  0.45594000000E+02  0.51100000000E-03 0.  1.
         23    2    1    2    0    0 -0.35527136788E-14  0.00000000000E+00  0.71054273576E-14  0.91188000000E+02  0.91188000000E+02 0.  0.
    9900012    2    3    3    0    0 -0.23679667077E+02  0.41115167338E+01  0.27895280133E+02  0.54367111140E+02  0.40000061467E+02 0.  0.
        -12    1    3    3    0    0  0.23679667077E+02 -0.41115167338E+01 -0.27895280133E+02  0.36820888860E+02  0.00000000000E+00 0.  1.
         11    1    4    4    0    0 -0.24429048049E+01 -0.13702909287E+01 -0.44754181294E+01  0.52796637023E+01  0.51100000000E-03 0.  1.
        -11    1    4    4    0    0 -0.18719686863E+02 -0.14335700534E+01  0.36209354602E+02  0.40787242617E+02  0.51100000000E-03 0. -1.
         12    1    4    4    0    0 -0.25170754095E+01  0.69153777159E+01 -0.38386563403E+01  0.83002048209E+01  0.00000000000E+00 0. -1.
</event>
<event>
 8    1  0.3011071E-007  0.9118800E+02  0.7816164E-02  0.1184000E+00
        -11   -1    0    0    0    0  0.00000000000E+00  0.00000000000E+00  0.45593999997E+02  0.45594000000E+02  0.51100000000E-03 0.  1.
         11   -1    0    0    0    0 -0.00000000000E+00 -0.00000000000E+00 -0.45593999997E+02  0.45594000000E+02  0.51100000000E-03 0. -1.
         23    2    1    2    0    0  0.00000000000E+00  0.00000000000E+00  0.00000000000E+00  0.91188000000E+02  0.91188000000E+02 0.  0.
    9900012    2    3    3    0    0 -0.31173420762E+02 -0.32035754158E+01 -0.19332194611E+02  0.54367098247E+02  0.40000032074E+02 0.  0.
        -12    1    3    3    0    0  0.31173420762E+02  0.32035754158E+01  0.19332194611E+02  0.36820901753E+02  0.00000000000E+00 0.  1.
         11    1    4    4    0    0 -0.39819507986E+01  0.85537630853E+01  0.70802333747E+01  0.11796291790E+02  0.51100000000E-03 0.  1.
        -11    1    4    4    0    0 -0.87196108356E+01 -0.63642664173E+01 -0.19188141122E+02  0.22016363463E+02  0.51100000000E-03 0. -1.
        -12    1    4    4    0    0 -0.18471859127E+02 -0.53930720838E+01 -0.72242868631E+01  0.20554442994E+02  0.00000000000E+00 0.  1.
</event>
<event>
 8    1  0.3011071E-007  0.9118800E+02  0.7816164E-02  0.1184000E+00
        -11   -1    0    0    0    0  0.00000000000E+00  0.00000000000E+00  0.45593999997E+02  0.45594000000E+02  0.51100000000E-03 0.  1.
         11   -1    0    0    0    0 -0.00000000000E+00 -0.00000000000E+00 -0.45593999997E+02  0.45594000000E+02  0.51100000000E-03 0. -1.
         23    2    1    2    0    0  0.13322676296E-14  0.35527136788E-14  0.00000000000E+00  0.91188000000E+02  0.91188000000E+02 0.  0.
    9900012    2    3    3    0    0 -0.18343272330E+01  0.29713841306E+02  0.21668037248E+02  0.54367069000E+02  0.39999965399E+02 0.  0.
         12    1    3    3    0    0  0.18343272330E+01 -0.29713841306E+02 -0.21668037248E+02  0.36820931000E+02  0.00000000000E+00 0. -1.
         11    1    4    4    0    0 -0.57337493619E+01  0.83446532710E+01 -0.49226001571E+01  0.11257935536E+02  0.51100000000E-03 0. -1.
        -11    1    4    4    0    0 -0.41487933356E+01  0.22736901904E+02  0.26198331369E+02  0.34936109702E+02  0.51100000000E-03 0.  1.
         12    1    4    4    0    0  0.80482154644E+01 -0.13677138688E+01  0.39230603608E+00  0.81730237620E+01  0.00000000000E+00 0. -1.
</event>
<event>
 8    1  0.3011071E-007  0.9118800E+02  0.7816164E-02  0.1184000E+00
        -11   -1    0    0    0    0  0.00000000000E+00  0.00000000000E+00  0.45593999997E+02  0.45594000000E+02  0.51100000000E-03 0. -1.
         11   -1    0    0    0    0 -0.00000000000E+00 -0.00000000000E+00 -0.45593999997E+02  0.45594000000E+02  0.51100000000E-03 0.  1.
         23    2    1    2    0    0  0.00000000000E+00  0.00000000000E+00  0.17763568394E-14  0.91188000000E+02  0.91188000000E+02 0.  0.
    9900012    2    3    3    0    0  0.12247560364E+02  0.32885547363E+02 -0.11149819902E+02  0.54367076002E+02  0.39999981361E+02 0.  0.
         12    1    3    3    0    0 -0.12247560364E+02 -0.32885547363E+02  0.11149819902E+02  0.36820923998E+02  0.00000000000E+00 0. -1.
         11    1    4    4    0    0  0.38718509909E+01  0.10917493237E+02 -0.23527838698E+02  0.26224837134E+02  0.51100000000E-03 0.  1.
        -11    1    4    4    0    0  0.39767709610E+01  0.12669676060E+02  0.18226431665E+01  0.13403634847E+02  0.51100000000E-03 0. -1.
        -12    1    4    4    0    0  0.43989384126E+01  0.92983780654E+01  0.10555375629E+02  0.14738604020E+02  0.00000000000E+00 0.  1.
</event>
<event>
 8    1  0.3011071E-007  0.9118800E+02  0.7816164E-02  0.1184000E+00
        -11   -1    0    0    0    0  0.00000000000E+00  0.00000000000E+00  0.45593999997E+02  0.45594000000E+02  0.51100000000E-03 0.  1.
         11   -1    0    0    0    0 -0.00000000000E+00 -0.00000000000E+00 -0.45593999997E+02  0.45594000000E+02  0.51100000000E-03 0. -1.
         23    2    1    2    0    0  0.00000000000E+00 -0.17763568394E-14 -0.35527136788E-14  0.91188000000E+02  0.91188000000E+02 0.  0.
    9900012    2    3    3    0    0  0.18117439778E+02 -0.13064161292E+02 -0.29272270999E+02  0.54367084968E+02  0.40000001801E+02 0.  0.
        -12    1    3    3    0    0 -0.18117439778E+02  0.13064161292E+02  0.29272270999E+02  0.36820915032E+02  0.00000000000E+00 0.  1.
         11    1    4    4    0    0 -0.41477971010E+01 -0.17468056605E+01 -0.43433640692E+01  0.62546272874E+01  0.51100000000E-03 0. -1.
        -11    1    4    4    0    0 -0.77463046667E+01  0.24511853394E+01 -0.52628412584E+01  0.96804464737E+01  0.51100000000E-03 0.  1.
         12    1    4    4    0    0  0.30011541545E+02 -0.13768540971E+02 -0.19666065671E+02  0.38432011207E+02  0.00000000000E+00 0. -1.
</event>
<event>
 8    1  0.3011071E-007  0.9118800E+02  0.7816164E-02  0.1184000E+00
        -11   -1    0    0    0    0  0.00000000000E+00  0.00000000000E+00  0.45593999997E+02  0.45594000000E+02  0.51100000000E-03 0.  1.
         11   -1    0    0    0    0 -0.00000000000E+00 -0.00000000000E+00 -0.45593999997E+02  0.45594000000E+02  0.51100000000E-03 0. -1.
         23    2    1    2    0    0  0.17763568394E-14 -0.35527136788E-14  0.35527136788E-14  0.91188000000E+02  0.91188000000E+02 0.  0.
    9900012    2    3    3    0    0 -0.10870307082E+02  0.20824669403E+02  0.28353982736E+02  0.54367098751E+02  0.40000033222E+02 0.  0.
         12    1    3    3    0    0  0.10870307082E+02 -0.20824669403E+02 -0.28353982736E+02  0.36820901249E+02  0.00000000000E+00 0. -1.
         11    1    4    4    0    0 -0.23848012255E+01  0.21012234509E+02  0.32415656025E+02  0.38703695324E+02  0.51100000000E-03 0. -1.
        -11    1    4    4    0    0  0.92758418206E+00 -0.35443888823E+01 -0.43224519177E+01  0.56662770675E+01  0.51100000000E-03 0.  1.
         12    1    4    4    0    0 -0.94130900386E+01  0.33568237763E+01  0.26077862879E+00  0.99971263587E+01  0.00000000000E+00 0. -1.
</event>
<event>
 8    1  0.3011071E-007  0.9118800E+02  0.7816164E-02  0.1184000E+00
        -11   -1    0    0    0    0  0.00000000000E+00  0.00000000000E+00  0.45593999997E+02  0.45594000000E+02  0.51100000000E-03 0.  1.
         11   -1    0    0    0    0 -0.00000000000E+00 -0.00000000000E+00 -0.45593999997E+02  0.45594000000E+02  0.51100000000E-03 0. -1.
         23    2    1    2    0    0 -0.17763568394E-14  0.00000000000E+00  0.00000000000E+00  0.91188000000E+02  0.91188000000E+02 0.  0.
    9900012    2    3    3    0    0  0.10537454090E+02  0.19045998294E+02 -0.29698350986E+02  0.54367081476E+02  0.39999993840E+02 0.  0.
        -12    1    3    3    0    0 -0.10537454090E+02 -0.19045998294E+02  0.29698350986E+02  0.36820918524E+02  0.00000000000E+00 0.  1.
         11    1    4    4    0    0 -0.98281726326E+00 -0.53883093348E+01  0.11999812120E+01  0.56071171230E+01  0.51100000000E-03 0. -1.
        -11    1    4    4    0    0  0.23010666816E+01  0.13896323010E+02  0.79872597432E+00  0.14108177222E+02  0.51100000000E-03 0.  1.
         12    1    4    4    0    0  0.92192046713E+01  0.10537984619E+02 -0.31697058172E+02  0.34651787131E+02  0.00000000000E+00 0. -1.
</event>
<event>
 8    1  0.3011071E-007  0.9118800E+02  0.7816164E-02  0.1184000E+00
        -11   -1    0    0    0    0  0.00000000000E+00  0.00000000000E+00  0.45593999997E+02  0.45594000000E+02  0.51100000000E-03 0.  1.
         11   -1    0    0    0    0 -0.00000000000E+00 -0.00000000000E+00 -0.45593999997E+02  0.45594000000E+02  0.51100000000E-03 0. -1.
         23    2    1    2    0    0  0.00000000000E+00 -0.17763568394E-14  0.35527136788E-14  0.91188000000E+02  0.91188000000E+02 0.  0.
    9900012    2    3    3    0    0 -0.28656865457E+02 -0.10607736491E+02  0.20543556258E+02  0.54367113060E+02  0.40000065844E+02 0.  0.
         12    1    3    3    0    0  0.28656865457E+02  0.10607736491E+02 -0.20543556258E+02  0.36820886940E+02  0.00000000000E+00 0. -1.
         11    1    4    4    0    0 -0.10503588047E+02 -0.18840994361E+01 -0.63186703025E+01  0.12401644536E+02  0.51100000000E-03 0. -1.
        -11    1    4    4    0    0 -0.22390219866E+02 -0.13215049644E+02  0.20599000077E+02  0.33170442975E+02  0.51100000000E-03 0.  1.
         12    1    4    4    0    0  0.42369424560E+01  0.44914125890E+01  0.62632264838E+01  0.87950255490E+01  0.00000000000E+00 0. -1.
</event>
<event>
 8    1  0.3011071E-007  0.9118800E+02  0.7816164E-02  0.1184000E+00
        -11   -1    0    0    0    0  0.00000000000E+00  0.00000000000E+00  0.45593999997E+02  0.45594000000E+02  0.51100000000E-03 0. -1.
         11   -1    0    0    0    0 -0.00000000000E+00 -0.00000000000E+00 -0.45593999997E+02  0.45594000000E+02  0.51100000000E-03 0.  1.
         23    2    1    2    0    0  0.55511151231E-15  0.00000000000E+00  0.71054273576E-14  0.91188000000E+02  0.91188000000E+02 0.  0.
    9900012    2    3    3    0    0 -0.86671454644E+00  0.11443191957E+02  0.34986874750E+02  0.54367092339E+02  0.40000018604E+02 0.  0.
        -12    1    3    3    0    0  0.86671454644E+00 -0.11443191957E+02 -0.34986874750E+02  0.36820907661E+02  0.00000000000E+00 0.  1.
         11    1    4    4    0    0  0.92666554996E+01  0.78569679005E+01  0.10856586675E+02  0.16293198680E+02  0.51100000000E-03 0. -1.
        -11    1    4    4    0    0  0.12921777541E+01 -0.98219738433E+01  0.15652456084E+02  0.18524045866E+02  0.51100000000E-03 0.  1.
        -12    1    4    4    0    0 -0.11425547800E+02  0.13408197900E+02  0.84778319906E+01  0.19549847792E+02  0.00000000000E+00 0.  1.
</event>
<event>
 8    1  0.3011071E-007  0.9118800E+02  0.7816164E-02  0.1184000E+00
        -11   -1    0    0    0    0  0.00000000000E+00  0.00000000000E+00  0.45593999997E+02  0.45594000000E+02  0.51100000000E-03 0. -1.
         11   -1    0    0    0    0 -0.00000000000E+00 -0.00000000000E+00 -0.45593999997E+02  0.45594000000E+02  0.51100000000E-03 0.  1.
         23    2    1    2    0    0  0.00000000000E+00  0.00000000000E+00 -0.88817841970E-15  0.91188000000E+02  0.91188000000E+02 0.  0.
    9900012    2    3    3    0    0  0.17298792583E+02  0.32360638431E+02 -0.30529529623E+01  0.54367086564E+02  0.40000005440E+02 0.  0.
        -12    1    3    3    0    0 -0.17298792583E+02 -0.32360638431E+02  0.30529529623E+01  0.36820913436E+02  0.00000000000E+00 0.  1.
         11    1    4    4    0    0 -0.26899402406E+01  0.28252981123E+02  0.67369963184E+00  0.28388740590E+02  0.51100000000E-03 0. -1.
        -11    1    4    4    0    0  0.51012445061E+01  0.24094362875E+00 -0.84627426312E+01  0.98842684325E+01  0.51100000000E-03 0.  1.
         12    1    4    4    0    0  0.14887488317E+02  0.38667136786E+01  0.47360900371E+01  0.16094077541E+02  0.00000000000E+00 0. -1.
</event>
<event>
 8    1  0.3011071E-007  0.9118800E+02  0.7816164E-02  0.1184000E+00
        -11   -1    0    0    0    0  0.00000000000E+00  0.00000000000E+00  0.45593999997E+02  0.45594000000E+02  0.51100000000E-03 0.  1.
         11   -1    0    0    0    0 -0.00000000000E+00 -0.00000000000E+00 -0.45593999997E+02  0.45594000000E+02  0.51100000000E-03 0. -1.
         23    2    1    2    0    0 -0.35527136788E-14  0.00000000000E+00  0.35527136788E-14  0.91188000000E+02  0.91188000000E+02 0.  0.
    9900012    2    3    3    0    0  0.22054711370E+02  0.28717136069E+02 -0.66856341263E+01  0.54367056214E+02  0.39999936252E+02 0.  0.
        -12    1    3    3    0    0 -0.22054711370E+02 -0.28717136069E+02  0.66856341263E+01  0.36820943786E+02  0.00000000000E+00 0.  1.
         11    1    4    4    0    0  0.10920837568E+01 -0.25865413985E+01 -0.29580690310E+00  0.28231800019E+01  0.51100000000E-03 0.  1.
        -11    1    4    4    0    0  0.37545234403E+01  0.12577389156E+02 -0.19050539490E+02  0.23134610854E+02  0.51100000000E-03 0. -1.
        -12    1    4    4    0    0  0.17208104173E+02  0.18726288311E+02  0.12660712266E+02  0.28409265359E+02  0.00000000000E+00 0.  1.
</event>
<event>
 8    1  0.3011071E-007  0.9118800E+02  0.7816164E-02  0.1184000E+00
        -11   -1    0    0    0    0  0.00000000000E+00  0.00000000000E+00  0.45593999997E+02  0.45594000000E+02  0.51100000000E-03 0.  1.
         11   -1    0    0    0    0 -0.00000000000E+00 -0.00000000000E+00 -0.45593999997E+02  0.45594000000E+02  0.51100000000E-03 0. -1.
         23    2    1    2    0    0  0.00000000000E+00  0.00000000000E+00 -0.35527136788E-14  0.91188000000E+02  0.91188000000E+02 0.  0.
    9900012    2    3    3    0    0 -0.11121733077E+02  0.14469559845E+02  0.31979925973E+02  0.54367125839E+02  0.40000094976E+02 0.  0.
         12    1    3    3    0    0  0.11121733077E+02 -0.14469559845E+02 -0.31979925973E+02  0.36820874161E+02  0.00000000000E+00 0. -1.
         11    1    4    4    0    0 -0.95314377394E+01  0.10008256745E+02  0.10983530551E+02  0.17653652656E+02  0.51100000000E-03 0. -1.
        -11    1    4    4    0    0  0.39989525968E+01  0.13095197200E+02  0.22480303589E+02  0.26321851403E+02  0.51100000000E-03 0.  1.
         12    1    4    4    0    0 -0.55892479342E+01 -0.86338940995E+01 -0.14839081673E+01  0.10391621781E+02  0.00000000000E+00 0. -1.
</event>
<event>
 8    1  0.3011071E-007  0.9118800E+02  0.7816164E-02  0.1184000E+00
        -11   -1    0    0    0    0  0.00000000000E+00  0.00000000000E+00  0.45593999997E+02  0.45594000000E+02  0.51100000000E-03 0.  1.
         11   -1    0    0    0    0 -0.00000000000E+00 -0.00000000000E+00 -0.45593999997E+02  0.45594000000E+02  0.51100000000E-03 0. -1.
         23    2    1    2    0    0  0.35527136788E-14  0.71054273576E-14 -0.17763568394E-14  0.91188000000E+02  0.91188000000E+02 0.  0.
    9900012    2    3    3    0    0  0.88023480242E+01  0.33643660956E+02 -0.12099642914E+02  0.54367100881E+02  0.40000038078E+02 0.  0.
        -12    1    3    3    0    0 -0.88023480242E+01 -0.33643660956E+02  0.12099642914E+02  0.36820899119E+02  0.00000000000E+00 0.  1.
         11    1    4    4    0    0  0.81389666378E+01  0.17772772826E+02 -0.83636114845E+01  0.21261802115E+02  0.51100000000E-03 0.  1.
        -11    1    4    4    0    0  0.10173451263E+02  0.15287992117E+01 -0.10421262090E+02  0.14643737277E+02  0.51100000000E-03 0. -1.
        -12    1    4    4    0    0 -0.95100698770E+01  0.14342088919E+02  0.66852306599E+01  0.18461561489E+02  0.00000000000E+00 0.  1.
</event>
<event>
 8    1  0.3011071E-007  0.9118800E+02  0.7816164E-02  0.1184000E+00
        -11   -1    0    0    0    0  0.00000000000E+00  0.00000000000E+00  0.45593999997E+02  0.45594000000E+02  0.51100000000E-03 0. -1.
         11   -1    0    0    0    0 -0.00000000000E+00 -0.00000000000E+00 -0.45593999997E+02  0.45594000000E+02  0.51100000000E-03 0.  1.
         23    2    1    2    0    0 -0.90379093098E-15  0.00000000000E+00 -0.71054273576E-14  0.91188000000E+02  0.91188000000E+02 0.  0.
    9900012    2    3    3    0    0  0.11202402119E-01 -0.13812233880E+02  0.34132111129E+02  0.54367096420E+02  0.40000027910E+02 0.  0.
        -12    1    3    3    0    0 -0.11202402119E-01  0.13812233880E+02 -0.34132111129E+02  0.36820903580E+02  0.00000000000E+00 0.  1.
         11    1    4    4    0    0  0.12670511064E+02 -0.58861940375E+01  0.43219502102E+01  0.14624239630E+02  0.51100000000E-03 0.  1.
        -11    1    4    4    0    0 -0.13365068620E+02 -0.64177533295E+01  0.61937841526E+01  0.16067843023E+02  0.51100000000E-03 0. -1.
        -12    1    4    4    0    0  0.70575995817E+00 -0.15082865134E+01  0.23616376767E+02  0.23675013768E+02  0.00000000000E+00 0.  1.
</event>
<event>
 8    1  0.3011071E-007  0.9118800E+02  0.7816164E-02  0.1184000E+00
        -11   -1    0    0    0    0  0.00000000000E+00  0.00000000000E+00  0.45593999997E+02  0.45594000000E+02  0.51100000000E-03 0.  1.
         11   -1    0    0    0    0 -0.00000000000E+00 -0.00000000000E+00 -0.45593999997E+02  0.45594000000E+02  0.51100000000E-03 0. -1.
         23    2    1    2    0    0  0.88817841970E-15 -0.17763568394E-14  0.71054273576E-14  0.91188000000E+02  0.91188000000E+02 0.  0.
    9900012    2    3    3    0    0  0.51489186521E+01 -0.86307280175E+01  0.35422869164E+02  0.54367075389E+02  0.39999979965E+02 0.  0.
         12    1    3    3    0    0 -0.51489186521E+01  0.86307280175E+01 -0.35422869164E+02  0.36820924611E+02  0.00000000000E+00 0. -1.
         11    1    4    4    0    0  0.70769060226E+01 -0.14841325507E+02  0.47397619229E+01  0.17111776208E+02  0.51100000000E-03 0. -1.
        -11    1    4    4    0    0  0.86073350860E+01  0.21327160476E+01  0.19189350966E+02  0.21139202582E+02  0.51100000000E-03 0.  1.
        -12    1    4    4    0    0 -0.10535322456E+02  0.40778814415E+01  0.11493756274E+02  0.16116096599E+02  0.00000000000E+00 0.  1.
</event>
<event>
 8    1  0.3011071E-007  0.9118800E+02  0.7816164E-02  0.1184000E+00
        -11   -1    0    0    0    0  0.00000000000E+00  0.00000000000E+00  0.45593999997E+02  0.45594000000E+02  0.51100000000E-03 0. -1.
         11   -1    0    0    0    0 -0.00000000000E+00 -0.00000000000E+00 -0.45593999997E+02  0.45594000000E+02  0.51100000000E-03 0.  1.
         23    2    1    2    0    0  0.00000000000E+00  0.35527136788E-14  0.00000000000E+00  0.91188000000E+02  0.91188000000E+02 0.  0.
    9900012    2    3    3    0    0 -0.22652980768E+02 -0.19975236735E+02  0.21062112698E+02  0.54367079159E+02  0.39999988558E+02 0.  0.
        -12    1    3    3    0    0  0.22652980768E+02  0.19975236735E+02 -0.21062112698E+02  0.36820920841E+02  0.00000000000E+00 0.  1.
         11    1    4    4    0    0 -0.10978943675E+02 -0.12593559535E+02  0.61842359093E+01  0.17815154223E+02  0.51100000000E-03 0. -1.
        -11    1    4    4    0    0 -0.73404509413E+01 -0.58883669841E+01  0.24308479504E+02  0.26066401014E+02  0.51100000000E-03 0.  1.
        -12    1    4    4    0    0 -0.43335861521E+01 -0.14933102162E+01 -0.94306027149E+01  0.10485523921E+02  0.00000000000E+00 0.  1.
</event>
<event>
 8    1  0.3011071E-007  0.9118800E+02  0.7816164E-02  0.1184000E+00
        -11   -1    0    0    0    0  0.00000000000E+00  0.00000000000E+00  0.45593999997E+02  0.45594000000E+02  0.51100000000E-03 0.  1.
         11   -1    0    0    0    0 -0.00000000000E+00 -0.00000000000E+00 -0.45593999997E+02  0.45594000000E+02  0.51100000000E-03 0. -1.
         23    2    1    2    0    0  0.00000000000E+00  0.00000000000E+00 -0.35527136788E-14  0.91188000000E+02  0.91188000000E+02 0.  0.
    9900012    2    3    3    0    0 -0.10776222432E+02 -0.26076679055E+02 -0.23657215434E+02  0.54367027681E+02  0.39999871204E+02 0.  0.
        -12    1    3    3    0    0  0.10776222432E+02  0.26076679055E+02  0.23657215434E+02  0.36820972319E+02  0.00000000000E+00 0.  1.
         11    1    4    4    0    0 -0.10830407949E+00 -0.26990350862E+02 -0.17337188502E+02  0.32079103398E+02  0.51100000000E-03 0. -1.
        -11    1    4    4    0    0 -0.79430776588E+00  0.48230214308E+01 -0.99331769333E+01  0.11070702995E+02  0.51100000000E-03 0.  1.
         12    1    4    4    0    0 -0.98736105865E+01 -0.39093496236E+01  0.36131500013E+01  0.11217221288E+02  0.00000000000E+00 0. -1.
</event>
<event>
 8    1  0.3011071E-007  0.9118800E+02  0.7816164E-02  0.1184000E+00
        -11   -1    0    0    0    0  0.00000000000E+00  0.00000000000E+00  0.45593999997E+02  0.45594000000E+02  0.51100000000E-03 0.  1.
         11   -1    0    0    0    0 -0.00000000000E+00 -0.00000000000E+00 -0.45593999997E+02  0.45594000000E+02  0.51100000000E-03 0. -1.
         23    2    1    2    0    0  0.00000000000E+00  0.00000000000E+00  0.00000000000E+00  0.91188000000E+02  0.91188000000E+02 0.  0.
    9900012    2    3    3    0    0 -0.65878671183E+01  0.35093362136E+02  0.89908742945E+01  0.54367083665E+02  0.39999998831E+02 0.  0.
         12    1    3    3    0    0  0.65878671183E+01 -0.35093362136E+02 -0.89908742945E+01  0.36820916335E+02  0.00000000000E+00 0. -1.
         11    1    4    4    0    0 -0.12202571226E+02 -0.69141296627E-01 -0.78355848703E+01  0.14501859038E+02  0.51100000000E-03 0. -1.
        -11    1    4    4    0    0  0.29205785752E+00  0.20989023006E+02  0.10216092373E+02  0.23345083598E+02  0.51100000000E-03 0.  1.
         12    1    4    4    0    0  0.53226462500E+01  0.14173480426E+02  0.66103667919E+01  0.16520141029E+02  0.00000000000E+00 0. -1.
</event>
<event>
 8    1  0.3011071E-007  0.9118800E+02  0.7816164E-02  0.1184000E+00
        -11   -1    0    0    0    0  0.00000000000E+00  0.00000000000E+00  0.45593999997E+02  0.45594000000E+02  0.51100000000E-03 0. -1.
         11   -1    0    0    0    0 -0.00000000000E+00 -0.00000000000E+00 -0.45593999997E+02  0.45594000000E+02  0.51100000000E-03 0.  1.
         23    2    1    2    0    0  0.88817841970E-15  0.00000000000E+00 -0.35527136788E-14  0.91188000000E+02  0.91188000000E+02 0.  0.
    9900012    2    3    3    0    0 -0.77905409183E+01  0.31810105686E+02  0.16828725281E+02  0.54367063752E+02  0.39999953436E+02 0.  0.
         12    1    3    3    0    0  0.77905409183E+01 -0.31810105686E+02 -0.16828725281E+02  0.36820936248E+02  0.00000000000E+00 0. -1.
         11    1    4    4    0    0 -0.56706921986E+01  0.20854951897E+02  0.19446632888E+02  0.29073309058E+02  0.51100000000E-03 0. -1.
        -11    1    4    4    0    0 -0.80476004379E+00  0.66069807400E+01  0.99269446348E+01  0.11951738922E+02  0.51100000000E-03 0.  1.
        -12    1    4    4    0    0 -0.13150886759E+01  0.43481730498E+01 -0.12544852242E+02  0.13342015772E+02  0.00000000000E+00 0.  1.
</event>
<event>
 8    1  0.3011071E-007  0.9118800E+02  0.7816164E-02  0.1184000E+00
        -11   -1    0    0    0    0  0.00000000000E+00  0.00000000000E+00  0.45593999997E+02  0.45594000000E+02  0.51100000000E-03 0.  1.
         11   -1    0    0    0    0 -0.00000000000E+00 -0.00000000000E+00 -0.45593999997E+02  0.45594000000E+02  0.51100000000E-03 0. -1.
         23    2    1    2    0    0  0.00000000000E+00  0.00000000000E+00  0.00000000000E+00  0.91188000000E+02  0.91188000000E+02 0.  0.
    9900012    2    3    3    0    0  0.35662581044E+01 -0.31862733188E+02  0.18105991220E+02  0.54367097226E+02  0.40000029745E+02 0.  0.
         12    1    3    3    0    0 -0.35662581044E+01  0.31862733188E+02 -0.18105991220E+02  0.36820902774E+02  0.00000000000E+00 0. -1.
         11    1    4    4    0    0  0.11197883591E+02 -0.10294103988E+02  0.16466437786E+02  0.22416617663E+02  0.51100000000E-03 0. -1.
        -11    1    4    4    0    0  0.73241317755E+01 -0.47279124877E+01 -0.24587450816E+01  0.90576757722E+01  0.51100000000E-03 0.  1.
        -12    1    4    4    0    0 -0.14955757262E+02 -0.16840716712E+02  0.40982985159E+01  0.22892803791E+02  0.00000000000E+00 0.  1.
</event>
<event>
 8    1  0.3011071E-007  0.9118800E+02  0.7816164E-02  0.1184000E+00
        -11   -1    0    0    0    0  0.00000000000E+00  0.00000000000E+00  0.45593999997E+02  0.45594000000E+02  0.51100000000E-03 0.  1.
         11   -1    0    0    0    0 -0.00000000000E+00 -0.00000000000E+00 -0.45593999997E+02  0.45594000000E+02  0.51100000000E-03 0. -1.
         23    2    1    2    0    0  0.13877787808E-15  0.00000000000E+00  0.88817841970E-15  0.91188000000E+02  0.91188000000E+02 0.  0.
    9900012    2    3    3    0    0 -0.13958372055E+00 -0.36811532859E+02 -0.81987044722E+00  0.54367073578E+02  0.39999975835E+02 0.  0.
        -12    1    3    3    0    0  0.13958372055E+00  0.36811532859E+02  0.81987044722E+00  0.36820926422E+02  0.00000000000E+00 0.  1.
         11    1    4    4    0    0  0.31081473789E+01 -0.63269688960E+01 -0.11263645876E+02  0.13287619585E+02  0.51100000000E-03 0.  1.
        -11    1    4    4    0    0 -0.33928595794E+01 -0.32236914884E+02  0.15351385396E+02  0.35866352075E+02  0.51100000000E-03 0. -1.
         12    1    4    4    0    0  0.14512847989E+00  0.17523509208E+01 -0.49076099665E+01  0.52131019181E+01  0.00000000000E+00 0. -1.
</event>
<event>
 8    1  0.3011071E-007  0.9118800E+02  0.7816164E-02  0.1184000E+00
        -11   -1    0    0    0    0  0.00000000000E+00  0.00000000000E+00  0.45593999997E+02  0.45594000000E+02  0.51100000000E-03 0. -1.
         11   -1    0    0    0    0 -0.00000000000E+00 -0.00000000000E+00 -0.45593999997E+02  0.45594000000E+02  0.51100000000E-03 0.  1.
         23    2    1    2    0    0  0.00000000000E+00  0.00000000000E+00  0.00000000000E+00  0.91188000000E+02  0.91188000000E+02 0.  0.
    9900012    2    3    3    0    0  0.13093603689E+02 -0.10329578220E+02 -0.32827396368E+02  0.54367073938E+02  0.39999976656E+02 0.  0.
         12    1    3    3    0    0 -0.13093603689E+02  0.10329578220E+02  0.32827396368E+02  0.36820926062E+02  0.00000000000E+00 0. -1.
         11    1    4    4    0    0  0.26028712547E+02 -0.11434124615E+01 -0.22008328386E+02  0.34105245748E+02  0.51100000000E-03 0. -1.
        -11    1    4    4    0    0 -0.83281917127E+01 -0.90647961943E+01 -0.92345958012E+01  0.15388536874E+02  0.51100000000E-03 0.  1.
         12    1    4    4    0    0 -0.46069171460E+01 -0.12136956428E+00 -0.15844721812E+01  0.48732913163E+01  0.00000000000E+00 0. -1.
</event>
<event>
 8    1  0.3011071E-007  0.9118800E+02  0.7816164E-02  0.1184000E+00
        -11   -1    0    0    0    0  0.00000000000E+00  0.00000000000E+00  0.45593999997E+02  0.45594000000E+02  0.51100000000E-03 0.  1.
         11   -1    0    0    0    0 -0.00000000000E+00 -0.00000000000E+00 -0.45593999997E+02  0.45594000000E+02  0.51100000000E-03 0. -1.
         23    2    1    2    0    0  0.00000000000E+00  0.00000000000E+00  0.71054273576E-14  0.91188000000E+02  0.91188000000E+02 0.  0.
    9900012    2    3    3    0    0 -0.42652224978E+01  0.21384024354E+02 -0.29670049882E+02  0.54367075507E+02  0.39999980232E+02 0.  0.
        -12    1    3    3    0    0  0.42652224978E+01 -0.21384024354E+02  0.29670049882E+02  0.36820924493E+02  0.00000000000E+00 0.  1.
         11    1    4    4    0    0 -0.24136172892E+01  0.19358134592E+01  0.58499288685E+01  0.66177481212E+01  0.51100000000E-03 0. -1.
        -11    1    4    4    0    0 -0.14856640712E+01  0.68379185843E+01  0.27006162417E+01  0.75005104256E+01  0.51100000000E-03 0.  1.
         12    1    4    4    0    0 -0.36594113742E+00  0.12610292310E+02 -0.38220594993E+02  0.40248816960E+02  0.00000000000E+00 0. -1.
</event>
<event>
 8    1  0.3011071E-007  0.9118800E+02  0.7816164E-02  0.1184000E+00
        -11   -1    0    0    0    0  0.00000000000E+00  0.00000000000E+00  0.45593999997E+02  0.45594000000E+02  0.51100000000E-03 0.  1.
         11   -1    0    0    0    0 -0.00000000000E+00 -0.00000000000E+00 -0.45593999997E+02  0.45594000000E+02  0.51100000000E-03 0. -1.
         23    2    1    2    0    0 -0.35527136788E-14  0.35527136788E-14  0.17763568394E-14  0.91188000000E+02  0.91188000000E+02 0.  0.
    9900012    2    3    3    0    0 -0.24475259526E+02  0.26890023943E+02 -0.58025060585E+01  0.54367071263E+02  0.39999970559E+02 0.  0.
        -12    1    3    3    0    0  0.24475259526E+02 -0.26890023943E+02  0.58025060585E+01  0.36820928737E+02  0.00000000000E+00 0.  1.
         11    1    4    4    0    0  0.32095873261E+01 -0.26470582998E+01 -0.10332489613E+02  0.11138613482E+02  0.51100000000E-03 0.  1.
        -11    1    4    4    0    0 -0.25954990245E+02  0.27653071830E+02 -0.11503149223E+00  0.37925810904E+02  0.51100000000E-03 0. -1.
         12    1    4    4    0    0 -0.17298566064E+01  0.18840104128E+01  0.46450150467E+01  0.53026468766E+01  0.00000000000E+00 0. -1.
</event>
<event>
 8    1  0.3011071E-007  0.9118800E+02  0.7816164E-02  0.1184000E+00
        -11   -1    0    0    0    0  0.00000000000E+00  0.00000000000E+00  0.45593999997E+02  0.45594000000E+02  0.51100000000E-03 0. -1.
         11   -1    0    0    0    0 -0.00000000000E+00 -0.00000000000E+00 -0.45593999997E+02  0.45594000000E+02  0.51100000000E-03 0.  1.
         23    2    1    2    0    0  0.11102230246E-15  0.35527136788E-14  0.00000000000E+00  0.91188000000E+02  0.91188000000E+02 0.  0.
    9900012    2    3    3    0    0  0.68960338191E+00  0.29475467677E+02 -0.22056680101E+02  0.54367137915E+02  0.40000122504E+02 0.  0.
         12    1    3    3    0    0 -0.68960338191E+00 -0.29475467677E+02  0.22056680101E+02  0.36820862085E+02  0.00000000000E+00 0. -1.
         11    1    4    4    0    0 -0.80379909891E+00  0.16488477976E+02 -0.74056498546E+01  0.18093082905E+02  0.51100000000E-03 0. -1.
        -11    1    4    4    0    0 -0.13579088073E+02  0.26910514430E+01 -0.18203624831E+01  0.13962346170E+02  0.51100000000E-03 0.  1.
        -12    1    4    4    0    0  0.15072490553E+02  0.10295938258E+02 -0.12830667763E+02  0.22311708840E+02  0.00000000000E+00 0.  1.
</event>
<event>
 8    1  0.3011071E-007  0.9118800E+02  0.7816164E-02  0.1184000E+00
        -11   -1    0    0    0    0  0.00000000000E+00  0.00000000000E+00  0.45593999997E+02  0.45594000000E+02  0.51100000000E-03 0.  1.
         11   -1    0    0    0    0 -0.00000000000E+00 -0.00000000000E+00 -0.45593999997E+02  0.45594000000E+02  0.51100000000E-03 0. -1.
         23    2    1    2    0    0  0.26645352591E-14  0.00000000000E+00  0.00000000000E+00  0.91188000000E+02  0.91188000000E+02 0.  0.
    9900012    2    3    3    0    0 -0.62409970941E+01  0.34774172323E+02  0.10372409186E+02  0.54367082333E+02  0.39999995795E+02 0.  0.
         12    1    3    3    0    0  0.62409970941E+01 -0.34774172323E+02 -0.10372409186E+02  0.36820917667E+02  0.00000000000E+00 0. -1.
         11    1    4    4    0    0  0.10268467264E+02  0.19327736141E+02  0.78013633671E+00  0.21900032357E+02  0.51100000000E-03 0. -1.
        -11    1    4    4    0    0  0.33220686591E+01  0.77879803769E+01 -0.13230109814E+01  0.85696637533E+01  0.51100000000E-03 0.  1.
        -12    1    4    4    0    0 -0.19831533018E+02  0.76584558056E+01  0.10915283831E+02  0.23897386222E+02  0.00000000000E+00 0.  1.
</event>
<event>
 8    1  0.3011071E-007  0.9118800E+02  0.7816164E-02  0.1184000E+00
        -11   -1    0    0    0    0  0.00000000000E+00  0.00000000000E+00  0.45593999997E+02  0.45594000000E+02  0.51100000000E-03 0. -1.
         11   -1    0    0    0    0 -0.00000000000E+00 -0.00000000000E+00 -0.45593999997E+02  0.45594000000E+02  0.51100000000E-03 0.  1.
         23    2    1    2    0    0  0.00000000000E+00 -0.71054273576E-14  0.17763568394E-14  0.91188000000E+02  0.91188000000E+02 0.  0.
    9900012    2    3    3    0    0 -0.32035198927E+01 -0.34100406506E+02  0.13515852289E+02  0.54367102038E+02  0.40000040717E+02 0.  0.
        -12    1    3    3    0    0  0.32035198927E+01  0.34100406506E+02 -0.13515852289E+02  0.36820897962E+02  0.00000000000E+00 0.  1.
         11    1    4    4    0    0  0.28632717041E+01  0.54470805590E+01  0.19161373215E+01  0.64451992959E+01  0.51100000000E-03 0.  1.
        -11    1    4    4    0    0 -0.11753841078E+02 -0.18001486722E+02  0.13772839304E+02  0.25532281666E+02  0.51100000000E-03 0. -1.
        -12    1    4    4    0    0  0.56870494810E+01 -0.21546000343E+02 -0.21731243367E+01  0.22389621077E+02  0.00000000000E+00 0.  1.
</event>
<event>
 8    1  0.3011071E-007  0.9118800E+02  0.7816164E-02  0.1184000E+00
        -11   -1    0    0    0    0  0.00000000000E+00  0.00000000000E+00  0.45593999997E+02  0.45594000000E+02  0.51100000000E-03 0.  1.
         11   -1    0    0    0    0 -0.00000000000E+00 -0.00000000000E+00 -0.45593999997E+02  0.45594000000E+02  0.51100000000E-03 0. -1.
         23    2    1    2    0    0  0.00000000000E+00 -0.71054273576E-14  0.44408920985E-15  0.91188000000E+02  0.91188000000E+02 0.  0.
    9900012    2    3    3    0    0  0.16490074764E+02  0.32840603189E+02 -0.23134077016E+01  0.54367086938E+02  0.40000006292E+02 0.  0.
         12    1    3    3    0    0 -0.16490074764E+02 -0.32840603189E+02  0.23134077016E+01  0.36820913062E+02  0.00000000000E+00 0. -1.
         11    1    4    4    0    0 -0.84548529908E+00 -0.10471639448E+01 -0.31732003135E+00  0.13827834182E+01  0.51100000000E-03 0. -1.
        -11    1    4    4    0    0  0.26753036448E+02  0.14862378725E+02  0.41490723467E+01  0.30884139330E+02  0.51100000000E-03 0.  1.
        -12    1    4    4    0    0 -0.94174763848E+01  0.19025388409E+02 -0.61451600170E+01  0.22100164189E+02  0.00000000000E+00 0.  1.
</event>
<event>
 8    1  0.3011071E-007  0.9118800E+02  0.7816164E-02  0.1184000E+00
        -11   -1    0    0    0    0  0.00000000000E+00  0.00000000000E+00  0.45593999997E+02  0.45594000000E+02  0.51100000000E-03 0.  1.
         11   -1    0    0    0    0 -0.00000000000E+00 -0.00000000000E+00 -0.45593999997E+02  0.45594000000E+02  0.51100000000E-03 0. -1.
         23    2    1    2    0    0  0.35527136788E-14 -0.88817841970E-15  0.00000000000E+00  0.91188000000E+02  0.91188000000E+02 0.  0.
    9900012    2    3    3    0    0  0.27441721862E+02 -0.65581109141E+01 -0.23658547476E+02  0.54367030618E+02  0.39999877900E+02 0.  0.
        -12    1    3    3    0    0 -0.27441721862E+02  0.65581109141E+01  0.23658547476E+02  0.36820969382E+02  0.00000000000E+00 0.  1.
         11    1    4    4    0    0 -0.10310214541E+01 -0.58727199057E+01 -0.68509084971E+01  0.90822239472E+01  0.51100000000E-03 0. -1.
        -11    1    4    4    0    0  0.21974135321E+02  0.12588513816E+02 -0.17005019377E+02  0.30504163445E+02  0.51100000000E-03 0.  1.
        -12    1    4    4    0    0  0.64986079953E+01 -0.13273904824E+02  0.19738039782E+00  0.14780643226E+02  0.00000000000E+00 0.  1.
</event>
<event>
 8    1  0.3011071E-007  0.9118800E+02  0.7816164E-02  0.1184000E+00
        -11   -1    0    0    0    0  0.00000000000E+00  0.00000000000E+00  0.45593999997E+02  0.45594000000E+02  0.51100000000E-03 0.  1.
         11   -1    0    0    0    0 -0.00000000000E+00 -0.00000000000E+00 -0.45593999997E+02  0.45594000000E+02  0.51100000000E-03 0. -1.
         23    2    1    2    0    0  0.44408920985E-14  0.00000000000E+00  0.00000000000E+00  0.91188000000E+02  0.91188000000E+02 0.  0.
    9900012    2    3    3    0    0 -0.67561672531E+01  0.43381688077E+01  0.35934861925E+02  0.54367084664E+02  0.40000001109E+02 0.  0.
         12    1    3    3    0    0  0.67561672531E+01 -0.43381688077E+01 -0.35934861925E+02  0.36820915336E+02  0.00000000000E+00 0. -1.
         11    1    4    4    0    0 -0.13880560049E+02  0.71310906158E+00  0.16231922434E+02  0.21369459000E+02  0.51100000000E-03 0. -1.
        -11    1    4    4    0    0 -0.35197256201E+01 -0.60453182637E+01 -0.17122505561E+01  0.72018152975E+01  0.51100000000E-03 0.  1.
        -12    1    4    4    0    0  0.10644118416E+02  0.96703780098E+01  0.21415190048E+02  0.25795810367E+02  0.00000000000E+00 0.  1.
</event>
<event>
 8    1  0.3011071E-007  0.9118800E+02  0.7816164E-02  0.1184000E+00
        -11   -1    0    0    0    0  0.00000000000E+00  0.00000000000E+00  0.45593999997E+02  0.45594000000E+02  0.51100000000E-03 0. -1.
         11   -1    0    0    0    0 -0.00000000000E+00 -0.00000000000E+00 -0.45593999997E+02  0.45594000000E+02  0.51100000000E-03 0.  1.
         23    2    1    2    0    0 -0.35527136788E-14  0.17763568394E-14 -0.35527136788E-14  0.91188000000E+02  0.91188000000E+02 0.  0.
    9900012    2    3    3    0    0 -0.19523643153E+02  0.10412326000E+02  0.29431121599E+02  0.54367080765E+02  0.39999992220E+02 0.  0.
        -12    1    3    3    0    0  0.19523643153E+02 -0.10412326000E+02 -0.29431121599E+02  0.36820919235E+02  0.00000000000E+00 0.  1.
         11    1    4    4    0    0 -0.44784807333E+01  0.11186189270E+02  0.19990552451E+02  0.23341161231E+02  0.51100000000E-03 0. -1.
        -11    1    4    4    0    0 -0.21707853557E+02  0.59055186326E+00  0.10536778980E+02  0.24137178151E+02  0.51100000000E-03 0.  1.
        -12    1    4    4    0    0  0.66626911377E+01 -0.13644151332E+01 -0.10962098308E+01  0.68887413832E+01  0.00000000000E+00 0.  1.
</event>
<event>
 8    1  0.3011071E-007  0.9118800E+02  0.7816164E-02  0.1184000E+00
        -11   -1    0    0    0    0  0.00000000000E+00  0.00000000000E+00  0.45593999997E+02  0.45594000000E+02  0.51100000000E-03 0. -1.
         11   -1    0    0    0    0 -0.00000000000E+00 -0.00000000000E+00 -0.45593999997E+02  0.45594000000E+02  0.51100000000E-03 0.  1.
         23    2    1    2    0    0 -0.17763568394E-14 -0.17763568394E-14  0.00000000000E+00  0.91188000000E+02  0.91188000000E+02 0.  0.
    9900012    2    3    3    0    0  0.12801470929E+02 -0.89882462966E+01 -0.33333368355E+02  0.54367086441E+02  0.40000005160E+02 0.  0.
         12    1    3    3    0    0 -0.12801470929E+02  0.89882462966E+01  0.33333368355E+02  0.36820913559E+02  0.00000000000E+00 0. -1.
         11    1    4    4    0    0  0.18784534804E+01  0.66374622139E+00 -0.10546280323E+02  0.10732808366E+02  0.51100000000E-03 0. -1.
        -11    1    4    4    0    0  0.13104774545E+02  0.48377286827E+00 -0.28802738314E+02  0.31647541559E+02  0.51100000000E-03 0.  1.
         12    1    4    4    0    0 -0.21817570960E+01 -0.10135765386E+02  0.60156502821E+01  0.11986736516E+02  0.00000000000E+00 0. -1.
</event>
<event>
 8    1  0.3011071E-007  0.9118800E+02  0.7816164E-02  0.1184000E+00
        -11   -1    0    0    0    0  0.00000000000E+00  0.00000000000E+00  0.45593999997E+02  0.45594000000E+02  0.51100000000E-03 0.  1.
         11   -1    0    0    0    0 -0.00000000000E+00 -0.00000000000E+00 -0.45593999997E+02  0.45594000000E+02  0.51100000000E-03 0. -1.
         23    2    1    2    0    0  0.35527136788E-14  0.35527136788E-14  0.35527136788E-14  0.91188000000E+02  0.91188000000E+02 0.  0.
    9900012    2    3    3    0    0  0.19348228517E+02 -0.18379684026E+02  0.25369515885E+02  0.54367094690E+02  0.40000023964E+02 0.  0.
         12    1    3    3    0    0 -0.19348228517E+02  0.18379684026E+02 -0.25369515885E+02  0.36820905310E+02  0.00000000000E+00 0. -1.
         11    1    4    4    0    0  0.97234514054E+01 -0.24205912270E+02  0.46661732893E+00  0.26090025452E+02  0.51100000000E-03 0. -1.
        -11    1    4    4    0    0  0.76195807190E+01  0.97912359321E+00  0.18279090647E+02  0.19827804933E+02  0.51100000000E-03 0.  1.
         12    1    4    4    0    0  0.20051963925E+01  0.48471046510E+01  0.66238079096E+01  0.84492643048E+01  0.00000000000E+00 0. -1.
</event>
<event>
 8    1  0.3011071E-007  0.9118800E+02  0.7816164E-02  0.1184000E+00
        -11   -1    0    0    0    0  0.00000000000E+00  0.00000000000E+00  0.45593999997E+02  0.45594000000E+02  0.51100000000E-03 0. -1.
         11   -1    0    0    0    0 -0.00000000000E+00 -0.00000000000E+00 -0.45593999997E+02  0.45594000000E+02  0.51100000000E-03 0.  1.
         23    2    1    2    0    0  0.00000000000E+00 -0.35527136788E-14  0.35527136788E-14  0.91188000000E+02  0.91188000000E+02 0.  0.
    9900012    2    3    3    0    0 -0.12905019448E+02  0.16198516871E+02  0.30444193610E+02  0.54367076596E+02  0.39999982715E+02 0.  0.
         12    1    3    3    0    0  0.12905019448E+02 -0.16198516871E+02 -0.30444193610E+02  0.36820923404E+02  0.00000000000E+00 0. -1.
         11    1    4    4    0    0  0.14531262477E+01  0.71529724645E+01  0.10109564496E+02  0.12469157370E+02  0.51100000000E-03 0. -1.
        -11    1    4    4    0    0 -0.13610382061E+02  0.16843683350E+02  0.24765267110E+02  0.32897881754E+02  0.51100000000E-03 0.  1.
         12    1    4    4    0    0 -0.74776363536E+00 -0.77981389432E+01 -0.44306379960E+01  0.90000374712E+01  0.00000000000E+00 0. -1.
</event>
<event>
 8    1  0.3011071E-007  0.9118800E+02  0.7816164E-02  0.1184000E+00
        -11   -1    0    0    0    0  0.00000000000E+00  0.00000000000E+00  0.45593999997E+02  0.45594000000E+02  0.51100000000E-03 0.  1.
         11   -1    0    0    0    0 -0.00000000000E+00 -0.00000000000E+00 -0.45593999997E+02  0.45594000000E+02  0.51100000000E-03 0. -1.
         23    2    1    2    0    0  0.00000000000E+00  0.00000000000E+00  0.00000000000E+00  0.91188000000E+02  0.91188000000E+02 0.  0.
    9900012    2    3    3    0    0  0.44045047527E+01 -0.30607176064E+02 -0.19989487759E+02  0.54367102271E+02  0.40000041247E+02 0.  0.
        -12    1    3    3    0    0 -0.44045047527E+01  0.30607176064E+02  0.19989487759E+02  0.36820897729E+02  0.00000000000E+00 0.  1.
         11    1    4    4    0    0 -0.27540274375E+01 -0.11374570497E+02  0.11527695297E+02  0.16427211578E+02  0.51100000000E-03 0.  1.
        -11    1    4    4    0    0  0.27220888914E+01 -0.13971739573E+02 -0.21627377958E+02  0.25891364434E+02  0.51100000000E-03 0. -1.
        -12    1    4    4    0    0  0.44364432988E+01 -0.52608659934E+01 -0.98898050972E+01  0.12048526259E+02  0.00000000000E+00 0.  1.
</event>
<event>
 8    1  0.3011071E-007  0.9118800E+02  0.7816164E-02  0.1184000E+00
        -11   -1    0    0    0    0  0.00000000000E+00  0.00000000000E+00  0.45593999997E+02  0.45594000000E+02  0.51100000000E-03 0. -1.
         11   -1    0    0    0    0 -0.00000000000E+00 -0.00000000000E+00 -0.45593999997E+02  0.45594000000E+02  0.51100000000E-03 0.  1.
         23    2    1    2    0    0  0.71054273576E-14 -0.35527136788E-14  0.35527136788E-14  0.91188000000E+02  0.91188000000E+02 0.  0.
    9900012    2    3    3    0    0 -0.29752820370E+02  0.11121482749E+02 -0.18624237587E+02  0.54367083062E+02  0.39999997456E+02 0.  0.
         12    1    3    3    0    0  0.29752820370E+02 -0.11121482749E+02  0.18624237587E+02  0.36820916938E+02  0.00000000000E+00 0. -1.
         11    1    4    4    0    0 -0.27539300556E+02  0.23218309082E+02 -0.15568849708E+02  0.39241458093E+02  0.51100000000E-03 0. -1.
        -11    1    4    4    0    0  0.67312950699E+00 -0.31591478635E+00 -0.29014718991E+01  0.29952370403E+01  0.51100000000E-03 0.  1.
        -12    1    4    4    0    0 -0.28866493203E+01 -0.11780911547E+02 -0.15391597919E+00  0.12130387929E+02  0.00000000000E+00 0.  1.
</event>
<event>
 8    1  0.3011071E-007  0.9118800E+02  0.7816164E-02  0.1184000E+00
        -11   -1    0    0    0    0  0.00000000000E+00  0.00000000000E+00  0.45593999997E+02  0.45594000000E+02  0.51100000000E-03 0.  1.
         11   -1    0    0    0    0 -0.00000000000E+00 -0.00000000000E+00 -0.45593999997E+02  0.45594000000E+02  0.51100000000E-03 0. -1.
         23    2    1    2    0    0 -0.12212453271E-14  0.71054273576E-14  0.88817841970E-15  0.91188000000E+02  0.91188000000E+02 0.  0.
    9900012    2    3    3    0    0  0.64168912756E+00 -0.36371964594E+02  0.56963339708E+01  0.54367084828E+02  0.40000001483E+02 0.  0.
         12    1    3    3    0    0 -0.64168912756E+00  0.36371964594E+02 -0.56963339708E+01  0.36820915172E+02  0.00000000000E+00 0. -1.
         11    1    4    4    0    0  0.73470566367E+01 -0.96888842274E+01 -0.11170369645E+02  0.16511537695E+02  0.51100000000E-03 0. -1.
        -11    1    4    4    0    0  0.27714217670E+01 -0.17574148470E+02  0.18326888761E+01  0.17885475164E+02  0.51100000000E-03 0.  1.
        -12    1    4    4    0    0 -0.94767892762E+01 -0.91089318963E+01  0.15034014739E+02  0.19970071969E+02  0.00000000000E+00 0.  1.
</event>
<event>
 8    1  0.3011071E-007  0.9118800E+02  0.7816164E-02  0.1184000E+00
        -11   -1    0    0    0    0  0.00000000000E+00  0.00000000000E+00  0.45593999997E+02  0.45594000000E+02  0.51100000000E-03 0.  1.
         11   -1    0    0    0    0 -0.00000000000E+00 -0.00000000000E+00 -0.45593999997E+02  0.45594000000E+02  0.51100000000E-03 0. -1.
         23    2    1    2    0    0  0.00000000000E+00 -0.35527136788E-14  0.00000000000E+00  0.91188000000E+02  0.91188000000E+02 0.  0.
    9900012    2    3    3    0    0  0.33043729584E+02  0.15320089350E+02  0.54016524091E+01  0.54367203550E+02  0.40000272131E+02 0.  0.
        -12    1    3    3    0    0 -0.33043729584E+02 -0.15320089350E+02 -0.54016524091E+01  0.36820796450E+02  0.00000000000E+00 0.  1.
         11    1    4    4    0    0 -0.64707115545E+01 -0.47729318018E+01 -0.10704846932E+01  0.81115302962E+01  0.51100000000E-03 0. -1.
        -11    1    4    4    0    0  0.22861416026E+02  0.16736908157E+02  0.72635641480E+01  0.29249406861E+02  0.51100000000E-03 0.  1.
         12    1    4    4    0    0  0.16653025113E+02  0.33561129949E+01 -0.79142704576E+00  0.17006266392E+02  0.00000000000E+00 0. -1.
</event>
<event>
 8    1  0.3011071E-007  0.9118800E+02  0.7816164E-02  0.1184000E+00
        -11   -1    0    0    0    0  0.00000000000E+00  0.00000000000E+00  0.45593999997E+02  0.45594000000E+02  0.51100000000E-03 0. -1.
         11   -1    0    0    0    0 -0.00000000000E+00 -0.00000000000E+00 -0.45593999997E+02  0.45594000000E+02  0.51100000000E-03 0.  1.
         23    2    1    2    0    0  0.16653345369E-15  0.00000000000E+00  0.00000000000E+00  0.91188000000E+02  0.91188000000E+02 0.  0.
    9900012    2    3    3    0    0 -0.32357176038E+00  0.36269066778E+02  0.63428103024E+01  0.54367066468E+02  0.39999959626E+02 0.  0.
         12    1    3    3    0    0  0.32357176038E+00 -0.36269066778E+02 -0.63428103024E+01  0.36820933532E+02  0.00000000000E+00 0. -1.
         11    1    4    4    0    0  0.15644553199E+01  0.84835474244E+01  0.10560174229E+02  0.13635812310E+02  0.51100000000E-03 0. -1.
        -11    1    4    4    0    0  0.12745009055E+02  0.13060472331E+02 -0.74704930406E+01  0.19718505517E+02  0.51100000000E-03 0.  1.
        -12    1    4    4    0    0 -0.14633036135E+02  0.14725047023E+02  0.32531291136E+01  0.21012748640E+02  0.00000000000E+00 0.  1.
</event>
<event>
 8    1  0.3011071E-007  0.9118800E+02  0.7816164E-02  0.1184000E+00
        -11   -1    0    0    0    0  0.00000000000E+00  0.00000000000E+00  0.45593999997E+02  0.45594000000E+02  0.51100000000E-03 0. -1.
         11   -1    0    0    0    0 -0.00000000000E+00 -0.00000000000E+00 -0.45593999997E+02  0.45594000000E+02  0.51100000000E-03 0.  1.
         23    2    1    2    0    0  0.35527136788E-14  0.35527136788E-14  0.00000000000E+00  0.91188000000E+02  0.91188000000E+02 0.  0.
    9900012    2    3    3    0    0  0.23179509067E+02  0.21626374051E+02  0.18729190249E+02  0.54367187100E+02  0.40000234632E+02 0.  0.
        -12    1    3    3    0    0 -0.23179509067E+02 -0.21626374051E+02 -0.18729190249E+02  0.36820812900E+02  0.00000000000E+00 0.  1.
         11    1    4    4    0    0  0.62078554017E+01  0.58145571640E+01 -0.79178099716E+01  0.11620596315E+02  0.51100000000E-03 0. -1.
        -11    1    4    4    0    0  0.13601456119E+02  0.13696740981E+02  0.39492316727E+01  0.19702709284E+02  0.51100000000E-03 0.  1.
         12    1    4    4    0    0  0.33701975463E+01  0.21150759066E+01  0.22697768548E+02  0.23043881501E+02  0.00000000000E+00 0. -1.
</event>
<event>
 8    1  0.3011071E-007  0.9118800E+02  0.7816164E-02  0.1184000E+00
        -11   -1    0    0    0    0  0.00000000000E+00  0.00000000000E+00  0.45593999997E+02  0.45594000000E+02  0.51100000000E-03 0.  1.
         11   -1    0    0    0    0 -0.00000000000E+00 -0.00000000000E+00 -0.45593999997E+02  0.45594000000E+02  0.51100000000E-03 0. -1.
         23    2    1    2    0    0  0.00000000000E+00  0.00000000000E+00  0.00000000000E+00  0.91188000000E+02  0.91188000000E+02 0.  0.
    9900012    2    3    3    0    0 -0.97832229294E+00  0.22112379622E+01 -0.36741433388E+02  0.54367087257E+02  0.40000007020E+02 0.  0.
        -12    1    3    3    0    0  0.97832229294E+00 -0.22112379622E+01  0.36741433388E+02  0.36820912743E+02  0.00000000000E+00 0.  1.
         11    1    4    4    0    0  0.84559109859E+01  0.77482601300E+00 -0.45912057423E+01  0.96530801499E+01  0.51100000000E-03 0. -1.
        -11    1    4    4    0    0 -0.86247265581E+01 -0.56488825412E+01 -0.35404554670E+02  0.36875171509E+02  0.51100000000E-03 0.  1.
        -12    1    4    4    0    0 -0.80950672076E+00  0.70852944903E+01  0.32543270249E+01  0.78388355979E+01  0.00000000000E+00 0.  1.
</event>
<event>
 8    1  0.3011071E-007  0.9118800E+02  0.7816164E-02  0.1184000E+00
        -11   -1    0    0    0    0  0.00000000000E+00  0.00000000000E+00  0.45593999997E+02  0.45594000000E+02  0.51100000000E-03 0. -1.
         11   -1    0    0    0    0 -0.00000000000E+00 -0.00000000000E+00 -0.45593999997E+02  0.45594000000E+02  0.51100000000E-03 0.  1.
         23    2    1    2    0    0 -0.74940054162E-15  0.00000000000E+00 -0.35527136788E-14  0.91188000000E+02  0.91188000000E+02 0.  0.
    9900012    2    3    3    0    0  0.10690029420E+00  0.19475790883E+02 -0.31248361495E+02  0.54367109811E+02  0.40000058436E+02 0.  0.
         12    1    3    3    0    0 -0.10690029420E+00 -0.19475790883E+02  0.31248361495E+02  0.36820890189E+02  0.00000000000E+00 0. -1.
         11    1    4    4    0    0  0.69077832601E+01 -0.11295857203E+01 -0.45611427896E+01  0.83544872539E+01  0.51100000000E-03 0. -1.
        -11    1    4    4    0    0 -0.39066463704E+00 -0.17412289473E+01 -0.22279231175E+02  0.22350584760E+02  0.51100000000E-03 0.  1.
        -12    1    4    4    0    0 -0.64102183288E+01  0.22346605550E+02 -0.44079875306E+01  0.23662037797E+02  0.00000000000E+00 0.  1.
</event>
<event>
 8    1  0.3011071E-007  0.9118800E+02  0.7816164E-02  0.1184000E+00
        -11   -1    0    0    0    0  0.00000000000E+00  0.00000000000E+00  0.45593999997E+02  0.45594000000E+02  0.51100000000E-03 0. -1.
         11   -1    0    0    0    0 -0.00000000000E+00 -0.00000000000E+00 -0.45593999997E+02  0.45594000000E+02  0.51100000000E-03 0.  1.
         23    2    1    2    0    0  0.35527136788E-14  0.72164496601E-15  0.00000000000E+00  0.91188000000E+02  0.91188000000E+02 0.  0.
    9900012    2    3    3    0    0  0.30830693155E+02 -0.40661378884E-01 -0.20130719993E+02  0.54367093151E+02  0.40000020456E+02 0.  0.
        -12    1    3    3    0    0 -0.30830693155E+02  0.40661378884E-01  0.20130719993E+02  0.36820906849E+02  0.00000000000E+00 0.  1.
         11    1    4    4    0    0  0.25624767163E+02  0.10919984675E+02 -0.14744703608E+02  0.31516361500E+02  0.51100000000E-03 0. -1.
        -11    1    4    4    0    0  0.44672395438E+01 -0.62030041574E+00 -0.10399504537E+02  0.11335373687E+02  0.51100000000E-03 0.  1.
         12    1    4    4    0    0  0.73868644808E+00 -0.10340345638E+02  0.50134881524E+01  0.11515357964E+02  0.00000000000E+00 0. -1.
</event>
<event>
 8    1  0.3011071E-007  0.9118800E+02  0.7816164E-02  0.1184000E+00
        -11   -1    0    0    0    0  0.00000000000E+00  0.00000000000E+00  0.45593999997E+02  0.45594000000E+02  0.51100000000E-03 0.  1.
         11   -1    0    0    0    0 -0.00000000000E+00 -0.00000000000E+00 -0.45593999997E+02  0.45594000000E+02  0.51100000000E-03 0. -1.
         23    2    1    2    0    0  0.35527136788E-14  0.88817841970E-15  0.00000000000E+00  0.91188000000E+02  0.91188000000E+02 0.  0.
    9900012    2    3    3    0    0 -0.23864169472E+02 -0.76267648913E+01 -0.26983585185E+02  0.54367082077E+02  0.39999995210E+02 0.  0.
        -12    1    3    3    0    0  0.23864169472E+02  0.76267648913E+01  0.26983585185E+02  0.36820917923E+02  0.00000000000E+00 0.  1.
         11    1    4    4    0    0 -0.56929689782E+01 -0.30597559813E+01 -0.10058186627E+02  0.11955714990E+02  0.51100000000E-03 0. -1.
        -11    1    4    4    0    0 -0.95763261064E+01  0.14615700874E+02 -0.47003111554E+01  0.18094685931E+02  0.51100000000E-03 0.  1.
        -12    1    4    4    0    0 -0.85948743876E+01 -0.19182709784E+02 -0.12225087402E+02  0.24316681155E+02  0.00000000000E+00 0.  1.
</event>
<event>
 8    1  0.3011071E-007  0.9118800E+02  0.7816164E-02  0.1184000E+00
        -11   -1    0    0    0    0  0.00000000000E+00  0.00000000000E+00  0.45593999997E+02  0.45594000000E+02  0.51100000000E-03 0. -1.
         11   -1    0    0    0    0 -0.00000000000E+00 -0.00000000000E+00 -0.45593999997E+02  0.45594000000E+02  0.51100000000E-03 0.  1.
         23    2    1    2    0    0 -0.35527136788E-14 -0.35527136788E-14  0.00000000000E+00  0.91188000000E+02  0.91188000000E+02 0.  0.
    9900012    2    3    3    0    0  0.26339277367E+02  0.11217632404E+02 -0.23155720916E+02  0.54367079043E+02  0.39999988294E+02 0.  0.
         12    1    3    3    0    0 -0.26339277367E+02 -0.11217632404E+02  0.23155720916E+02  0.36820920957E+02  0.00000000000E+00 0. -1.
         11    1    4    4    0    0 -0.18841830410E+00  0.84560507542E+01  0.48388803227E+01  0.97444886400E+01  0.51100000000E-03 0. -1.
        -11    1    4    4    0    0  0.28807231239E+02  0.12247204137E+01 -0.17398998890E+02  0.33676129148E+02  0.51100000000E-03 0.  1.
         12    1    4    4    0    0 -0.22795355679E+01  0.15368612363E+01 -0.10595602349E+02  0.10946461255E+02  0.00000000000E+00 0. -1.
</event>
<event>
 8    1  0.3011071E-007  0.9118800E+02  0.7816164E-02  0.1184000E+00
        -11   -1    0    0    0    0  0.00000000000E+00  0.00000000000E+00  0.45593999997E+02  0.45594000000E+02  0.51100000000E-03 0. -1.
         11   -1    0    0    0    0 -0.00000000000E+00 -0.00000000000E+00 -0.45593999997E+02  0.45594000000E+02  0.51100000000E-03 0.  1.
         23    2    1    2    0    0 -0.17763568394E-14  0.00000000000E+00  0.00000000000E+00  0.91188000000E+02  0.91188000000E+02 0.  0.
    9900012    2    3    3    0    0 -0.77386052155E+01  0.22957695046E+02 -0.27727898434E+02  0.54367107506E+02  0.40000053180E+02 0.  0.
         12    1    3    3    0    0  0.77386052155E+01 -0.22957695046E+02  0.27727898434E+02  0.36820892494E+02  0.00000000000E+00 0. -1.
         11    1    4    4    0    0 -0.96894133578E+01  0.93875868355E+00 -0.65425398505E+01  0.11729059086E+02  0.51100000000E-03 0. -1.
        -11    1    4    4    0    0 -0.85222478424E+01 -0.35905438471E+01 -0.40681087128E+01  0.10102980855E+02  0.51100000000E-03 0.  1.
        -12    1    4    4    0    0  0.10473055985E+02  0.25609480210E+02 -0.17117249871E+02  0.32535067564E+02  0.00000000000E+00 0.  1.
</event>
<event>
 8    1  0.3011071E-007  0.9118800E+02  0.7816164E-02  0.1184000E+00
        -11   -1    0    0    0    0  0.00000000000E+00  0.00000000000E+00  0.45593999997E+02  0.45594000000E+02  0.51100000000E-03 0. -1.
         11   -1    0    0    0    0 -0.00000000000E+00 -0.00000000000E+00 -0.45593999997E+02  0.45594000000E+02  0.51100000000E-03 0.  1.
         23    2    1    2    0    0 -0.66613381478E-15  0.35527136788E-14 -0.35527136788E-14  0.91188000000E+02  0.91188000000E+02 0.  0.
    9900012    2    3    3    0    0  0.96742915997E+00  0.23002950908E+02 -0.28735192160E+02  0.54367042134E+02  0.39999904154E+02 0.  0.
         12    1    3    3    0    0 -0.96742915997E+00 -0.23002950908E+02  0.28735192160E+02  0.36820957866E+02  0.00000000000E+00 0. -1.
         11    1    4    4    0    0 -0.66240823023E+01  0.19910741015E+01 -0.10518787638E+02  0.12589191239E+02  0.51100000000E-03 0. -1.
        -11    1    4    4    0    0  0.46207477659E+01  0.19105714794E+02 -0.26371723895E+02  0.32891449788E+02  0.51100000000E-03 0.  1.
         12    1    4    4    0    0  0.29707636964E+01  0.19061620120E+01  0.81553193727E+01  0.88864011066E+01  0.00000000000E+00 0. -1.
</event>
<event>
 8    1  0.3011071E-007  0.9118800E+02  0.7816164E-02  0.1184000E+00
        -11   -1    0    0    0    0  0.00000000000E+00  0.00000000000E+00  0.45593999997E+02  0.45594000000E+02  0.51100000000E-03 0.  1.
         11   -1    0    0    0    0 -0.00000000000E+00 -0.00000000000E+00 -0.45593999997E+02  0.45594000000E+02  0.51100000000E-03 0. -1.
         23    2    1    2    0    0  0.00000000000E+00  0.00000000000E+00  0.00000000000E+00  0.91188000000E+02  0.91188000000E+02 0.  0.
    9900012    2    3    3    0    0 -0.95326402415E+01 -0.16199435299E+02 -0.31662073517E+02  0.54367084295E+02  0.40000000266E+02 0.  0.
        -12    1    3    3    0    0  0.95326402415E+01  0.16199435299E+02  0.31662073517E+02  0.36820915705E+02  0.00000000000E+00 0.  1.
         11    1    4    4    0    0 -0.64728245441E+01 -0.17136297419E+02 -0.74443467363E+01  0.19772922025E+02  0.51100000000E-03 0. -1.
        -11    1    4    4    0    0 -0.12021343744E+01  0.22109430429E+01  0.48368538549E+01  0.54523895374E+01  0.51100000000E-03 0.  1.
        -12    1    4    4    0    0 -0.18576813230E+01 -0.12740809236E+01 -0.29054580635E+02  0.29141772733E+02  0.00000000000E+00 0.  1.
</event>
<event>
 8    1  0.3011071E-007  0.9118800E+02  0.7816164E-02  0.1184000E+00
        -11   -1    0    0    0    0  0.00000000000E+00  0.00000000000E+00  0.45593999997E+02  0.45594000000E+02  0.51100000000E-03 0. -1.
         11   -1    0    0    0    0 -0.00000000000E+00 -0.00000000000E+00 -0.45593999997E+02  0.45594000000E+02  0.51100000000E-03 0.  1.
         23    2    1    2    0    0  0.00000000000E+00  0.88817841970E-15  0.00000000000E+00  0.91188000000E+02  0.91188000000E+02 0.  0.
    9900012    2    3    3    0    0 -0.12269880251E+02  0.35525135121E+01  0.34534150109E+02  0.54367111399E+02  0.40000062057E+02 0.  0.
        -12    1    3    3    0    0  0.12269880251E+02 -0.35525135121E+01 -0.34534150109E+02  0.36820888601E+02  0.00000000000E+00 0.  1.
         11    1    4    4    0    0 -0.71453958356E+01 -0.16530529951E+02  0.10744159119E+02  0.20970266034E+02  0.51100000000E-03 0. -1.
        -11    1    4    4    0    0  0.33214337599E+01  0.39720390493E+01  0.63884271933E+01  0.82232000277E+01  0.51100000000E-03 0.  1.
         12    1    4    4    0    0 -0.84459181749E+01  0.16111004414E+02  0.17401563796E+02  0.25173645338E+02  0.00000000000E+00 0. -1.
</event>
<event>
 8    1  0.3011071E-007  0.9118800E+02  0.7816164E-02  0.1184000E+00
        -11   -1    0    0    0    0  0.00000000000E+00  0.00000000000E+00  0.45593999997E+02  0.45594000000E+02  0.51100000000E-03 0. -1.
         11   -1    0    0    0    0 -0.00000000000E+00 -0.00000000000E+00 -0.45593999997E+02  0.45594000000E+02  0.51100000000E-03 0.  1.
         23    2    1    2    0    0  0.00000000000E+00  0.00000000000E+00  0.00000000000E+00  0.91188000000E+02  0.91188000000E+02 0.  0.
    9900012    2    3    3    0    0 -0.16117165076E+02 -0.32026884255E+01  0.32950873313E+02  0.54367078293E+02  0.39999986585E+02 0.  0.
        -12    1    3    3    0    0  0.16117165076E+02  0.32026884255E+01 -0.32950873313E+02  0.36820921707E+02  0.00000000000E+00 0.  1.
         11    1    4    4    0    0 -0.61863157287E+01  0.26300646217E+01 -0.81217899375E+00  0.67710691319E+01  0.51100000000E-03 0. -1.
        -11    1    4    4    0    0 -0.67862498521E+01 -0.94623057286E+01  0.38875417512E+02  0.40581849437E+02  0.51100000000E-03 0.  1.
        -12    1    4    4    0    0 -0.31445994953E+01  0.36295526814E+01 -0.51123652049E+01  0.70141597246E+01  0.00000000000E+00 0.  1.
</event>
<event>
 8    1  0.3011071E-007  0.9118800E+02  0.7816164E-02  0.1184000E+00
        -11   -1    0    0    0    0  0.00000000000E+00  0.00000000000E+00  0.45593999997E+02  0.45594000000E+02  0.51100000000E-03 0. -1.
         11   -1    0    0    0    0 -0.00000000000E+00 -0.00000000000E+00 -0.45593999997E+02  0.45594000000E+02  0.51100000000E-03 0.  1.
         23    2    1    2    0    0  0.00000000000E+00  0.00000000000E+00  0.00000000000E+00  0.91188000000E+02  0.91188000000E+02 0.  0.
    9900012    2    3    3    0    0 -0.21054540326E+02  0.14273877620E+02  0.26622223074E+02  0.54367081868E+02  0.39999994735E+02 0.  0.
        -12    1    3    3    0    0  0.21054540326E+02 -0.14273877620E+02 -0.26622223074E+02  0.36820918132E+02  0.00000000000E+00 0.  1.
         11    1    4    4    0    0  0.87794047231E+01  0.11965411749E-01 -0.13527600116E+01  0.88830203407E+01  0.51100000000E-03 0.  1.
        -11    1    4    4    0    0 -0.16226343571E+02  0.46297389833E+00  0.10093902714E+02  0.19115319583E+02  0.51100000000E-03 0. -1.
        -12    1    4    4    0    0 -0.13607601478E+02  0.13798938310E+02  0.17881080372E+02  0.26368741945E+02  0.00000000000E+00 0.  1.
</event>
<event>
 8    1  0.3011071E-007  0.9118800E+02  0.7816164E-02  0.1184000E+00
        -11   -1    0    0    0    0  0.00000000000E+00  0.00000000000E+00  0.45593999997E+02  0.45594000000E+02  0.51100000000E-03 0. -1.
         11   -1    0    0    0    0 -0.00000000000E+00 -0.00000000000E+00 -0.45593999997E+02  0.45594000000E+02  0.51100000000E-03 0.  1.
         23    2    1    2    0    0  0.00000000000E+00 -0.35527136788E-14 -0.35527136788E-14  0.91188000000E+02  0.91188000000E+02 0.  0.
    9900012    2    3    3    0    0  0.19984682107E+02  0.16650473725E+02  0.26060588617E+02  0.54367081037E+02  0.39999992840E+02 0.  0.
        -12    1    3    3    0    0 -0.19984682107E+02 -0.16650473725E+02 -0.26060588617E+02  0.36820918963E+02  0.00000000000E+00 0.  1.
         11    1    4    4    0    0  0.11704335517E+02  0.16246725206E+02  0.22571202581E+01  0.20150487387E+02  0.51100000000E-03 0. -1.
        -11    1    4    4    0    0 -0.10774387875E+01  0.79302755290E+01  0.20123263156E+02  0.21656312350E+02  0.51100000000E-03 0.  1.
        -12    1    4    4    0    0  0.93577853776E+01 -0.75265270097E+01  0.36802052031E+01  0.12560281300E+02  0.00000000000E+00 0.  1.
</event>
<event>
 8    1  0.3011071E-007  0.9118800E+02  0.7816164E-02  0.1184000E+00
        -11   -1    0    0    0    0  0.00000000000E+00  0.00000000000E+00  0.45593999997E+02  0.45594000000E+02  0.51100000000E-03 0.  1.
         11   -1    0    0    0    0 -0.00000000000E+00 -0.00000000000E+00 -0.45593999997E+02  0.45594000000E+02  0.51100000000E-03 0. -1.
         23    2    1    2    0    0 -0.35527136788E-14  0.00000000000E+00 -0.17763568394E-14  0.91188000000E+02  0.91188000000E+02 0.  0.
    9900012    2    3    3    0    0 -0.28120200553E+02  0.18275949404E+02  0.15199260936E+02  0.54367169771E+02  0.40000195127E+02 0.  0.
        -12    1    3    3    0    0  0.28120200553E+02 -0.18275949404E+02 -0.15199260936E+02  0.36820830229E+02  0.00000000000E+00 0.  1.
         11    1    4    4    0    0 -0.21594407743E+02  0.16665344913E+02 -0.84448485920E+01  0.28554642965E+02  0.51100000000E-03 0. -1.
        -11    1    4    4    0    0 -0.69908331090E+01  0.28982422655E+01  0.23152407525E+02  0.24357863828E+02  0.51100000000E-03 0.  1.
        -12    1    4    4    0    0  0.46504029952E+00 -0.12876377752E+01  0.49170200280E+00  0.14546629781E+01  0.00000000000E+00 0.  1.
</event>
<event>
 8    1  0.3011071E-007  0.9118800E+02  0.7816164E-02  0.1184000E+00
        -11   -1    0    0    0    0  0.00000000000E+00  0.00000000000E+00  0.45593999997E+02  0.45594000000E+02  0.51100000000E-03 0. -1.
         11   -1    0    0    0    0 -0.00000000000E+00 -0.00000000000E+00 -0.45593999997E+02  0.45594000000E+02  0.51100000000E-03 0.  1.
         23    2    1    2    0    0  0.00000000000E+00  0.00000000000E+00 -0.17763568394E-14  0.91188000000E+02  0.91188000000E+02 0.  0.
    9900012    2    3    3    0    0  0.99948488126E+01  0.34378411469E+02  0.86030739333E+01  0.54367013334E+02  0.39999838497E+02 0.  0.
        -12    1    3    3    0    0 -0.99948488126E+01 -0.34378411469E+02 -0.86030739333E+01  0.36820986666E+02  0.00000000000E+00 0.  1.
         11    1    4    4    0    0  0.68787401759E+01  0.10357349355E+02  0.73366930301E+01  0.14436717665E+02  0.51100000000E-03 0. -1.
        -11    1    4    4    0    0 -0.20677270535E+01  0.30698189882E+02  0.40442080155E+01  0.31032402033E+02  0.51100000000E-03 0.  1.
        -12    1    4    4    0    0  0.51838356902E+01 -0.66771277675E+01 -0.27778271123E+01  0.88978936357E+01  0.00000000000E+00 0.  1.
</event>
<event>
 8    1  0.3011071E-007  0.9118800E+02  0.7816164E-02  0.1184000E+00
        -11   -1    0    0    0    0  0.00000000000E+00  0.00000000000E+00  0.45593999997E+02  0.45594000000E+02  0.51100000000E-03 0.  1.
         11   -1    0    0    0    0 -0.00000000000E+00 -0.00000000000E+00 -0.45593999997E+02  0.45594000000E+02  0.51100000000E-03 0. -1.
         23    2    1    2    0    0  0.00000000000E+00  0.35527136788E-14 -0.17763568394E-14  0.91188000000E+02  0.91188000000E+02 0.  0.
    9900012    2    3    3    0    0  0.20541668851E+02 -0.27667363877E+02 -0.12974561636E+02  0.54367048998E+02  0.39999919800E+02 0.  0.
        -12    1    3    3    0    0 -0.20541668851E+02  0.27667363877E+02  0.12974561636E+02  0.36820951002E+02  0.00000000000E+00 0.  1.
         11    1    4    4    0    0 -0.66296020059E+01 -0.31391495690E+01 -0.56295280331E+00  0.73568198899E+01  0.51100000000E-03 0.  1.
        -11    1    4    4    0    0  0.99982857293E+01 -0.20347516701E+02 -0.17475213474E+02  0.28624643922E+02  0.51100000000E-03 0. -1.
        -12    1    4    4    0    0  0.17172985127E+02 -0.41806976069E+01  0.50636046415E+01  0.18385585186E+02  0.00000000000E+00 0.  1.
</event>
<event>
 8    1  0.3011071E-007  0.9118800E+02  0.7816164E-02  0.1184000E+00
        -11   -1    0    0    0    0  0.00000000000E+00  0.00000000000E+00  0.45593999997E+02  0.45594000000E+02  0.51100000000E-03 0. -1.
         11   -1    0    0    0    0 -0.00000000000E+00 -0.00000000000E+00 -0.45593999997E+02  0.45594000000E+02  0.51100000000E-03 0.  1.
         23    2    1    2    0    0  0.17763568394E-14  0.71054273576E-14  0.00000000000E+00  0.91188000000E+02  0.91188000000E+02 0.  0.
    9900012    2    3    3    0    0  0.91619370829E+01 -0.34655555231E+02  0.84160668202E+01  0.54367098596E+02  0.40000032870E+02 0.  0.
        -12    1    3    3    0    0 -0.91619370829E+01  0.34655555231E+02 -0.84160668202E+01  0.36820901404E+02  0.00000000000E+00 0.  1.
         11    1    4    4    0    0  0.13369311124E+02 -0.21872669253E+02  0.49312325638E+01  0.26104964950E+02  0.51100000000E-03 0. -1.
        -11    1    4    4    0    0  0.28322164128E+01 -0.12958408663E+02 -0.74821365541E+01  0.15229056851E+02  0.51100000000E-03 0.  1.
         12    1    4    4    0    0 -0.70395904544E+01  0.17552268558E+00  0.10966970810E+02  0.13033076795E+02  0.00000000000E+00 0. -1.
</event>
<event>
 8    1  0.3011071E-007  0.9118800E+02  0.7816164E-02  0.1184000E+00
        -11   -1    0    0    0    0  0.00000000000E+00  0.00000000000E+00  0.45593999997E+02  0.45594000000E+02  0.51100000000E-03 0.  1.
         11   -1    0    0    0    0 -0.00000000000E+00 -0.00000000000E+00 -0.45593999997E+02  0.45594000000E+02  0.51100000000E-03 0. -1.
         23    2    1    2    0    0 -0.17763568394E-14 -0.71054273576E-14 -0.35527136788E-14  0.91188000000E+02  0.91188000000E+02 0.  0.
    9900012    2    3    3    0    0 -0.85311562878E+01 -0.21935777767E+02  0.28316445794E+02  0.54367080997E+02  0.39999992749E+02 0.  0.
         12    1    3    3    0    0  0.85311562878E+01  0.21935777767E+02 -0.28316445794E+02  0.36820919003E+02  0.00000000000E+00 0. -1.
         11    1    4    4    0    0 -0.70602092901E+01 -0.16066281196E+02  0.28931467896E+02  0.33837874956E+02  0.51100000000E-03 0. -1.
        -11    1    4    4    0    0 -0.42202274862E+01 -0.11596723336E+02 -0.44382376649E+01  0.13114582189E+02  0.51100000000E-03 0.  1.
         12    1    4    4    0    0  0.27492804884E+01  0.57272267649E+01  0.38232155626E+01  0.74146238514E+01  0.00000000000E+00 0. -1.
</event>
<event>
 8    1  0.3011071E-007  0.9118800E+02  0.7816164E-02  0.1184000E+00
        -11   -1    0    0    0    0  0.00000000000E+00  0.00000000000E+00  0.45593999997E+02  0.45594000000E+02  0.51100000000E-03 0.  1.
         11   -1    0    0    0    0 -0.00000000000E+00 -0.00000000000E+00 -0.45593999997E+02  0.45594000000E+02  0.51100000000E-03 0. -1.
         23    2    1    2    0    0  0.00000000000E+00 -0.35527136788E-14  0.00000000000E+00  0.91188000000E+02  0.91188000000E+02 0.  0.
    9900012    2    3    3    0    0  0.91767907321E+01 -0.22229472916E+02  0.27882134817E+02  0.54367130969E+02  0.40000106669E+02 0.  0.
         12    1    3    3    0    0 -0.91767907321E+01  0.22229472916E+02 -0.27882134817E+02  0.36820869031E+02  0.00000000000E+00 0. -1.
         11    1    4    4    0    0  0.37409454916E+01 -0.25947086697E+02  0.17470911418E+02  0.31503630383E+02  0.51100000000E-03 0. -1.
        -11    1    4    4    0    0  0.11655449612E+02 -0.19637513884E+01  0.72495972494E+01  0.13865874863E+02  0.51100000000E-03 0.  1.
        -12    1    4    4    0    0 -0.62196043717E+01  0.56813651702E+01  0.31616261498E+01  0.89976257229E+01  0.00000000000E+00 0.  1.
</event>
<event>
 8    1  0.3011071E-007  0.9118800E+02  0.7816164E-02  0.1184000E+00
        -11   -1    0    0    0    0  0.00000000000E+00  0.00000000000E+00  0.45593999997E+02  0.45594000000E+02  0.51100000000E-03 0. -1.
         11   -1    0    0    0    0 -0.00000000000E+00 -0.00000000000E+00 -0.45593999997E+02  0.45594000000E+02  0.51100000000E-03 0.  1.
         23    2    1    2    0    0 -0.11102230246E-14  0.00000000000E+00 -0.55511151231E-16  0.91188000000E+02  0.91188000000E+02 0.  0.
    9900012    2    3    3    0    0 -0.12138226639E+01 -0.36798353863E+02  0.43195658165E+00  0.54367098341E+02  0.40000032288E+02 0.  0.
         12    1    3    3    0    0  0.12138226639E+01  0.36798353863E+02 -0.43195658165E+00  0.36820901659E+02  0.00000000000E+00 0. -1.
         11    1    4    4    0    0  0.67596658124E+01 -0.18748961629E+02  0.10845219047E+02  0.22689985026E+02  0.51100000000E-03 0. -1.
        -11    1    4    4    0    0  0.63008456187E+01 -0.17011814312E+01 -0.72331759512E+01  0.97423564077E+01  0.51100000000E-03 0.  1.
        -12    1    4    4    0    0 -0.14274334095E+02 -0.16348210803E+02 -0.31800865145E+01  0.21934756907E+02  0.00000000000E+00 0.  1.
</event>
<event>
 8    1  0.3011071E-007  0.9118800E+02  0.7816164E-02  0.1184000E+00
        -11   -1    0    0    0    0  0.00000000000E+00  0.00000000000E+00  0.45593999997E+02  0.45594000000E+02  0.51100000000E-03 0.  1.
         11   -1    0    0    0    0 -0.00000000000E+00 -0.00000000000E+00 -0.45593999997E+02  0.45594000000E+02  0.51100000000E-03 0. -1.
         23    2    1    2    0    0 -0.44408920985E-15  0.00000000000E+00  0.00000000000E+00  0.91188000000E+02  0.91188000000E+02 0.  0.
    9900012    2    3    3    0    0  0.30075902475E+01 -0.27004804798E+02  0.24849041269E+02  0.54367082939E+02  0.39999997175E+02 0.  0.
        -12    1    3    3    0    0 -0.30075902475E+01  0.27004804798E+02 -0.24849041269E+02  0.36820917061E+02  0.00000000000E+00 0.  1.
         11    1    4    4    0    0  0.64871004803E+01 -0.24944390216E+02  0.19482321521E+02  0.32308914064E+02  0.51100000000E-03 0. -1.
        -11    1    4    4    0    0 -0.11651572851E+01  0.14229020875E+01  0.13120341351E+02  0.13248607447E+02  0.51100000000E-03 0.  1.
         12    1    4    4    0    0 -0.23143529478E+01 -0.34833166692E+01 -0.77536216033E+01  0.88095614279E+01  0.00000000000E+00 0. -1.
</event>
<event>
 8    1  0.3011071E-007  0.9118800E+02  0.7816164E-02  0.1184000E+00
        -11   -1    0    0    0    0  0.00000000000E+00  0.00000000000E+00  0.45593999997E+02  0.45594000000E+02  0.51100000000E-03 0.  1.
         11   -1    0    0    0    0 -0.00000000000E+00 -0.00000000000E+00 -0.45593999997E+02  0.45594000000E+02  0.51100000000E-03 0. -1.
         23    2    1    2    0    0  0.00000000000E+00 -0.66613381478E-15  0.00000000000E+00  0.91188000000E+02  0.91188000000E+02 0.  0.
    9900012    2    3    3    0    0 -0.21068556278E+02  0.88264945015E+00 -0.30184723006E+02  0.54367073387E+02  0.39999975400E+02 0.  0.
        -12    1    3    3    0    0  0.21068556278E+02 -0.88264945015E+00  0.30184723006E+02  0.36820926613E+02  0.00000000000E+00 0.  1.
         11    1    4    4    0    0 -0.12658501965E+02  0.51951813918E+00  0.10804978251E+01  0.12715150290E+02  0.51100000000E-03 0. -1.
        -11    1    4    4    0    0 -0.98875218740E+01  0.54621726522E+01 -0.14743782986E+01  0.11391760642E+02  0.51100000000E-03 0.  1.
         12    1    4    4    0    0  0.14774675605E+01 -0.50990413412E+01 -0.29790842533E+02  0.30260162455E+02  0.00000000000E+00 0. -1.
</event>
<event>
 8    1  0.3011071E-007  0.9118800E+02  0.7816164E-02  0.1184000E+00
        -11   -1    0    0    0    0  0.00000000000E+00  0.00000000000E+00  0.45593999997E+02  0.45594000000E+02  0.51100000000E-03 0.  1.
         11   -1    0    0    0    0 -0.00000000000E+00 -0.00000000000E+00 -0.45593999997E+02  0.45594000000E+02  0.51100000000E-03 0. -1.
         23    2    1    2    0    0  0.00000000000E+00  0.00000000000E+00  0.00000000000E+00  0.91188000000E+02  0.91188000000E+02 0.  0.
    9900012    2    3    3    0    0 -0.20085001567E+02 -0.14476053822E+02 -0.27254674049E+02  0.54367072802E+02  0.39999974067E+02 0.  0.
        -12    1    3    3    0    0  0.20085001567E+02  0.14476053822E+02  0.27254674049E+02  0.36820927198E+02  0.00000000000E+00 0.  1.
         11    1    4    4    0    0 -0.73166617465E+01 -0.28582770179E+01  0.92635860895E+01  0.12145670592E+02  0.51100000000E-03 0. -1.
        -11    1    4    4    0    0 -0.68772646167E+01 -0.11176356076E+01 -0.23401459264E+02  0.24416678192E+02  0.51100000000E-03 0.  1.
         12    1    4    4    0    0 -0.58910752042E+01 -0.10500141196E+02 -0.13116800874E+02  0.17804724018E+02  0.00000000000E+00 0. -1.
</event>
<event>
 8    1  0.3011071E-007  0.9118800E+02  0.7816164E-02  0.1184000E+00
        -11   -1    0    0    0    0  0.00000000000E+00  0.00000000000E+00  0.45593999997E+02  0.45594000000E+02  0.51100000000E-03 0.  1.
         11   -1    0    0    0    0 -0.00000000000E+00 -0.00000000000E+00 -0.45593999997E+02  0.45594000000E+02  0.51100000000E-03 0. -1.
         23    2    1    2    0    0 -0.35527136788E-14 -0.88817841970E-15  0.35527136788E-14  0.91188000000E+02  0.91188000000E+02 0.  0.
    9900012    2    3    3    0    0 -0.30850660193E+02  0.30878639300E+01  0.19861482789E+02  0.54367127705E+02  0.40000099230E+02 0.  0.
         12    1    3    3    0    0  0.30850660193E+02 -0.30878639300E+01 -0.19861482789E+02  0.36820872295E+02  0.00000000000E+00 0. -1.
         11    1    4    4    0    0 -0.25573118428E+02  0.11587286877E+02  0.15838243003E+02  0.32235067008E+02  0.51100000000E-03 0. -1.
        -11    1    4    4    0    0 -0.35305100657E+01 -0.14285804645E+02 -0.27011304974E+00  0.14718073141E+02  0.51100000000E-03 0.  1.
        -12    1    4    4    0    0 -0.17470316986E+01  0.57863816980E+01  0.42933528351E+01  0.74139875557E+01  0.00000000000E+00 0.  1.
</event>
<event>
 8    1  0.3011071E-007  0.9118800E+02  0.7816164E-02  0.1184000E+00
        -11   -1    0    0    0    0  0.00000000000E+00  0.00000000000E+00  0.45593999997E+02  0.45594000000E+02  0.51100000000E-03 0.  1.
         11   -1    0    0    0    0 -0.00000000000E+00 -0.00000000000E+00 -0.45593999997E+02  0.45594000000E+02  0.51100000000E-03 0. -1.
         23    2    1    2    0    0  0.17763568394E-14 -0.17763568394E-14  0.00000000000E+00  0.91188000000E+02  0.91188000000E+02 0.  0.
    9900012    2    3    3    0    0 -0.81916477123E+01  0.10031161015E+02 -0.34468140374E+02  0.54367082244E+02  0.39999995591E+02 0.  0.
        -12    1    3    3    0    0  0.81916477123E+01 -0.10031161015E+02  0.34468140374E+02  0.36820917756E+02  0.00000000000E+00 0.  1.
         11    1    4    4    0    0 -0.70804871447E+01  0.67065311079E+01  0.70529031940E+01  0.12035543255E+02  0.51100000000E-03 0.  1.
        -11    1    4    4    0    0  0.10093345144E+01  0.39868830365E+01 -0.37605343776E+02  0.37829563483E+02  0.51100000000E-03 0. -1.
        -12    1    4    4    0    0 -0.21204950820E+01 -0.66225312928E+00 -0.39156997922E+01  0.45019755067E+01  0.00000000000E+00 0.  1.
</event>
<event>
 8    1  0.3011071E-007  0.9118800E+02  0.7816164E-02  0.1184000E+00
        -11   -1    0    0    0    0  0.00000000000E+00  0.00000000000E+00  0.45593999997E+02  0.45594000000E+02  0.51100000000E-03 0.  1.
         11   -1    0    0    0    0 -0.00000000000E+00 -0.00000000000E+00 -0.45593999997E+02  0.45594000000E+02  0.51100000000E-03 0. -1.
         23    2    1    2    0    0  0.00000000000E+00  0.17763568394E-14  0.00000000000E+00  0.91188000000E+02  0.91188000000E+02 0.  0.
    9900012    2    3    3    0    0 -0.35459894759E+01 -0.12125171426E+02 -0.34585909803E+02  0.54367095878E+02  0.40000026673E+02 0.  0.
        -12    1    3    3    0    0  0.35459894759E+01  0.12125171426E+02  0.34585909803E+02  0.36820904122E+02  0.00000000000E+00 0.  1.
         11    1    4    4    0    0  0.12916119052E+01  0.34217227660E+01  0.11348925464E+01  0.38294163203E+01  0.51100000000E-03 0. -1.
        -11    1    4    4    0    0  0.86774483081E+01 -0.19763029141E+02 -0.22115143883E+02  0.30902346500E+02  0.51100000000E-03 0.  1.
         12    1    4    4    0    0 -0.13515049689E+02  0.42161349487E+01 -0.13605658466E+02  0.19635333058E+02  0.00000000000E+00 0. -1.
</event>
<event>
 8    1  0.3011071E-007  0.9118800E+02  0.7816164E-02  0.1184000E+00
        -11   -1    0    0    0    0  0.00000000000E+00  0.00000000000E+00  0.45593999997E+02  0.45594000000E+02  0.51100000000E-03 0.  1.
         11   -1    0    0    0    0 -0.00000000000E+00 -0.00000000000E+00 -0.45593999997E+02  0.45594000000E+02  0.51100000000E-03 0. -1.
         23    2    1    2    0    0 -0.88817841970E-15  0.00000000000E+00  0.00000000000E+00  0.91188000000E+02  0.91188000000E+02 0.  0.
    9900012    2    3    3    0    0 -0.49577856972E+01  0.32391462069E+02  0.16792664054E+02  0.54367081760E+02  0.39999994489E+02 0.  0.
         12    1    3    3    0    0  0.49577856972E+01 -0.32391462069E+02 -0.16792664054E+02  0.36820918240E+02  0.00000000000E+00 0. -1.
         11    1    4    4    0    0  0.10532269169E+02  0.34258037964E+01 -0.54543122574E+01  0.12345620598E+02  0.51100000000E-03 0. -1.
        -11    1    4    4    0    0 -0.10673223886E+02  0.22564309882E+02  0.89879675573E+01  0.26530159247E+02  0.51100000000E-03 0.  1.
        -12    1    4    4    0    0 -0.48168309800E+01  0.64013483904E+01  0.13259008754E+02  0.15491301915E+02  0.00000000000E+00 0.  1.
</event>
<event>
 8    1  0.3011071E-007  0.9118800E+02  0.7816164E-02  0.1184000E+00
        -11   -1    0    0    0    0  0.00000000000E+00  0.00000000000E+00  0.45593999997E+02  0.45594000000E+02  0.51100000000E-03 0.  1.
         11   -1    0    0    0    0 -0.00000000000E+00 -0.00000000000E+00 -0.45593999997E+02  0.45594000000E+02  0.51100000000E-03 0. -1.
         23    2    1    2    0    0  0.00000000000E+00  0.00000000000E+00  0.00000000000E+00  0.91188000000E+02  0.91188000000E+02 0.  0.
    9900012    2    3    3    0    0 -0.17783360982E+02 -0.87359317668E+01 -0.31035708581E+02  0.54367086938E+02  0.40000006291E+02 0.  0.
        -12    1    3    3    0    0  0.17783360982E+02  0.87359317668E+01  0.31035708581E+02  0.36820913062E+02  0.00000000000E+00 0.  1.
         11    1    4    4    0    0  0.91090259310E+01 -0.19307226942E+01 -0.10556067579E+02  0.14075958459E+02  0.51100000000E-03 0. -1.
        -11    1    4    4    0    0 -0.18951728824E+02 -0.17188379273E+01 -0.14885231557E+01  0.19087643403E+02  0.51100000000E-03 0.  1.
        -12    1    4    4    0    0 -0.79406580884E+01 -0.50863711452E+01 -0.18991117846E+02  0.21203485076E+02  0.00000000000E+00 0.  1.
</event>
<event>
 8    1  0.3011071E-007  0.9118800E+02  0.7816164E-02  0.1184000E+00
        -11   -1    0    0    0    0  0.00000000000E+00  0.00000000000E+00  0.45593999997E+02  0.45594000000E+02  0.51100000000E-03 0. -1.
         11   -1    0    0    0    0 -0.00000000000E+00 -0.00000000000E+00 -0.45593999997E+02  0.45594000000E+02  0.51100000000E-03 0.  1.
         23    2    1    2    0    0  0.00000000000E+00 -0.35527136788E-14  0.00000000000E+00  0.91188000000E+02  0.91188000000E+02 0.  0.
    9900012    2    3    3    0    0  0.26721412481E+02 -0.19899480284E+02 -0.15676731035E+02  0.54367039984E+02  0.39999899251E+02 0.  0.
         12    1    3    3    0    0 -0.26721412481E+02  0.19899480284E+02  0.15676731035E+02  0.36820960016E+02  0.00000000000E+00 0. -1.
         11    1    4    4    0    0  0.27958731385E+02 -0.35319198360E+01 -0.66743481599E+01  0.28960525583E+02  0.51100000000E-03 0. -1.
        -11    1    4    4    0    0 -0.48045128705E+01 -0.72323701923E-01 -0.71614953430E+01  0.86241283878E+01  0.51100000000E-03 0.  1.
        -12    1    4    4    0    0  0.35671939666E+01 -0.16295236746E+02 -0.18408875320E+01  0.16782386014E+02  0.00000000000E+00 0.  1.
</event>
<event>
 8    1  0.3011071E-007  0.9118800E+02  0.7816164E-02  0.1184000E+00
        -11   -1    0    0    0    0  0.00000000000E+00  0.00000000000E+00  0.45593999997E+02  0.45594000000E+02  0.51100000000E-03 0. -1.
         11   -1    0    0    0    0 -0.00000000000E+00 -0.00000000000E+00 -0.45593999997E+02  0.45594000000E+02  0.51100000000E-03 0.  1.
         23    2    1    2    0    0 -0.88817841970E-15  0.00000000000E+00  0.00000000000E+00  0.91188000000E+02  0.91188000000E+02 0.  0.
    9900012    2    3    3    0    0 -0.63531822926E+01  0.33913653386E+02  0.12856215459E+02  0.54367067270E+02  0.39999961454E+02 0.  0.
        -12    1    3    3    0    0  0.63531822926E+01 -0.33913653386E+02 -0.12856215459E+02  0.36820932730E+02  0.00000000000E+00 0.  1.
         11    1    4    4    0    0 -0.58559411257E+01  0.21396585533E+02 -0.48181554433E+01  0.22700672701E+02  0.51100000000E-03 0. -1.
        -11    1    4    4    0    0  0.43028734617E+01 -0.58663733031E+01  0.48863446991E+01  0.87638701804E+01  0.51100000000E-03 0.  1.
         12    1    4    4    0    0 -0.48001146287E+01  0.18383441156E+02  0.12788026203E+02  0.22902524388E+02  0.00000000000E+00 0. -1.
</event>
<event>
 8    1  0.3011071E-007  0.9118800E+02  0.7816164E-02  0.1184000E+00
        -11   -1    0    0    0    0  0.00000000000E+00  0.00000000000E+00  0.45593999997E+02  0.45594000000E+02  0.51100000000E-03 0. -1.
         11   -1    0    0    0    0 -0.00000000000E+00 -0.00000000000E+00 -0.45593999997E+02  0.45594000000E+02  0.51100000000E-03 0.  1.
         23    2    1    2    0    0  0.71054273576E-14  0.00000000000E+00  0.35527136788E-14  0.91188000000E+02  0.91188000000E+02 0.  0.
    9900012    2    3    3    0    0  0.29983270628E+02 -0.78481679006E+01  0.19879354071E+02  0.54367095948E+02  0.40000026833E+02 0.  0.
        -12    1    3    3    0    0 -0.29983270628E+02  0.78481679006E+01 -0.19879354071E+02  0.36820904052E+02  0.00000000000E+00 0.  1.
         11    1    4    4    0    0  0.55962703343E+01  0.77976400842E+01  0.45576541517E+01  0.10625142077E+02  0.51100000000E-03 0. -1.
        -11    1    4    4    0    0  0.29446925562E+02 -0.10499929177E+02  0.17964052351E+02  0.36056582130E+02  0.51100000000E-03 0.  1.
        -12    1    4    4    0    0 -0.50599252681E+01 -0.51458788076E+01 -0.26423524319E+01  0.76853717409E+01  0.00000000000E+00 0.  1.
</event>
<event>
 8    1  0.3011071E-007  0.9118800E+02  0.7816164E-02  0.1184000E+00
        -11   -1    0    0    0    0  0.00000000000E+00  0.00000000000E+00  0.45593999997E+02  0.45594000000E+02  0.51100000000E-03 0. -1.
         11   -1    0    0    0    0 -0.00000000000E+00 -0.00000000000E+00 -0.45593999997E+02  0.45594000000E+02  0.51100000000E-03 0.  1.
         23    2    1    2    0    0 -0.88817841970E-15  0.00000000000E+00 -0.71054273576E-14  0.91188000000E+02  0.91188000000E+02 0.  0.
    9900012    2    3    3    0    0 -0.51066960527E+01  0.16413792831E+02 -0.32562060303E+02  0.54367099538E+02  0.40000035016E+02 0.  0.
         12    1    3    3    0    0  0.51066960527E+01 -0.16413792831E+02  0.32562060303E+02  0.36820900462E+02  0.00000000000E+00 0. -1.
         11    1    4    4    0    0  0.19100511464E+01 -0.69230329801E+01  0.23275047094E+00  0.71854612983E+01  0.51100000000E-03 0. -1.
        -11    1    4    4    0    0  0.78288558361E+01  0.13867718960E+02 -0.12042876340E+02  0.19965857949E+02  0.51100000000E-03 0.  1.
        -12    1    4    4    0    0 -0.14845603035E+02  0.94691068513E+01 -0.20751934434E+02  0.27215780290E+02  0.00000000000E+00 0.  1.
</event>
<event>
 8    1  0.3011071E-007  0.9118800E+02  0.7816164E-02  0.1184000E+00
        -11   -1    0    0    0    0  0.00000000000E+00  0.00000000000E+00  0.45593999997E+02  0.45594000000E+02  0.51100000000E-03 0.  1.
         11   -1    0    0    0    0 -0.00000000000E+00 -0.00000000000E+00 -0.45593999997E+02  0.45594000000E+02  0.51100000000E-03 0. -1.
         23    2    1    2    0    0 -0.35527136788E-14 -0.16653345369E-15 -0.35527136788E-14  0.91188000000E+02  0.91188000000E+02 0.  0.
    9900012    2    3    3    0    0 -0.31727726319E+02  0.15589866296E+00 -0.18684370065E+02  0.54367100955E+02  0.40000038247E+02 0.  0.
        -12    1    3    3    0    0  0.31727726319E+02 -0.15589866296E+00  0.18684370065E+02  0.36820899045E+02  0.00000000000E+00 0.  1.
         11    1    4    4    0    0  0.35484377227E+00  0.30452861737E+01 -0.60709347403E+01  0.68011712862E+01  0.51100000000E-03 0. -1.
        -11    1    4    4    0    0 -0.38583011563E+02 -0.20421067002E+01 -0.13549600659E+02  0.40943994179E+02  0.51100000000E-03 0.  1.
         12    1    4    4    0    0  0.65004414718E+01 -0.84728081049E+00  0.93616533386E+00  0.66219354899E+01  0.00000000000E+00 0. -1.
</event>
<event>
 8    1  0.3011071E-007  0.9118800E+02  0.7816164E-02  0.1184000E+00
        -11   -1    0    0    0    0  0.00000000000E+00  0.00000000000E+00  0.45593999997E+02  0.45594000000E+02  0.51100000000E-03 0.  1.
         11   -1    0    0    0    0 -0.00000000000E+00 -0.00000000000E+00 -0.45593999997E+02  0.45594000000E+02  0.51100000000E-03 0. -1.
         23    2    1    2    0    0 -0.35527136788E-14  0.00000000000E+00 -0.35527136788E-14  0.91188000000E+02  0.91188000000E+02 0.  0.
    9900012    2    3    3    0    0  0.29196927217E+02  0.56331361075E+01  0.21716058000E+02  0.54367082624E+02  0.39999996459E+02 0.  0.
         12    1    3    3    0    0 -0.29196927217E+02 -0.56331361075E+01 -0.21716058000E+02  0.36820917376E+02  0.00000000000E+00 0. -1.
         11    1    4    4    0    0  0.17258778318E+02 -0.14532617194E+02  0.19131084223E+01  0.22643373769E+02  0.51100000000E-03 0. -1.
        -11    1    4    4    0    0  0.24486196893E+01  0.10069390285E+02  0.52037453787E+01  0.11596004714E+02  0.51100000000E-03 0.  1.
        -12    1    4    4    0    0  0.94895292099E+01  0.10096363017E+02  0.14599204199E+02  0.20127704142E+02  0.00000000000E+00 0.  1.
</event>
<event>
 8    1  0.3011071E-007  0.9118800E+02  0.7816164E-02  0.1184000E+00
        -11   -1    0    0    0    0  0.00000000000E+00  0.00000000000E+00  0.45593999997E+02  0.45594000000E+02  0.51100000000E-03 0. -1.
         11   -1    0    0    0    0 -0.00000000000E+00 -0.00000000000E+00 -0.45593999997E+02  0.45594000000E+02  0.51100000000E-03 0.  1.
         23    2    1    2    0    0 -0.17763568394E-14  0.00000000000E+00  0.35527136788E-14  0.91188000000E+02  0.91188000000E+02 0.  0.
    9900012    2    3    3    0    0  0.69874192646E+01 -0.29983972351E+02 -0.20196930553E+02  0.54367100640E+02  0.40000037529E+02 0.  0.
         12    1    3    3    0    0 -0.69874192646E+01  0.29983972351E+02  0.20196930553E+02  0.36820899360E+02  0.00000000000E+00 0. -1.
         11    1    4    4    0    0  0.16363611959E-01  0.13004387709E+01  0.32075760882E+00  0.13395127731E+01  0.51100000000E-03 0. -1.
        -11    1    4    4    0    0 -0.13980788494E+02 -0.64190817337E+01 -0.11728926704E+02  0.19345148723E+02  0.51100000000E-03 0.  1.
        -12    1    4    4    0    0  0.20951844147E+02 -0.24865329388E+02 -0.87887614575E+01  0.33682439144E+02  0.00000000000E+00 0.  1.
</event>
<event>
 8    1  0.3011071E-007  0.9118800E+02  0.7816164E-02  0.1184000E+00
        -11   -1    0    0    0    0  0.00000000000E+00  0.00000000000E+00  0.45593999997E+02  0.45594000000E+02  0.51100000000E-03 0.  1.
         11   -1    0    0    0    0 -0.00000000000E+00 -0.00000000000E+00 -0.45593999997E+02  0.45594000000E+02  0.51100000000E-03 0. -1.
         23    2    1    2    0    0  0.00000000000E+00  0.00000000000E+00  0.00000000000E+00  0.91188000000E+02  0.91188000000E+02 0.  0.
    9900012    2    3    3    0    0 -0.17883463141E+02  0.22795192520E+02  0.22723109532E+02  0.54367098833E+02  0.40000033409E+02 0.  0.
         12    1    3    3    0    0  0.17883463141E+02 -0.22795192520E+02 -0.22723109532E+02  0.36820901167E+02  0.00000000000E+00 0. -1.
         11    1    4    4    0    0 -0.74900531846E+01 -0.53258181079E+01 -0.50727677557E+01  0.10497533434E+02  0.51100000000E-03 0. -1.
        -11    1    4    4    0    0 -0.19845806639E+01  0.67339810173E+01 -0.93089748080E+00  0.70817816356E+01  0.51100000000E-03 0.  1.
         12    1    4    4    0    0 -0.84088292929E+01  0.21387029611E+02  0.28726774768E+02  0.36787783764E+02  0.00000000000E+00 0. -1.
</event>
<event>
 8    1  0.3011071E-007  0.9118800E+02  0.7816164E-02  0.1184000E+00
        -11   -1    0    0    0    0  0.00000000000E+00  0.00000000000E+00  0.45593999997E+02  0.45594000000E+02  0.51100000000E-03 0.  1.
         11   -1    0    0    0    0 -0.00000000000E+00 -0.00000000000E+00 -0.45593999997E+02  0.45594000000E+02  0.51100000000E-03 0. -1.
         23    2    1    2    0    0  0.00000000000E+00  0.88817841970E-15  0.00000000000E+00  0.91188000000E+02  0.91188000000E+02 0.  0.
    9900012    2    3    3    0    0  0.31564685683E+02 -0.41734229346E+01 -0.18494167125E+02  0.54367067653E+02  0.39999962328E+02 0.  0.
        -12    1    3    3    0    0 -0.31564685683E+02  0.41734229346E+01  0.18494167125E+02  0.36820932347E+02  0.00000000000E+00 0.  1.
         11    1    4    4    0    0  0.32137507511E+00  0.52493044825E+01 -0.76455747727E+01  0.92797248533E+01  0.51100000000E-03 0. -1.
        -11    1    4    4    0    0  0.13410371730E+01  0.84645732463E+01  0.77463804204E-01  0.85704948424E+01  0.51100000000E-03 0.  1.
         12    1    4    4    0    0  0.29902273435E+02 -0.17887300663E+02 -0.10926056157E+02  0.36516847957E+02  0.00000000000E+00 0. -1.
</event>
<event>
 8    1  0.3011071E-007  0.9118800E+02  0.7816164E-02  0.1184000E+00
        -11   -1    0    0    0    0  0.00000000000E+00  0.00000000000E+00  0.45593999997E+02  0.45594000000E+02  0.51100000000E-03 0.  1.
         11   -1    0    0    0    0 -0.00000000000E+00 -0.00000000000E+00 -0.45593999997E+02  0.45594000000E+02  0.51100000000E-03 0. -1.
         23    2    1    2    0    0  0.88817841970E-15 -0.71054273576E-14  0.00000000000E+00  0.91188000000E+02  0.91188000000E+02 0.  0.
    9900012    2    3    3    0    0  0.43285592702E+01  0.35288381157E+02  0.95798724412E+01  0.54367078963E+02  0.39999988112E+02 0.  0.
         12    1    3    3    0    0 -0.43285592702E+01 -0.35288381157E+02 -0.95798724412E+01  0.36820921037E+02  0.00000000000E+00 0. -1.
         11    1    4    4    0    0  0.54223765664E+01 -0.28826387541E+01  0.91310742786E+01  0.11004012521E+02  0.51100000000E-03 0. -1.
        -11    1    4    4    0    0 -0.97285544332E+01  0.25856804373E+02 -0.34098677510E+01  0.27836061181E+02  0.51100000000E-03 0.  1.
         12    1    4    4    0    0  0.86347371369E+01  0.12314215538E+02  0.38586659137E+01  0.15527005261E+02  0.00000000000E+00 0. -1.
</event>
<event>
 8    1  0.3011071E-007  0.9118800E+02  0.7816164E-02  0.1184000E+00
        -11   -1    0    0    0    0  0.00000000000E+00  0.00000000000E+00  0.45593999997E+02  0.45594000000E+02  0.51100000000E-03 0.  1.
         11   -1    0    0    0    0 -0.00000000000E+00 -0.00000000000E+00 -0.45593999997E+02  0.45594000000E+02  0.51100000000E-03 0. -1.
         23    2    1    2    0    0  0.88817841970E-15  0.00000000000E+00  0.00000000000E+00  0.91188000000E+02  0.91188000000E+02 0.  0.
    9900012    2    3    3    0    0 -0.20818399469E+01  0.12941577090E+02 -0.34408740604E+02  0.54367083321E+02  0.39999998046E+02 0.  0.
        -12    1    3    3    0    0  0.20818399469E+01 -0.12941577090E+02  0.34408740604E+02  0.36820916679E+02  0.00000000000E+00 0.  1.
         11    1    4    4    0    0 -0.59894726852E+01 -0.56667591191E+01  0.60890819421E+00  0.82678117667E+01  0.51100000000E-03 0. -1.
        -11    1    4    4    0    0 -0.30763255240E+01 -0.89013462807E+00  0.19324449999E+01  0.37403826441E+01  0.51100000000E-03 0.  1.
         12    1    4    4    0    0  0.69839582623E+01  0.19498470837E+02 -0.36950093798E+02  0.42358888910E+02  0.00000000000E+00 0. -1.
</event>
<event>
 8    1  0.3011071E-007  0.9118800E+02  0.7816164E-02  0.1184000E+00
        -11   -1    0    0    0    0  0.00000000000E+00  0.00000000000E+00  0.45593999997E+02  0.45594000000E+02  0.51100000000E-03 0.  1.
         11   -1    0    0    0    0 -0.00000000000E+00 -0.00000000000E+00 -0.45593999997E+02  0.45594000000E+02  0.51100000000E-03 0. -1.
         23    2    1    2    0    0  0.00000000000E+00 -0.17763568394E-14 -0.35527136788E-14  0.91188000000E+02  0.91188000000E+02 0.  0.
    9900012    2    3    3    0    0 -0.29521400401E+02  0.91397110764E+01  0.20018293963E+02  0.54367088912E+02  0.40000010792E+02 0.  0.
         12    1    3    3    0    0  0.29521400401E+02 -0.91397110764E+01 -0.20018293963E+02  0.36820911088E+02  0.00000000000E+00 0. -1.
         11    1    4    4    0    0 -0.19052978580E+00  0.26794438787E+01 -0.11965279506E+01  0.29406462718E+01  0.51100000000E-03 0. -1.
        -11    1    4    4    0    0 -0.14484007419E+02  0.61775800834E+01  0.30208178652E+02  0.34065863036E+02  0.51100000000E-03 0.  1.
        -12    1    4    4    0    0 -0.14846863196E+02  0.28268711437E+00 -0.89933567389E+01  0.17360579604E+02  0.00000000000E+00 0.  1.
</event>
<event>
 8    1  0.3011071E-007  0.9118800E+02  0.7816164E-02  0.1184000E+00
        -11   -1    0    0    0    0  0.00000000000E+00  0.00000000000E+00  0.45593999997E+02  0.45594000000E+02  0.51100000000E-03 0.  1.
         11   -1    0    0    0    0 -0.00000000000E+00 -0.00000000000E+00 -0.45593999997E+02  0.45594000000E+02  0.51100000000E-03 0. -1.
         23    2    1    2    0    0  0.00000000000E+00  0.00000000000E+00  0.00000000000E+00  0.91188000000E+02  0.91188000000E+02 0.  0.
    9900012    2    3    3    0    0  0.35748995531E+02  0.32050407337E+01 -0.82168826709E+01  0.54367080288E+02  0.39999991133E+02 0.  0.
         12    1    3    3    0    0 -0.35748995531E+02 -0.32050407337E+01  0.82168826709E+01  0.36820919712E+02  0.00000000000E+00 0. -1.
         11    1    4    4    0    0  0.13552745442E+00  0.45286868873E+01  0.91916048453E+01  0.10247583740E+02  0.51100000000E-03 0. -1.
        -11    1    4    4    0    0  0.36647798870E+02  0.61375020578E+00 -0.12472445797E+02  0.38716918211E+02  0.51100000000E-03 0.  1.
         12    1    4    4    0    0 -0.10343307932E+01 -0.19373963594E+01 -0.49360417190E+01  0.54025783377E+01  0.00000000000E+00 0. -1.
</event>
<event>
 8    1  0.3011071E-007  0.9118800E+02  0.7816164E-02  0.1184000E+00
        -11   -1    0    0    0    0  0.00000000000E+00  0.00000000000E+00  0.45593999997E+02  0.45594000000E+02  0.51100000000E-03 0. -1.
         11   -1    0    0    0    0 -0.00000000000E+00 -0.00000000000E+00 -0.45593999997E+02  0.45594000000E+02  0.51100000000E-03 0.  1.
         23    2    1    2    0    0  0.00000000000E+00 -0.17763568394E-14  0.00000000000E+00  0.91188000000E+02  0.91188000000E+02 0.  0.
    9900012    2    3    3    0    0  0.26131547793E+02  0.40283561484E+01 -0.25626046833E+02  0.54367085840E+02  0.40000003789E+02 0.  0.
         12    1    3    3    0    0 -0.26131547793E+02 -0.40283561484E+01  0.25626046833E+02  0.36820914160E+02  0.00000000000E+00 0. -1.
         11    1    4    4    0    0  0.29188315793E+01 -0.11771860579E+02 -0.12317017223E+02  0.17285982553E+02  0.51100000000E-03 0. -1.
        -11    1    4    4    0    0 -0.24835540312E+00 -0.27323368149E+01  0.20915698939E+01  0.34499289498E+01  0.51100000000E-03 0.  1.
        -12    1    4    4    0    0  0.23461071617E+02  0.18532553542E+02 -0.15400599504E+02  0.33631174337E+02  0.00000000000E+00 0.  1.
</event>
<event>
 8    1  0.3011071E-007  0.9118800E+02  0.7816164E-02  0.1184000E+00
        -11   -1    0    0    0    0  0.00000000000E+00  0.00000000000E+00  0.45593999997E+02  0.45594000000E+02  0.51100000000E-03 0.  1.
         11   -1    0    0    0    0 -0.00000000000E+00 -0.00000000000E+00 -0.45593999997E+02  0.45594000000E+02  0.51100000000E-03 0. -1.
         23    2    1    2    0    0  0.00000000000E+00  0.17763568394E-14  0.00000000000E+00  0.91188000000E+02  0.91188000000E+02 0.  0.
    9900012    2    3    3    0    0 -0.13679531382E+02 -0.88895504426E+01  0.33009466401E+02  0.54367101614E+02  0.40000039749E+02 0.  0.
         12    1    3    3    0    0  0.13679531382E+02  0.88895504426E+01 -0.33009466401E+02  0.36820898386E+02  0.00000000000E+00 0. -1.
         11    1    4    4    0    0 -0.18093807304E+02 -0.35563195976E+01  0.27974214824E+02  0.33505073752E+02  0.51100000000E-03 0. -1.
        -11    1    4    4    0    0 -0.19652212824E+01  0.64872050143E+01  0.22693128445E+01  0.71481259526E+01  0.51100000000E-03 0.  1.
         12    1    4    4    0    0  0.63794972051E+01 -0.11820435859E+02  0.27659387323E+01  0.13713901909E+02  0.00000000000E+00 0. -1.
</event>
<event>
 8    1  0.3011071E-007  0.9118800E+02  0.7816164E-02  0.1184000E+00
        -11   -1    0    0    0    0  0.00000000000E+00  0.00000000000E+00  0.45593999997E+02  0.45594000000E+02  0.51100000000E-03 0. -1.
         11   -1    0    0    0    0 -0.00000000000E+00 -0.00000000000E+00 -0.45593999997E+02  0.45594000000E+02  0.51100000000E-03 0.  1.
         23    2    1    2    0    0  0.00000000000E+00 -0.88817841970E-15  0.35527136788E-14  0.91188000000E+02  0.91188000000E+02 0.  0.
    9900012    2    3    3    0    0 -0.26388589825E+02  0.75588907293E+01 -0.24541553846E+02  0.54367049887E+02  0.39999921828E+02 0.  0.
         12    1    3    3    0    0  0.26388589825E+02 -0.75588907293E+01  0.24541553846E+02  0.36820950113E+02  0.00000000000E+00 0. -1.
         11    1    4    4    0    0 -0.20537850076E+02 -0.43957434346E+00 -0.15871489626E+02  0.25959597349E+02  0.51100000000E-03 0. -1.
        -11    1    4    4    0    0  0.84248555795E+01  0.62610766944E+01 -0.92842086166E+01  0.14013415102E+02  0.51100000000E-03 0.  1.
         12    1    4    4    0    0 -0.14275595329E+02  0.17373883784E+01  0.61414439605E+00  0.14394037437E+02  0.00000000000E+00 0. -1.
</event>
<event>
 8    1  0.3011071E-007  0.9118800E+02  0.7816164E-02  0.1184000E+00
        -11   -1    0    0    0    0  0.00000000000E+00  0.00000000000E+00  0.45593999997E+02  0.45594000000E+02  0.51100000000E-03 0.  1.
         11   -1    0    0    0    0 -0.00000000000E+00 -0.00000000000E+00 -0.45593999997E+02  0.45594000000E+02  0.51100000000E-03 0. -1.
         23    2    1    2    0    0  0.00000000000E+00  0.00000000000E+00  0.71054273576E-14  0.91188000000E+02  0.91188000000E+02 0.  0.
    9900012    2    3    3    0    0  0.89516181661E+01  0.14897470580E+02  0.32460956607E+02  0.54367084730E+02  0.40000001260E+02 0.  0.
         12    1    3    3    0    0 -0.89516181661E+01 -0.14897470580E+02 -0.32460956607E+02  0.36820915270E+02  0.00000000000E+00 0. -1.
         11    1    4    4    0    0  0.14334450589E+02  0.10916188142E+02 -0.51293536865E+00  0.18025058673E+02  0.51100000000E-03 0. -1.
        -11    1    4    4    0    0 -0.86660337450E+01  0.48411509628E+01  0.14584870090E+02  0.17642429519E+02  0.51100000000E-03 0.  1.
         12    1    4    4    0    0  0.32832013225E+01 -0.85986852410E+00  0.18389021885E+02  0.18699596538E+02  0.00000000000E+00 0. -1.
</event>
<event>
 8    1  0.3011071E-007  0.9118800E+02  0.7816164E-02  0.1184000E+00
        -11   -1    0    0    0    0  0.00000000000E+00  0.00000000000E+00  0.45593999997E+02  0.45594000000E+02  0.51100000000E-03 0.  1.
         11   -1    0    0    0    0 -0.00000000000E+00 -0.00000000000E+00 -0.45593999997E+02  0.45594000000E+02  0.51100000000E-03 0. -1.
         23    2    1    2    0    0  0.44408920985E-15 -0.44408920985E-15  0.00000000000E+00  0.91188000000E+02  0.91188000000E+02 0.  0.
    9900012    2    3    3    0    0  0.28324721145E+01 -0.26964668070E+01  0.36612648044E+02  0.54367084363E+02  0.40000000422E+02 0.  0.
         12    1    3    3    0    0 -0.28324721145E+01  0.26964668070E+01 -0.36612648044E+02  0.36820915637E+02  0.00000000000E+00 0. -1.
         11    1    4    4    0    0  0.18442369958E+02 -0.52420294426E+01  0.20616823845E+02  0.28154099312E+02  0.51100000000E-03 0. -1.
        -11    1    4    4    0    0 -0.17947271265E+02  0.10720146239E+01  0.14282765460E+02  0.22961950062E+02  0.51100000000E-03 0.  1.
        -12    1    4    4    0    0  0.23373734216E+01  0.14735480117E+01  0.17130587396E+01  0.32510349891E+01  0.00000000000E+00 0.  1.
</event>
<event>
 8    1  0.3011071E-007  0.9118800E+02  0.7816164E-02  0.1184000E+00
        -11   -1    0    0    0    0  0.00000000000E+00  0.00000000000E+00  0.45593999997E+02  0.45594000000E+02  0.51100000000E-03 0. -1.
         11   -1    0    0    0    0 -0.00000000000E+00 -0.00000000000E+00 -0.45593999997E+02  0.45594000000E+02  0.51100000000E-03 0.  1.
         23    2    1    2    0    0  0.00000000000E+00 -0.35527136788E-14 -0.35527136788E-14  0.91188000000E+02  0.91188000000E+02 0.  0.
    9900012    2    3    3    0    0 -0.74509028422E+01  0.18176008686E+02  0.31143308101E+02  0.54366961389E+02  0.39999720077E+02 0.  0.
         12    1    3    3    0    0  0.74509028422E+01 -0.18176008686E+02 -0.31143308101E+02  0.36821038611E+02  0.00000000000E+00 0. -1.
         11    1    4    4    0    0  0.80335624049E+00  0.69557236945E+01  0.34299438628E+02  0.35006841672E+02  0.51100000000E-03 0. -1.
        -11    1    4    4    0    0 -0.43849674458E+01  0.87012892646E+01 -0.80449579183E+01  0.12635731975E+02  0.51100000000E-03 0.  1.
         12    1    4    4    0    0 -0.38692916370E+01  0.25189957274E+01  0.48888273913E+01  0.67243877422E+01  0.00000000000E+00 0. -1.
</event>
<event>
 8    1  0.3011071E-007  0.9118800E+02  0.7816164E-02  0.1184000E+00
        -11   -1    0    0    0    0  0.00000000000E+00  0.00000000000E+00  0.45593999997E+02  0.45594000000E+02  0.51100000000E-03 0.  1.
         11   -1    0    0    0    0 -0.00000000000E+00 -0.00000000000E+00 -0.45593999997E+02  0.45594000000E+02  0.51100000000E-03 0. -1.
         23    2    1    2    0    0  0.00000000000E+00  0.35527136788E-14  0.35527136788E-14  0.91188000000E+02  0.91188000000E+02 0.  0.
    9900012    2    3    3    0    0  0.85788593921E+01  0.22867449462E+02  0.27554711928E+02  0.54367092586E+02  0.40000019168E+02 0.  0.
         12    1    3    3    0    0 -0.85788593921E+01 -0.22867449462E+02 -0.27554711928E+02  0.36820907414E+02  0.00000000000E+00 0. -1.
         11    1    4    4    0    0  0.80021112124E+00 -0.99757144116E+01  0.84614245206E+01  0.13105377562E+02  0.51100000000E-03 0. -1.
        -11    1    4    4    0    0 -0.12352555162E+01  0.12483983244E+01 -0.16469596897E+01  0.24076609078E+01  0.51100000000E-03 0.  1.
        -12    1    4    4    0    0  0.90139037871E+01  0.31594765549E+02  0.20740247097E+02  0.38854054116E+02  0.00000000000E+00 0.  1.
</event>
<event>
 8    1  0.3011071E-007  0.9118800E+02  0.7816164E-02  0.1184000E+00
        -11   -1    0    0    0    0  0.00000000000E+00  0.00000000000E+00  0.45593999997E+02  0.45594000000E+02  0.51100000000E-03 0. -1.
         11   -1    0    0    0    0 -0.00000000000E+00 -0.00000000000E+00 -0.45593999997E+02  0.45594000000E+02  0.51100000000E-03 0.  1.
         23    2    1    2    0    0  0.00000000000E+00 -0.35527136788E-14  0.35527136788E-14  0.91188000000E+02  0.91188000000E+02 0.  0.
    9900012    2    3    3    0    0 -0.42807649574E+01  0.21451017378E+02 -0.29619379655E+02  0.54367099056E+02  0.40000033918E+02 0.  0.
         12    1    3    3    0    0  0.42807649574E+01 -0.21451017378E+02  0.29619379655E+02  0.36820900944E+02  0.00000000000E+00 0. -1.
         11    1    4    4    0    0  0.54376934788E+01  0.79536067075E+01  0.64942500231E+01  0.11619107266E+02  0.51100000000E-03 0. -1.
        -11    1    4    4    0    0 -0.87625020153E+01  0.13496713311E+00 -0.93269116980E+01  0.12798083442E+02  0.51100000000E-03 0.  1.
        -12    1    4    4    0    0 -0.95595642095E+00  0.13362443538E+02 -0.26786717980E+02  0.29949908349E+02  0.00000000000E+00 0.  1.
</event>
<event>
 8    1  0.3011071E-007  0.9118800E+02  0.7816164E-02  0.1184000E+00
        -11   -1    0    0    0    0  0.00000000000E+00  0.00000000000E+00  0.45593999997E+02  0.45594000000E+02  0.51100000000E-03 0.  1.
         11   -1    0    0    0    0 -0.00000000000E+00 -0.00000000000E+00 -0.45593999997E+02  0.45594000000E+02  0.51100000000E-03 0. -1.
         23    2    1    2    0    0  0.00000000000E+00 -0.35527136788E-14  0.00000000000E+00  0.91188000000E+02  0.91188000000E+02 0.  0.
    9900012    2    3    3    0    0 -0.16255255921E+02 -0.29709508620E+02 -0.14453135793E+02  0.54367063269E+02  0.39999952334E+02 0.  0.
        -12    1    3    3    0    0  0.16255255921E+02  0.29709508620E+02  0.14453135793E+02  0.36820936731E+02  0.00000000000E+00 0.  1.
         11    1    4    4    0    0 -0.98262057635E+01 -0.60496507909E+01  0.76389354987E+00  0.11564433752E+02  0.51100000000E-03 0. -1.
        -11    1    4    4    0    0 -0.15407914214E+02 -0.52588739973E+01 -0.15279707164E+02  0.22327763601E+02  0.51100000000E-03 0.  1.
         12    1    4    4    0    0  0.89788640565E+01 -0.18400983832E+02  0.62677821376E-01  0.20474865915E+02  0.00000000000E+00 0. -1.
</event>
<event>
 8    1  0.3011071E-007  0.9118800E+02  0.7816164E-02  0.1184000E+00
        -11   -1    0    0    0    0  0.00000000000E+00  0.00000000000E+00  0.45593999997E+02  0.45594000000E+02  0.51100000000E-03 0. -1.
         11   -1    0    0    0    0 -0.00000000000E+00 -0.00000000000E+00 -0.45593999997E+02  0.45594000000E+02  0.51100000000E-03 0.  1.
         23    2    1    2    0    0  0.00000000000E+00  0.00000000000E+00  0.00000000000E+00  0.91188000000E+02  0.91188000000E+02 0.  0.
    9900012    2    3    3    0    0 -0.10920833455E+02  0.34090125363E+02  0.86242230162E+01  0.54367102764E+02  0.40000042370E+02 0.  0.
        -12    1    3    3    0    0  0.10920833455E+02 -0.34090125363E+02 -0.86242230162E+01  0.36820897236E+02  0.00000000000E+00 0.  1.
         11    1    4    4    0    0 -0.95609990728E+01 -0.36032914464E+01  0.77202031558E+00  0.10246581291E+02  0.51100000000E-03 0. -1.
        -11    1    4    4    0    0  0.76383273158E+01  0.10501817349E+02 -0.32763266226E+01  0.13392778958E+02  0.51100000000E-03 0.  1.
        -12    1    4    4    0    0 -0.89981616982E+01  0.27191599461E+02  0.11128529323E+02  0.30727742515E+02  0.00000000000E+00 0.  1.
</event>
<event>
 8    1  0.3011071E-007  0.9118800E+02  0.7816164E-02  0.1184000E+00
        -11   -1    0    0    0    0  0.00000000000E+00  0.00000000000E+00  0.45593999997E+02  0.45594000000E+02  0.51100000000E-03 0.  1.
         11   -1    0    0    0    0 -0.00000000000E+00 -0.00000000000E+00 -0.45593999997E+02  0.45594000000E+02  0.51100000000E-03 0. -1.
         23    2    1    2    0    0  0.44408920985E-15  0.44408920985E-15  0.00000000000E+00  0.91188000000E+02  0.91188000000E+02 0.  0.
    9900012    2    3    3    0    0 -0.21979988685E+01  0.19357872467E+01  0.36704267905E+02  0.54367058218E+02  0.39999940819E+02 0.  0.
         12    1    3    3    0    0  0.21979988685E+01 -0.19357872467E+01 -0.36704267905E+02  0.36820941782E+02  0.00000000000E+00 0. -1.
         11    1    4    4    0    0 -0.59593837623E+01 -0.11215575756E+02  0.37813378020E+02  0.39889283673E+02  0.51100000000E-03 0. -1.
        -11    1    4    4    0    0  0.47914718371E+01  0.11637915808E+02 -0.12136175996E+01  0.12644056100E+02  0.51100000000E-03 0.  1.
         12    1    4    4    0    0 -0.10300869433E+01  0.15134471943E+01  0.10450748417E+00  0.18337184448E+01  0.00000000000E+00 0. -1.
</event>
<event>
 8    1  0.3011071E-007  0.9118800E+02  0.7816164E-02  0.1184000E+00
        -11   -1    0    0    0    0  0.00000000000E+00  0.00000000000E+00  0.45593999997E+02  0.45594000000E+02  0.51100000000E-03 0. -1.
         11   -1    0    0    0    0 -0.00000000000E+00 -0.00000000000E+00 -0.45593999997E+02  0.45594000000E+02  0.51100000000E-03 0.  1.
         23    2    1    2    0    0  0.00000000000E+00  0.00000000000E+00  0.00000000000E+00  0.91188000000E+02  0.91188000000E+02 0.  0.
    9900012    2    3    3    0    0  0.20476273673E+02 -0.30033734330E+02  0.58716953603E+01  0.54367084914E+02  0.40000001679E+02 0.  0.
         12    1    3    3    0    0 -0.20476273673E+02  0.30033734330E+02 -0.58716953603E+01  0.36820915086E+02  0.00000000000E+00 0. -1.
         11    1    4    4    0    0  0.13292201403E+02 -0.18030200735E+01  0.13978201281E+02  0.19373270525E+02  0.51100000000E-03 0. -1.
        -11    1    4    4    0    0 -0.14147518395E+01  0.15244803298E+01 -0.29274647116E+01  0.35910462183E+01  0.51100000000E-03 0.  1.
         12    1    4    4    0    0  0.85988241100E+01 -0.29755194587E+02 -0.51790412089E+01  0.31402768171E+02  0.00000000000E+00 0. -1.
</event>
<event>
 8    1  0.3011071E-007  0.9118800E+02  0.7816164E-02  0.1184000E+00
        -11   -1    0    0    0    0  0.00000000000E+00  0.00000000000E+00  0.45593999997E+02  0.45594000000E+02  0.51100000000E-03 0.  1.
         11   -1    0    0    0    0 -0.00000000000E+00 -0.00000000000E+00 -0.45593999997E+02  0.45594000000E+02  0.51100000000E-03 0. -1.
         23    2    1    2    0    0  0.00000000000E+00 -0.35527136788E-14 -0.35527136788E-14  0.91188000000E+02  0.91188000000E+02 0.  0.
    9900012    2    3    3    0    0  0.81612988542E+01 -0.25257689527E+02 -0.25519057517E+02  0.54367082361E+02  0.39999995858E+02 0.  0.
        -12    1    3    3    0    0 -0.81612988542E+01  0.25257689527E+02  0.25519057517E+02  0.36820917639E+02  0.00000000000E+00 0.  1.
         11    1    4    4    0    0 -0.66988300878E+01 -0.75198280444E+01  0.76031233131E+01  0.12618622062E+02  0.51100000000E-03 0.  1.
        -11    1    4    4    0    0  0.90747271923E+01 -0.29856951522E+01 -0.11782990154E+02  0.15169176193E+02  0.51100000000E-03 0. -1.
        -12    1    4    4    0    0  0.57854017497E+01 -0.14752166330E+02 -0.21339190677E+02  0.26579284106E+02  0.00000000000E+00 0.  1.
</event>
<event>
 8    1  0.3011071E-007  0.9118800E+02  0.7816164E-02  0.1184000E+00
        -11   -1    0    0    0    0  0.00000000000E+00  0.00000000000E+00  0.45593999997E+02  0.45594000000E+02  0.51100000000E-03 0. -1.
         11   -1    0    0    0    0 -0.00000000000E+00 -0.00000000000E+00 -0.45593999997E+02  0.45594000000E+02  0.51100000000E-03 0.  1.
         23    2    1    2    0    0 -0.13322676296E-14  0.00000000000E+00  0.17763568394E-14  0.91188000000E+02  0.91188000000E+02 0.  0.
    9900012    2    3    3    0    0  0.20855451228E+01  0.34345905336E+02  0.13106835544E+02  0.54367084072E+02  0.39999999759E+02 0.  0.
        -12    1    3    3    0    0 -0.20855451228E+01 -0.34345905336E+02 -0.13106835544E+02  0.36820915928E+02  0.00000000000E+00 0.  1.
         11    1    4    4    0    0  0.58871867162E+01  0.14553257722E+02  0.17305809635E+02  0.23365515726E+02  0.51100000000E-03 0. -1.
        -11    1    4    4    0    0  0.79140213413E+01  0.28721794237E+00 -0.18068313920E+01  0.81227377082E+01  0.51100000000E-03 0.  1.
        -12    1    4    4    0    0 -0.11715662935E+02  0.19505429671E+02 -0.23921426985E+01  0.22878830638E+02  0.00000000000E+00 0.  1.
</event>
<event>
 8    1  0.3011071E-007  0.9118800E+02  0.7816164E-02  0.1184000E+00
        -11   -1    0    0    0    0  0.00000000000E+00  0.00000000000E+00  0.45593999997E+02  0.45594000000E+02  0.51100000000E-03 0. -1.
         11   -1    0    0    0    0 -0.00000000000E+00 -0.00000000000E+00 -0.45593999997E+02  0.45594000000E+02  0.51100000000E-03 0.  1.
         23    2    1    2    0    0  0.33306690739E-15  0.00000000000E+00  0.00000000000E+00  0.91188000000E+02  0.91188000000E+02 0.  0.
    9900012    2    3    3    0    0  0.90336440510E+00 -0.19049754266E+02  0.31497112060E+02  0.54367119064E+02  0.40000079529E+02 0.  0.
        -12    1    3    3    0    0 -0.90336440510E+00  0.19049754266E+02 -0.31497112060E+02  0.36820880936E+02  0.00000000000E+00 0.  1.
         11    1    4    4    0    0 -0.27207280793E-01  0.21326355307E+01  0.30176157211E+02  0.30251435318E+02  0.51100000000E-03 0. -1.
        -11    1    4    4    0    0 -0.38763351874E+01 -0.87058278736E+01 -0.31190028942E+01  0.10027242530E+02  0.51100000000E-03 0.  1.
         12    1    4    4    0    0  0.48069068733E+01 -0.12476561923E+02  0.44399577431E+01  0.14088441215E+02  0.00000000000E+00 0. -1.
</event>
<event>
 8    1  0.3011071E-007  0.9118800E+02  0.7816164E-02  0.1184000E+00
        -11   -1    0    0    0    0  0.00000000000E+00  0.00000000000E+00  0.45593999997E+02  0.45594000000E+02  0.51100000000E-03 0. -1.
         11   -1    0    0    0    0 -0.00000000000E+00 -0.00000000000E+00 -0.45593999997E+02  0.45594000000E+02  0.51100000000E-03 0.  1.
         23    2    1    2    0    0  0.35527136788E-14 -0.35527136788E-14 -0.17763568394E-14  0.91188000000E+02  0.91188000000E+02 0.  0.
    9900012    2    3    3    0    0  0.17363199402E+02  0.30527179274E+02 -0.11063050932E+02  0.54367075734E+02  0.39999980750E+02 0.  0.
         12    1    3    3    0    0 -0.17363199402E+02 -0.30527179274E+02  0.11063050932E+02  0.36820924266E+02  0.00000000000E+00 0. -1.
         11    1    4    4    0    0  0.47725121779E+01  0.46833150376E+01 -0.20439758903E+02  0.21505674983E+02  0.51100000000E-03 0. -1.
        -11    1    4    4    0    0  0.11859155848E+02  0.19596534523E+02  0.17453820502E+01  0.22971941613E+02  0.51100000000E-03 0.  1.
         12    1    4    4    0    0  0.73153137629E+00  0.62473297138E+01  0.76313259206E+01  0.98894591366E+01  0.00000000000E+00 0. -1.
</event>
<event>
 8    1  0.3011071E-007  0.9118800E+02  0.7816164E-02  0.1184000E+00
        -11   -1    0    0    0    0  0.00000000000E+00  0.00000000000E+00  0.45593999997E+02  0.45594000000E+02  0.51100000000E-03 0. -1.
         11   -1    0    0    0    0 -0.00000000000E+00 -0.00000000000E+00 -0.45593999997E+02  0.45594000000E+02  0.51100000000E-03 0.  1.
         23    2    1    2    0    0  0.00000000000E+00  0.00000000000E+00 -0.35527136788E-14  0.91188000000E+02  0.91188000000E+02 0.  0.
    9900012    2    3    3    0    0 -0.23389969661E+02  0.91154964440E+01  0.26936905357E+02  0.54367084390E+02  0.40000000484E+02 0.  0.
        -12    1    3    3    0    0  0.23389969661E+02 -0.91154964440E+01 -0.26936905357E+02  0.36820915610E+02  0.00000000000E+00 0.  1.
         11    1    4    4    0    0 -0.14800009327E+02  0.15352033120E+02  0.24773199170E+02  0.32686948379E+02  0.51100000000E-03 0. -1.
        -11    1    4    4    0    0  0.54355635483E+01 -0.69779095212E+00 -0.23156819801E+01  0.59493400133E+01  0.51100000000E-03 0.  1.
         12    1    4    4    0    0 -0.14025523882E+02 -0.55387457235E+01  0.44793881676E+01  0.15730795997E+02  0.00000000000E+00 0. -1.
</event>
<event>
 8    1  0.3011071E-007  0.9118800E+02  0.7816164E-02  0.1184000E+00
        -11   -1    0    0    0    0  0.00000000000E+00  0.00000000000E+00  0.45593999997E+02  0.45594000000E+02  0.51100000000E-03 0. -1.
         11   -1    0    0    0    0 -0.00000000000E+00 -0.00000000000E+00 -0.45593999997E+02  0.45594000000E+02  0.51100000000E-03 0.  1.
         23    2    1    2    0    0  0.00000000000E+00  0.00000000000E+00  0.00000000000E+00  0.91188000000E+02  0.91188000000E+02 0.  0.
    9900012    2    3    3    0    0 -0.10940542084E+02  0.10221781301E+02  0.33639191636E+02  0.54367143302E+02  0.40000134785E+02 0.  0.
        -12    1    3    3    0    0  0.10940542084E+02 -0.10221781301E+02 -0.33639191636E+02  0.36820856698E+02  0.00000000000E+00 0.  1.
         11    1    4    4    0    0 -0.14963922047E+02 -0.87378654312E+01  0.15096605934E+02  0.22982096647E+02  0.51100000000E-03 0. -1.
        -11    1    4    4    0    0  0.21209444760E+01  0.13725668999E+02  0.21269527895E+01  0.14050491927E+02  0.51100000000E-03 0.  1.
         12    1    4    4    0    0  0.19024354872E+01  0.52339777324E+01  0.16415632913E+02  0.17334554728E+02  0.00000000000E+00 0. -1.
</event>
<event>
 8    1  0.3011071E-007  0.9118800E+02  0.7816164E-02  0.1184000E+00
        -11   -1    0    0    0    0  0.00000000000E+00  0.00000000000E+00  0.45593999997E+02  0.45594000000E+02  0.51100000000E-03 0.  1.
         11   -1    0    0    0    0 -0.00000000000E+00 -0.00000000000E+00 -0.45593999997E+02  0.45594000000E+02  0.51100000000E-03 0. -1.
         23    2    1    2    0    0  0.00000000000E+00  0.00000000000E+00  0.00000000000E+00  0.91188000000E+02  0.91188000000E+02 0.  0.
    9900012    2    3    3    0    0 -0.32668783396E+02  0.12706714595E+02  0.11272595510E+02  0.54367062833E+02  0.39999951340E+02 0.  0.
         12    1    3    3    0    0  0.32668783396E+02 -0.12706714595E+02 -0.11272595510E+02  0.36820937167E+02  0.00000000000E+00 0. -1.
         11    1    4    4    0    0 -0.32405603785E+01  0.11762745300E+01 -0.65200121260E+01  0.73753245163E+01  0.51100000000E-03 0. -1.
        -11    1    4    4    0    0 -0.28407606375E+01 -0.32684560560E+01 -0.66677760954E+01  0.79505952173E+01  0.51100000000E-03 0.  1.
        -12    1    4    4    0    0 -0.26587462380E+02  0.14798896121E+02  0.24460383732E+02  0.39041143099E+02  0.00000000000E+00 0.  1.
</event>
<event>
 8    1  0.3011071E-007  0.9118800E+02  0.7816164E-02  0.1184000E+00
        -11   -1    0    0    0    0  0.00000000000E+00  0.00000000000E+00  0.45593999997E+02  0.45594000000E+02  0.51100000000E-03 0. -1.
         11   -1    0    0    0    0 -0.00000000000E+00 -0.00000000000E+00 -0.45593999997E+02  0.45594000000E+02  0.51100000000E-03 0.  1.
         23    2    1    2    0    0 -0.35527136788E-14  0.35527136788E-14 -0.88817841970E-15  0.91188000000E+02  0.91188000000E+02 0.  0.
    9900012    2    3    3    0    0 -0.29735277153E+02  0.20903011480E+02  0.58867453101E+01  0.54367131370E+02  0.40000107585E+02 0.  0.
        -12    1    3    3    0    0  0.29735277153E+02 -0.20903011480E+02 -0.58867453101E+01  0.36820868630E+02  0.00000000000E+00 0.  1.
         11    1    4    4    0    0 -0.16819739444E+01 -0.30869347918E+01  0.40571099960E+01  0.53682720255E+01  0.51100000000E-03 0. -1.
        -11    1    4    4    0    0 -0.10137379677E+02 -0.10292628527E+01  0.12772220549E+02  0.16338771886E+02  0.51100000000E-03 0.  1.
        -12    1    4    4    0    0 -0.17915923532E+02  0.25019209124E+02 -0.10942585235E+02  0.32660087459E+02  0.00000000000E+00 0.  1.
</event>
<event>
 8    1  0.3011071E-007  0.9118800E+02  0.7816164E-02  0.1184000E+00
        -11   -1    0    0    0    0  0.00000000000E+00  0.00000000000E+00  0.45593999997E+02  0.45594000000E+02  0.51100000000E-03 0. -1.
         11   -1    0    0    0    0 -0.00000000000E+00 -0.00000000000E+00 -0.45593999997E+02  0.45594000000E+02  0.51100000000E-03 0.  1.
         23    2    1    2    0    0 -0.35527136788E-14  0.00000000000E+00  0.00000000000E+00  0.91188000000E+02  0.91188000000E+02 0.  0.
    9900012    2    3    3    0    0 -0.28488238772E+02 -0.89301555533E+01 -0.21551119835E+02  0.54367106574E+02  0.40000051057E+02 0.  0.
         12    1    3    3    0    0  0.28488238772E+02  0.89301555533E+01  0.21551119835E+02  0.36820893426E+02  0.00000000000E+00 0. -1.
         11    1    4    4    0    0  0.29000548626E+01  0.79692560682E+00  0.33911680405E+01  0.45327066493E+01  0.51100000000E-03 0. -1.
        -11    1    4    4    0    0 -0.30406603239E+01  0.40151521428E+01  0.44710063547E+01  0.67347576066E+01  0.51100000000E-03 0.  1.
        -12    1    4    4    0    0 -0.28347633311E+02 -0.13742233303E+02 -0.29413294230E+02  0.43099642318E+02  0.00000000000E+00 0.  1.
</event>
<event>
 8    1  0.3011071E-007  0.9118800E+02  0.7816164E-02  0.1184000E+00
        -11   -1    0    0    0    0  0.00000000000E+00  0.00000000000E+00  0.45593999997E+02  0.45594000000E+02  0.51100000000E-03 0. -1.
         11   -1    0    0    0    0 -0.00000000000E+00 -0.00000000000E+00 -0.45593999997E+02  0.45594000000E+02  0.51100000000E-03 0.  1.
         23    2    1    2    0    0  0.00000000000E+00  0.35527136788E-14 -0.35527136788E-14  0.91188000000E+02  0.91188000000E+02 0.  0.
    9900012    2    3    3    0    0  0.12197634237E+02  0.22552929163E+02 -0.26426547428E+02  0.54367091486E+02  0.40000016661E+02 0.  0.
        -12    1    3    3    0    0 -0.12197634237E+02 -0.22552929163E+02  0.26426547428E+02  0.36820908514E+02  0.00000000000E+00 0.  1.
         11    1    4    4    0    0  0.14800858265E+02  0.25629742689E+02 -0.28595854972E+02  0.41154246896E+02  0.51100000000E-03 0. -1.
        -11    1    4    4    0    0 -0.58116369264E+01 -0.27313967083E+01 -0.30245667709E+01  0.70981445572E+01  0.51100000000E-03 0.  1.
         12    1    4    4    0    0  0.32084128980E+01 -0.34541681838E+00  0.51938743145E+01  0.61147000333E+01  0.00000000000E+00 0. -1.
</event>
<event>
 8    1  0.3011071E-007  0.9118800E+02  0.7816164E-02  0.1184000E+00
        -11   -1    0    0    0    0  0.00000000000E+00  0.00000000000E+00  0.45593999997E+02  0.45594000000E+02  0.51100000000E-03 0.  1.
         11   -1    0    0    0    0 -0.00000000000E+00 -0.00000000000E+00 -0.45593999997E+02  0.45594000000E+02  0.51100000000E-03 0. -1.
         23    2    1    2    0    0  0.35527136788E-14  0.88817841970E-15 -0.71054273576E-14  0.91188000000E+02  0.91188000000E+02 0.  0.
    9900012    2    3    3    0    0 -0.16224644417E+02 -0.72813257105E+01 -0.32241730179E+02  0.54367001161E+02  0.39999810746E+02 0.  0.
        -12    1    3    3    0    0  0.16224644417E+02  0.72813257105E+01  0.32241730179E+02  0.36820998839E+02  0.00000000000E+00 0.  1.
         11    1    4    4    0    0  0.25245213302E+01  0.33996409625E+01  0.19725507645E+01  0.46713727533E+01  0.51100000000E-03 0.  1.
        -11    1    4    4    0    0 -0.17959908388E+02 -0.54705737250E+01 -0.38545227620E+02  0.42874468612E+02  0.51100000000E-03 0. -1.
         12    1    4    4    0    0 -0.78925735839E+00 -0.52103929480E+01  0.43309466760E+01  0.68211597959E+01  0.00000000000E+00 0. -1.
</event>
<event>
 8    1  0.3011071E-007  0.9118800E+02  0.7816164E-02  0.1184000E+00
        -11   -1    0    0    0    0  0.00000000000E+00  0.00000000000E+00  0.45593999997E+02  0.45594000000E+02  0.51100000000E-03 0.  1.
         11   -1    0    0    0    0 -0.00000000000E+00 -0.00000000000E+00 -0.45593999997E+02  0.45594000000E+02  0.51100000000E-03 0. -1.
         23    2    1    2    0    0  0.00000000000E+00  0.00000000000E+00  0.35527136788E-14  0.91188000000E+02  0.91188000000E+02 0.  0.
    9900012    2    3    3    0    0  0.13245079197E+02  0.15005289270E+02 -0.30906133746E+02  0.54367082953E+02  0.39999997209E+02 0.  0.
        -12    1    3    3    0    0 -0.13245079197E+02 -0.15005289270E+02  0.30906133746E+02  0.36820917047E+02  0.00000000000E+00 0.  1.
         11    1    4    4    0    0  0.73748475761E+01  0.18133092999E+02 -0.10115073209E+02  0.22034340125E+02  0.51100000000E-03 0. -1.
        -11    1    4    4    0    0  0.18175451847E+01 -0.72983304801E+00 -0.25557525963E+02  0.25632464969E+02  0.51100000000E-03 0.  1.
        -12    1    4    4    0    0  0.40526864365E+01 -0.23979706814E+01  0.47664654253E+01  0.67002778593E+01  0.00000000000E+00 0.  1.
</event>
<event>
 8    1  0.3011071E-007  0.9118800E+02  0.7816164E-02  0.1184000E+00
        -11   -1    0    0    0    0  0.00000000000E+00  0.00000000000E+00  0.45593999997E+02  0.45594000000E+02  0.51100000000E-03 0.  1.
         11   -1    0    0    0    0 -0.00000000000E+00 -0.00000000000E+00 -0.45593999997E+02  0.45594000000E+02  0.51100000000E-03 0. -1.
         23    2    1    2    0    0  0.35527136788E-14 -0.88817841970E-15  0.00000000000E+00  0.91188000000E+02  0.91188000000E+02 0.  0.
    9900012    2    3    3    0    0  0.31712990468E+02 -0.78361165433E+01  0.16989942435E+02  0.54367127782E+02  0.40000099405E+02 0.  0.
         12    1    3    3    0    0 -0.31712990468E+02  0.78361165433E+01 -0.16989942435E+02  0.36820872218E+02  0.00000000000E+00 0. -1.
         11    1    4    4    0    0  0.47933955914E+01 -0.57561877095E+01 -0.43581070138E+01  0.86662238171E+01  0.51100000000E-03 0. -1.
        -11    1    4    4    0    0  0.56589626220E+01  0.12616138655E+02  0.11701140137E+02  0.18113737695E+02  0.51100000000E-03 0.  1.
        -12    1    4    4    0    0  0.21260632255E+02 -0.14696067489E+02  0.96469093123E+01  0.27587166270E+02  0.00000000000E+00 0.  1.
</event>
<event>
 8    1  0.3011071E-007  0.9118800E+02  0.7816164E-02  0.1184000E+00
        -11   -1    0    0    0    0  0.00000000000E+00  0.00000000000E+00  0.45593999997E+02  0.45594000000E+02  0.51100000000E-03 0.  1.
         11   -1    0    0    0    0 -0.00000000000E+00 -0.00000000000E+00 -0.45593999997E+02  0.45594000000E+02  0.51100000000E-03 0. -1.
         23    2    1    2    0    0  0.00000000000E+00 -0.35527136788E-14 -0.35527136788E-14  0.91188000000E+02  0.91188000000E+02 0.  0.
    9900012    2    3    3    0    0  0.17716686032E+02 -0.13193987902E+02  0.29458814502E+02  0.54367027273E+02  0.39999870274E+02 0.  0.
         12    1    3    3    0    0 -0.17716686032E+02  0.13193987902E+02 -0.29458814502E+02  0.36820972727E+02  0.00000000000E+00 0. -1.
         11    1    4    4    0    0 -0.15281480538E+01 -0.20038288189E+02  0.11948774600E+02  0.23380364512E+02  0.51100000000E-03 0. -1.
        -11    1    4    4    0    0  0.60953761773E+01 -0.42029667179E+01  0.15985103971E+01  0.75745478892E+01  0.51100000000E-03 0.  1.
        -12    1    4    4    0    0  0.13149457909E+02  0.11047267005E+02  0.15911529505E+02  0.23412114871E+02  0.00000000000E+00 0.  1.
</event>
<event>
 8    1  0.3011071E-007  0.9118800E+02  0.7816164E-02  0.1184000E+00
        -11   -1    0    0    0    0  0.00000000000E+00  0.00000000000E+00  0.45593999997E+02  0.45594000000E+02  0.51100000000E-03 0.  1.
         11   -1    0    0    0    0 -0.00000000000E+00 -0.00000000000E+00 -0.45593999997E+02  0.45594000000E+02  0.51100000000E-03 0. -1.
         23    2    1    2    0    0  0.00000000000E+00  0.00000000000E+00  0.00000000000E+00  0.91188000000E+02  0.91188000000E+02 0.  0.
    9900012    2    3    3    0    0 -0.29002551458E+02 -0.86831266293E+01  0.20957958589E+02  0.54367072427E+02  0.39999973212E+02 0.  0.
         12    1    3    3    0    0  0.29002551458E+02  0.86831266293E+01 -0.20957958589E+02  0.36820927573E+02  0.00000000000E+00 0. -1.
         11    1    4    4    0    0  0.21694011142E+00  0.11154934992E+02  0.52664452780E+01  0.12337547723E+02  0.51100000000E-03 0. -1.
        -11    1    4    4    0    0  0.11421299125E+01 -0.11660857440E+00 -0.15502886847E+01  0.19291069342E+01  0.51100000000E-03 0.  1.
        -12    1    4    4    0    0 -0.30361621482E+02 -0.19721453047E+02  0.17241801995E+02  0.40100417770E+02  0.00000000000E+00 0.  1.
</event>
<event>
 8    1  0.3011071E-007  0.9118800E+02  0.7816164E-02  0.1184000E+00
        -11   -1    0    0    0    0  0.00000000000E+00  0.00000000000E+00  0.45593999997E+02  0.45594000000E+02  0.51100000000E-03 0. -1.
         11   -1    0    0    0    0 -0.00000000000E+00 -0.00000000000E+00 -0.45593999997E+02  0.45594000000E+02  0.51100000000E-03 0.  1.
         23    2    1    2    0    0  0.71054273576E-14 -0.88817841970E-15  0.00000000000E+00  0.91188000000E+02  0.91188000000E+02 0.  0.
    9900012    2    3    3    0    0  0.31372851693E+02 -0.34249537287E+01 -0.18968211739E+02  0.54367093059E+02  0.40000020246E+02 0.  0.
         12    1    3    3    0    0 -0.31372851693E+02  0.34249537287E+01  0.18968211739E+02  0.36820906941E+02  0.00000000000E+00 0. -1.
         11    1    4    4    0    0  0.33702523965E+02 -0.53670736508E+01 -0.11297009478E+01  0.34145890319E+02  0.51100000000E-03 0. -1.
        -11    1    4    4    0    0 -0.47025454102E+01 -0.41586108740E+00 -0.46927539457E+01  0.66564865834E+01  0.51100000000E-03 0.  1.
         12    1    4    4    0    0  0.23728731385E+01  0.23579810095E+01 -0.13145756845E+02  0.13564716157E+02  0.00000000000E+00 0. -1.
</event>
<event>
 8    1  0.3011071E-007  0.9118800E+02  0.7816164E-02  0.1184000E+00
        -11   -1    0    0    0    0  0.00000000000E+00  0.00000000000E+00  0.45593999997E+02  0.45594000000E+02  0.51100000000E-03 0.  1.
         11   -1    0    0    0    0 -0.00000000000E+00 -0.00000000000E+00 -0.45593999997E+02  0.45594000000E+02  0.51100000000E-03 0. -1.
         23    2    1    2    0    0  0.00000000000E+00  0.00000000000E+00  0.35527136788E-14  0.91188000000E+02  0.91188000000E+02 0.  0.
    9900012    2    3    3    0    0  0.23180398738E+02  0.84393972269E+01 -0.27335431150E+02  0.54367080574E+02  0.39999991785E+02 0.  0.
        -12    1    3    3    0    0 -0.23180398738E+02 -0.84393972269E+01  0.27335431150E+02  0.36820919426E+02  0.00000000000E+00 0.  1.
         11    1    4    4    0    0  0.13228472693E+02  0.13208436051E+02 -0.24784076162E+02  0.31043609715E+02  0.51100000000E-03 0. -1.
        -11    1    4    4    0    0  0.44333238696E+01  0.24221210910E+01 -0.10252222008E+02  0.11429308268E+02  0.51100000000E-03 0.  1.
        -12    1    4    4    0    0  0.55186021749E+01 -0.71911599148E+01  0.77008670200E+01  0.11894162591E+02  0.00000000000E+00 0.  1.
</event>
<event>
 8    1  0.3011071E-007  0.9118800E+02  0.7816164E-02  0.1184000E+00
        -11   -1    0    0    0    0  0.00000000000E+00  0.00000000000E+00  0.45593999997E+02  0.45594000000E+02  0.51100000000E-03 0.  1.
         11   -1    0    0    0    0 -0.00000000000E+00 -0.00000000000E+00 -0.45593999997E+02  0.45594000000E+02  0.51100000000E-03 0. -1.
         23    2    1    2    0    0  0.44408920985E-15  0.00000000000E+00  0.00000000000E+00  0.91188000000E+02  0.91188000000E+02 0.  0.
    9900012    2    3    3    0    0 -0.12286936262E+01 -0.11503878770E+02  0.34956127145E+02  0.54367085566E+02  0.40000003165E+02 0.  0.
         12    1    3    3    0    0  0.12286936262E+01  0.11503878770E+02 -0.34956127145E+02  0.36820914434E+02  0.00000000000E+00 0. -1.
         11    1    4    4    0    0 -0.95954031537E+01  0.22586960316E+01 -0.69988601343E+00  0.98824748994E+01  0.51100000000E-03 0. -1.
        -11    1    4    4    0    0  0.84016626434E+01 -0.18193816276E+02  0.20393974263E+02  0.28592255461E+02  0.51100000000E-03 0.  1.
         12    1    4    4    0    0 -0.34953115946E-01  0.44312414750E+01  0.15262038895E+02  0.15892355205E+02  0.00000000000E+00 0. -1.
</event>
<event>
 8    1  0.3011071E-007  0.9118800E+02  0.7816164E-02  0.1184000E+00
        -11   -1    0    0    0    0  0.00000000000E+00  0.00000000000E+00  0.45593999997E+02  0.45594000000E+02  0.51100000000E-03 0.  1.
         11   -1    0    0    0    0 -0.00000000000E+00 -0.00000000000E+00 -0.45593999997E+02  0.45594000000E+02  0.51100000000E-03 0. -1.
         23    2    1    2    0    0 -0.52735593670E-15  0.00000000000E+00  0.00000000000E+00  0.91188000000E+02  0.91188000000E+02 0.  0.
    9900012    2    3    3    0    0 -0.15233863792E+00 -0.15782281659E+02 -0.33266762551E+02  0.54367066931E+02  0.39999960683E+02 0.  0.
        -12    1    3    3    0    0  0.15233863792E+00  0.15782281659E+02  0.33266762551E+02  0.36820933069E+02  0.00000000000E+00 0.  1.
         11    1    4    4    0    0 -0.14799111718E+02  0.16529116029E+01 -0.84992081944E+01  0.17145913933E+02  0.51100000000E-03 0. -1.
        -11    1    4    4    0    0  0.56345170464E+01 -0.15623418419E+01 -0.15874488893E+02  0.16917094675E+02  0.51100000000E-03 0.  1.
        -12    1    4    4    0    0  0.90122560338E+01 -0.15872851420E+02 -0.88930654634E+01  0.20304058323E+02  0.00000000000E+00 0.  1.
</event>
<event>
 8    1  0.3011071E-007  0.9118800E+02  0.7816164E-02  0.1184000E+00
        -11   -1    0    0    0    0  0.00000000000E+00  0.00000000000E+00  0.45593999997E+02  0.45594000000E+02  0.51100000000E-03 0.  1.
         11   -1    0    0    0    0 -0.00000000000E+00 -0.00000000000E+00 -0.45593999997E+02  0.45594000000E+02  0.51100000000E-03 0. -1.
         23    2    1    2    0    0 -0.88817841970E-15 -0.17763568394E-14  0.00000000000E+00  0.91188000000E+02  0.91188000000E+02 0.  0.
    9900012    2    3    3    0    0  0.37059345859E+01 -0.11215471465E+02  0.34874896974E+02  0.54367093028E+02  0.40000020175E+02 0.  0.
         12    1    3    3    0    0 -0.37059345859E+01  0.11215471465E+02 -0.34874896974E+02  0.36820906972E+02  0.00000000000E+00 0. -1.
         11    1    4    4    0    0 -0.43310189137E+01  0.95113037280E+01  0.96089600915E+01  0.14196997490E+02  0.51100000000E-03 0. -1.
        -11    1    4    4    0    0  0.10074916735E+02 -0.11891815433E+02  0.26568559155E+01  0.15810695909E+02  0.51100000000E-03 0.  1.
        -12    1    4    4    0    0 -0.20379632354E+01 -0.88349597597E+01  0.22609080967E+02  0.24359399629E+02  0.00000000000E+00 0.  1.
</event>
<event>
 8    1  0.3011071E-007  0.9118800E+02  0.7816164E-02  0.1184000E+00
        -11   -1    0    0    0    0  0.00000000000E+00  0.00000000000E+00  0.45593999997E+02  0.45594000000E+02  0.51100000000E-03 0. -1.
         11   -1    0    0    0    0 -0.00000000000E+00 -0.00000000000E+00 -0.45593999997E+02  0.45594000000E+02  0.51100000000E-03 0.  1.
         23    2    1    2    0    0  0.00000000000E+00  0.00000000000E+00  0.00000000000E+00  0.91188000000E+02  0.91188000000E+02 0.  0.
    9900012    2    3    3    0    0 -0.32165939976E+02  0.16911941554E+02 -0.59261134316E+01  0.54367078202E+02  0.39999986376E+02 0.  0.
         12    1    3    3    0    0  0.32165939976E+02 -0.16911941554E+02  0.59261134316E+01  0.36820921798E+02  0.00000000000E+00 0. -1.
         11    1    4    4    0    0 -0.30628225776E+02  0.27269600897E+02 -0.14068676339E+01  0.41032896852E+02  0.51100000000E-03 0.  1.
        -11    1    4    4    0    0  0.25902949360E+01 -0.51268909088E+01 -0.30774542677E+01  0.65165453483E+01  0.51100000000E-03 0. -1.
        -12    1    4    4    0    0 -0.41280091362E+01 -0.52307684336E+01 -0.14417915300E+01  0.68176360016E+01  0.00000000000E+00 0.  1.
</event>
<event>
 8    1  0.3011071E-007  0.9118800E+02  0.7816164E-02  0.1184000E+00
        -11   -1    0    0    0    0  0.00000000000E+00  0.00000000000E+00  0.45593999997E+02  0.45594000000E+02  0.51100000000E-03 0.  1.
         11   -1    0    0    0    0 -0.00000000000E+00 -0.00000000000E+00 -0.45593999997E+02  0.45594000000E+02  0.51100000000E-03 0. -1.
         23    2    1    2    0    0 -0.11102230246E-15  0.88817841970E-15  0.00000000000E+00  0.91188000000E+02  0.91188000000E+02 0.  0.
    9900012    2    3    3    0    0  0.70508178095E+00 -0.54138092031E+01 -0.36413910570E+02  0.54367090812E+02  0.40000015125E+02 0.  0.
        -12    1    3    3    0    0 -0.70508178095E+00  0.54138092031E+01  0.36413910570E+02  0.36820909188E+02  0.00000000000E+00 0.  1.
         11    1    4    4    0    0  0.36669106694E+01  0.37857900865E+01 -0.17282252062E+02  0.18068056814E+02  0.51100000000E-03 0. -1.
        -11    1    4    4    0    0  0.11490863938E+02 -0.52579323847E+01 -0.16977860373E+02  0.21164440699E+02  0.51100000000E-03 0.  1.
         12    1    4    4    0    0 -0.14452692827E+02 -0.39416669049E+01 -0.21537981357E+01  0.15134593299E+02  0.00000000000E+00 0. -1.
</event>
<event>
 8    1  0.3011071E-007  0.9118800E+02  0.7816164E-02  0.1184000E+00
        -11   -1    0    0    0    0  0.00000000000E+00  0.00000000000E+00  0.45593999997E+02  0.45594000000E+02  0.51100000000E-03 0. -1.
         11   -1    0    0    0    0 -0.00000000000E+00 -0.00000000000E+00 -0.45593999997E+02  0.45594000000E+02  0.51100000000E-03 0.  1.
         23    2    1    2    0    0  0.35527136788E-14 -0.17763568394E-14  0.00000000000E+00  0.91188000000E+02  0.91188000000E+02 0.  0.
    9900012    2    3    3    0    0  0.18679507578E+02  0.11975499106E+02  0.29384397563E+02  0.54367090148E+02  0.40000013610E+02 0.  0.
         12    1    3    3    0    0 -0.18679507578E+02 -0.11975499106E+02 -0.29384397563E+02  0.36820909852E+02  0.00000000000E+00 0. -1.
         11    1    4    4    0    0  0.10243035517E+00  0.19196457887E+01  0.15359542994E+02  0.15479376382E+02  0.51100000000E-03 0. -1.
        -11    1    4    4    0    0 -0.31278886087E+01  0.10547028906E+02  0.13170232488E+02  0.17160376743E+02  0.51100000000E-03 0.  1.
         12    1    4    4    0    0  0.21704965832E+02 -0.49117558924E+00  0.85462208068E+00  0.21727337023E+02  0.00000000000E+00 0. -1.
</event>
<event>
 8    1  0.3011071E-007  0.9118800E+02  0.7816164E-02  0.1184000E+00
        -11   -1    0    0    0    0  0.00000000000E+00  0.00000000000E+00  0.45593999997E+02  0.45594000000E+02  0.51100000000E-03 0. -1.
         11   -1    0    0    0    0 -0.00000000000E+00 -0.00000000000E+00 -0.45593999997E+02  0.45594000000E+02  0.51100000000E-03 0.  1.
         23    2    1    2    0    0  0.00000000000E+00  0.00000000000E+00  0.00000000000E+00  0.91188000000E+02  0.91188000000E+02 0.  0.
    9900012    2    3    3    0    0 -0.30419896914E+02  0.13892875839E+02  0.15407572811E+02  0.54367144126E+02  0.40000136664E+02 0.  0.
        -12    1    3    3    0    0  0.30419896914E+02 -0.13892875839E+02 -0.15407572811E+02  0.36820855874E+02  0.00000000000E+00 0.  1.
         11    1    4    4    0    0 -0.19310406128E+02  0.10431724746E+02  0.24297798697E+02  0.32742872320E+02  0.51100000000E-03 0. -1.
        -11    1    4    4    0    0  0.39868758309E+01  0.15574398985E+01 -0.33343698064E+01  0.54257552650E+01  0.51100000000E-03 0.  1.
        -12    1    4    4    0    0 -0.15096366617E+02  0.19037111945E+01 -0.55558560794E+01  0.16198516541E+02  0.00000000000E+00 0.  1.
</event>
<event>
 8    1  0.3011071E-007  0.9118800E+02  0.7816164E-02  0.1184000E+00
        -11   -1    0    0    0    0  0.00000000000E+00  0.00000000000E+00  0.45593999997E+02  0.45594000000E+02  0.51100000000E-03 0. -1.
         11   -1    0    0    0    0 -0.00000000000E+00 -0.00000000000E+00 -0.45593999997E+02  0.45594000000E+02  0.51100000000E-03 0.  1.
         23    2    1    2    0    0  0.00000000000E+00  0.35527136788E-14 -0.71054273576E-14  0.91188000000E+02  0.91188000000E+02 0.  0.
    9900012    2    3    3    0    0  0.98174467800E+01 -0.20243419424E+02  0.29147934828E+02  0.54367076655E+02  0.39999982849E+02 0.  0.
        -12    1    3    3    0    0 -0.98174467800E+01  0.20243419424E+02 -0.29147934828E+02  0.36820923345E+02  0.00000000000E+00 0.  1.
         11    1    4    4    0    0 -0.10584703347E+02  0.41970031827E+01  0.11042145462E+02  0.15861265943E+02  0.51100000000E-03 0.  1.
        -11    1    4    4    0    0  0.19133696857E+02 -0.18805688468E+02  0.10170906343E+02  0.28691455353E+02  0.51100000000E-03 0. -1.
        -12    1    4    4    0    0  0.12684532703E+01 -0.56347341390E+01  0.79348830234E+01  0.98143553589E+01  0.00000000000E+00 0.  1.
</event>
<event>
 8    1  0.3011071E-007  0.9118800E+02  0.7816164E-02  0.1184000E+00
        -11   -1    0    0    0    0  0.00000000000E+00  0.00000000000E+00  0.45593999997E+02  0.45594000000E+02  0.51100000000E-03 0. -1.
         11   -1    0    0    0    0 -0.00000000000E+00 -0.00000000000E+00 -0.45593999997E+02  0.45594000000E+02  0.51100000000E-03 0.  1.
         23    2    1    2    0    0  0.00000000000E+00  0.00000000000E+00  0.00000000000E+00  0.91188000000E+02  0.91188000000E+02 0.  0.
    9900012    2    3    3    0    0 -0.13259694457E+02 -0.34119638136E+02 -0.39758568426E+01  0.54367127642E+02  0.40000099084E+02 0.  0.
        -12    1    3    3    0    0  0.13259694457E+02  0.34119638136E+02  0.39758568426E+01  0.36820872358E+02  0.00000000000E+00 0.  1.
         11    1    4    4    0    0  0.45511415000E+01 -0.16311183245E+02  0.13074962239E+02  0.21394443802E+02  0.51100000000E-03 0. -1.
        -11    1    4    4    0    0 -0.10705914642E+02 -0.13363063386E+02 -0.17623850808E+02  0.24572101842E+02  0.51100000000E-03 0.  1.
        -12    1    4    4    0    0 -0.71049213150E+01 -0.44453915052E+01  0.57303172664E+00  0.84005819969E+01  0.00000000000E+00 0.  1.
</event>
<event>
 8    1  0.3011071E-007  0.9118800E+02  0.7816164E-02  0.1184000E+00
        -11   -1    0    0    0    0  0.00000000000E+00  0.00000000000E+00  0.45593999997E+02  0.45594000000E+02  0.51100000000E-03 0.  1.
         11   -1    0    0    0    0 -0.00000000000E+00 -0.00000000000E+00 -0.45593999997E+02  0.45594000000E+02  0.51100000000E-03 0. -1.
         23    2    1    2    0    0  0.00000000000E+00  0.88817841970E-15  0.00000000000E+00  0.91188000000E+02  0.91188000000E+02 0.  0.
    9900012    2    3    3    0    0 -0.67268717871E+01  0.40374557742E+01 -0.35975380333E+02  0.54367084160E+02  0.39999999960E+02 0.  0.
        -12    1    3    3    0    0  0.67268717871E+01 -0.40374557742E+01  0.35975380333E+02  0.36820915840E+02  0.00000000000E+00 0.  1.
         11    1    4    4    0    0  0.75715713699E+01  0.58318387663E+00 -0.15259159742E+02  0.17044375985E+02  0.51100000000E-03 0. -1.
        -11    1    4    4    0    0 -0.16974328007E+02  0.91669214395E+01 -0.23519835255E+02  0.30419449546E+02  0.51100000000E-03 0.  1.
        -12    1    4    4    0    0  0.26758848498E+01 -0.57126495419E+01  0.28036146642E+01  0.69032586293E+01  0.00000000000E+00 0.  1.
</event>
<event>
 8    1  0.3011071E-007  0.9118800E+02  0.7816164E-02  0.1184000E+00
        -11   -1    0    0    0    0  0.00000000000E+00  0.00000000000E+00  0.45593999997E+02  0.45594000000E+02  0.51100000000E-03 0. -1.
         11   -1    0    0    0    0 -0.00000000000E+00 -0.00000000000E+00 -0.45593999997E+02  0.45594000000E+02  0.51100000000E-03 0.  1.
         23    2    1    2    0    0  0.00000000000E+00  0.88817841970E-15  0.71054273576E-14  0.91188000000E+02  0.91188000000E+02 0.  0.
    9900012    2    3    3    0    0 -0.10383654721E+02 -0.35008406133E+01 -0.35152664972E+02  0.54367000217E+02  0.39999808594E+02 0.  0.
         12    1    3    3    0    0  0.10383654721E+02  0.35008406133E+01  0.35152664972E+02  0.36820999783E+02  0.00000000000E+00 0. -1.
         11    1    4    4    0    0 -0.15084276614E+02  0.27414339088E+01 -0.16020963066E+02  0.22174808199E+02  0.51100000000E-03 0.  1.
        -11    1    4    4    0    0  0.29717676341E+01 -0.56836024498E+01  0.49128852423E+01  0.80790581966E+01  0.51100000000E-03 0. -1.
        -12    1    4    4    0    0  0.17288542586E+01 -0.55867207227E+00 -0.24044587149E+02  0.24113133821E+02  0.00000000000E+00 0.  1.
</event>
<event>
 8    1  0.3011071E-007  0.9118800E+02  0.7816164E-02  0.1184000E+00
        -11   -1    0    0    0    0  0.00000000000E+00  0.00000000000E+00  0.45593999997E+02  0.45594000000E+02  0.51100000000E-03 0.  1.
         11   -1    0    0    0    0 -0.00000000000E+00 -0.00000000000E+00 -0.45593999997E+02  0.45594000000E+02  0.51100000000E-03 0. -1.
         23    2    1    2    0    0  0.00000000000E+00  0.00000000000E+00  0.00000000000E+00  0.91188000000E+02  0.91188000000E+02 0.  0.
    9900012    2    3    3    0    0  0.30240334143E+02 -0.16951309466E+02 -0.12407730544E+02  0.54367129846E+02  0.40000104109E+02 0.  0.
        -12    1    3    3    0    0 -0.30240334143E+02  0.16951309466E+02  0.12407730544E+02  0.36820870154E+02  0.00000000000E+00 0.  1.
         11    1    4    4    0    0 -0.41024831020E+01 -0.11724124940E+02 -0.78858421854E+00  0.12446177668E+02  0.51100000000E-03 0. -1.
        -11    1    4    4    0    0  0.12954935948E+02  0.59773513371E+00 -0.14629946121E+02  0.19550523689E+02  0.51100000000E-03 0.  1.
        -12    1    4    4    0    0  0.21387881296E+02 -0.58249196594E+01  0.30107997963E+01  0.22370428489E+02  0.00000000000E+00 0.  1.
</event>
<event>
 8    1  0.3011071E-007  0.9118800E+02  0.7816164E-02  0.1184000E+00
        -11   -1    0    0    0    0  0.00000000000E+00  0.00000000000E+00  0.45593999997E+02  0.45594000000E+02  0.51100000000E-03 0.  1.
         11   -1    0    0    0    0 -0.00000000000E+00 -0.00000000000E+00 -0.45593999997E+02  0.45594000000E+02  0.51100000000E-03 0. -1.
         23    2    1    2    0    0 -0.66613381478E-15  0.35527136788E-14  0.00000000000E+00  0.91188000000E+02  0.91188000000E+02 0.  0.
    9900012    2    3    3    0    0 -0.17616140235E+01  0.27089332730E+02  0.24876584369E+02  0.54367086355E+02  0.40000004964E+02 0.  0.
         12    1    3    3    0    0  0.17616140235E+01 -0.27089332730E+02 -0.24876584369E+02  0.36820913645E+02  0.00000000000E+00 0. -1.
         11    1    4    4    0    0 -0.11799782504E+02  0.82764034566E+01  0.16292038306E+02  0.21752338581E+02  0.51100000000E-03 0. -1.
        -11    1    4    4    0    0  0.24730730934E+01  0.86550499459E+01  0.15692653901E+02  0.18091030010E+02  0.51100000000E-03 0.  1.
         12    1    4    4    0    0  0.75650953875E+01  0.10157879328E+02 -0.71081078378E+01  0.14523717764E+02  0.00000000000E+00 0. -1.
</event>
<event>
 8    1  0.3011071E-007  0.9118800E+02  0.7816164E-02  0.1184000E+00
        -11   -1    0    0    0    0  0.00000000000E+00  0.00000000000E+00  0.45593999997E+02  0.45594000000E+02  0.51100000000E-03 0.  1.
         11   -1    0    0    0    0 -0.00000000000E+00 -0.00000000000E+00 -0.45593999997E+02  0.45594000000E+02  0.51100000000E-03 0. -1.
         23    2    1    2    0    0  0.00000000000E+00  0.17763568394E-14  0.00000000000E+00  0.91188000000E+02  0.91188000000E+02 0.  0.
    9900012    2    3    3    0    0 -0.34499863623E+02 -0.91415957984E+01 -0.90539963233E+01  0.54367024821E+02  0.39999864683E+02 0.  0.
        -12    1    3    3    0    0  0.34499863623E+02  0.91415957984E+01  0.90539963233E+01  0.36820975179E+02  0.00000000000E+00 0.  1.
         11    1    4    4    0    0 -0.31283260371E+02  0.54554865139E+01 -0.89291700723E+01  0.32986888167E+02  0.51100000000E-03 0. -1.
        -11    1    4    4    0    0  0.11132294405E+01  0.27781342065E+01  0.15946374458E+01  0.33911912805E+01  0.51100000000E-03 0.  1.
         12    1    4    4    0    0 -0.43298326929E+01 -0.17375216519E+02 -0.17194636968E+01  0.17988945373E+02  0.00000000000E+00 0. -1.
</event>
<event>
 8    1  0.3011071E-007  0.9118800E+02  0.7816164E-02  0.1184000E+00
        -11   -1    0    0    0    0  0.00000000000E+00  0.00000000000E+00  0.45593999997E+02  0.45594000000E+02  0.51100000000E-03 0. -1.
         11   -1    0    0    0    0 -0.00000000000E+00 -0.00000000000E+00 -0.45593999997E+02  0.45594000000E+02  0.51100000000E-03 0.  1.
         23    2    1    2    0    0  0.35527136788E-14 -0.11102230246E-15  0.00000000000E+00  0.91188000000E+02  0.91188000000E+02 0.  0.
    9900012    2    3    3    0    0  0.28729668812E+02  0.83468839300E+00 -0.23015006083E+02  0.54367067370E+02  0.39999961684E+02 0.  0.
         12    1    3    3    0    0 -0.28729668812E+02 -0.83468839300E+00  0.23015006083E+02  0.36820932630E+02  0.00000000000E+00 0. -1.
         11    1    4    4    0    0 -0.45677394632E+01  0.39788849472E+01 -0.15458374641E+01  0.62518303682E+01  0.51100000000E-03 0. -1.
        -11    1    4    4    0    0  0.32960201394E+02  0.12032168178E+01 -0.79730267845E+01  0.33932164137E+02  0.51100000000E-03 0.  1.
        -12    1    4    4    0    0  0.33720688094E+00 -0.43474133720E+01 -0.13496141834E+02  0.14183072866E+02  0.00000000000E+00 0.  1.
</event>
<event>
 8    1  0.3011071E-007  0.9118800E+02  0.7816164E-02  0.1184000E+00
        -11   -1    0    0    0    0  0.00000000000E+00  0.00000000000E+00  0.45593999997E+02  0.45594000000E+02  0.51100000000E-03 0.  1.
         11   -1    0    0    0    0 -0.00000000000E+00 -0.00000000000E+00 -0.45593999997E+02  0.45594000000E+02  0.51100000000E-03 0. -1.
         23    2    1    2    0    0 -0.35527136788E-14  0.00000000000E+00 -0.17763568394E-14  0.91188000000E+02  0.91188000000E+02 0.  0.
    9900012    2    3    3    0    0 -0.21092500168E+02 -0.28740238854E+02 -0.92132266700E+01  0.54367103238E+02  0.40000043451E+02 0.  0.
        -12    1    3    3    0    0  0.21092500168E+02  0.28740238854E+02  0.92132266700E+01  0.36820896762E+02  0.00000000000E+00 0.  1.
         11    1    4    4    0    0 -0.10220343081E+02 -0.17788978042E+02 -0.13825330906E+02  0.24739501357E+02  0.51100000000E-03 0. -1.
        -11    1    4    4    0    0  0.40494136322E+01 -0.12744600030E+02  0.57486468615E+01  0.14555738445E+02  0.51100000000E-03 0.  1.
         12    1    4    4    0    0 -0.14921570719E+02  0.17933392179E+01 -0.11365426251E+01  0.15071863435E+02  0.00000000000E+00 0. -1.
</event>
<event>
 8    1  0.3011071E-007  0.9118800E+02  0.7816164E-02  0.1184000E+00
        -11   -1    0    0    0    0  0.00000000000E+00  0.00000000000E+00  0.45593999997E+02  0.45594000000E+02  0.51100000000E-03 0.  1.
         11   -1    0    0    0    0 -0.00000000000E+00 -0.00000000000E+00 -0.45593999997E+02  0.45594000000E+02  0.51100000000E-03 0. -1.
         23    2    1    2    0    0  0.00000000000E+00 -0.35527136788E-14 -0.88817841970E-15  0.91188000000E+02  0.91188000000E+02 0.  0.
    9900012    2    3    3    0    0  0.19007432908E+02  0.30616037029E+02 -0.75601771853E+01  0.54367075131E+02  0.39999979377E+02 0.  0.
        -12    1    3    3    0    0 -0.19007432908E+02 -0.30616037029E+02  0.75601771853E+01  0.36820924869E+02  0.00000000000E+00 0.  1.
         11    1    4    4    0    0  0.55200659070E+01  0.20085253955E+02  0.36481996449E+00  0.20833186217E+02  0.51100000000E-03 0. -1.
        -11    1    4    4    0    0  0.46503488707E+01 -0.75101574830E+01  0.44993963982E+01  0.99132627449E+01  0.51100000000E-03 0.  1.
         12    1    4    4    0    0  0.88370181299E+01  0.18040940557E+02 -0.12424393548E+02  0.23620626170E+02  0.00000000000E+00 0. -1.
</event>
<event>
 8    1  0.3011071E-007  0.9118800E+02  0.7816164E-02  0.1184000E+00
        -11   -1    0    0    0    0  0.00000000000E+00  0.00000000000E+00  0.45593999997E+02  0.45594000000E+02  0.51100000000E-03 0. -1.
         11   -1    0    0    0    0 -0.00000000000E+00 -0.00000000000E+00 -0.45593999997E+02  0.45594000000E+02  0.51100000000E-03 0.  1.
         23    2    1    2    0    0  0.00000000000E+00  0.00000000000E+00  0.00000000000E+00  0.91188000000E+02  0.91188000000E+02 0.  0.
    9900012    2    3    3    0    0 -0.20901599553E+02 -0.16090426561E+01  0.30270675964E+02  0.54367086031E+02  0.40000004226E+02 0.  0.
        -12    1    3    3    0    0  0.20901599553E+02  0.16090426561E+01 -0.30270675964E+02  0.36820913969E+02  0.00000000000E+00 0.  1.
         11    1    4    4    0    0 -0.61739276191E+01 -0.85062795097E+01 -0.16086233548E+01  0.10633054251E+02  0.51100000000E-03 0. -1.
        -11    1    4    4    0    0 -0.27336543132E+01  0.11700018802E+02  0.27636474077E+02  0.30135328197E+02  0.51100000000E-03 0.  1.
         12    1    4    4    0    0 -0.11994017621E+02 -0.48027819482E+01  0.42428252424E+01  0.13598703584E+02  0.00000000000E+00 0. -1.
</event>
<event>
 8    1  0.3011071E-007  0.9118800E+02  0.7816164E-02  0.1184000E+00
        -11   -1    0    0    0    0  0.00000000000E+00  0.00000000000E+00  0.45593999997E+02  0.45594000000E+02  0.51100000000E-03 0. -1.
         11   -1    0    0    0    0 -0.00000000000E+00 -0.00000000000E+00 -0.45593999997E+02  0.45594000000E+02  0.51100000000E-03 0.  1.
         23    2    1    2    0    0  0.00000000000E+00 -0.17763568394E-14 -0.35527136788E-14  0.91188000000E+02  0.91188000000E+02 0.  0.
    9900012    2    3    3    0    0 -0.22718475692E+02 -0.15367779471E+02 -0.24565858280E+02  0.54367093213E+02  0.40000020597E+02 0.  0.
         12    1    3    3    0    0  0.22718475692E+02  0.15367779471E+02  0.24565858280E+02  0.36820906787E+02  0.00000000000E+00 0. -1.
         11    1    4    4    0    0  0.34073764795E+01 -0.22504606888E+00 -0.71732784907E+01  0.79446072762E+01  0.51100000000E-03 0. -1.
        -11    1    4    4    0    0  0.37701985812E+01 -0.15659712004E+01 -0.12594076101E+02  0.13239237751E+02  0.51100000000E-03 0.  1.
         12    1    4    4    0    0 -0.29896050752E+02 -0.13576762202E+02 -0.47985036881E+01  0.33183248185E+02  0.00000000000E+00 0. -1.
</event>
<event>
 8    1  0.3011071E-007  0.9118800E+02  0.7816164E-02  0.1184000E+00
        -11   -1    0    0    0    0  0.00000000000E+00  0.00000000000E+00  0.45593999997E+02  0.45594000000E+02  0.51100000000E-03 0.  1.
         11   -1    0    0    0    0 -0.00000000000E+00 -0.00000000000E+00 -0.45593999997E+02  0.45594000000E+02  0.51100000000E-03 0. -1.
         23    2    1    2    0    0  0.00000000000E+00  0.00000000000E+00  0.00000000000E+00  0.91188000000E+02  0.91188000000E+02 0.  0.
    9900012    2    3    3    0    0 -0.48771596093E+01 -0.31693011857E+02  0.18098249312E+02  0.54367077760E+02  0.39999985370E+02 0.  0.
         12    1    3    3    0    0  0.48771596093E+01  0.31693011857E+02 -0.18098249312E+02  0.36820922240E+02  0.00000000000E+00 0. -1.
         11    1    4    4    0    0  0.11801098915E+02 -0.16659041321E+02  0.39125663363E+01  0.20786961513E+02  0.51100000000E-03 0. -1.
        -11    1    4    4    0    0 -0.89614091144E+00 -0.14610941690E+02  0.63847955882E+01  0.15970231700E+02  0.51100000000E-03 0.  1.
         12    1    4    4    0    0 -0.15782117613E+02 -0.42302884718E+00  0.78008873871E+01  0.17609884548E+02  0.00000000000E+00 0. -1.
</event>
<event>
 8    1  0.3011071E-007  0.9118800E+02  0.7816164E-02  0.1184000E+00
        -11   -1    0    0    0    0  0.00000000000E+00  0.00000000000E+00  0.45593999997E+02  0.45594000000E+02  0.51100000000E-03 0.  1.
         11   -1    0    0    0    0 -0.00000000000E+00 -0.00000000000E+00 -0.45593999997E+02  0.45594000000E+02  0.51100000000E-03 0. -1.
         23    2    1    2    0    0  0.35527136788E-14  0.17763568394E-14 -0.35527136788E-14  0.91188000000E+02  0.91188000000E+02 0.  0.
    9900012    2    3    3    0    0 -0.18048405338E+02 -0.12024800220E+02  0.29756360674E+02  0.54367058185E+02  0.39999940744E+02 0.  0.
         12    1    3    3    0    0  0.18048405338E+02  0.12024800220E+02 -0.29756360674E+02  0.36820941815E+02  0.00000000000E+00 0. -1.
         11    1    4    4    0    0  0.73652806725E+01 -0.17477672875E-01  0.11347806652E+01  0.74522072081E+01  0.51100000000E-03 0. -1.
        -11    1    4    4    0    0 -0.57676533185E+01 -0.16069034488E+02  0.12098886395E+02  0.20925170165E+02  0.51100000000E-03 0.  1.
        -12    1    4    4    0    0 -0.19646032692E+02  0.40617119408E+01  0.16522693614E+02  0.25989680812E+02  0.00000000000E+00 0.  1.
</event>
<event>
 8    1  0.3011071E-007  0.9118800E+02  0.7816164E-02  0.1184000E+00
        -11   -1    0    0    0    0  0.00000000000E+00  0.00000000000E+00  0.45593999997E+02  0.45594000000E+02  0.51100000000E-03 0.  1.
         11   -1    0    0    0    0 -0.00000000000E+00 -0.00000000000E+00 -0.45593999997E+02  0.45594000000E+02  0.51100000000E-03 0. -1.
         23    2    1    2    0    0  0.00000000000E+00  0.00000000000E+00  0.00000000000E+00  0.91188000000E+02  0.91188000000E+02 0.  0.
    9900012    2    3    3    0    0 -0.28846397641E+02 -0.16143963134E+02 -0.16218347252E+02  0.54367122905E+02  0.40000088285E+02 0.  0.
        -12    1    3    3    0    0  0.28846397641E+02  0.16143963134E+02  0.16218347252E+02  0.36820877095E+02  0.00000000000E+00 0.  1.
         11    1    4    4    0    0 -0.17629614533E+02  0.90883464123E+01  0.25840384387E+01  0.20001965003E+02  0.51100000000E-03 0. -1.
        -11    1    4    4    0    0 -0.11015988875E+01 -0.85610506005E+01 -0.92480036109E+01  0.12650323258E+02  0.51100000000E-03 0.  1.
         12    1    4    4    0    0 -0.10115184221E+02 -0.16671258946E+02 -0.95543820793E+01  0.21714834643E+02  0.00000000000E+00 0. -1.
</event>
<event>
 8    1  0.3011071E-007  0.9118800E+02  0.7816164E-02  0.1184000E+00
        -11   -1    0    0    0    0  0.00000000000E+00  0.00000000000E+00  0.45593999997E+02  0.45594000000E+02  0.51100000000E-03 0. -1.
         11   -1    0    0    0    0 -0.00000000000E+00 -0.00000000000E+00 -0.45593999997E+02  0.45594000000E+02  0.51100000000E-03 0.  1.
         23    2    1    2    0    0  0.00000000000E+00  0.13322676296E-14 -0.17763568394E-14  0.91188000000E+02  0.91188000000E+02 0.  0.
    9900012    2    3    3    0    0 -0.34529616008E+02 -0.11204460882E+01 -0.12736969278E+02  0.54367079757E+02  0.39999989923E+02 0.  0.
         12    1    3    3    0    0  0.34529616008E+02  0.11204460882E+01  0.12736969278E+02  0.36820920243E+02  0.00000000000E+00 0. -1.
         11    1    4    4    0    0 -0.13175981471E+00  0.49623638788E+00 -0.44853158276E+01  0.45146062437E+01  0.51100000000E-03 0. -1.
        -11    1    4    4    0    0 -0.49260864917E+00 -0.10801120811E+02  0.54983015820E+01  0.12130053364E+02  0.51100000000E-03 0.  1.
        -12    1    4    4    0    0 -0.33905247545E+02  0.91844383351E+01 -0.13749955032E+02  0.37722420150E+02  0.00000000000E+00 0.  1.
</event>
<event>
 8    1  0.3011071E-007  0.9118800E+02  0.7816164E-02  0.1184000E+00
        -11   -1    0    0    0    0  0.00000000000E+00  0.00000000000E+00  0.45593999997E+02  0.45594000000E+02  0.51100000000E-03 0.  1.
         11   -1    0    0    0    0 -0.00000000000E+00 -0.00000000000E+00 -0.45593999997E+02  0.45594000000E+02  0.51100000000E-03 0. -1.
         23    2    1    2    0    0 -0.35527136788E-14  0.00000000000E+00 -0.35527136788E-14  0.91188000000E+02  0.91188000000E+02 0.  0.
    9900012    2    3    3    0    0 -0.30808995842E+02 -0.15098025946E+02 -0.13365463354E+02  0.54367079005E+02  0.39999988207E+02 0.  0.
        -12    1    3    3    0    0  0.30808995842E+02  0.15098025946E+02  0.13365463354E+02  0.36820920995E+02  0.00000000000E+00 0.  1.
         11    1    4    4    0    0 -0.87372560520E+01 -0.49269172072E-01 -0.23978228964E+02  0.25520531642E+02  0.51100000000E-03 0.  1.
        -11    1    4    4    0    0 -0.76169324423E+01 -0.42252518526E+01  0.43265893204E+01  0.97257281711E+01  0.51100000000E-03 0. -1.
        -12    1    4    4    0    0 -0.14454807348E+02 -0.10823504921E+02  0.62861762892E+01  0.19120819192E+02  0.00000000000E+00 0.  1.
</event>
<event>
 8    1  0.3011071E-007  0.9118800E+02  0.7816164E-02  0.1184000E+00
        -11   -1    0    0    0    0  0.00000000000E+00  0.00000000000E+00  0.45593999997E+02  0.45594000000E+02  0.51100000000E-03 0.  1.
         11   -1    0    0    0    0 -0.00000000000E+00 -0.00000000000E+00 -0.45593999997E+02  0.45594000000E+02  0.51100000000E-03 0. -1.
         23    2    1    2    0    0  0.88817841970E-15  0.00000000000E+00  0.00000000000E+00  0.91188000000E+02  0.91188000000E+02 0.  0.
    9900012    2    3    3    0    0  0.78834875850E+01 -0.29473797544E+02  0.20613793181E+02  0.54367046896E+02  0.39999915009E+02 0.  0.
         12    1    3    3    0    0 -0.78834875850E+01  0.29473797544E+02 -0.20613793181E+02  0.36820953104E+02  0.00000000000E+00 0. -1.
         11    1    4    4    0    0 -0.67294367050E+01 -0.34582546162E+01 -0.78564296823E+01  0.10907260471E+02  0.51100000000E-03 0. -1.
        -11    1    4    4    0    0  0.93431725081E+01 -0.39785429635E+01  0.80723534285E+01  0.12972531240E+02  0.51100000000E-03 0.  1.
         12    1    4    4    0    0  0.52697517818E+01 -0.22036999965E+02  0.20397869435E+02  0.30487255186E+02  0.00000000000E+00 0. -1.
</event>
<event>
 8    1  0.3011071E-007  0.9118800E+02  0.7816164E-02  0.1184000E+00
        -11   -1    0    0    0    0  0.00000000000E+00  0.00000000000E+00  0.45593999997E+02  0.45594000000E+02  0.51100000000E-03 0.  1.
         11   -1    0    0    0    0 -0.00000000000E+00 -0.00000000000E+00 -0.45593999997E+02  0.45594000000E+02  0.51100000000E-03 0. -1.
         23    2    1    2    0    0  0.00000000000E+00 -0.10658141036E-13  0.00000000000E+00  0.91188000000E+02  0.91188000000E+02 0.  0.
    9900012    2    3    3    0    0  0.19645156937E+02  0.29395846630E+02  0.10282638825E+02  0.54367073187E+02  0.39999974945E+02 0.  0.
        -12    1    3    3    0    0 -0.19645156937E+02 -0.29395846630E+02 -0.10282638825E+02  0.36820926813E+02  0.00000000000E+00 0.  1.
         11    1    4    4    0    0  0.11759664610E+02  0.31851229718E+02 -0.41766541729E+01  0.34208697529E+02  0.51100000000E-03 0. -1.
        -11    1    4    4    0    0  0.63413410110E+01 -0.10495026029E+01  0.96045539140E+00  0.64989642522E+01  0.51100000000E-03 0.  1.
         12    1    4    4    0    0  0.15441513157E+01 -0.14058804855E+01  0.13498837607E+02  0.13659411406E+02  0.00000000000E+00 0. -1.
</event>
<event>
 8    1  0.3011071E-007  0.9118800E+02  0.7816164E-02  0.1184000E+00
        -11   -1    0    0    0    0  0.00000000000E+00  0.00000000000E+00  0.45593999997E+02  0.45594000000E+02  0.51100000000E-03 0. -1.
         11   -1    0    0    0    0 -0.00000000000E+00 -0.00000000000E+00 -0.45593999997E+02  0.45594000000E+02  0.51100000000E-03 0.  1.
         23    2    1    2    0    0  0.00000000000E+00  0.17763568394E-14 -0.17763568394E-14  0.91188000000E+02  0.91188000000E+02 0.  0.
    9900012    2    3    3    0    0 -0.32997072387E+02  0.10002139949E+02  0.12920142262E+02  0.54367086571E+02  0.40000005456E+02 0.  0.
        -12    1    3    3    0    0  0.32997072387E+02 -0.10002139949E+02 -0.12920142262E+02  0.36820913429E+02  0.00000000000E+00 0.  1.
         11    1    4    4    0    0 -0.26193096552E+02 -0.57881258947E+01  0.86819547933E+01  0.28194982668E+02  0.51100000000E-03 0. -1.
        -11    1    4    4    0    0 -0.56464162894E+01  0.97302310306E+00 -0.58663055959E+01  0.82001422230E+01  0.51100000000E-03 0.  1.
         12    1    4    4    0    0 -0.11575595454E+01  0.14817242740E+02  0.10104493064E+02  0.17971961680E+02  0.00000000000E+00 0. -1.
</event>
<event>
 8    1  0.3011071E-007  0.9118800E+02  0.7816164E-02  0.1184000E+00
        -11   -1    0    0    0    0  0.00000000000E+00  0.00000000000E+00  0.45593999997E+02  0.45594000000E+02  0.51100000000E-03 0.  1.
         11   -1    0    0    0    0 -0.00000000000E+00 -0.00000000000E+00 -0.45593999997E+02  0.45594000000E+02  0.51100000000E-03 0. -1.
         23    2    1    2    0    0  0.00000000000E+00  0.00000000000E+00  0.35527136788E-14  0.91188000000E+02  0.91188000000E+02 0.  0.
    9900012    2    3    3    0    0  0.13746776199E+02 -0.13233492222E+02 -0.31490962420E+02  0.54367083575E+02  0.39999998626E+02 0.  0.
        -12    1    3    3    0    0 -0.13746776199E+02  0.13233492222E+02  0.31490962420E+02  0.36820916425E+02  0.00000000000E+00 0.  1.
         11    1    4    4    0    0  0.14843125239E+02 -0.65279556504E+01 -0.84812315332E+01  0.18299285790E+02  0.51100000000E-03 0. -1.
        -11    1    4    4    0    0  0.12825536991E+01  0.82267579588E+01 -0.18502726405E+02  0.20289784996E+02  0.51100000000E-03 0.  1.
         12    1    4    4    0    0 -0.23789027388E+01 -0.14932294530E+02 -0.45070044816E+01  0.15778012789E+02  0.00000000000E+00 0. -1.
</event>
<event>
 8    1  0.3011071E-007  0.9118800E+02  0.7816164E-02  0.1184000E+00
        -11   -1    0    0    0    0  0.00000000000E+00  0.00000000000E+00  0.45593999997E+02  0.45594000000E+02  0.51100000000E-03 0. -1.
         11   -1    0    0    0    0 -0.00000000000E+00 -0.00000000000E+00 -0.45593999997E+02  0.45594000000E+02  0.51100000000E-03 0.  1.
         23    2    1    2    0    0  0.00000000000E+00  0.00000000000E+00  0.17763568394E-14  0.91188000000E+02  0.91188000000E+02 0.  0.
    9900012    2    3    3    0    0 -0.27293017764E+02  0.21288433234E+02  0.12556678755E+02  0.54367131059E+02  0.40000106875E+02 0.  0.
        -12    1    3    3    0    0  0.27293017764E+02 -0.21288433234E+02 -0.12556678755E+02  0.36820868941E+02  0.00000000000E+00 0.  1.
         11    1    4    4    0    0 -0.16762479602E+02  0.16063493548E+02 -0.63756451493E+01  0.24076241374E+02  0.51100000000E-03 0. -1.
        -11    1    4    4    0    0 -0.34171791113E+01  0.12582296928E+02  0.79085715684E+01  0.15249157799E+02  0.51100000000E-03 0.  1.
         12    1    4    4    0    0 -0.71133590506E+01 -0.73573572420E+01  0.11023752336E+02  0.15041731886E+02  0.00000000000E+00 0. -1.
</event>
<event>
 8    1  0.3011071E-007  0.9118800E+02  0.7816164E-02  0.1184000E+00
        -11   -1    0    0    0    0  0.00000000000E+00  0.00000000000E+00  0.45593999997E+02  0.45594000000E+02  0.51100000000E-03 0. -1.
         11   -1    0    0    0    0 -0.00000000000E+00 -0.00000000000E+00 -0.45593999997E+02  0.45594000000E+02  0.51100000000E-03 0.  1.
         23    2    1    2    0    0  0.35527136788E-14 -0.35527136788E-14  0.35527136788E-14  0.91188000000E+02  0.91188000000E+02 0.  0.
    9900012    2    3    3    0    0  0.23684132712E+02 -0.22516968522E+02  0.16965436828E+02  0.54367108369E+02  0.40000055149E+02 0.  0.
        -12    1    3    3    0    0 -0.23684132712E+02  0.22516968522E+02 -0.16965436828E+02  0.36820891631E+02  0.00000000000E+00 0.  1.
         11    1    4    4    0    0 -0.33762548997E+01 -0.28632875039E+01 -0.82984964986E+00  0.45040163388E+01  0.51100000000E-03 0. -1.
        -11    1    4    4    0    0 -0.48119217373E+01 -0.11088194542E+02  0.10617603343E+02  0.16088385563E+02  0.51100000000E-03 0.  1.
         12    1    4    4    0    0  0.31872309349E+02 -0.85654864756E+01  0.71776831357E+01  0.33774706468E+02  0.00000000000E+00 0. -1.
</event>
<event>
 8    1  0.3011071E-007  0.9118800E+02  0.7816164E-02  0.1184000E+00
        -11   -1    0    0    0    0  0.00000000000E+00  0.00000000000E+00  0.45593999997E+02  0.45594000000E+02  0.51100000000E-03 0. -1.
         11   -1    0    0    0    0 -0.00000000000E+00 -0.00000000000E+00 -0.45593999997E+02  0.45594000000E+02  0.51100000000E-03 0.  1.
         23    2    1    2    0    0  0.44408920985E-15 -0.17763568394E-14  0.00000000000E+00  0.91188000000E+02  0.91188000000E+02 0.  0.
    9900012    2    3    3    0    0 -0.28717323629E+01  0.10706070087E+02 -0.35112862649E+02  0.54367083296E+02  0.39999997990E+02 0.  0.
         12    1    3    3    0    0  0.28717323629E+01 -0.10706070087E+02  0.35112862649E+02  0.36820916704E+02  0.00000000000E+00 0. -1.
         11    1    4    4    0    0  0.32991896010E+01  0.57480635864E+01 -0.99510842788E+01  0.11956126697E+02  0.51100000000E-03 0. -1.
        -11    1    4    4    0    0  0.96204712923E+01  0.98164223779E+01 -0.18948963893E+01  0.13874662114E+02  0.51100000000E-03 0.  1.
         12    1    4    4    0    0 -0.15791393256E+02 -0.48584158772E+01 -0.23266881981E+02  0.28536294485E+02  0.00000000000E+00 0. -1.
</event>
<event>
 8    1  0.3011071E-007  0.9118800E+02  0.7816164E-02  0.1184000E+00
        -11   -1    0    0    0    0  0.00000000000E+00  0.00000000000E+00  0.45593999997E+02  0.45594000000E+02  0.51100000000E-03 0. -1.
         11   -1    0    0    0    0 -0.00000000000E+00 -0.00000000000E+00 -0.45593999997E+02  0.45594000000E+02  0.51100000000E-03 0.  1.
         23    2    1    2    0    0  0.00000000000E+00  0.00000000000E+00  0.00000000000E+00  0.91188000000E+02  0.91188000000E+02 0.  0.
    9900012    2    3    3    0    0 -0.17477033327E+02  0.26524128047E+02 -0.18622620919E+02  0.54367108206E+02  0.40000054778E+02 0.  0.
         12    1    3    3    0    0  0.17477033327E+02 -0.26524128047E+02  0.18622620919E+02  0.36820891794E+02  0.00000000000E+00 0. -1.
         11    1    4    4    0    0  0.21036869824E+01 -0.24321884290E+00 -0.15462090115E+02  0.15606437304E+02  0.51100000000E-03 0. -1.
        -11    1    4    4    0    0 -0.16446032497E+02  0.25653634083E+02  0.41259804791E+01  0.30750685224E+02  0.51100000000E-03 0.  1.
        -12    1    4    4    0    0 -0.31346878121E+01  0.11137128072E+01 -0.72865112829E+01  0.80099856786E+01  0.00000000000E+00 0.  1.
</event>
<event>
 8    1  0.3011071E-007  0.9118800E+02  0.7816164E-02  0.1184000E+00
        -11   -1    0    0    0    0  0.00000000000E+00  0.00000000000E+00  0.45593999997E+02  0.45594000000E+02  0.51100000000E-03 0.  1.
         11   -1    0    0    0    0 -0.00000000000E+00 -0.00000000000E+00 -0.45593999997E+02  0.45594000000E+02  0.51100000000E-03 0. -1.
         23    2    1    2    0    0  0.00000000000E+00 -0.35527136788E-14 -0.35527136788E-14  0.91188000000E+02  0.91188000000E+02 0.  0.
    9900012    2    3    3    0    0 -0.23484758965E+02  0.14885282575E+02  0.24138635858E+02  0.54367091781E+02  0.40000017334E+02 0.  0.
         12    1    3    3    0    0  0.23484758965E+02 -0.14885282575E+02 -0.24138635858E+02  0.36820908219E+02  0.00000000000E+00 0. -1.
         11    1    4    4    0    0 -0.13052648652E+02  0.11568942355E+02  0.17303475660E+01  0.17527297767E+02  0.51100000000E-03 0. -1.
        -11    1    4    4    0    0 -0.13117944072E+02 -0.83714259159E+01  0.63726412945E+01  0.16815819512E+02  0.51100000000E-03 0.  1.
         12    1    4    4    0    0  0.26858337596E+01  0.11687766136E+02  0.16035646997E+02  0.20023974502E+02  0.00000000000E+00 0. -1.
</event>
<event>
 8    1  0.3011071E-007  0.9118800E+02  0.7816164E-02  0.1184000E+00
        -11   -1    0    0    0    0  0.00000000000E+00  0.00000000000E+00  0.45593999997E+02  0.45594000000E+02  0.51100000000E-03 0. -1.
         11   -1    0    0    0    0 -0.00000000000E+00 -0.00000000000E+00 -0.45593999997E+02  0.45594000000E+02  0.51100000000E-03 0.  1.
         23    2    1    2    0    0  0.35527136788E-14  0.00000000000E+00  0.88817841970E-15  0.91188000000E+02  0.91188000000E+02 0.  0.
    9900012    2    3    3    0    0 -0.18475887960E+02  0.31754224656E+02 -0.24680407111E+01  0.54367075998E+02  0.39999981353E+02 0.  0.
         12    1    3    3    0    0  0.18475887960E+02 -0.31754224656E+02  0.24680407111E+01  0.36820924002E+02  0.00000000000E+00 0. -1.
         11    1    4    4    0    0  0.47540216221E+01 -0.26520856551E+01  0.45870743154E+01  0.71186748023E+01  0.51100000000E-03 0. -1.
        -11    1    4    4    0    0  0.28387404498E+01  0.21839534962E+01 -0.44601552645E+01  0.57202347381E+01  0.51100000000E-03 0.  1.
        -12    1    4    4    0    0 -0.26068650031E+02  0.32222356815E+02 -0.25949597620E+01  0.41528166458E+02  0.00000000000E+00 0.  1.
</event>
<event>
 8    1  0.3011071E-007  0.9118800E+02  0.7816164E-02  0.1184000E+00
        -11   -1    0    0    0    0  0.00000000000E+00  0.00000000000E+00  0.45593999997E+02  0.45594000000E+02  0.51100000000E-03 0. -1.
         11   -1    0    0    0    0 -0.00000000000E+00 -0.00000000000E+00 -0.45593999997E+02  0.45594000000E+02  0.51100000000E-03 0.  1.
         23    2    1    2    0    0  0.00000000000E+00 -0.35527136788E-14  0.35527136788E-14  0.91188000000E+02  0.91188000000E+02 0.  0.
    9900012    2    3    3    0    0  0.25293626999E+02 -0.18227454654E+02 -0.19590088855E+02  0.54367092199E+02  0.40000018285E+02 0.  0.
         12    1    3    3    0    0 -0.25293626999E+02  0.18227454654E+02  0.19590088855E+02  0.36820907801E+02  0.00000000000E+00 0. -1.
         11    1    4    4    0    0  0.12638894539E+02 -0.35255630947E+01  0.35721558838E+01  0.13598953938E+02  0.51100000000E-03 0. -1.
        -11    1    4    4    0    0  0.17658877583E+02 -0.19624582547E+02 -0.19706827387E+02  0.32944183759E+02  0.51100000000E-03 0.  1.
        -12    1    4    4    0    0 -0.50041451218E+01  0.49226909878E+01 -0.34554173522E+01  0.78239545014E+01  0.00000000000E+00 0.  1.
</event>
<event>
 8    1  0.3011071E-007  0.9118800E+02  0.7816164E-02  0.1184000E+00
        -11   -1    0    0    0    0  0.00000000000E+00  0.00000000000E+00  0.45593999997E+02  0.45594000000E+02  0.51100000000E-03 0. -1.
         11   -1    0    0    0    0 -0.00000000000E+00 -0.00000000000E+00 -0.45593999997E+02  0.45594000000E+02  0.51100000000E-03 0.  1.
         23    2    1    2    0    0  0.35527136788E-14  0.00000000000E+00  0.00000000000E+00  0.91188000000E+02  0.91188000000E+02 0.  0.
    9900012    2    3    3    0    0  0.24587325873E+02  0.15738043542E+02 -0.22440043960E+02  0.54367106732E+02  0.40000051418E+02 0.  0.
         12    1    3    3    0    0 -0.24587325873E+02 -0.15738043542E+02  0.22440043960E+02  0.36820893268E+02  0.00000000000E+00 0. -1.
         11    1    4    4    0    0  0.89127210464E+01  0.17785283230E+02 -0.16474084643E+02  0.25829215263E+02  0.51100000000E-03 0. -1.
        -11    1    4    4    0    0 -0.29089793031E+01 -0.52466860061E+01  0.39989785202E+01  0.72098338469E+01  0.51100000000E-03 0.  1.
         12    1    4    4    0    0  0.18583584130E+02  0.31994463174E+01 -0.99649378367E+01  0.21328057622E+02  0.00000000000E+00 0. -1.
</event>
<event>
 8    1  0.3011071E-007  0.9118800E+02  0.7816164E-02  0.1184000E+00
        -11   -1    0    0    0    0  0.00000000000E+00  0.00000000000E+00  0.45593999997E+02  0.45594000000E+02  0.51100000000E-03 0. -1.
         11   -1    0    0    0    0 -0.00000000000E+00 -0.00000000000E+00 -0.45593999997E+02  0.45594000000E+02  0.51100000000E-03 0.  1.
         23    2    1    2    0    0 -0.35527136788E-14  0.71054273576E-14  0.00000000000E+00  0.91188000000E+02  0.91188000000E+02 0.  0.
    9900012    2    3    3    0    0  0.18084118611E+02  0.29566708936E+02  0.12431944128E+02  0.54367097539E+02  0.40000030459E+02 0.  0.
        -12    1    3    3    0    0 -0.18084118611E+02 -0.29566708936E+02 -0.12431944128E+02  0.36820902461E+02  0.00000000000E+00 0.  1.
         11    1    4    4    0    0  0.56756271911E+01  0.20048466585E+02 -0.17658613179E+01  0.20911050258E+02  0.51100000000E-03 0. -1.
        -11    1    4    4    0    0 -0.69844285493E+01  0.75896728835E+01  0.21248305203E+01  0.10530920266E+02  0.51100000000E-03 0.  1.
        -12    1    4    4    0    0  0.19392919969E+02  0.19285694674E+01  0.12072974925E+02  0.22925127015E+02  0.00000000000E+00 0.  1.
</event>
<event>
 8    1  0.3011071E-007  0.9118800E+02  0.7816164E-02  0.1184000E+00
        -11   -1    0    0    0    0  0.00000000000E+00  0.00000000000E+00  0.45593999997E+02  0.45594000000E+02  0.51100000000E-03 0.  1.
         11   -1    0    0    0    0 -0.00000000000E+00 -0.00000000000E+00 -0.45593999997E+02  0.45594000000E+02  0.51100000000E-03 0. -1.
         23    2    1    2    0    0  0.00000000000E+00  0.00000000000E+00  0.17763568394E-14  0.91188000000E+02  0.91188000000E+02 0.  0.
    9900012    2    3    3    0    0 -0.33748777777E+02 -0.10826528960E+02 -0.99792638716E+01  0.54367089661E+02  0.40000012501E+02 0.  0.
        -12    1    3    3    0    0  0.33748777777E+02  0.10826528960E+02  0.99792638716E+01  0.36820910339E+02  0.00000000000E+00 0.  1.
         11    1    4    4    0    0 -0.15896296872E+02 -0.13394630870E+01  0.57672526430E+01  0.16963125270E+02  0.51100000000E-03 0. -1.
        -11    1    4    4    0    0  0.54663270876E+01  0.35035385567E+01 -0.16267986101E+00  0.64947655265E+01  0.51100000000E-03 0.  1.
        -12    1    4    4    0    0 -0.23318807992E+02 -0.12990604430E+02 -0.15583836654E+02  0.30909198865E+02  0.00000000000E+00 0.  1.
</event>
<event>
 8    1  0.3011071E-007  0.9118800E+02  0.7816164E-02  0.1184000E+00
        -11   -1    0    0    0    0  0.00000000000E+00  0.00000000000E+00  0.45593999997E+02  0.45594000000E+02  0.51100000000E-03 0.  1.
         11   -1    0    0    0    0 -0.00000000000E+00 -0.00000000000E+00 -0.45593999997E+02  0.45594000000E+02  0.51100000000E-03 0. -1.
         23    2    1    2    0    0  0.00000000000E+00  0.00000000000E+00  0.00000000000E+00  0.91188000000E+02  0.91188000000E+02 0.  0.
    9900012    2    3    3    0    0  0.34025491336E+02 -0.63113768372E+01  0.12578324679E+02  0.54367057726E+02  0.39999939698E+02 0.  0.
         12    1    3    3    0    0 -0.34025491336E+02  0.63113768372E+01 -0.12578324679E+02  0.36820942274E+02  0.00000000000E+00 0. -1.
         11    1    4    4    0    0  0.26591828287E+02  0.13746152573E+01  0.14854139306E+02  0.30490332132E+02  0.51100000000E-03 0. -1.
        -11    1    4    4    0    0 -0.64196353563E+01 -0.73585945332E+01 -0.22427979357E+01  0.10019519672E+02  0.51100000000E-03 0.  1.
         12    1    4    4    0    0  0.13853298405E+02 -0.32739756117E+00 -0.33016691563E-01  0.13857205922E+02  0.00000000000E+00 0. -1.
</event>
<event>
 8    1  0.3011071E-007  0.9118800E+02  0.7816164E-02  0.1184000E+00
        -11   -1    0    0    0    0  0.00000000000E+00  0.00000000000E+00  0.45593999997E+02  0.45594000000E+02  0.51100000000E-03 0. -1.
         11   -1    0    0    0    0 -0.00000000000E+00 -0.00000000000E+00 -0.45593999997E+02  0.45594000000E+02  0.51100000000E-03 0.  1.
         23    2    1    2    0    0  0.00000000000E+00  0.44408920985E-15 -0.35527136788E-14  0.91188000000E+02  0.91188000000E+02 0.  0.
    9900012    2    3    3    0    0  0.22287903620E+02  0.21493492146E+01 -0.29230287373E+02  0.54367081357E+02  0.39999993570E+02 0.  0.
        -12    1    3    3    0    0 -0.22287903620E+02 -0.21493492146E+01  0.29230287373E+02  0.36820918643E+02  0.00000000000E+00 0.  1.
         11    1    4    4    0    0  0.18283154089E+01 -0.14866540453E+01 -0.62515565530E-01  0.23572835939E+01  0.51100000000E-03 0. -1.
        -11    1    4    4    0    0 -0.10887188439E+01 -0.38297885743E+01  0.76944895121E+01  0.86635880764E+01  0.51100000000E-03 0.  1.
        -12    1    4    4    0    0  0.21548307055E+02  0.74657918342E+01 -0.36862261319E+02  0.43346209687E+02  0.00000000000E+00 0.  1.
</event>
<event>
 8    1  0.3011071E-007  0.9118800E+02  0.7816164E-02  0.1184000E+00
        -11   -1    0    0    0    0  0.00000000000E+00  0.00000000000E+00  0.45593999997E+02  0.45594000000E+02  0.51100000000E-03 0.  1.
         11   -1    0    0    0    0 -0.00000000000E+00 -0.00000000000E+00 -0.45593999997E+02  0.45594000000E+02  0.51100000000E-03 0. -1.
         23    2    1    2    0    0  0.35527136788E-14  0.00000000000E+00  0.88817841970E-15  0.91188000000E+02  0.91188000000E+02 0.  0.
    9900012    2    3    3    0    0  0.19402180467E+02 -0.30564757184E+02  0.67179648882E+01  0.54367081478E+02  0.39999993845E+02 0.  0.
        -12    1    3    3    0    0 -0.19402180467E+02  0.30564757184E+02 -0.67179648882E+01  0.36820918522E+02  0.00000000000E+00 0.  1.
         11    1    4    4    0    0  0.10660531228E+01  0.40965436217E+01  0.16390179889E+01  0.45392201020E+01  0.51100000000E-03 0.  1.
        -11    1    4    4    0    0  0.21517607713E+02 -0.16326960749E+02 -0.66684878265E+01  0.27821678942E+02  0.51100000000E-03 0. -1.
         12    1    4    4    0    0 -0.31814803694E+01 -0.18334340057E+02  0.11747434726E+02  0.22006182434E+02  0.00000000000E+00 0. -1.
</event>
<event>
 8    1  0.3011071E-007  0.9118800E+02  0.7816164E-02  0.1184000E+00
        -11   -1    0    0    0    0  0.00000000000E+00  0.00000000000E+00  0.45593999997E+02  0.45594000000E+02  0.51100000000E-03 0.  1.
         11   -1    0    0    0    0 -0.00000000000E+00 -0.00000000000E+00 -0.45593999997E+02  0.45594000000E+02  0.51100000000E-03 0. -1.
         23    2    1    2    0    0  0.17763568394E-14 -0.35527136788E-14  0.35527136788E-14  0.91188000000E+02  0.91188000000E+02 0.  0.
    9900012    2    3    3    0    0  0.14168165429E+02 -0.18817733850E+02  0.28300773134E+02  0.54367112194E+02  0.40000063868E+02 0.  0.
         12    1    3    3    0    0 -0.14168165429E+02  0.18817733850E+02 -0.28300773134E+02  0.36820887806E+02  0.00000000000E+00 0. -1.
         11    1    4    4    0    0 -0.13618583204E+02 -0.59457877932E+01  0.12551425905E+02  0.19451387958E+02  0.51100000000E-03 0.  1.
        -11    1    4    4    0    0  0.15200070434E+02 -0.57740221214E+01  0.53675925775E+01  0.17122865502E+02  0.51100000000E-03 0. -1.
        -12    1    4    4    0    0  0.12586678199E+02 -0.70979239354E+01  0.10381754651E+02  0.17792858734E+02  0.00000000000E+00 0.  1.
</event>
<event>
 8    1  0.3011071E-007  0.9118800E+02  0.7816164E-02  0.1184000E+00
        -11   -1    0    0    0    0  0.00000000000E+00  0.00000000000E+00  0.45593999997E+02  0.45594000000E+02  0.51100000000E-03 0.  1.
         11   -1    0    0    0    0 -0.00000000000E+00 -0.00000000000E+00 -0.45593999997E+02  0.45594000000E+02  0.51100000000E-03 0. -1.
         23    2    1    2    0    0  0.00000000000E+00 -0.44408920985E-15 -0.17763568394E-14  0.91188000000E+02  0.91188000000E+02 0.  0.
    9900012    2    3    3    0    0 -0.36082411336E+02 -0.22631127819E+01 -0.69798320638E+01  0.54367080091E+02  0.39999990685E+02 0.  0.
        -12    1    3    3    0    0  0.36082411336E+02  0.22631127819E+01  0.69798320638E+01  0.36820919909E+02  0.00000000000E+00 0.  1.
         11    1    4    4    0    0 -0.19597341607E+02 -0.11376236512E+02  0.11268220883E+02  0.25307061413E+02  0.51100000000E-03 0. -1.
        -11    1    4    4    0    0  0.74238162367E+00 -0.18191983727E+01 -0.52451043325E+00  0.20336481137E+01  0.51100000000E-03 0.  1.
         12    1    4    4    0    0 -0.17227451352E+02  0.10932322103E+02 -0.17723542513E+02  0.27026370564E+02  0.00000000000E+00 0. -1.
</event>
<event>
 8    1  0.3011071E-007  0.9118800E+02  0.7816164E-02  0.1184000E+00
        -11   -1    0    0    0    0  0.00000000000E+00  0.00000000000E+00  0.45593999997E+02  0.45594000000E+02  0.51100000000E-03 0. -1.
         11   -1    0    0    0    0 -0.00000000000E+00 -0.00000000000E+00 -0.45593999997E+02  0.45594000000E+02  0.51100000000E-03 0.  1.
         23    2    1    2    0    0  0.00000000000E+00  0.00000000000E+00  0.00000000000E+00  0.91188000000E+02  0.91188000000E+02 0.  0.
    9900012    2    3    3    0    0  0.20537021756E+02  0.94116273185E+01 -0.29076323348E+02  0.54367074281E+02  0.39999977438E+02 0.  0.
         12    1    3    3    0    0 -0.20537021756E+02 -0.94116273185E+01  0.29076323348E+02  0.36820925719E+02  0.00000000000E+00 0. -1.
         11    1    4    4    0    0 -0.64843265289E+01 -0.55219940953E+01 -0.13004912457E+02  0.15545631463E+02  0.51100000000E-03 0. -1.
        -11    1    4    4    0    0  0.49109397395E+01  0.66687764140E+01 -0.12431833712E+02  0.14937884646E+02  0.51100000000E-03 0.  1.
         12    1    4    4    0    0  0.22110408545E+02  0.82648449998E+01 -0.36395771789E+01  0.23883558172E+02  0.00000000000E+00 0. -1.
</event>
<event>
 8    1  0.3011071E-007  0.9118800E+02  0.7816164E-02  0.1184000E+00
        -11   -1    0    0    0    0  0.00000000000E+00  0.00000000000E+00  0.45593999997E+02  0.45594000000E+02  0.51100000000E-03 0. -1.
         11   -1    0    0    0    0 -0.00000000000E+00 -0.00000000000E+00 -0.45593999997E+02  0.45594000000E+02  0.51100000000E-03 0.  1.
         23    2    1    2    0    0 -0.44408920985E-15 -0.17763568394E-14  0.00000000000E+00  0.91188000000E+02  0.91188000000E+02 0.  0.
    9900012    2    3    3    0    0  0.35416325711E+01 -0.13684843001E+02 -0.33999496547E+02  0.54367029689E+02  0.39999875781E+02 0.  0.
         12    1    3    3    0    0 -0.35416325711E+01  0.13684843001E+02  0.33999496547E+02  0.36820970311E+02  0.00000000000E+00 0. -1.
         11    1    4    4    0    0 -0.18615207047E+01 -0.13861061068E+02 -0.18818981842E+01  0.14111548969E+02  0.51100000000E-03 0. -1.
        -11    1    4    4    0    0  0.66258386548E+00 -0.11509235025E+02 -0.17423897670E+02  0.20892432087E+02  0.51100000000E-03 0.  1.
        -12    1    4    4    0    0  0.47405694103E+01  0.11685453092E+02 -0.14693700692E+02  0.19363048632E+02  0.00000000000E+00 0.  1.
</event>
<event>
 8    1  0.3011071E-007  0.9118800E+02  0.7816164E-02  0.1184000E+00
        -11   -1    0    0    0    0  0.00000000000E+00  0.00000000000E+00  0.45593999997E+02  0.45594000000E+02  0.51100000000E-03 0.  1.
         11   -1    0    0    0    0 -0.00000000000E+00 -0.00000000000E+00 -0.45593999997E+02  0.45594000000E+02  0.51100000000E-03 0. -1.
         23    2    1    2    0    0  0.00000000000E+00  0.00000000000E+00  0.17763568394E-14  0.91188000000E+02  0.91188000000E+02 0.  0.
    9900012    2    3    3    0    0 -0.31365826232E+02 -0.16626680171E+02 -0.97733246152E+01  0.54367089871E+02  0.40000012979E+02 0.  0.
        -12    1    3    3    0    0  0.31365826232E+02  0.16626680171E+02  0.97733246152E+01  0.36820910129E+02  0.00000000000E+00 0.  1.
         11    1    4    4    0    0  0.23901478971E+01 -0.11372390964E+02  0.56809341332E+01  0.12935110982E+02  0.51100000000E-03 0.  1.
        -11    1    4    4    0    0 -0.19306855198E+02  0.58213743929E+01 -0.68657072432E+01  0.21302135895E+02  0.51100000000E-03 0. -1.
        -12    1    4    4    0    0 -0.14449118930E+02 -0.11075663599E+02 -0.85885515053E+01  0.20129842995E+02  0.00000000000E+00 0.  1.
</event>
<event>
 8    1  0.3011071E-007  0.9118800E+02  0.7816164E-02  0.1184000E+00
        -11   -1    0    0    0    0  0.00000000000E+00  0.00000000000E+00  0.45593999997E+02  0.45594000000E+02  0.51100000000E-03 0.  1.
         11   -1    0    0    0    0 -0.00000000000E+00 -0.00000000000E+00 -0.45593999997E+02  0.45594000000E+02  0.51100000000E-03 0. -1.
         23    2    1    2    0    0  0.00000000000E+00  0.00000000000E+00  0.00000000000E+00  0.91188000000E+02  0.91188000000E+02 0.  0.
    9900012    2    3    3    0    0 -0.32302654669E+00 -0.26407759081E+02  0.25657480191E+02  0.54367076932E+02  0.39999983481E+02 0.  0.
         12    1    3    3    0    0  0.32302654669E+00  0.26407759081E+02 -0.25657480191E+02  0.36820923068E+02  0.00000000000E+00 0. -1.
         11    1    4    4    0    0 -0.11014402326E+02 -0.25661439848E+02  0.56956146709E+01  0.28500290883E+02  0.51100000000E-03 0. -1.
        -11    1    4    4    0    0  0.12167356254E+02 -0.35345765034E+01  0.12653994720E+02  0.17907020185E+02  0.51100000000E-03 0.  1.
        -12    1    4    4    0    0 -0.14759804753E+01  0.27882572702E+01  0.73078708000E+01  0.79597658633E+01  0.00000000000E+00 0.  1.
</event>
<event>
 8    1  0.3011071E-007  0.9118800E+02  0.7816164E-02  0.1184000E+00
        -11   -1    0    0    0    0  0.00000000000E+00  0.00000000000E+00  0.45593999997E+02  0.45594000000E+02  0.51100000000E-03 0. -1.
         11   -1    0    0    0    0 -0.00000000000E+00 -0.00000000000E+00 -0.45593999997E+02  0.45594000000E+02  0.51100000000E-03 0.  1.
         23    2    1    2    0    0 -0.17763568394E-14 -0.17763568394E-14  0.00000000000E+00  0.91188000000E+02  0.91188000000E+02 0.  0.
    9900012    2    3    3    0    0  0.95024990556E+01  0.14581723044E+02 -0.32447748378E+02  0.54367075106E+02  0.39999979319E+02 0.  0.
         12    1    3    3    0    0 -0.95024990556E+01 -0.14581723044E+02  0.32447748378E+02  0.36820924894E+02  0.00000000000E+00 0. -1.
         11    1    4    4    0    0 -0.13620866338E+02  0.12631592077E+02 -0.17387226912E+02  0.25444071572E+02  0.51100000000E-03 0. -1.
        -11    1    4    4    0    0  0.43878391812E+01  0.38618170037E+01 -0.31506096093E+01  0.66402638819E+01  0.51100000000E-03 0.  1.
         12    1    4    4    0    0  0.18735526213E+02 -0.19116860369E+01 -0.11909911857E+02  0.22282739652E+02  0.00000000000E+00 0. -1.
</event>
<event>
 8    1  0.3011071E-007  0.9118800E+02  0.7816164E-02  0.1184000E+00
        -11   -1    0    0    0    0  0.00000000000E+00  0.00000000000E+00  0.45593999997E+02  0.45594000000E+02  0.51100000000E-03 0.  1.
         11   -1    0    0    0    0 -0.00000000000E+00 -0.00000000000E+00 -0.45593999997E+02  0.45594000000E+02  0.51100000000E-03 0. -1.
         23    2    1    2    0    0  0.00000000000E+00  0.44408920985E-15 -0.10658141036E-13  0.91188000000E+02  0.91188000000E+02 0.  0.
    9900012    2    3    3    0    0  0.18632513489E+02 -0.30598205527E+01  0.31610879534E+02  0.54367071636E+02  0.39999971408E+02 0.  0.
         12    1    3    3    0    0 -0.18632513489E+02  0.30598205527E+01 -0.31610879534E+02  0.36820928364E+02  0.00000000000E+00 0. -1.
         11    1    4    4    0    0  0.24710374515E+01  0.88721804332E+01  0.40149136948E+01  0.10046946997E+02  0.51100000000E-03 0. -1.
        -11    1    4    4    0    0  0.21282544771E+02 -0.14107994798E+02  0.28941813282E+02  0.38595476231E+02  0.51100000000E-03 0.  1.
        -12    1    4    4    0    0 -0.51210687343E+01  0.21759938122E+01 -0.13458474429E+01  0.57246484077E+01  0.00000000000E+00 0.  1.
</event>
<event>
 8    1  0.3011071E-007  0.9118800E+02  0.7816164E-02  0.1184000E+00
        -11   -1    0    0    0    0  0.00000000000E+00  0.00000000000E+00  0.45593999997E+02  0.45594000000E+02  0.51100000000E-03 0.  1.
         11   -1    0    0    0    0 -0.00000000000E+00 -0.00000000000E+00 -0.45593999997E+02  0.45594000000E+02  0.51100000000E-03 0. -1.
         23    2    1    2    0    0 -0.35527136788E-14  0.00000000000E+00 -0.35527136788E-14  0.91188000000E+02  0.91188000000E+02 0.  0.
    9900012    2    3    3    0    0  0.27235977779E+02  0.11483459548E+02  0.21957109255E+02  0.54367041625E+02  0.39999902993E+02 0.  0.
         12    1    3    3    0    0 -0.27235977779E+02 -0.11483459548E+02 -0.21957109255E+02  0.36820958375E+02  0.00000000000E+00 0. -1.
         11    1    4    4    0    0 -0.89004866805E-01 -0.73066282857E+01 -0.64909780777E+01  0.97738188769E+01  0.51100000000E-03 0. -1.
        -11    1    4    4    0    0  0.24448315471E+02  0.19288040073E+02  0.24198792661E+02  0.39437674700E+02  0.51100000000E-03 0.  1.
        -12    1    4    4    0    0  0.28766671745E+01 -0.49795223893E+00  0.42492946722E+01  0.51555480481E+01  0.00000000000E+00 0.  1.
</event>
<event>
 8    1  0.3011071E-007  0.9118800E+02  0.7816164E-02  0.1184000E+00
        -11   -1    0    0    0    0  0.00000000000E+00  0.00000000000E+00  0.45593999997E+02  0.45594000000E+02  0.51100000000E-03 0.  1.
         11   -1    0    0    0    0 -0.00000000000E+00 -0.00000000000E+00 -0.45593999997E+02  0.45594000000E+02  0.51100000000E-03 0. -1.
         23    2    1    2    0    0  0.44408920985E-15  0.00000000000E+00 -0.88817841970E-15  0.91188000000E+02  0.91188000000E+02 0.  0.
    9900012    2    3    3    0    0 -0.13416071757E+01 -0.36538109825E+02 -0.43527288249E+01  0.54367087089E+02  0.40000006637E+02 0.  0.
         12    1    3    3    0    0  0.13416071757E+01  0.36538109825E+02  0.43527288249E+01  0.36820912911E+02  0.00000000000E+00 0. -1.
         11    1    4    4    0    0 -0.60394681087E+01 -0.26612815073E+02 -0.20365646620E+01  0.27365392324E+02  0.51100000000E-03 0. -1.
        -11    1    4    4    0    0  0.60191670041E+01 -0.17699412343E+02  0.28826365472E+00  0.18697129857E+02  0.51100000000E-03 0.  1.
        -12    1    4    4    0    0 -0.13213060711E+01  0.77741175913E+01 -0.26044278177E+01  0.83045649082E+01  0.00000000000E+00 0.  1.
</event>
<event>
 8    1  0.3011071E-007  0.9118800E+02  0.7816164E-02  0.1184000E+00
        -11   -1    0    0    0    0  0.00000000000E+00  0.00000000000E+00  0.45593999997E+02  0.45594000000E+02  0.51100000000E-03 0.  1.
         11   -1    0    0    0    0 -0.00000000000E+00 -0.00000000000E+00 -0.45593999997E+02  0.45594000000E+02  0.51100000000E-03 0. -1.
         23    2    1    2    0    0 -0.17763568394E-14  0.35527136788E-14  0.00000000000E+00  0.91188000000E+02  0.91188000000E+02 0.  0.
    9900012    2    3    3    0    0 -0.15383467442E+02  0.26894469145E+02 -0.19895134977E+02  0.54367082890E+02  0.39999997064E+02 0.  0.
         12    1    3    3    0    0  0.15383467442E+02 -0.26894469145E+02  0.19895134977E+02  0.36820917110E+02  0.00000000000E+00 0. -1.
         11    1    4    4    0    0  0.36002382096E+01  0.26961071289E+02 -0.85790638859E+00  0.27213913424E+02  0.51100000000E-03 0. -1.
        -11    1    4    4    0    0 -0.21205968189E+01 -0.52728919883E+00 -0.39841822178E+01  0.45440810923E+01  0.51100000000E-03 0.  1.
        -12    1    4    4    0    0 -0.16863108833E+02  0.46068705468E+00 -0.15053046370E+02  0.22609088374E+02  0.00000000000E+00 0.  1.
</event>
<event>
 8    1  0.3011071E-007  0.9118800E+02  0.7816164E-02  0.1184000E+00
        -11   -1    0    0    0    0  0.00000000000E+00  0.00000000000E+00  0.45593999997E+02  0.45594000000E+02  0.51100000000E-03 0. -1.
         11   -1    0    0    0    0 -0.00000000000E+00 -0.00000000000E+00 -0.45593999997E+02  0.45594000000E+02  0.51100000000E-03 0.  1.
         23    2    1    2    0    0  0.00000000000E+00  0.00000000000E+00  0.00000000000E+00  0.91188000000E+02  0.91188000000E+02 0.  0.
    9900012    2    3    3    0    0  0.90155234929E+01 -0.30400862195E+02 -0.18715890646E+02  0.54367127540E+02  0.40000098852E+02 0.  0.
         12    1    3    3    0    0 -0.90155234929E+01  0.30400862195E+02  0.18715890646E+02  0.36820872460E+02  0.00000000000E+00 0. -1.
         11    1    4    4    0    0  0.18632607961E+01 -0.27046579431E+02 -0.11971514883E+02  0.29636234048E+02  0.51100000000E-03 0. -1.
        -11    1    4    4    0    0  0.16517144686E+01 -0.10987686132E+02  0.26630733013E+01  0.11425820185E+02  0.51100000000E-03 0.  1.
         12    1    4    4    0    0  0.55005482282E+01  0.76334033680E+01 -0.94074490648E+01  0.13305073307E+02  0.00000000000E+00 0. -1.
</event>
<event>
 8    1  0.3011071E-007  0.9118800E+02  0.7816164E-02  0.1184000E+00
        -11   -1    0    0    0    0  0.00000000000E+00  0.00000000000E+00  0.45593999997E+02  0.45594000000E+02  0.51100000000E-03 0.  1.
         11   -1    0    0    0    0 -0.00000000000E+00 -0.00000000000E+00 -0.45593999997E+02  0.45594000000E+02  0.51100000000E-03 0. -1.
         23    2    1    2    0    0  0.00000000000E+00  0.35527136788E-14  0.00000000000E+00  0.91188000000E+02  0.91188000000E+02 0.  0.
    9900012    2    3    3    0    0  0.13194038056E+02  0.30362652722E+02  0.16118543124E+02  0.54367071807E+02  0.39999971799E+02 0.  0.
        -12    1    3    3    0    0 -0.13194038056E+02 -0.30362652722E+02 -0.16118543124E+02  0.36820928193E+02  0.00000000000E+00 0.  1.
         11    1    4    4    0    0  0.25344370453E+01 -0.64337820424E+00 -0.11274630449E+01  0.28475392586E+01  0.51100000000E-03 0. -1.
        -11    1    4    4    0    0 -0.75481877043E+01  0.28812788991E+02  0.13934835722E+02  0.32883606765E+02  0.51100000000E-03 0.  1.
         12    1    4    4    0    0  0.18207788715E+02  0.21932419353E+01  0.33111704467E+01  0.18635925783E+02  0.00000000000E+00 0. -1.
</event>
<event>
 8    1  0.3011071E-007  0.9118800E+02  0.7816164E-02  0.1184000E+00
        -11   -1    0    0    0    0  0.00000000000E+00  0.00000000000E+00  0.45593999997E+02  0.45594000000E+02  0.51100000000E-03 0.  1.
         11   -1    0    0    0    0 -0.00000000000E+00 -0.00000000000E+00 -0.45593999997E+02  0.45594000000E+02  0.51100000000E-03 0. -1.
         23    2    1    2    0    0  0.00000000000E+00  0.26645352591E-14  0.00000000000E+00  0.91188000000E+02  0.91188000000E+02 0.  0.
    9900012    2    3    3    0    0  0.15227698071E+02  0.50595187422E+01 -0.33140599397E+02  0.54367070533E+02  0.39999968894E+02 0.  0.
        -12    1    3    3    0    0 -0.15227698071E+02 -0.50595187422E+01  0.33140599397E+02  0.36820929467E+02  0.00000000000E+00 0.  1.
         11    1    4    4    0    0  0.26719269714E+01  0.13261462211E+02 -0.33796724781E+01  0.13943735512E+02  0.51100000000E-03 0. -1.
        -11    1    4    4    0    0  0.16614572116E+02  0.12974297782E+01 -0.21462109332E+02  0.27172586698E+02  0.51100000000E-03 0.  1.
        -12    1    4    4    0    0 -0.40588010167E+01 -0.94993732470E+01 -0.82988175868E+01  0.13250748323E+02  0.00000000000E+00 0.  1.
</event>
<event>
 8    1  0.3011071E-007  0.9118800E+02  0.7816164E-02  0.1184000E+00
        -11   -1    0    0    0    0  0.00000000000E+00  0.00000000000E+00  0.45593999997E+02  0.45594000000E+02  0.51100000000E-03 0. -1.
         11   -1    0    0    0    0 -0.00000000000E+00 -0.00000000000E+00 -0.45593999997E+02  0.45594000000E+02  0.51100000000E-03 0.  1.
         23    2    1    2    0    0  0.00000000000E+00  0.17763568394E-14  0.71054273576E-14  0.91188000000E+02  0.91188000000E+02 0.  0.
    9900012    2    3    3    0    0  0.67328788416E+01 -0.10538762086E+02 -0.34632099332E+02  0.54367089257E+02  0.40000011578E+02 0.  0.
         12    1    3    3    0    0 -0.67328788416E+01  0.10538762086E+02  0.34632099332E+02  0.36820910743E+02  0.00000000000E+00 0. -1.
         11    1    4    4    0    0 -0.26064733247E+01  0.80016683322E-02 -0.38083934419E+02  0.38173024878E+02  0.51100000000E-03 0. -1.
        -11    1    4    4    0    0  0.94582764639E+01 -0.60834703214E+01  0.33263934379E+01  0.11727425053E+02  0.51100000000E-03 0.  1.
        -12    1    4    4    0    0 -0.11892429756E+00 -0.44632934329E+01  0.12544164880E+00  0.44666393255E+01  0.00000000000E+00 0.  1.
</event>
<event>
 8    1  0.3011071E-007  0.9118800E+02  0.7816164E-02  0.1184000E+00
        -11   -1    0    0    0    0  0.00000000000E+00  0.00000000000E+00  0.45593999997E+02  0.45594000000E+02  0.51100000000E-03 0.  1.
         11   -1    0    0    0    0 -0.00000000000E+00 -0.00000000000E+00 -0.45593999997E+02  0.45594000000E+02  0.51100000000E-03 0. -1.
         23    2    1    2    0    0  0.35527136788E-14  0.00000000000E+00  0.17763568394E-14  0.91188000000E+02  0.91188000000E+02 0.  0.
    9900012    2    3    3    0    0 -0.27354439583E+02  0.20242627055E+02  0.14062353207E+02  0.54367094353E+02  0.40000023196E+02 0.  0.
         12    1    3    3    0    0  0.27354439583E+02 -0.20242627055E+02 -0.14062353207E+02  0.36820905647E+02  0.00000000000E+00 0. -1.
         11    1    4    4    0    0 -0.60146927939E+01  0.92707886780E+01  0.46618947631E+01  0.11994053325E+02  0.51100000000E-03 0. -1.
        -11    1    4    4    0    0 -0.29692125861E+02  0.84125270109E+01  0.20026484899E+01  0.30925774850E+02  0.51100000000E-03 0.  1.
        -12    1    4    4    0    0  0.83523790724E+01  0.25593113661E+01  0.73978099535E+01  0.11447266178E+02  0.00000000000E+00 0.  1.
</event>
<event>
 8    1  0.3011071E-007  0.9118800E+02  0.7816164E-02  0.1184000E+00
        -11   -1    0    0    0    0  0.00000000000E+00  0.00000000000E+00  0.45593999997E+02  0.45594000000E+02  0.51100000000E-03 0. -1.
         11   -1    0    0    0    0 -0.00000000000E+00 -0.00000000000E+00 -0.45593999997E+02  0.45594000000E+02  0.51100000000E-03 0.  1.
         23    2    1    2    0    0  0.22204460493E-15  0.17763568394E-14  0.00000000000E+00  0.91188000000E+02  0.91188000000E+02 0.  0.
    9900012    2    3    3    0    0  0.13822339635E+01  0.10295889099E+02  0.35325115819E+02  0.54367085960E+02  0.40000004064E+02 0.  0.
        -12    1    3    3    0    0 -0.13822339635E+01 -0.10295889099E+02 -0.35325115819E+02  0.36820914040E+02  0.00000000000E+00 0.  1.
         11    1    4    4    0    0  0.91366827720E+01 -0.64018615202E+01  0.55790733633E+01  0.12473526480E+02  0.51100000000E-03 0. -1.
        -11    1    4    4    0    0 -0.14239943565E+01  0.21036045131E+02  0.17307490756E+02  0.27278053289E+02  0.51100000000E-03 0.  1.
        -12    1    4    4    0    0 -0.63304544521E+01 -0.43382945118E+01  0.12438551700E+02  0.14615506191E+02  0.00000000000E+00 0.  1.
</event>
<event>
 8    1  0.3011071E-007  0.9118800E+02  0.7816164E-02  0.1184000E+00
        -11   -1    0    0    0    0  0.00000000000E+00  0.00000000000E+00  0.45593999997E+02  0.45594000000E+02  0.51100000000E-03 0. -1.
         11   -1    0    0    0    0 -0.00000000000E+00 -0.00000000000E+00 -0.45593999997E+02  0.45594000000E+02  0.51100000000E-03 0.  1.
         23    2    1    2    0    0 -0.13322676296E-14  0.00000000000E+00 -0.35527136788E-14  0.91188000000E+02  0.91188000000E+02 0.  0.
    9900012    2    3    3    0    0 -0.26326320282E+01  0.29532023860E+02  0.21833658821E+02  0.54367084176E+02  0.39999999995E+02 0.  0.
        -12    1    3    3    0    0  0.26326320282E+01 -0.29532023860E+02 -0.21833658821E+02  0.36820915824E+02  0.00000000000E+00 0.  1.
         11    1    4    4    0    0 -0.95070791716E+01  0.71062992420E+01 -0.72196935926E+01  0.13892732601E+02  0.51100000000E-03 0.  1.
        -11    1    4    4    0    0 -0.16754561594E+00  0.20936861842E+02  0.20609876262E+02  0.29379367848E+02  0.51100000000E-03 0. -1.
         12    1    4    4    0    0  0.70419927593E+01  0.14888627759E+01  0.84434761510E+01  0.11094983727E+02  0.00000000000E+00 0. -1.
</event>
<event>
 8    1  0.3011071E-007  0.9118800E+02  0.7816164E-02  0.1184000E+00
        -11   -1    0    0    0    0  0.00000000000E+00  0.00000000000E+00  0.45593999997E+02  0.45594000000E+02  0.51100000000E-03 0.  1.
         11   -1    0    0    0    0 -0.00000000000E+00 -0.00000000000E+00 -0.45593999997E+02  0.45594000000E+02  0.51100000000E-03 0. -1.
         23    2    1    2    0    0  0.00000000000E+00  0.00000000000E+00 -0.17763568394E-14  0.91188000000E+02  0.91188000000E+02 0.  0.
    9900012    2    3    3    0    0  0.27459348481E+02  0.20315522225E+02 -0.13749297722E+02  0.54367089499E+02  0.40000012131E+02 0.  0.
        -12    1    3    3    0    0 -0.27459348481E+02 -0.20315522225E+02  0.13749297722E+02  0.36820910501E+02  0.00000000000E+00 0.  1.
         11    1    4    4    0    0  0.13541541767E+02  0.15585358815E+02  0.37335262157E+01  0.20981324579E+02  0.51100000000E-03 0.  1.
        -11    1    4    4    0    0  0.17851246323E+02  0.74535259569E+01 -0.49459975666E+01  0.19967096351E+02  0.51100000000E-03 0. -1.
         12    1    4    4    0    0 -0.39334396101E+01 -0.27233625465E+01 -0.12536826371E+02  0.13418668570E+02  0.00000000000E+00 0. -1.
</event>
<event>
 8    1  0.3011071E-007  0.9118800E+02  0.7816164E-02  0.1184000E+00
        -11   -1    0    0    0    0  0.00000000000E+00  0.00000000000E+00  0.45593999997E+02  0.45594000000E+02  0.51100000000E-03 0. -1.
         11   -1    0    0    0    0 -0.00000000000E+00 -0.00000000000E+00 -0.45593999997E+02  0.45594000000E+02  0.51100000000E-03 0.  1.
         23    2    1    2    0    0  0.00000000000E+00  0.88817841970E-15 -0.35527136788E-14  0.91188000000E+02  0.91188000000E+02 0.  0.
    9900012    2    3    3    0    0 -0.26892624207E+02 -0.71645698743E+01  0.24108829482E+02  0.54367082613E+02  0.39999996433E+02 0.  0.
        -12    1    3    3    0    0  0.26892624207E+02  0.71645698743E+01 -0.24108829482E+02  0.36820917387E+02  0.00000000000E+00 0.  1.
         11    1    4    4    0    0 -0.10060624213E+02 -0.10551134865E+02  0.13660695649E+02  0.19978919199E+02  0.51100000000E-03 0. -1.
        -11    1    4    4    0    0  0.14852310410E+01 -0.35455479687E+01  0.13969756797E+02  0.14488993301E+02  0.51100000000E-03 0.  1.
        -12    1    4    4    0    0 -0.18317231035E+02  0.69321129595E+01 -0.35216229643E+01  0.19899170113E+02  0.00000000000E+00 0.  1.
</event>
<event>
 8    1  0.3011071E-007  0.9118800E+02  0.7816164E-02  0.1184000E+00
        -11   -1    0    0    0    0  0.00000000000E+00  0.00000000000E+00  0.45593999997E+02  0.45594000000E+02  0.51100000000E-03 0.  1.
         11   -1    0    0    0    0 -0.00000000000E+00 -0.00000000000E+00 -0.45593999997E+02  0.45594000000E+02  0.51100000000E-03 0. -1.
         23    2    1    2    0    0 -0.71054273576E-14 -0.17763568394E-14  0.17763568394E-14  0.91188000000E+02  0.91188000000E+02 0.  0.
    9900012    2    3    3    0    0 -0.33534503461E+02 -0.93974935156E+01  0.11954237754E+02  0.54367087368E+02  0.40000007273E+02 0.  0.
         12    1    3    3    0    0  0.33534503461E+02  0.93974935156E+01 -0.11954237754E+02  0.36820912632E+02  0.00000000000E+00 0. -1.
         11    1    4    4    0    0 -0.24322633316E+02 -0.28171533581E+01  0.10287340914E+02  0.26558543405E+02  0.51100000000E-03 0. -1.
        -11    1    4    4    0    0  0.65124003360E+01  0.64944010459E+00  0.71123700921E+01  0.96653473385E+01  0.51100000000E-03 0.  1.
         12    1    4    4    0    0 -0.15724270481E+02 -0.72297802621E+01 -0.54454732526E+01  0.18143196624E+02  0.00000000000E+00 0. -1.
</event>
<event>
 8    1  0.3011071E-007  0.9118800E+02  0.7816164E-02  0.1184000E+00
        -11   -1    0    0    0    0  0.00000000000E+00  0.00000000000E+00  0.45593999997E+02  0.45594000000E+02  0.51100000000E-03 0. -1.
         11   -1    0    0    0    0 -0.00000000000E+00 -0.00000000000E+00 -0.45593999997E+02  0.45594000000E+02  0.51100000000E-03 0.  1.
         23    2    1    2    0    0 -0.71054273576E-14  0.00000000000E+00  0.00000000000E+00  0.91188000000E+02  0.91188000000E+02 0.  0.
    9900012    2    3    3    0    0  0.36321627619E+02 -0.29433801311E+01  0.52778135550E+01  0.54367089699E+02  0.40000012587E+02 0.  0.
        -12    1    3    3    0    0 -0.36321627619E+02  0.29433801311E+01 -0.52778135550E+01  0.36820910301E+02  0.00000000000E+00 0.  1.
         11    1    4    4    0    0 -0.55408496321E+00  0.45465140184E-01  0.12746991680E+02  0.12759109466E+02  0.51100000000E-03 0. -1.
        -11    1    4    4    0    0  0.93041106398E+01  0.35827781964E-01  0.56916660962E+01  0.10907007914E+02  0.51100000000E-03 0.  1.
        -12    1    4    4    0    0  0.27571601942E+02 -0.30246730533E+01 -0.13160844221E+02  0.30700972319E+02  0.00000000000E+00 0.  1.
</event>
<event>
 8    1  0.3011071E-007  0.9118800E+02  0.7816164E-02  0.1184000E+00
        -11   -1    0    0    0    0  0.00000000000E+00  0.00000000000E+00  0.45593999997E+02  0.45594000000E+02  0.51100000000E-03 0.  1.
         11   -1    0    0    0    0 -0.00000000000E+00 -0.00000000000E+00 -0.45593999997E+02  0.45594000000E+02  0.51100000000E-03 0. -1.
         23    2    1    2    0    0  0.88817841970E-15  0.00000000000E+00  0.00000000000E+00  0.91188000000E+02  0.91188000000E+02 0.  0.
    9900012    2    3    3    0    0 -0.57628698271E+01 -0.16640680277E+02 -0.32336610442E+02  0.54367091761E+02  0.40000017287E+02 0.  0.
        -12    1    3    3    0    0  0.57628698271E+01  0.16640680277E+02  0.32336610442E+02  0.36820908239E+02  0.00000000000E+00 0.  1.
         11    1    4    4    0    0 -0.63360490526E+01  0.43610097781E+01 -0.51298240103E+01  0.92454863863E+01  0.51100000000E-03 0. -1.
        -11    1    4    4    0    0 -0.13018974349E+02 -0.30685520765E+01 -0.11936855063E+02  0.17927582492E+02  0.51100000000E-03 0.  1.
        -12    1    4    4    0    0  0.13592153575E+02 -0.17933137978E+02 -0.15269931368E+02  0.27194022882E+02  0.00000000000E+00 0.  1.
</event>
<event>
 8    1  0.3011071E-007  0.9118800E+02  0.7816164E-02  0.1184000E+00
        -11   -1    0    0    0    0  0.00000000000E+00  0.00000000000E+00  0.45593999997E+02  0.45594000000E+02  0.51100000000E-03 0.  1.
         11   -1    0    0    0    0 -0.00000000000E+00 -0.00000000000E+00 -0.45593999997E+02  0.45594000000E+02  0.51100000000E-03 0. -1.
         23    2    1    2    0    0  0.00000000000E+00  0.35527136788E-14  0.00000000000E+00  0.91188000000E+02  0.91188000000E+02 0.  0.
    9900012    2    3    3    0    0  0.35452008572E+02 -0.85999275048E+01 -0.49974871140E+01  0.54367101826E+02  0.40000040233E+02 0.  0.
        -12    1    3    3    0    0 -0.35452008572E+02  0.85999275048E+01  0.49974871140E+01  0.36820898174E+02  0.00000000000E+00 0.  1.
         11    1    4    4    0    0  0.79600453948E+01 -0.98878359671E+01 -0.31906842666E+01  0.13088624418E+02  0.51100000000E-03 0. -1.
        -11    1    4    4    0    0 -0.16419225859E+00 -0.10959107132E+02  0.23789442125E+00  0.10962918509E+02  0.51100000000E-03 0.  1.
         12    1    4    4    0    0  0.27656155436E+02  0.12247015594E+02 -0.20446972686E+01  0.30315558899E+02  0.00000000000E+00 0. -1.
</event>
<event>
 8    1  0.3011071E-007  0.9118800E+02  0.7816164E-02  0.1184000E+00
        -11   -1    0    0    0    0  0.00000000000E+00  0.00000000000E+00  0.45593999997E+02  0.45594000000E+02  0.51100000000E-03 0.  1.
         11   -1    0    0    0    0 -0.00000000000E+00 -0.00000000000E+00 -0.45593999997E+02  0.45594000000E+02  0.51100000000E-03 0. -1.
         23    2    1    2    0    0  0.00000000000E+00  0.13322676296E-14  0.00000000000E+00  0.91188000000E+02  0.91188000000E+02 0.  0.
    9900012    2    3    3    0    0 -0.15032140716E+02  0.32006269972E+01  0.33459985715E+02  0.54367083231E+02  0.39999997841E+02 0.  0.
         12    1    3    3    0    0  0.15032140716E+02 -0.32006269972E+01 -0.33459985715E+02  0.36820916769E+02  0.00000000000E+00 0. -1.
         11    1    4    4    0    0  0.33667992587E+01  0.11455972845E+02  0.14970280213E+02  0.19148993211E+02  0.51100000000E-03 0.  1.
        -11    1    4    4    0    0  0.17187528609E+01 -0.94807983527E+01  0.41971980743E+01  0.10509810690E+02  0.51100000000E-03 0. -1.
         12    1    4    4    0    0 -0.20117692836E+02  0.12254525051E+01  0.14292507427E+02  0.24708279330E+02  0.00000000000E+00 0. -1.
</event>
<event>
 8    1  0.3011071E-007  0.9118800E+02  0.7816164E-02  0.1184000E+00
        -11   -1    0    0    0    0  0.00000000000E+00  0.00000000000E+00  0.45593999997E+02  0.45594000000E+02  0.51100000000E-03 0. -1.
         11   -1    0    0    0    0 -0.00000000000E+00 -0.00000000000E+00 -0.45593999997E+02  0.45594000000E+02  0.51100000000E-03 0.  1.
         23    2    1    2    0    0  0.35527136788E-14  0.19984014443E-14  0.00000000000E+00  0.91188000000E+02  0.91188000000E+02 0.  0.
    9900012    2    3    3    0    0 -0.31130351607E+02  0.17392541064E+01 -0.19587120045E+02  0.54367094692E+02  0.40000023969E+02 0.  0.
        -12    1    3    3    0    0  0.31130351607E+02 -0.17392541064E+01  0.19587120045E+02  0.36820905308E+02  0.00000000000E+00 0.  1.
         11    1    4    4    0    0 -0.56055174363E+01 -0.11433387350E+02 -0.49967320177E+01  0.13678870683E+02  0.51100000000E-03 0. -1.
        -11    1    4    4    0    0  0.34960977980E+01  0.12639450048E+01 -0.77300778218E+01  0.85775497772E+01  0.51100000000E-03 0.  1.
         12    1    4    4    0    0 -0.29020931969E+02  0.11908696452E+02 -0.68603102053E+01  0.32110674232E+02  0.00000000000E+00 0. -1.
</event>
<event>
 8    1  0.3011071E-007  0.9118800E+02  0.7816164E-02  0.1184000E+00
        -11   -1    0    0    0    0  0.00000000000E+00  0.00000000000E+00  0.45593999997E+02  0.45594000000E+02  0.51100000000E-03 0. -1.
         11   -1    0    0    0    0 -0.00000000000E+00 -0.00000000000E+00 -0.45593999997E+02  0.45594000000E+02  0.51100000000E-03 0.  1.
         23    2    1    2    0    0  0.00000000000E+00  0.00000000000E+00  0.00000000000E+00  0.91188000000E+02  0.91188000000E+02 0.  0.
    9900012    2    3    3    0    0  0.34061650982E+02  0.11189556248E+02  0.83898649129E+01  0.54366918132E+02  0.39999621464E+02 0.  0.
        -12    1    3    3    0    0 -0.34061650982E+02 -0.11189556248E+02 -0.83898649129E+01  0.36821081868E+02  0.00000000000E+00 0.  1.
         11    1    4    4    0    0  0.25240086016E+02  0.12774985314E+01 -0.70794811658E+01  0.26245247159E+02  0.51100000000E-03 0.  1.
        -11    1    4    4    0    0  0.14634775218E+02  0.39741051313E+01  0.95977000347E+01  0.17946754679E+02  0.51100000000E-03 0. -1.
        -12    1    4    4    0    0 -0.58132102519E+01  0.59379525848E+01  0.58716460441E+01  0.10174916294E+02  0.00000000000E+00 0.  1.
</event>
<event>
 8    1  0.3011071E-007  0.9118800E+02  0.7816164E-02  0.1184000E+00
        -11   -1    0    0    0    0  0.00000000000E+00  0.00000000000E+00  0.45593999997E+02  0.45594000000E+02  0.51100000000E-03 0. -1.
         11   -1    0    0    0    0 -0.00000000000E+00 -0.00000000000E+00 -0.45593999997E+02  0.45594000000E+02  0.51100000000E-03 0.  1.
         23    2    1    2    0    0 -0.88817841970E-15  0.00000000000E+00 -0.71054273576E-14  0.91188000000E+02  0.91188000000E+02 0.  0.
    9900012    2    3    3    0    0  0.57899549664E+01  0.14106411480E+02 -0.33515146975E+02  0.54367088820E+02  0.40000010583E+02 0.  0.
         12    1    3    3    0    0 -0.57899549664E+01 -0.14106411480E+02  0.33515146975E+02  0.36820911180E+02  0.00000000000E+00 0. -1.
         11    1    4    4    0    0 -0.89897813320E+01  0.10436801179E+02 -0.19917820597E+02  0.24216989178E+02  0.51100000000E-03 0.  1.
        -11    1    4    4    0    0  0.28157196629E+01 -0.83163032003E+01 -0.90627651669E+01  0.12618355236E+02  0.51100000000E-03 0. -1.
        -12    1    4    4    0    0  0.11964016636E+02  0.11985913501E+02 -0.45345612113E+01  0.17531744405E+02  0.00000000000E+00 0.  1.
</event>
<event>
 8    1  0.3011071E-007  0.9118800E+02  0.7816164E-02  0.1184000E+00
        -11   -1    0    0    0    0  0.00000000000E+00  0.00000000000E+00  0.45593999997E+02  0.45594000000E+02  0.51100000000E-03 0.  1.
         11   -1    0    0    0    0 -0.00000000000E+00 -0.00000000000E+00 -0.45593999997E+02  0.45594000000E+02  0.51100000000E-03 0. -1.
         23    2    1    2    0    0  0.00000000000E+00  0.00000000000E+00  0.35527136788E-14  0.91188000000E+02  0.91188000000E+02 0.  0.
    9900012    2    3    3    0    0  0.89383282989E+01 -0.25197416453E+02  0.25317503020E+02  0.54367089258E+02  0.40000011582E+02 0.  0.
        -12    1    3    3    0    0 -0.89383282989E+01  0.25197416453E+02 -0.25317503020E+02  0.36820910742E+02  0.00000000000E+00 0.  1.
         11    1    4    4    0    0  0.19590546463E+02 -0.23469809218E+02  0.22185366219E+02  0.37773164151E+02  0.51100000000E-03 0.  1.
        -11    1    4    4    0    0 -0.97929813221E+01  0.25587867131E+01  0.56063119856E+01  0.11570678760E+02  0.51100000000E-03 0. -1.
        -12    1    4    4    0    0 -0.85923684223E+00 -0.42863939480E+01 -0.24741751838E+01  0.50232463475E+01  0.00000000000E+00 0.  1.
</event>
<event>
 8    1  0.3011071E-007  0.9118800E+02  0.7816164E-02  0.1184000E+00
        -11   -1    0    0    0    0  0.00000000000E+00  0.00000000000E+00  0.45593999997E+02  0.45594000000E+02  0.51100000000E-03 0.  1.
         11   -1    0    0    0    0 -0.00000000000E+00 -0.00000000000E+00 -0.45593999997E+02  0.45594000000E+02  0.51100000000E-03 0. -1.
         23    2    1    2    0    0  0.00000000000E+00  0.00000000000E+00  0.00000000000E+00  0.91188000000E+02  0.91188000000E+02 0.  0.
    9900012    2    3    3    0    0  0.16409963028E+02 -0.32314495172E+02 -0.65012090651E+01  0.54367092840E+02  0.40000019746E+02 0.  0.
         12    1    3    3    0    0 -0.16409963028E+02  0.32314495172E+02  0.65012090651E+01  0.36820907160E+02  0.00000000000E+00 0. -1.
         11    1    4    4    0    0  0.58213963497E+01 -0.67879540572E+01  0.78226867787E+01  0.11881052329E+02  0.51100000000E-03 0. -1.
        -11    1    4    4    0    0  0.12909281692E+02 -0.91270000437E+01  0.54216332281E+01  0.16713640858E+02  0.51100000000E-03 0.  1.
         12    1    4    4    0    0 -0.23207150145E+01 -0.16399541071E+02 -0.19745529072E+02  0.25772399653E+02  0.00000000000E+00 0. -1.
</event>
<event>
 8    1  0.3011071E-007  0.9118800E+02  0.7816164E-02  0.1184000E+00
        -11   -1    0    0    0    0  0.00000000000E+00  0.00000000000E+00  0.45593999997E+02  0.45594000000E+02  0.51100000000E-03 0.  1.
         11   -1    0    0    0    0 -0.00000000000E+00 -0.00000000000E+00 -0.45593999997E+02  0.45594000000E+02  0.51100000000E-03 0. -1.
         23    2    1    2    0    0  0.00000000000E+00 -0.35527136788E-14  0.71054273576E-14  0.91188000000E+02  0.91188000000E+02 0.  0.
    9900012    2    3    3    0    0 -0.25210682889E+02 -0.17901908809E+02  0.19993071966E+02  0.54367084784E+02  0.40000001382E+02 0.  0.
        -12    1    3    3    0    0  0.25210682889E+02  0.17901908809E+02 -0.19993071966E+02  0.36820915216E+02  0.00000000000E+00 0.  1.
         11    1    4    4    0    0 -0.10968687389E+02 -0.95263750200E+01  0.59110204592E+00  0.14540059352E+02  0.51100000000E-03 0. -1.
        -11    1    4    4    0    0 -0.13344129475E+02 -0.13420177863E+02  0.25567792734E+02  0.31810045440E+02  0.51100000000E-03 0.  1.
         12    1    4    4    0    0 -0.89786602399E+00  0.50446440736E+01 -0.61658228140E+01  0.80169799925E+01  0.00000000000E+00 0. -1.
</event>
<event>
 8    1  0.3011071E-007  0.9118800E+02  0.7816164E-02  0.1184000E+00
        -11   -1    0    0    0    0  0.00000000000E+00  0.00000000000E+00  0.45593999997E+02  0.45594000000E+02  0.51100000000E-03 0.  1.
         11   -1    0    0    0    0 -0.00000000000E+00 -0.00000000000E+00 -0.45593999997E+02  0.45594000000E+02  0.51100000000E-03 0. -1.
         23    2    1    2    0    0  0.35527136788E-14  0.44408920985E-15 -0.35527136788E-14  0.91188000000E+02  0.91188000000E+02 0.  0.
    9900012    2    3    3    0    0 -0.31632196364E+02 -0.25536673342E+01  0.18672390773E+02  0.54367146658E+02  0.40000142436E+02 0.  0.
        -12    1    3    3    0    0  0.31632196364E+02  0.25536673342E+01 -0.18672390773E+02  0.36820853342E+02  0.00000000000E+00 0.  1.
         11    1    4    4    0    0 -0.49353657431E+01 -0.66646833325E+00  0.10610387806E+02  0.11721021488E+02  0.51100000000E-03 0. -1.
        -11    1    4    4    0    0 -0.16705629726E+02 -0.10909116153E+02  0.17227439487E+02  0.26360416373E+02  0.51100000000E-03 0.  1.
         12    1    4    4    0    0 -0.99912008947E+01  0.90219171525E+01 -0.91654365207E+01  0.16285708798E+02  0.00000000000E+00 0. -1.
</event>
<event>
 8    1  0.3011071E-007  0.9118800E+02  0.7816164E-02  0.1184000E+00
        -11   -1    0    0    0    0  0.00000000000E+00  0.00000000000E+00  0.45593999997E+02  0.45594000000E+02  0.51100000000E-03 0.  1.
         11   -1    0    0    0    0 -0.00000000000E+00 -0.00000000000E+00 -0.45593999997E+02  0.45594000000E+02  0.51100000000E-03 0. -1.
         23    2    1    2    0    0  0.00000000000E+00 -0.10824674490E-14  0.00000000000E+00  0.91188000000E+02  0.91188000000E+02 0.  0.
    9900012    2    3    3    0    0  0.94324013782E+01  0.20402216435E+00 -0.35591677610E+02  0.54367091050E+02  0.40000015667E+02 0.  0.
        -12    1    3    3    0    0 -0.94324013782E+01 -0.20402216435E+00  0.35591677610E+02  0.36820908950E+02  0.00000000000E+00 0.  1.
         11    1    4    4    0    0  0.10623862283E+02  0.78436465709E+01 -0.21546780645E+01  0.13380279488E+02  0.51100000000E-03 0. -1.
        -11    1    4    4    0    0 -0.95302728564E+01 -0.14055447063E+01 -0.27187327526E+02  0.28843585681E+02  0.51100000000E-03 0.  1.
        -12    1    4    4    0    0  0.83388119514E+01 -0.62340797002E+01 -0.62496720192E+01  0.12143225882E+02  0.00000000000E+00 0.  1.
</event>
<event>
 8    1  0.3011071E-007  0.9118800E+02  0.7816164E-02  0.1184000E+00
        -11   -1    0    0    0    0  0.00000000000E+00  0.00000000000E+00  0.45593999997E+02  0.45594000000E+02  0.51100000000E-03 0. -1.
         11   -1    0    0    0    0 -0.00000000000E+00 -0.00000000000E+00 -0.45593999997E+02  0.45594000000E+02  0.51100000000E-03 0.  1.
         23    2    1    2    0    0  0.35527136788E-14 -0.17763568394E-14  0.00000000000E+00  0.91188000000E+02  0.91188000000E+02 0.  0.
    9900012    2    3    3    0    0 -0.23598226977E+02  0.11870441717E+02 -0.25651431361E+02  0.54367087004E+02  0.40000006443E+02 0.  0.
         12    1    3    3    0    0  0.23598226977E+02 -0.11870441717E+02  0.25651431361E+02  0.36820912996E+02  0.00000000000E+00 0. -1.
         11    1    4    4    0    0 -0.45622755775E+01 -0.45170800328E+01  0.47098052985E+01  0.79624516751E+01  0.51100000000E-03 0. -1.
        -11    1    4    4    0    0 -0.67211984190E+01 -0.43882676206E+01 -0.17009450445E+02  0.18808317458E+02  0.51100000000E-03 0.  1.
         12    1    4    4    0    0 -0.12314752980E+02  0.20775789370E+02 -0.13351786214E+02  0.27596317871E+02  0.00000000000E+00 0. -1.
</event>
<event>
 8    1  0.3011071E-007  0.9118800E+02  0.7816164E-02  0.1184000E+00
        -11   -1    0    0    0    0  0.00000000000E+00  0.00000000000E+00  0.45593999997E+02  0.45594000000E+02  0.51100000000E-03 0.  1.
         11   -1    0    0    0    0 -0.00000000000E+00 -0.00000000000E+00 -0.45593999997E+02  0.45594000000E+02  0.51100000000E-03 0. -1.
         23    2    1    2    0    0 -0.17763568394E-14  0.00000000000E+00  0.71054273576E-14  0.91188000000E+02  0.91188000000E+02 0.  0.
    9900012    2    3    3    0    0 -0.15216011082E+02  0.67745892508E+01  0.32838396665E+02  0.54367050144E+02  0.39999922414E+02 0.  0.
         12    1    3    3    0    0  0.15216011082E+02 -0.67745892508E+01 -0.32838396665E+02  0.36820949856E+02  0.00000000000E+00 0. -1.
         11    1    4    4    0    0 -0.52753567682E+01 -0.87617745027E+01  0.30601705103E+02  0.32265499174E+02  0.51100000000E-03 0.  1.
        -11    1    4    4    0    0 -0.15748009932E+01  0.58378384070E+01 -0.45865885865E+01  0.75892786586E+01  0.51100000000E-03 0. -1.
        -12    1    4    4    0    0 -0.83658533208E+01  0.96985253465E+01  0.68232801484E+01  0.14512272312E+02  0.00000000000E+00 0.  1.
</event>
<event>
 8    1  0.3011071E-007  0.9118800E+02  0.7816164E-02  0.1184000E+00
        -11   -1    0    0    0    0  0.00000000000E+00  0.00000000000E+00  0.45593999997E+02  0.45594000000E+02  0.51100000000E-03 0. -1.
         11   -1    0    0    0    0 -0.00000000000E+00 -0.00000000000E+00 -0.45593999997E+02  0.45594000000E+02  0.51100000000E-03 0.  1.
         23    2    1    2    0    0  0.35527136788E-14 -0.35527136788E-14  0.17763568394E-14  0.91188000000E+02  0.91188000000E+02 0.  0.
    9900012    2    3    3    0    0 -0.23594052731E+02  0.26011450856E+02 -0.11067949842E+02  0.54367157891E+02  0.40000168043E+02 0.  0.
        -12    1    3    3    0    0  0.23594052731E+02 -0.26011450856E+02  0.11067949842E+02  0.36820842109E+02  0.00000000000E+00 0.  1.
         11    1    4    4    0    0 -0.14026356019E+02  0.60225963532E+00 -0.90722982503E+01  0.16715501059E+02  0.51100000000E-03 0. -1.
        -11    1    4    4    0    0 -0.14284431583E+01  0.13670483495E+02 -0.13533673025E+02  0.19289449827E+02  0.51100000000E-03 0.  1.
         12    1    4    4    0    0 -0.81392535541E+01  0.11738707726E+02  0.11538021433E+02  0.18362207005E+02  0.00000000000E+00 0. -1.
</event>
<event>
 8    1  0.3011071E-007  0.9118800E+02  0.7816164E-02  0.1184000E+00
        -11   -1    0    0    0    0  0.00000000000E+00  0.00000000000E+00  0.45593999997E+02  0.45594000000E+02  0.51100000000E-03 0.  1.
         11   -1    0    0    0    0 -0.00000000000E+00 -0.00000000000E+00 -0.45593999997E+02  0.45594000000E+02  0.51100000000E-03 0. -1.
         23    2    1    2    0    0  0.00000000000E+00  0.35527136788E-14  0.00000000000E+00  0.91188000000E+02  0.91188000000E+02 0.  0.
    9900012    2    3    3    0    0  0.29149887414E+02 -0.21342363932E+02  0.71110732822E+01  0.54367084780E+02  0.40000001372E+02 0.  0.
         12    1    3    3    0    0 -0.29149887414E+02  0.21342363932E+02 -0.71110732822E+01  0.36820915220E+02  0.00000000000E+00 0. -1.
         11    1    4    4    0    0  0.17548358934E+02 -0.55352728735E+01  0.68371140799E+01  0.19629831285E+02  0.51100000000E-03 0.  1.
        -11    1    4    4    0    0 -0.85543768251E+01 -0.76795964510E+01 -0.47380942106E+01  0.12433949555E+02  0.51100000000E-03 0. -1.
         12    1    4    4    0    0  0.20155905304E+02 -0.81274946076E+01  0.50120534129E+01  0.22303303940E+02  0.00000000000E+00 0. -1.
</event>
<event>
 8    1  0.3011071E-007  0.9118800E+02  0.7816164E-02  0.1184000E+00
        -11   -1    0    0    0    0  0.00000000000E+00  0.00000000000E+00  0.45593999997E+02  0.45594000000E+02  0.51100000000E-03 0. -1.
         11   -1    0    0    0    0 -0.00000000000E+00 -0.00000000000E+00 -0.45593999997E+02  0.45594000000E+02  0.51100000000E-03 0.  1.
         23    2    1    2    0    0 -0.17763568394E-14  0.00000000000E+00  0.35527136788E-14  0.91188000000E+02  0.91188000000E+02 0.  0.
    9900012    2    3    3    0    0 -0.89657043361E+01 -0.29345933921E+02  0.20352235177E+02  0.54367066163E+02  0.39999958932E+02 0.  0.
        -12    1    3    3    0    0  0.89657043361E+01  0.29345933921E+02 -0.20352235177E+02  0.36820933837E+02  0.00000000000E+00 0.  1.
         11    1    4    4    0    0 -0.20774229618E+02 -0.22338555803E+02  0.62609047378E+01  0.31141268760E+02  0.51100000000E-03 0. -1.
        -11    1    4    4    0    0 -0.24271478869E+01 -0.21449306636E+01  0.38303449510E+01  0.50163051264E+01  0.51100000000E-03 0.  1.
        -12    1    4    4    0    0  0.14235673169E+02 -0.48624474544E+01  0.10260985488E+02  0.18209492277E+02  0.00000000000E+00 0.  1.
</event>
<event>
 8    1  0.3011071E-007  0.9118800E+02  0.7816164E-02  0.1184000E+00
        -11   -1    0    0    0    0  0.00000000000E+00  0.00000000000E+00  0.45593999997E+02  0.45594000000E+02  0.51100000000E-03 0. -1.
         11   -1    0    0    0    0 -0.00000000000E+00 -0.00000000000E+00 -0.45593999997E+02  0.45594000000E+02  0.51100000000E-03 0.  1.
         23    2    1    2    0    0  0.72164496601E-15  0.00000000000E+00 -0.88817841970E-15  0.91188000000E+02  0.91188000000E+02 0.  0.
    9900012    2    3    3    0    0 -0.37026799014E+00  0.36439089128E+02 -0.52759654741E+01  0.54367080313E+02  0.39999991190E+02 0.  0.
        -12    1    3    3    0    0  0.37026799014E+00 -0.36439089128E+02  0.52759654741E+01  0.36820919687E+02  0.00000000000E+00 0.  1.
         11    1    4    4    0    0 -0.49822248958E+01  0.42642767783E+01 -0.59711212070E+00  0.65850713360E+01  0.51100000000E-03 0. -1.
        -11    1    4    4    0    0  0.14644852423E+02  0.33328503713E+02 -0.77628380002E+01  0.37222607597E+02  0.51100000000E-03 0.  1.
         12    1    4    4    0    0 -0.10032895517E+02 -0.11536913625E+01  0.30839846468E+01  0.10559401381E+02  0.00000000000E+00 0. -1.
</event>
<event>
 8    1  0.3011071E-007  0.9118800E+02  0.7816164E-02  0.1184000E+00
        -11   -1    0    0    0    0  0.00000000000E+00  0.00000000000E+00  0.45593999997E+02  0.45594000000E+02  0.51100000000E-03 0.  1.
         11   -1    0    0    0    0 -0.00000000000E+00 -0.00000000000E+00 -0.45593999997E+02  0.45594000000E+02  0.51100000000E-03 0. -1.
         23    2    1    2    0    0  0.00000000000E+00  0.00000000000E+00  0.17763568394E-14  0.91188000000E+02  0.91188000000E+02 0.  0.
    9900012    2    3    3    0    0  0.29619753515E+01 -0.35158707679E+02 -0.10529511366E+02  0.54367100592E+02  0.40000037419E+02 0.  0.
        -12    1    3    3    0    0 -0.29619753515E+01  0.35158707679E+02  0.10529511366E+02  0.36820899408E+02  0.00000000000E+00 0.  1.
         11    1    4    4    0    0  0.11632795262E+02 -0.14746041360E+02  0.30270079376E+00  0.18784549221E+02  0.51100000000E-03 0. -1.
        -11    1    4    4    0    0  0.34316495754E+01 -0.11282046060E+02  0.57457894892E+01  0.13117731482E+02  0.51100000000E-03 0.  1.
        -12    1    4    4    0    0 -0.12102469486E+02 -0.91306202586E+01 -0.16578001649E+02  0.22464819889E+02  0.00000000000E+00 0.  1.
</event>
<event>
 8    1  0.3011071E-007  0.9118800E+02  0.7816164E-02  0.1184000E+00
        -11   -1    0    0    0    0  0.00000000000E+00  0.00000000000E+00  0.45593999997E+02  0.45594000000E+02  0.51100000000E-03 0.  1.
         11   -1    0    0    0    0 -0.00000000000E+00 -0.00000000000E+00 -0.45593999997E+02  0.45594000000E+02  0.51100000000E-03 0. -1.
         23    2    1    2    0    0 -0.44408920985E-15  0.00000000000E+00  0.00000000000E+00  0.91188000000E+02  0.91188000000E+02 0.  0.
    9900012    2    3    3    0    0 -0.12105285225E+01 -0.35779637296E+02  0.86099470782E+01  0.54367095435E+02  0.40000025663E+02 0.  0.
         12    1    3    3    0    0  0.12105285225E+01  0.35779637296E+02 -0.86099470782E+01  0.36820904565E+02  0.00000000000E+00 0. -1.
         11    1    4    4    0    0  0.47916073304E+01 -0.12786770146E+02  0.17628224551E+02  0.22298324885E+02  0.51100000000E-03 0.  1.
        -11    1    4    4    0    0 -0.10806334059E+01 -0.18935851701E+02 -0.14327581233E+02  0.23770019614E+02  0.51100000000E-03 0. -1.
         12    1    4    4    0    0 -0.49215024469E+01 -0.40570154491E+01  0.53093037596E+01  0.82987509362E+01  0.00000000000E+00 0. -1.
</event>
<event>
 8    1  0.3011071E-007  0.9118800E+02  0.7816164E-02  0.1184000E+00
        -11   -1    0    0    0    0  0.00000000000E+00  0.00000000000E+00  0.45593999997E+02  0.45594000000E+02  0.51100000000E-03 0. -1.
         11   -1    0    0    0    0 -0.00000000000E+00 -0.00000000000E+00 -0.45593999997E+02  0.45594000000E+02  0.51100000000E-03 0.  1.
         23    2    1    2    0    0  0.00000000000E+00  0.00000000000E+00  0.71054273576E-14  0.91188000000E+02  0.91188000000E+02 0.  0.
    9900012    2    3    3    0    0  0.11855987384E+01 -0.32983956419E+02 -0.16322760115E+02  0.54367088507E+02  0.40000009869E+02 0.  0.
        -12    1    3    3    0    0 -0.11855987384E+01  0.32983956419E+02  0.16322760115E+02  0.36820911493E+02  0.00000000000E+00 0.  1.
         11    1    4    4    0    0 -0.79976743120E+00  0.52730095026E+01  0.17231786933E+01  0.56047838699E+01  0.51100000000E-03 0. -1.
        -11    1    4    4    0    0 -0.87503499403E+00 -0.18834596203E+02 -0.21749108239E+02  0.28784221543E+02  0.51100000000E-03 0.  1.
        -12    1    4    4    0    0  0.28604011636E+01 -0.19422369718E+02  0.37031694305E+01  0.19978083094E+02  0.00000000000E+00 0.  1.
</event>
<event>
 8    1  0.3011071E-007  0.9118800E+02  0.7816164E-02  0.1184000E+00
        -11   -1    0    0    0    0  0.00000000000E+00  0.00000000000E+00  0.45593999997E+02  0.45594000000E+02  0.51100000000E-03 0. -1.
         11   -1    0    0    0    0 -0.00000000000E+00 -0.00000000000E+00 -0.45593999997E+02  0.45594000000E+02  0.51100000000E-03 0.  1.
         23    2    1    2    0    0  0.00000000000E+00 -0.44408920985E-15 -0.35527136788E-14  0.91188000000E+02  0.91188000000E+02 0.  0.
    9900012    2    3    3    0    0  0.27171452015E+02  0.32295234648E+01  0.24638637138E+02  0.54367081130E+02  0.39999993052E+02 0.  0.
         12    1    3    3    0    0 -0.27171452015E+02 -0.32295234648E+01 -0.24638637138E+02  0.36820918870E+02  0.00000000000E+00 0. -1.
         11    1    4    4    0    0  0.81308805681E+01 -0.24997616422E+01 -0.20975843564E+01  0.87612720238E+01  0.51100000000E-03 0. -1.
        -11    1    4    4    0    0  0.25885822165E+02  0.27201934976E+01  0.27765539986E+02  0.38057856651E+02  0.51100000000E-03 0.  1.
         12    1    4    4    0    0 -0.68452507188E+01  0.30090916094E+01 -0.10293184915E+01  0.75479524557E+01  0.00000000000E+00 0. -1.
</event>
<event>
 8    1  0.3011071E-007  0.9118800E+02  0.7816164E-02  0.1184000E+00
        -11   -1    0    0    0    0  0.00000000000E+00  0.00000000000E+00  0.45593999997E+02  0.45594000000E+02  0.51100000000E-03 0.  1.
         11   -1    0    0    0    0 -0.00000000000E+00 -0.00000000000E+00 -0.45593999997E+02  0.45594000000E+02  0.51100000000E-03 0. -1.
         23    2    1    2    0    0  0.00000000000E+00 -0.35527136788E-14  0.88817841970E-15  0.91188000000E+02  0.91188000000E+02 0.  0.
    9900012    2    3    3    0    0 -0.21827086398E+02  0.29335511451E+02  0.43343476710E+01  0.54367075210E+02  0.39999979555E+02 0.  0.
         12    1    3    3    0    0  0.21827086398E+02 -0.29335511451E+02 -0.43343476710E+01  0.36820924790E+02  0.00000000000E+00 0. -1.
         11    1    4    4    0    0 -0.11003045959E+01  0.54687933850E+01 -0.17355170014E+01  0.58421221157E+01  0.51100000000E-03 0. -1.
        -11    1    4    4    0    0 -0.16066886163E+02  0.27479153708E+02 -0.83819467244E+01  0.32916648532E+02  0.51100000000E-03 0.  1.
        -12    1    4    4    0    0 -0.46598956393E+01 -0.36124356420E+01  0.14451811397E+02  0.15608304562E+02  0.00000000000E+00 0.  1.
</event>
<event>
 8    1  0.3011071E-007  0.9118800E+02  0.7816164E-02  0.1184000E+00
        -11   -1    0    0    0    0  0.00000000000E+00  0.00000000000E+00  0.45593999997E+02  0.45594000000E+02  0.51100000000E-03 0. -1.
         11   -1    0    0    0    0 -0.00000000000E+00 -0.00000000000E+00 -0.45593999997E+02  0.45594000000E+02  0.51100000000E-03 0.  1.
         23    2    1    2    0    0 -0.35527136788E-14  0.35527136788E-14 -0.35527136788E-14  0.91188000000E+02  0.91188000000E+02 0.  0.
    9900012    2    3    3    0    0  0.20207263522E+02 -0.80005985916E+01  0.29722685022E+02  0.54367067342E+02  0.39999961619E+02 0.  0.
        -12    1    3    3    0    0 -0.20207263522E+02  0.80005985916E+01 -0.29722685022E+02  0.36820932658E+02  0.00000000000E+00 0.  1.
         11    1    4    4    0    0  0.64295890037E+00 -0.80477092440E+01 -0.22357066265E+01  0.83771955095E+01  0.51100000000E-03 0. -1.
        -11    1    4    4    0    0  0.11733513207E+02 -0.11909432134E+02  0.91102956111E+01  0.19039626896E+02  0.51100000000E-03 0.  1.
         12    1    4    4    0    0  0.78307914144E+01  0.11956542787E+02  0.22848096038E+02  0.26950244937E+02  0.00000000000E+00 0. -1.
</event>
<event>
 8    1  0.3011071E-007  0.9118800E+02  0.7816164E-02  0.1184000E+00
        -11   -1    0    0    0    0  0.00000000000E+00  0.00000000000E+00  0.45593999997E+02  0.45594000000E+02  0.51100000000E-03 0.  1.
         11   -1    0    0    0    0 -0.00000000000E+00 -0.00000000000E+00 -0.45593999997E+02  0.45594000000E+02  0.51100000000E-03 0. -1.
         23    2    1    2    0    0  0.99920072216E-15  0.00000000000E+00 -0.71054273576E-14  0.91188000000E+02  0.91188000000E+02 0.  0.
    9900012    2    3    3    0    0 -0.16872993706E+00  0.60783787966E+01  0.36315337089E+02  0.54367097424E+02  0.40000030198E+02 0.  0.
         12    1    3    3    0    0  0.16872993706E+00 -0.60783787966E+01 -0.36315337089E+02  0.36820902576E+02  0.00000000000E+00 0. -1.
         11    1    4    4    0    0  0.31226351045E+01  0.16243311121E+01 -0.71702072613E-01  0.35205742438E+01  0.51100000000E-03 0. -1.
        -11    1    4    4    0    0  0.12506763565E+02 -0.20038389834E+01  0.30103163307E+02  0.32659377625E+02  0.51100000000E-03 0.  1.
         12    1    4    4    0    0 -0.15798128606E+02  0.64578866678E+01  0.62838758549E+01  0.18187145555E+02  0.00000000000E+00 0. -1.
</event>
<event>
 8    1  0.3011071E-007  0.9118800E+02  0.7816164E-02  0.1184000E+00
        -11   -1    0    0    0    0  0.00000000000E+00  0.00000000000E+00  0.45593999997E+02  0.45594000000E+02  0.51100000000E-03 0.  1.
         11   -1    0    0    0    0 -0.00000000000E+00 -0.00000000000E+00 -0.45593999997E+02  0.45594000000E+02  0.51100000000E-03 0. -1.
         23    2    1    2    0    0  0.00000000000E+00  0.00000000000E+00 -0.22204460493E-15  0.91188000000E+02  0.91188000000E+02 0.  0.
    9900012    2    3    3    0    0 -0.49587374612E+01  0.36459775325E+02 -0.13694676773E+01  0.54367085621E+02  0.40000003290E+02 0.  0.
        -12    1    3    3    0    0  0.49587374612E+01 -0.36459775325E+02  0.13694676773E+01  0.36820914379E+02  0.00000000000E+00 0.  1.
         11    1    4    4    0    0  0.50142332504E+01  0.10981140147E+02 -0.11215853858E+02  0.16477965653E+02  0.51100000000E-03 0. -1.
        -11    1    4    4    0    0  0.58240133219E+01 -0.83563031325E+00  0.19414233634E+01  0.61956867361E+01  0.51100000000E-03 0.  1.
         12    1    4    4    0    0 -0.15796984034E+02  0.26314265491E+02  0.79049628176E+01  0.31693433232E+02  0.00000000000E+00 0. -1.
</event>
<event>
 8    1  0.3011071E-007  0.9118800E+02  0.7816164E-02  0.1184000E+00
        -11   -1    0    0    0    0  0.00000000000E+00  0.00000000000E+00  0.45593999997E+02  0.45594000000E+02  0.51100000000E-03 0. -1.
         11   -1    0    0    0    0 -0.00000000000E+00 -0.00000000000E+00 -0.45593999997E+02  0.45594000000E+02  0.51100000000E-03 0.  1.
         23    2    1    2    0    0 -0.35527136788E-14  0.00000000000E+00  0.00000000000E+00  0.91188000000E+02  0.91188000000E+02 0.  0.
    9900012    2    3    3    0    0  0.20353210214E+02 -0.30409062783E+02  0.41008183696E+01  0.54367068770E+02  0.39999964874E+02 0.  0.
        -12    1    3    3    0    0 -0.20353210214E+02  0.30409062783E+02 -0.41008183696E+01  0.36820931230E+02  0.00000000000E+00 0.  1.
         11    1    4    4    0    0  0.10287988738E+02 -0.31669370041E+02  0.28391112836E+01  0.33419339674E+02  0.51100000000E-03 0. -1.
        -11    1    4    4    0    0  0.97221801039E+01  0.44078260773E+01 -0.65463482814E+01  0.12522156076E+02  0.51100000000E-03 0.  1.
         12    1    4    4    0    0  0.34304137238E+00 -0.31475188193E+01  0.78080553673E+01  0.84255730203E+01  0.00000000000E+00 0. -1.
</event>
<event>
 8    1  0.3011071E-007  0.9118800E+02  0.7816164E-02  0.1184000E+00
        -11   -1    0    0    0    0  0.00000000000E+00  0.00000000000E+00  0.45593999997E+02  0.45594000000E+02  0.51100000000E-03 0.  1.
         11   -1    0    0    0    0 -0.00000000000E+00 -0.00000000000E+00 -0.45593999997E+02  0.45594000000E+02  0.51100000000E-03 0. -1.
         23    2    1    2    0    0  0.00000000000E+00 -0.88817841970E-15 -0.17763568394E-14  0.91188000000E+02  0.91188000000E+02 0.  0.
    9900012    2    3    3    0    0  0.36020341993E+02  0.45530965670E+01 -0.61305757842E+01  0.54367086308E+02  0.40000004857E+02 0.  0.
        -12    1    3    3    0    0 -0.36020341993E+02 -0.45530965670E+01  0.61305757842E+01  0.36820913692E+02  0.00000000000E+00 0.  1.
         11    1    4    4    0    0  0.95391747471E+01 -0.43802933152E+01  0.24184631184E-01  0.10496828547E+02  0.51100000000E-03 0.  1.
        -11    1    4    4    0    0  0.24383784528E+02  0.16496083216E+02 -0.14152781065E+02  0.32664826978E+02  0.51100000000E-03 0. -1.
        -12    1    4    4    0    0  0.20973827180E+01 -0.75626933339E+01  0.79980206495E+01  0.11205430783E+02  0.00000000000E+00 0.  1.
</event>
<event>
 8    1  0.3011071E-007  0.9118800E+02  0.7816164E-02  0.1184000E+00
        -11   -1    0    0    0    0  0.00000000000E+00  0.00000000000E+00  0.45593999997E+02  0.45594000000E+02  0.51100000000E-03 0. -1.
         11   -1    0    0    0    0 -0.00000000000E+00 -0.00000000000E+00 -0.45593999997E+02  0.45594000000E+02  0.51100000000E-03 0.  1.
         23    2    1    2    0    0 -0.17763568394E-14  0.00000000000E+00 -0.35527136788E-14  0.91188000000E+02  0.91188000000E+02 0.  0.
    9900012    2    3    3    0    0  0.11547424782E+02 -0.20138709268E+02  0.28580913622E+02  0.54367092169E+02  0.40000018217E+02 0.  0.
        -12    1    3    3    0    0 -0.11547424782E+02  0.20138709268E+02 -0.28580913622E+02  0.36820907831E+02  0.00000000000E+00 0.  1.
         11    1    4    4    0    0  0.19137735554E+02 -0.26053816060E+02  0.28838191081E+02  0.43320843927E+02  0.51100000000E-03 0. -1.
        -11    1    4    4    0    0 -0.36189904428E+01  0.30978040525E+01 -0.28281956785E+01  0.55400516991E+01  0.51100000000E-03 0.  1.
        -12    1    4    4    0    0 -0.39713203293E+01  0.28173027392E+01  0.25709182188E+01  0.55061965430E+01  0.00000000000E+00 0.  1.
</event>
<event>
 8    1  0.3011071E-007  0.9118800E+02  0.7816164E-02  0.1184000E+00
        -11   -1    0    0    0    0  0.00000000000E+00  0.00000000000E+00  0.45593999997E+02  0.45594000000E+02  0.51100000000E-03 0.  1.
         11   -1    0    0    0    0 -0.00000000000E+00 -0.00000000000E+00 -0.45593999997E+02  0.45594000000E+02  0.51100000000E-03 0. -1.
         23    2    1    2    0    0  0.17763568394E-14 -0.44408920985E-15 -0.71054273576E-14  0.91188000000E+02  0.91188000000E+02 0.  0.
    9900012    2    3    3    0    0 -0.13199720241E+02 -0.38999992783E+01  0.34151687230E+02  0.54367077287E+02  0.39999984290E+02 0.  0.
         12    1    3    3    0    0  0.13199720241E+02  0.38999992783E+01 -0.34151687230E+02  0.36820922713E+02  0.00000000000E+00 0. -1.
         11    1    4    4    0    0  0.55827528802E+01 -0.67163373477E+01 -0.18228242075E+01  0.89218274721E+01  0.51100000000E-03 0. -1.
        -11    1    4    4    0    0 -0.45160551046E+01  0.88156216278E+01  0.56587523012E+01  0.11407515779E+02  0.51100000000E-03 0.  1.
        -12    1    4    4    0    0 -0.14266418016E+02 -0.59992835583E+01  0.30315759136E+02  0.34037734035E+02  0.00000000000E+00 0.  1.
</event>
<event>
 8    1  0.3011071E-007  0.9118800E+02  0.7816164E-02  0.1184000E+00
        -11   -1    0    0    0    0  0.00000000000E+00  0.00000000000E+00  0.45593999997E+02  0.45594000000E+02  0.51100000000E-03 0.  1.
         11   -1    0    0    0    0 -0.00000000000E+00 -0.00000000000E+00 -0.45593999997E+02  0.45594000000E+02  0.51100000000E-03 0. -1.
         23    2    1    2    0    0  0.00000000000E+00  0.35527136788E-14  0.00000000000E+00  0.91188000000E+02  0.91188000000E+02 0.  0.
    9900012    2    3    3    0    0 -0.72150638404E+01  0.30802335870E+02  0.18839834265E+02  0.54367076649E+02  0.39999982836E+02 0.  0.
         12    1    3    3    0    0  0.72150638404E+01 -0.30802335870E+02 -0.18839834265E+02  0.36820923351E+02  0.00000000000E+00 0. -1.
         11    1    4    4    0    0 -0.66660086617E+01 -0.14529759110E+01 -0.33753763603E+00  0.68308668844E+01  0.51100000000E-03 0. -1.
        -11    1    4    4    0    0 -0.63301969710E+01  0.32630117757E+02  0.68806988988E+01  0.33943187772E+02  0.51100000000E-03 0.  1.
         12    1    4    4    0    0  0.57811417922E+01 -0.37480597602E+00  0.12296673003E+02  0.13593021992E+02  0.00000000000E+00 0. -1.
</event>
<event>
 8    1  0.3011071E-007  0.9118800E+02  0.7816164E-02  0.1184000E+00
        -11   -1    0    0    0    0  0.00000000000E+00  0.00000000000E+00  0.45593999997E+02  0.45594000000E+02  0.51100000000E-03 0.  1.
         11   -1    0    0    0    0 -0.00000000000E+00 -0.00000000000E+00 -0.45593999997E+02  0.45594000000E+02  0.51100000000E-03 0. -1.
         23    2    1    2    0    0 -0.35527136788E-14  0.17763568394E-14  0.17763568394E-14  0.91188000000E+02  0.91188000000E+02 0.  0.
    9900012    2    3    3    0    0 -0.31779065693E+02 -0.15717050484E+02  0.99420981616E+01  0.54367081922E+02  0.39999994857E+02 0.  0.
        -12    1    3    3    0    0  0.31779065693E+02  0.15717050484E+02 -0.99420981616E+01  0.36820918078E+02  0.00000000000E+00 0.  1.
         11    1    4    4    0    0 -0.33152574884E+02 -0.69733379486E+01 -0.59133783919E+01  0.34390241463E+02  0.51100000000E-03 0. -1.
        -11    1    4    4    0    0 -0.51637193169E+00 -0.36373784855E+01  0.52875568261E+00  0.37117037936E+01  0.51100000000E-03 0.  1.
        -12    1    4    4    0    0  0.18898811226E+01 -0.51063340501E+01  0.15326720871E+02  0.16265136665E+02  0.00000000000E+00 0.  1.
</event>
<event>
 8    1  0.3011071E-007  0.9118800E+02  0.7816164E-02  0.1184000E+00
        -11   -1    0    0    0    0  0.00000000000E+00  0.00000000000E+00  0.45593999997E+02  0.45594000000E+02  0.51100000000E-03 0. -1.
         11   -1    0    0    0    0 -0.00000000000E+00 -0.00000000000E+00 -0.45593999997E+02  0.45594000000E+02  0.51100000000E-03 0.  1.
         23    2    1    2    0    0  0.00000000000E+00  0.17763568394E-14  0.00000000000E+00  0.91188000000E+02  0.91188000000E+02 0.  0.
    9900012    2    3    3    0    0 -0.26197527344E+02  0.62975980394E+01  0.25096016847E+02  0.54367078751E+02  0.39999987630E+02 0.  0.
        -12    1    3    3    0    0  0.26197527344E+02 -0.62975980394E+01 -0.25096016847E+02  0.36820921249E+02  0.00000000000E+00 0.  1.
         11    1    4    4    0    0 -0.31064926531E+00  0.37127037260E+01  0.11345095068E+02  0.11941183120E+02  0.51100000000E-03 0. -1.
        -11    1    4    4    0    0 -0.72765346385E+00  0.11742543135E+02  0.99003169693E+01  0.15376380432E+02  0.51100000000E-03 0.  1.
         12    1    4    4    0    0 -0.25159224615E+02 -0.91576488213E+01  0.38506048095E+01  0.27049515200E+02  0.00000000000E+00 0. -1.
</event>
<event>
 8    1  0.3011071E-007  0.9118800E+02  0.7816164E-02  0.1184000E+00
        -11   -1    0    0    0    0  0.00000000000E+00  0.00000000000E+00  0.45593999997E+02  0.45594000000E+02  0.51100000000E-03 0.  1.
         11   -1    0    0    0    0 -0.00000000000E+00 -0.00000000000E+00 -0.45593999997E+02  0.45594000000E+02  0.51100000000E-03 0. -1.
         23    2    1    2    0    0  0.17763568394E-14  0.35527136788E-14  0.00000000000E+00  0.91188000000E+02  0.91188000000E+02 0.  0.
    9900012    2    3    3    0    0 -0.15830788701E+02 -0.28117636364E+02  0.17735951380E+02  0.54367091308E+02  0.40000016254E+02 0.  0.
         12    1    3    3    0    0  0.15830788701E+02  0.28117636364E+02 -0.17735951380E+02  0.36820908692E+02  0.00000000000E+00 0. -1.
         11    1    4    4    0    0 -0.47369482636E+01 -0.20444443396E+02 -0.45836023971E+01  0.21480767115E+02  0.51100000000E-03 0. -1.
        -11    1    4    4    0    0 -0.62560376332E+01 -0.10093106803E+02  0.22313114626E+01  0.12082531312E+02  0.51100000000E-03 0.  1.
        -12    1    4    4    0    0 -0.48378028043E+01  0.24199138356E+01  0.20088242315E+02  0.20803792881E+02  0.00000000000E+00 0.  1.
</event>
<event>
 8    1  0.3011071E-007  0.9118800E+02  0.7816164E-02  0.1184000E+00
        -11   -1    0    0    0    0  0.00000000000E+00  0.00000000000E+00  0.45593999997E+02  0.45594000000E+02  0.51100000000E-03 0.  1.
         11   -1    0    0    0    0 -0.00000000000E+00 -0.00000000000E+00 -0.45593999997E+02  0.45594000000E+02  0.51100000000E-03 0. -1.
         23    2    1    2    0    0  0.00000000000E+00 -0.88817841970E-15  0.17763568394E-14  0.91188000000E+02  0.91188000000E+02 0.  0.
    9900012    2    3    3    0    0  0.35688600966E+02  0.40495914192E+01  0.81058051152E+01  0.54367088739E+02  0.40000010397E+02 0.  0.
         12    1    3    3    0    0 -0.35688600966E+02 -0.40495914192E+01 -0.81058051152E+01  0.36820911261E+02  0.00000000000E+00 0. -1.
         11    1    4    4    0    0 -0.18734628892E+01  0.22391132221E+01  0.54206318675E+00  0.29693979151E+01  0.51100000000E-03 0. -1.
        -11    1    4    4    0    0  0.23754621138E+02 -0.49712484087E+01  0.20132614945E+02  0.31532800715E+02  0.51100000000E-03 0.  1.
        -12    1    4    4    0    0  0.13807442717E+02  0.67817266058E+01 -0.12568873016E+02  0.19864890109E+02  0.00000000000E+00 0.  1.
</event>
<event>
 8    1  0.3011071E-007  0.9118800E+02  0.7816164E-02  0.1184000E+00
        -11   -1    0    0    0    0  0.00000000000E+00  0.00000000000E+00  0.45593999997E+02  0.45594000000E+02  0.51100000000E-03 0. -1.
         11   -1    0    0    0    0 -0.00000000000E+00 -0.00000000000E+00 -0.45593999997E+02  0.45594000000E+02  0.51100000000E-03 0.  1.
         23    2    1    2    0    0  0.17763568394E-14 -0.35527136788E-14  0.00000000000E+00  0.91188000000E+02  0.91188000000E+02 0.  0.
    9900012    2    3    3    0    0 -0.15123965186E+02  0.27640558594E+02 -0.19053637452E+02  0.54367137673E+02  0.40000121954E+02 0.  0.
         12    1    3    3    0    0  0.15123965186E+02 -0.27640558594E+02  0.19053637452E+02  0.36820862327E+02  0.00000000000E+00 0. -1.
         11    1    4    4    0    0  0.67840651238E+01  0.12977623031E+02 -0.60986696938E+01  0.15863039161E+02  0.51100000000E-03 0.  1.
        -11    1    4    4    0    0 -0.26850058739E+02  0.86727258394E+01 -0.12066177083E+02  0.30687692280E+02  0.51100000000E-03 0. -1.
         12    1    4    4    0    0  0.49420284297E+01  0.59902097234E+01 -0.88879067511E+00  0.78164062327E+01  0.00000000000E+00 0. -1.
</event>
<event>
 8    1  0.3011071E-007  0.9118800E+02  0.7816164E-02  0.1184000E+00
        -11   -1    0    0    0    0  0.00000000000E+00  0.00000000000E+00  0.45593999997E+02  0.45594000000E+02  0.51100000000E-03 0. -1.
         11   -1    0    0    0    0 -0.00000000000E+00 -0.00000000000E+00 -0.45593999997E+02  0.45594000000E+02  0.51100000000E-03 0.  1.
         23    2    1    2    0    0  0.00000000000E+00  0.00000000000E+00  0.17763568394E-14  0.91188000000E+02  0.91188000000E+02 0.  0.
    9900012    2    3    3    0    0  0.35102332870E+02 -0.71245023009E+01 -0.85350889178E+01  0.54367081370E+02  0.39999993598E+02 0.  0.
         12    1    3    3    0    0 -0.35102332870E+02  0.71245023009E+01  0.85350889178E+01  0.36820918630E+02  0.00000000000E+00 0. -1.
         11    1    4    4    0    0 -0.32833731795E+01  0.38970952796E+01  0.13138123188E+01  0.52625083491E+01  0.51100000000E-03 0. -1.
        -11    1    4    4    0    0  0.12389748975E+02 -0.15573617489E+02 -0.10903420043E+02  0.22692025257E+02  0.51100000000E-03 0.  1.
         12    1    4    4    0    0  0.25995957075E+02  0.45520199080E+01  0.10545188065E+01  0.26412547764E+02  0.00000000000E+00 0. -1.
</event>
<event>
 8    1  0.3011071E-007  0.9118800E+02  0.7816164E-02  0.1184000E+00
        -11   -1    0    0    0    0  0.00000000000E+00  0.00000000000E+00  0.45593999997E+02  0.45594000000E+02  0.51100000000E-03 0. -1.
         11   -1    0    0    0    0 -0.00000000000E+00 -0.00000000000E+00 -0.45593999997E+02  0.45594000000E+02  0.51100000000E-03 0.  1.
         23    2    1    2    0    0  0.00000000000E+00  0.00000000000E+00  0.00000000000E+00  0.91188000000E+02  0.91188000000E+02 0.  0.
    9900012    2    3    3    0    0  0.34909025913E+02 -0.10302922716E+02 -0.55668414935E+01  0.54367081612E+02  0.39999994151E+02 0.  0.
        -12    1    3    3    0    0 -0.34909025913E+02  0.10302922716E+02  0.55668414935E+01  0.36820918388E+02  0.00000000000E+00 0.  1.
         11    1    4    4    0    0 -0.57747756542E+01  0.53920206190E+01 -0.16184331828E+01  0.80648153383E+01  0.51100000000E-03 0. -1.
        -11    1    4    4    0    0  0.33576431007E+02 -0.98927615774E+01 -0.85579529001E+01  0.36034455857E+02  0.51100000000E-03 0.  1.
         12    1    4    4    0    0  0.71073705607E+01 -0.58021817581E+01  0.46095445894E+01  0.10267810417E+02  0.00000000000E+00 0. -1.
</event>
<event>
 8    1  0.3011071E-007  0.9118800E+02  0.7816164E-02  0.1184000E+00
        -11   -1    0    0    0    0  0.00000000000E+00  0.00000000000E+00  0.45593999997E+02  0.45594000000E+02  0.51100000000E-03 0. -1.
         11   -1    0    0    0    0 -0.00000000000E+00 -0.00000000000E+00 -0.45593999997E+02  0.45594000000E+02  0.51100000000E-03 0.  1.
         23    2    1    2    0    0 -0.35527136788E-14  0.17763568394E-14 -0.35527136788E-14  0.91188000000E+02  0.91188000000E+02 0.  0.
    9900012    2    3    3    0    0  0.20062861452E+02  0.11197454683E+02  0.28773071362E+02  0.54366932163E+02  0.39999653451E+02 0.  0.
        -12    1    3    3    0    0 -0.20062861452E+02 -0.11197454683E+02 -0.28773071362E+02  0.36821067837E+02  0.00000000000E+00 0.  1.
         11    1    4    4    0    0  0.14790403644E+02  0.67717666743E+01  0.10782867549E+02  0.19516226497E+02  0.51100000000E-03 0. -1.
        -11    1    4    4    0    0 -0.81451343024E+01  0.68934644007E+01 -0.17922787090E+01  0.10820135280E+02  0.51100000000E-03 0.  1.
        -12    1    4    4    0    0  0.13417592111E+02 -0.24677763919E+01  0.19782482521E+02  0.24030570386E+02  0.00000000000E+00 0.  1.
</event>
<event>
 8    1  0.3011071E-007  0.9118800E+02  0.7816164E-02  0.1184000E+00
        -11   -1    0    0    0    0  0.00000000000E+00  0.00000000000E+00  0.45593999997E+02  0.45594000000E+02  0.51100000000E-03 0. -1.
         11   -1    0    0    0    0 -0.00000000000E+00 -0.00000000000E+00 -0.45593999997E+02  0.45594000000E+02  0.51100000000E-03 0.  1.
         23    2    1    2    0    0  0.35527136788E-14  0.35527136788E-14  0.00000000000E+00  0.91188000000E+02  0.91188000000E+02 0.  0.
    9900012    2    3    3    0    0 -0.24606649589E+02 -0.27358502940E+02  0.13435399611E+01  0.54367082213E+02  0.39999995520E+02 0.  0.
         12    1    3    3    0    0  0.24606649589E+02  0.27358502940E+02 -0.13435399611E+01  0.36820917787E+02  0.00000000000E+00 0. -1.
         11    1    4    4    0    0 -0.10755579347E+02 -0.15265891744E+02 -0.85352278685E+01  0.20532414687E+02  0.51100000000E-03 0. -1.
        -11    1    4    4    0    0 -0.21048257615E+00 -0.17574192467E+02  0.65913549949E+01  0.18770788601E+02  0.51100000000E-03 0.  1.
         12    1    4    4    0    0 -0.13640587665E+02  0.54815812720E+01  0.32874128347E+01  0.15063878924E+02  0.00000000000E+00 0. -1.
</event>
<event>
 8    1  0.3011071E-007  0.9118800E+02  0.7816164E-02  0.1184000E+00
        -11   -1    0    0    0    0  0.00000000000E+00  0.00000000000E+00  0.45593999997E+02  0.45594000000E+02  0.51100000000E-03 0. -1.
         11   -1    0    0    0    0 -0.00000000000E+00 -0.00000000000E+00 -0.45593999997E+02  0.45594000000E+02  0.51100000000E-03 0.  1.
         23    2    1    2    0    0  0.00000000000E+00  0.00000000000E+00  0.44408920985E-15  0.91188000000E+02  0.91188000000E+02 0.  0.
    9900012    2    3    3    0    0 -0.10017451850E+02  0.35232025692E+02 -0.37592273518E+01  0.54367125944E+02  0.40000095215E+02 0.  0.
        -12    1    3    3    0    0  0.10017451850E+02 -0.35232025692E+02  0.37592273518E+01  0.36820874056E+02  0.00000000000E+00 0.  1.
         11    1    4    4    0    0  0.53198387162E+01  0.21740356144E+02 -0.59522600532E+01  0.23159731631E+02  0.51100000000E-03 0.  1.
        -11    1    4    4    0    0 -0.18957919975E+02  0.17147909590E+02 -0.12678537997E+00  0.25563051615E+02  0.51100000000E-03 0. -1.
         12    1    4    4    0    0  0.36206294089E+01 -0.36562400414E+01  0.23198180814E+01  0.56443426976E+01  0.00000000000E+00 0. -1.
</event>
<event>
 8    1  0.3011071E-007  0.9118800E+02  0.7816164E-02  0.1184000E+00
        -11   -1    0    0    0    0  0.00000000000E+00  0.00000000000E+00  0.45593999997E+02  0.45594000000E+02  0.51100000000E-03 0. -1.
         11   -1    0    0    0    0 -0.00000000000E+00 -0.00000000000E+00 -0.45593999997E+02  0.45594000000E+02  0.51100000000E-03 0.  1.
         23    2    1    2    0    0  0.00000000000E+00  0.00000000000E+00 -0.35527136788E-14  0.91188000000E+02  0.91188000000E+02 0.  0.
    9900012    2    3    3    0    0 -0.17799268227E+02 -0.82763326382E+01 -0.31152352405E+02  0.54367072639E+02  0.39999973695E+02 0.  0.
         12    1    3    3    0    0  0.17799268227E+02  0.82763326382E+01  0.31152352405E+02  0.36820927361E+02  0.00000000000E+00 0. -1.
         11    1    4    4    0    0  0.47272624273E+01 -0.46580084351E+01 -0.17711609135E+02  0.18914152136E+02  0.51100000000E-03 0. -1.
        -11    1    4    4    0    0 -0.56819524471E+00  0.13334967131E+01 -0.12854052779E+02  0.12935522117E+02  0.51100000000E-03 0.  1.
         12    1    4    4    0    0 -0.21958335409E+02 -0.49518209162E+01 -0.58669049107E+00  0.22517398386E+02  0.00000000000E+00 0. -1.
</event>
<event>
 8    1  0.3011071E-007  0.9118800E+02  0.7816164E-02  0.1184000E+00
        -11   -1    0    0    0    0  0.00000000000E+00  0.00000000000E+00  0.45593999997E+02  0.45594000000E+02  0.51100000000E-03 0.  1.
         11   -1    0    0    0    0 -0.00000000000E+00 -0.00000000000E+00 -0.45593999997E+02  0.45594000000E+02  0.51100000000E-03 0. -1.
         23    2    1    2    0    0  0.22204460493E-14  0.17763568394E-14  0.00000000000E+00  0.91188000000E+02  0.91188000000E+02 0.  0.
    9900012    2    3    3    0    0  0.34666722041E+01 -0.11481488363E+02  0.34812878703E+02  0.54367096768E+02  0.40000028703E+02 0.  0.
         12    1    3    3    0    0 -0.34666722041E+01  0.11481488363E+02 -0.34812878703E+02  0.36820903232E+02  0.00000000000E+00 0. -1.
         11    1    4    4    0    0  0.19285359679E+02 -0.14014658952E+01  0.13927341593E+02  0.23829814282E+02  0.51100000000E-03 0. -1.
        -11    1    4    4    0    0 -0.83957067734E+01  0.48090231267E+00  0.12767397849E+02  0.15288087106E+02  0.51100000000E-03 0.  1.
         12    1    4    4    0    0 -0.74229807011E+01 -0.10560924780E+02  0.81181392613E+01  0.15249195381E+02  0.00000000000E+00 0. -1.
</event>
<event>
 8    1  0.3011071E-007  0.9118800E+02  0.7816164E-02  0.1184000E+00
        -11   -1    0    0    0    0  0.00000000000E+00  0.00000000000E+00  0.45593999997E+02  0.45594000000E+02  0.51100000000E-03 0.  1.
         11   -1    0    0    0    0 -0.00000000000E+00 -0.00000000000E+00 -0.45593999997E+02  0.45594000000E+02  0.51100000000E-03 0. -1.
         23    2    1    2    0    0 -0.35527136788E-14  0.88817841970E-15  0.00000000000E+00  0.91188000000E+02  0.91188000000E+02 0.  0.
    9900012    2    3    3    0    0 -0.29822801474E+02 -0.58325997604E+01  0.20793312056E+02  0.54367074781E+02  0.39999978579E+02 0.  0.
         12    1    3    3    0    0  0.29822801474E+02  0.58325997604E+01 -0.20793312056E+02  0.36820925219E+02  0.00000000000E+00 0. -1.
         11    1    4    4    0    0  0.42816458525E+01  0.78139067285E+01  0.46492232652E+01  0.10050119740E+02  0.51100000000E-03 0. -1.
        -11    1    4    4    0    0 -0.17875487182E+02  0.23694851784E+01  0.10350259360E+02  0.20791233034E+02  0.51100000000E-03 0.  1.
        -12    1    4    4    0    0 -0.16228960145E+02 -0.16015991667E+02  0.57938294307E+01  0.23525722007E+02  0.00000000000E+00 0.  1.
</event>
<event>
 8    1  0.3011071E-007  0.9118800E+02  0.7816164E-02  0.1184000E+00
        -11   -1    0    0    0    0  0.00000000000E+00  0.00000000000E+00  0.45593999997E+02  0.45594000000E+02  0.51100000000E-03 0.  1.
         11   -1    0    0    0    0 -0.00000000000E+00 -0.00000000000E+00 -0.45593999997E+02  0.45594000000E+02  0.51100000000E-03 0. -1.
         23    2    1    2    0    0  0.00000000000E+00 -0.17763568394E-14  0.88817841970E-15  0.91188000000E+02  0.91188000000E+02 0.  0.
    9900012    2    3    3    0    0  0.34357301308E+02  0.11645862334E+02 -0.63031005316E+01  0.54367091008E+02  0.40000015571E+02 0.  0.
        -12    1    3    3    0    0 -0.34357301308E+02 -0.11645862334E+02  0.63031005316E+01  0.36820908992E+02  0.00000000000E+00 0.  1.
         11    1    4    4    0    0  0.11176730769E+02  0.11840681392E+02 -0.48067492617E+00  0.16289631523E+02  0.51100000000E-03 0. -1.
        -11    1    4    4    0    0  0.31286066571E+01  0.12987288182E+02 -0.42940104535E+01  0.14031976339E+02  0.51100000000E-03 0.  1.
        -12    1    4    4    0    0  0.20051963882E+02 -0.13182107240E+02 -0.15284151519E+01  0.24045483146E+02  0.00000000000E+00 0.  1.
</event>
<event>
 8    1  0.3011071E-007  0.9118800E+02  0.7816164E-02  0.1184000E+00
        -11   -1    0    0    0    0  0.00000000000E+00  0.00000000000E+00  0.45593999997E+02  0.45594000000E+02  0.51100000000E-03 0.  1.
         11   -1    0    0    0    0 -0.00000000000E+00 -0.00000000000E+00 -0.45593999997E+02  0.45594000000E+02  0.51100000000E-03 0. -1.
         23    2    1    2    0    0 -0.71054273576E-14  0.00000000000E+00 -0.35527136788E-14  0.91188000000E+02  0.91188000000E+02 0.  0.
    9900012    2    3    3    0    0  0.30620871275E+02  0.73641190765E+01  0.19076479519E+02  0.54367080970E+02  0.39999992686E+02 0.  0.
         12    1    3    3    0    0 -0.30620871275E+02 -0.73641190765E+01 -0.19076479519E+02  0.36820919030E+02  0.00000000000E+00 0. -1.
         11    1    4    4    0    0  0.25123913207E+02  0.19055359449E+01  0.81274788515E+01  0.26474478178E+02  0.51100000000E-03 0.  1.
        -11    1    4    4    0    0  0.94247409559E+01 -0.43484173244E+01 -0.26112242967E+01  0.10702942021E+02  0.51100000000E-03 0. -1.
        -12    1    4    4    0    0 -0.39277828873E+01  0.98070004559E+01  0.13560224964E+02  0.17189660771E+02  0.00000000000E+00 0.  1.
</event>
<event>
 8    1  0.3011071E-007  0.9118800E+02  0.7816164E-02  0.1184000E+00
        -11   -1    0    0    0    0  0.00000000000E+00  0.00000000000E+00  0.45593999997E+02  0.45594000000E+02  0.51100000000E-03 0. -1.
         11   -1    0    0    0    0 -0.00000000000E+00 -0.00000000000E+00 -0.45593999997E+02  0.45594000000E+02  0.51100000000E-03 0.  1.
         23    2    1    2    0    0  0.00000000000E+00  0.00000000000E+00  0.00000000000E+00  0.91188000000E+02  0.91188000000E+02 0.  0.
    9900012    2    3    3    0    0 -0.46116861739E+01 -0.34064611303E+02  0.13195206636E+02  0.54367097367E+02  0.40000030067E+02 0.  0.
         12    1    3    3    0    0  0.46116861739E+01  0.34064611303E+02 -0.13195206636E+02  0.36820902633E+02  0.00000000000E+00 0. -1.
         11    1    4    4    0    0 -0.10829667051E+02 -0.84601751254E+01 -0.48977033792E+01  0.14589165509E+02  0.51100000000E-03 0. -1.
        -11    1    4    4    0    0  0.38748113563E+01 -0.25381323757E+02  0.46036428987E+01  0.26084847841E+02  0.51100000000E-03 0.  1.
         12    1    4    4    0    0  0.23431695207E+01 -0.22311242065E+00  0.13489267117E+02  0.13693084017E+02  0.00000000000E+00 0. -1.
</event>
<event>
 8    1  0.3011071E-007  0.9118800E+02  0.7816164E-02  0.1184000E+00
        -11   -1    0    0    0    0  0.00000000000E+00  0.00000000000E+00  0.45593999997E+02  0.45594000000E+02  0.51100000000E-03 0.  1.
         11   -1    0    0    0    0 -0.00000000000E+00 -0.00000000000E+00 -0.45593999997E+02  0.45594000000E+02  0.51100000000E-03 0. -1.
         23    2    1    2    0    0  0.00000000000E+00  0.44408920985E-15  0.00000000000E+00  0.91188000000E+02  0.91188000000E+02 0.  0.
    9900012    2    3    3    0    0 -0.28122260468E+02  0.36074988303E+01  0.23492585570E+02  0.54367120619E+02  0.40000083075E+02 0.  0.
         12    1    3    3    0    0  0.28122260468E+02 -0.36074988303E+01 -0.23492585570E+02  0.36820879381E+02  0.00000000000E+00 0. -1.
         11    1    4    4    0    0 -0.15435837975E+02  0.10666515647E+01  0.12211780500E+02  0.19711175074E+02  0.51100000000E-03 0. -1.
        -11    1    4    4    0    0 -0.16593079338E+02  0.48691444349E+01 -0.47982600270E+01  0.17946090075E+02  0.51100000000E-03 0.  1.
         12    1    4    4    0    0  0.39066568449E+01 -0.23282971693E+01  0.16079065098E+02  0.16709855470E+02  0.00000000000E+00 0. -1.
</event>
<event>
 8    1  0.3011071E-007  0.9118800E+02  0.7816164E-02  0.1184000E+00
        -11   -1    0    0    0    0  0.00000000000E+00  0.00000000000E+00  0.45593999997E+02  0.45594000000E+02  0.51100000000E-03 0. -1.
         11   -1    0    0    0    0 -0.00000000000E+00 -0.00000000000E+00 -0.45593999997E+02  0.45594000000E+02  0.51100000000E-03 0.  1.
         23    2    1    2    0    0 -0.17763568394E-14  0.66613381478E-15  0.00000000000E+00  0.91188000000E+02  0.91188000000E+02 0.  0.
    9900012    2    3    3    0    0 -0.11694646946E+02  0.10818875962E+01  0.34897869361E+02  0.54366857515E+02  0.39999483273E+02 0.  0.
        -12    1    3    3    0    0  0.11694646946E+02 -0.10818875962E+01 -0.34897869361E+02  0.36821142485E+02  0.00000000000E+00 0.  1.
         11    1    4    4    0    0 -0.40176411993E+01  0.57887092264E+01  0.90123031969E+01  0.11439939007E+02  0.51100000000E-03 0. -1.
        -11    1    4    4    0    0 -0.16276092829E+02 -0.67670827182E+01  0.23471291388E+01  0.17782396401E+02  0.51100000000E-03 0.  1.
         12    1    4    4    0    0  0.85990870823E+01  0.20602610879E+01  0.23538437025E+02  0.25144522107E+02  0.00000000000E+00 0. -1.
</event>
<event>
 8    1  0.3011071E-007  0.9118800E+02  0.7816164E-02  0.1184000E+00
        -11   -1    0    0    0    0  0.00000000000E+00  0.00000000000E+00  0.45593999997E+02  0.45594000000E+02  0.51100000000E-03 0. -1.
         11   -1    0    0    0    0 -0.00000000000E+00 -0.00000000000E+00 -0.45593999997E+02  0.45594000000E+02  0.51100000000E-03 0.  1.
         23    2    1    2    0    0  0.53290705182E-14  0.00000000000E+00 -0.35527136788E-14  0.91188000000E+02  0.91188000000E+02 0.  0.
    9900012    2    3    3    0    0  0.15445132629E+02 -0.16140091589E+02 -0.29269841327E+02  0.54367105255E+02  0.40000048051E+02 0.  0.
         12    1    3    3    0    0 -0.15445132629E+02  0.16140091589E+02  0.29269841327E+02  0.36820894745E+02  0.00000000000E+00 0. -1.
         11    1    4    4    0    0 -0.11344510917E+01 -0.34701796466E+01  0.79701961904E+01  0.87665930460E+01  0.51100000000E-03 0. -1.
        -11    1    4    4    0    0  0.19506779239E+02 -0.97484645813E+01 -0.28105474810E+02  0.35573370834E+02  0.51100000000E-03 0.  1.
        -12    1    4    4    0    0 -0.29271955181E+01 -0.29214473614E+01 -0.91345627082E+01  0.10027141375E+02  0.00000000000E+00 0.  1.
</event>
<event>
 8    1  0.3011071E-007  0.9118800E+02  0.7816164E-02  0.1184000E+00
        -11   -1    0    0    0    0  0.00000000000E+00  0.00000000000E+00  0.45593999997E+02  0.45594000000E+02  0.51100000000E-03 0.  1.
         11   -1    0    0    0    0 -0.00000000000E+00 -0.00000000000E+00 -0.45593999997E+02  0.45594000000E+02  0.51100000000E-03 0. -1.
         23    2    1    2    0    0 -0.10894063429E-14  0.35527136788E-14 -0.71054273576E-14  0.91188000000E+02  0.91188000000E+02 0.  0.
    9900012    2    3    3    0    0 -0.74161222325E-02 -0.31355909595E+02  0.19302489371E+02  0.54367092658E+02  0.40000019333E+02 0.  0.
         12    1    3    3    0    0  0.74161222325E-02  0.31355909595E+02 -0.19302489371E+02  0.36820907342E+02  0.00000000000E+00 0. -1.
         11    1    4    4    0    0  0.67731807558E+00 -0.33289554273E+01  0.17303085249E+02  0.17633418937E+02  0.51100000000E-03 0. -1.
        -11    1    4    4    0    0  0.43441492588E+01 -0.27456853282E+02  0.79586971256E+01  0.28915243128E+02  0.51100000000E-03 0.  1.
        -12    1    4    4    0    0 -0.50288834566E+01 -0.57010088565E+00 -0.59592930037E+01  0.78184305934E+01  0.00000000000E+00 0.  1.
</event>
<event>
 8    1  0.3011071E-007  0.9118800E+02  0.7816164E-02  0.1184000E+00
        -11   -1    0    0    0    0  0.00000000000E+00  0.00000000000E+00  0.45593999997E+02  0.45594000000E+02  0.51100000000E-03 0.  1.
         11   -1    0    0    0    0 -0.00000000000E+00 -0.00000000000E+00 -0.45593999997E+02  0.45594000000E+02  0.51100000000E-03 0. -1.
         23    2    1    2    0    0 -0.17763568394E-14  0.88817841970E-15  0.00000000000E+00  0.91188000000E+02  0.91188000000E+02 0.  0.
    9900012    2    3    3    0    0 -0.11540172103E+02  0.30792975369E+01  0.34829923048E+02  0.54367065941E+02  0.39999958425E+02 0.  0.
         12    1    3    3    0    0  0.11540172103E+02 -0.30792975369E+01 -0.34829923048E+02  0.36820934059E+02  0.00000000000E+00 0. -1.
         11    1    4    4    0    0 -0.48774097191E+01 -0.46604526068E+00 -0.81067397754E+01  0.94723573518E+01  0.51100000000E-03 0. -1.
        -11    1    4    4    0    0 -0.89495983568E+01  0.40824668305E+01  0.26048602643E+02  0.27844057644E+02  0.51100000000E-03 0.  1.
        -12    1    4    4    0    0  0.22868359729E+01 -0.53712403292E+00  0.16888060180E+02  0.17050650945E+02  0.00000000000E+00 0.  1.
</event>
<event>
 8    1  0.3011071E-007  0.9118800E+02  0.7816164E-02  0.1184000E+00
        -11   -1    0    0    0    0  0.00000000000E+00  0.00000000000E+00  0.45593999997E+02  0.45594000000E+02  0.51100000000E-03 0.  1.
         11   -1    0    0    0    0 -0.00000000000E+00 -0.00000000000E+00 -0.45593999997E+02  0.45594000000E+02  0.51100000000E-03 0. -1.
         23    2    1    2    0    0  0.88817841970E-15  0.17763568394E-14  0.00000000000E+00  0.91188000000E+02  0.91188000000E+02 0.  0.
    9900012    2    3    3    0    0  0.40882111410E+01  0.40116017643E+01 -0.36372740853E+02  0.54367045420E+02  0.39999911644E+02 0.  0.
        -12    1    3    3    0    0 -0.40882111410E+01 -0.40116017643E+01  0.36372740853E+02  0.36820954580E+02  0.00000000000E+00 0.  1.
         11    1    4    4    0    0 -0.48242654527E+01  0.96550908730E+01 -0.77779597192E+01  0.13303795495E+02  0.51100000000E-03 0. -1.
        -11    1    4    4    0    0 -0.44947694494E+01  0.83683779509E+01 -0.57777165852E+01  0.11118215285E+02  0.51100000000E-03 0.  1.
         12    1    4    4    0    0  0.13407246043E+02 -0.14011867060E+02 -0.22817064548E+02  0.29945034639E+02  0.00000000000E+00 0. -1.
</event>
<event>
 8    1  0.3011071E-007  0.9118800E+02  0.7816164E-02  0.1184000E+00
        -11   -1    0    0    0    0  0.00000000000E+00  0.00000000000E+00  0.45593999997E+02  0.45594000000E+02  0.51100000000E-03 0. -1.
         11   -1    0    0    0    0 -0.00000000000E+00 -0.00000000000E+00 -0.45593999997E+02  0.45594000000E+02  0.51100000000E-03 0.  1.
         23    2    1    2    0    0  0.00000000000E+00  0.88817841970E-15  0.00000000000E+00  0.91188000000E+02  0.91188000000E+02 0.  0.
    9900012    2    3    3    0    0  0.12941206131E+02  0.76336503529E+01  0.33615957064E+02  0.54367081989E+02  0.39999995011E+02 0.  0.
        -12    1    3    3    0    0 -0.12941206131E+02 -0.76336503529E+01 -0.33615957064E+02  0.36820918011E+02  0.00000000000E+00 0.  1.
         11    1    4    4    0    0  0.37271337076E+01 -0.30793861445E+01 -0.74368065213E+01  0.88701880588E+01  0.51100000000E-03 0.  1.
        -11    1    4    4    0    0  0.93289857450E+01  0.22069784424E+01  0.12804311082E+02  0.15995346555E+02  0.51100000000E-03 0. -1.
        -12    1    4    4    0    0 -0.11491332170E+00  0.85060580550E+01  0.28248452503E+02  0.29501547375E+02  0.00000000000E+00 0.  1.
</event>
<event>
 8    1  0.3011071E-007  0.9118800E+02  0.7816164E-02  0.1184000E+00
        -11   -1    0    0    0    0  0.00000000000E+00  0.00000000000E+00  0.45593999997E+02  0.45594000000E+02  0.51100000000E-03 0.  1.
         11   -1    0    0    0    0 -0.00000000000E+00 -0.00000000000E+00 -0.45593999997E+02  0.45594000000E+02  0.51100000000E-03 0. -1.
         23    2    1    2    0    0  0.35527136788E-14  0.35527136788E-14  0.00000000000E+00  0.91188000000E+02  0.91188000000E+02 0.  0.
    9900012    2    3    3    0    0 -0.23336442721E+02 -0.24187378539E+02 -0.15038654392E+02  0.54367082502E+02  0.39999996180E+02 0.  0.
        -12    1    3    3    0    0  0.23336442721E+02  0.24187378539E+02  0.15038654392E+02  0.36820917498E+02  0.00000000000E+00 0.  1.
         11    1    4    4    0    0  0.74628777694E+01 -0.98190926967E+01 -0.48607542622E+01  0.13256547750E+02  0.51100000000E-03 0.  1.
        -11    1    4    4    0    0 -0.31306862683E+02 -0.10775182603E+02 -0.13903237020E+02  0.35909945852E+02  0.51100000000E-03 0. -1.
         12    1    4    4    0    0  0.50754219289E+00 -0.35931032398E+01  0.37253368901E+01  0.52005889008E+01  0.00000000000E+00 0. -1.
</event>
<event>
 8    1  0.3011071E-007  0.9118800E+02  0.7816164E-02  0.1184000E+00
        -11   -1    0    0    0    0  0.00000000000E+00  0.00000000000E+00  0.45593999997E+02  0.45594000000E+02  0.51100000000E-03 0.  1.
         11   -1    0    0    0    0 -0.00000000000E+00 -0.00000000000E+00 -0.45593999997E+02  0.45594000000E+02  0.51100000000E-03 0. -1.
         23    2    1    2    0    0  0.00000000000E+00  0.00000000000E+00 -0.35527136788E-14  0.91188000000E+02  0.91188000000E+02 0.  0.
    9900012    2    3    3    0    0  0.84051761691E+01 -0.30774309817E+02 -0.18386773954E+02  0.54367101212E+02  0.40000038833E+02 0.  0.
        -12    1    3    3    0    0 -0.84051761691E+01  0.30774309817E+02  0.18386773954E+02  0.36820898788E+02  0.00000000000E+00 0.  1.
         11    1    4    4    0    0  0.12499317236E+02 -0.20162865834E+02 -0.20924321319E+02  0.31632282765E+02  0.51100000000E-03 0. -1.
        -11    1    4    4    0    0  0.77672656770E+01 -0.25716910332E+01  0.18528737468E+01  0.83891091452E+01  0.51100000000E-03 0.  1.
        -12    1    4    4    0    0 -0.11861406744E+02 -0.80397529491E+01  0.68467361811E+00  0.14345709302E+02  0.00000000000E+00 0.  1.
</event>
<event>
 8    1  0.3011071E-007  0.9118800E+02  0.7816164E-02  0.1184000E+00
        -11   -1    0    0    0    0  0.00000000000E+00  0.00000000000E+00  0.45593999997E+02  0.45594000000E+02  0.51100000000E-03 0. -1.
         11   -1    0    0    0    0 -0.00000000000E+00 -0.00000000000E+00 -0.45593999997E+02  0.45594000000E+02  0.51100000000E-03 0.  1.
         23    2    1    2    0    0  0.00000000000E+00  0.00000000000E+00  0.71054273576E-14  0.91188000000E+02  0.91188000000E+02 0.  0.
    9900012    2    3    3    0    0  0.13170379369E+02 -0.21040439395E+01 -0.34320457238E+02  0.54367086396E+02  0.40000005057E+02 0.  0.
         12    1    3    3    0    0 -0.13170379369E+02  0.21040439395E+01  0.34320457238E+02  0.36820913604E+02  0.00000000000E+00 0. -1.
         11    1    4    4    0    0  0.14665327816E+02 -0.11687499749E+02 -0.81540744841E+01  0.20448922253E+02  0.51100000000E-03 0.  1.
        -11    1    4    4    0    0 -0.10074051969E+02  0.44831785631E+01 -0.98187126333E+01  0.14764570130E+02  0.51100000000E-03 0. -1.
        -12    1    4    4    0    0  0.85791035214E+01  0.51002772468E+01 -0.16347670121E+02  0.19153594013E+02  0.00000000000E+00 0.  1.
</event>
<event>
 8    1  0.3011071E-007  0.9118800E+02  0.7816164E-02  0.1184000E+00
        -11   -1    0    0    0    0  0.00000000000E+00  0.00000000000E+00  0.45593999997E+02  0.45594000000E+02  0.51100000000E-03 0.  1.
         11   -1    0    0    0    0 -0.00000000000E+00 -0.00000000000E+00 -0.45593999997E+02  0.45594000000E+02  0.51100000000E-03 0. -1.
         23    2    1    2    0    0  0.00000000000E+00  0.00000000000E+00  0.88817841970E-15  0.91188000000E+02  0.91188000000E+02 0.  0.
    9900012    2    3    3    0    0  0.33449217398E+02  0.13425836327E+02  0.75283566209E+01  0.54367090465E+02  0.40000014332E+02 0.  0.
         12    1    3    3    0    0 -0.33449217398E+02 -0.13425836327E+02 -0.75283566209E+01  0.36820909535E+02  0.00000000000E+00 0. -1.
         11    1    4    4    0    0  0.63583305280E+01 -0.12285470898E+02 -0.49300737765E+01  0.14685598047E+02  0.51100000000E-03 0. -1.
        -11    1    4    4    0    0  0.66862374866E+01  0.36307725953E+01  0.23661376105E+01  0.79678660141E+01  0.51100000000E-03 0.  1.
         12    1    4    4    0    0  0.20404649383E+02  0.22080534630E+02  0.10092292787E+02  0.31713626404E+02  0.00000000000E+00 0. -1.
</event>
<event>
 8    1  0.3011071E-007  0.9118800E+02  0.7816164E-02  0.1184000E+00
        -11   -1    0    0    0    0  0.00000000000E+00  0.00000000000E+00  0.45593999997E+02  0.45594000000E+02  0.51100000000E-03 0.  1.
         11   -1    0    0    0    0 -0.00000000000E+00 -0.00000000000E+00 -0.45593999997E+02  0.45594000000E+02  0.51100000000E-03 0. -1.
         23    2    1    2    0    0  0.00000000000E+00  0.17763568394E-14  0.00000000000E+00  0.91188000000E+02  0.91188000000E+02 0.  0.
    9900012    2    3    3    0    0  0.18350000285E+02  0.80427198002E+01 -0.30892873259E+02  0.54367116382E+02  0.40000073415E+02 0.  0.
        -12    1    3    3    0    0 -0.18350000285E+02 -0.80427198002E+01  0.30892873259E+02  0.36820883618E+02  0.00000000000E+00 0.  1.
         11    1    4    4    0    0  0.11357402761E+02 -0.70203210207E+01 -0.11811060862E+02  0.17826291360E+02  0.51100000000E-03 0. -1.
        -11    1    4    4    0    0  0.31817100062E+01 -0.61496564870E+01  0.11043187834E+01  0.70114958253E+01  0.51100000000E-03 0.  1.
         12    1    4    4    0    0  0.38108875182E+01  0.21212697308E+02 -0.20186131180E+02  0.29529329196E+02  0.00000000000E+00 0. -1.
</event>
<event>
 8    1  0.3011071E-007  0.9118800E+02  0.7816164E-02  0.1184000E+00
        -11   -1    0    0    0    0  0.00000000000E+00  0.00000000000E+00  0.45593999997E+02  0.45594000000E+02  0.51100000000E-03 0.  1.
         11   -1    0    0    0    0 -0.00000000000E+00 -0.00000000000E+00 -0.45593999997E+02  0.45594000000E+02  0.51100000000E-03 0. -1.
         23    2    1    2    0    0  0.00000000000E+00 -0.35527136788E-14  0.00000000000E+00  0.91188000000E+02  0.91188000000E+02 0.  0.
    9900012    2    3    3    0    0 -0.17807063128E+02  0.31726729046E+02  0.56657023814E+01  0.54367122544E+02  0.40000087463E+02 0.  0.
         12    1    3    3    0    0  0.17807063128E+02 -0.31726729046E+02 -0.56657023814E+01  0.36820877456E+02  0.00000000000E+00 0. -1.
         11    1    4    4    0    0 -0.63953784591E+01  0.31944071717E+01 -0.13103138518E+02  0.14926397492E+02  0.51100000000E-03 0. -1.
        -11    1    4    4    0    0 -0.71202746208E+01  0.22907865069E+02  0.58193058604E+01  0.24684669608E+02  0.51100000000E-03 0.  1.
         12    1    4    4    0    0 -0.42914100477E+01  0.56244568050E+01  0.12949535039E+02  0.14756055444E+02  0.00000000000E+00 0. -1.
</event>
<event>
 8    1  0.3011071E-007  0.9118800E+02  0.7816164E-02  0.1184000E+00
        -11   -1    0    0    0    0  0.00000000000E+00  0.00000000000E+00  0.45593999997E+02  0.45594000000E+02  0.51100000000E-03 0. -1.
         11   -1    0    0    0    0 -0.00000000000E+00 -0.00000000000E+00 -0.45593999997E+02  0.45594000000E+02  0.51100000000E-03 0.  1.
         23    2    1    2    0    0  0.00000000000E+00  0.35527136788E-14 -0.35527136788E-14  0.91188000000E+02  0.91188000000E+02 0.  0.
    9900012    2    3    3    0    0  0.14989890024E+01  0.22771111181E+02 -0.28896505720E+02  0.54367102194E+02  0.40000041071E+02 0.  0.
         12    1    3    3    0    0 -0.14989890024E+01 -0.22771111181E+02  0.28896505720E+02  0.36820897806E+02  0.00000000000E+00 0. -1.
         11    1    4    4    0    0 -0.55243431333E+01  0.86357877971E+01  0.79177728661E+01  0.12953236096E+02  0.51100000000E-03 0. -1.
        -11    1    4    4    0    0  0.20920321380E+01  0.13779247223E+02 -0.25343857899E+02  0.28923267208E+02  0.51100000000E-03 0.  1.
         12    1    4    4    0    0  0.49312999977E+01  0.35607616071E+00 -0.11470420687E+02  0.12490598890E+02  0.00000000000E+00 0. -1.
</event>
<event>
 8    1  0.3011071E-007  0.9118800E+02  0.7816164E-02  0.1184000E+00
        -11   -1    0    0    0    0  0.00000000000E+00  0.00000000000E+00  0.45593999997E+02  0.45594000000E+02  0.51100000000E-03 0.  1.
         11   -1    0    0    0    0 -0.00000000000E+00 -0.00000000000E+00 -0.45593999997E+02  0.45594000000E+02  0.51100000000E-03 0. -1.
         23    2    1    2    0    0  0.00000000000E+00  0.00000000000E+00  0.17763568394E-14  0.91188000000E+02  0.91188000000E+02 0.  0.
    9900012    2    3    3    0    0 -0.21322437330E+02 -0.28135990007E+02 -0.10464234630E+02  0.54367075598E+02  0.39999980442E+02 0.  0.
        -12    1    3    3    0    0  0.21322437330E+02  0.28135990007E+02  0.10464234630E+02  0.36820924402E+02  0.00000000000E+00 0.  1.
         11    1    4    4    0    0  0.17721088710E+01 -0.22894153460E+02 -0.63149549633E+01  0.23815148309E+02  0.51100000000E-03 0. -1.
        -11    1    4    4    0    0 -0.24421586306E+02 -0.69871455081E+01  0.50565107251E+00  0.25406490574E+02  0.51100000000E-03 0.  1.
         12    1    4    4    0    0  0.13270401046E+01  0.17453089609E+01 -0.46549307390E+01  0.51454367155E+01  0.00000000000E+00 0. -1.
</event>
<event>
 8    1  0.3011071E-007  0.9118800E+02  0.7816164E-02  0.1184000E+00
        -11   -1    0    0    0    0  0.00000000000E+00  0.00000000000E+00  0.45593999997E+02  0.45594000000E+02  0.51100000000E-03 0. -1.
         11   -1    0    0    0    0 -0.00000000000E+00 -0.00000000000E+00 -0.45593999997E+02  0.45594000000E+02  0.51100000000E-03 0.  1.
         23    2    1    2    0    0  0.00000000000E+00  0.22204460493E-15  0.35527136788E-14  0.91188000000E+02  0.91188000000E+02 0.  0.
    9900012    2    3    3    0    0 -0.30554054402E+02 -0.10846002064E+01 -0.20519587114E+02  0.54367081308E+02  0.39999993458E+02 0.  0.
         12    1    3    3    0    0  0.30554054402E+02  0.10846002064E+01  0.20519587114E+02  0.36820918692E+02  0.00000000000E+00 0. -1.
         11    1    4    4    0    0  0.34384483417E+01  0.16172800065E+01 -0.11891624484E+02  0.12483959898E+02  0.51100000000E-03 0. -1.
        -11    1    4    4    0    0 -0.11646698199E+02 -0.11680386176E+02 -0.64196241227E+01  0.17699959725E+02  0.51100000000E-03 0.  1.
        -12    1    4    4    0    0 -0.22345804545E+02  0.89785059626E+01 -0.22083385075E+01  0.24183161684E+02  0.00000000000E+00 0.  1.
</event>
<event>
 8    1  0.3011071E-007  0.9118800E+02  0.7816164E-02  0.1184000E+00
        -11   -1    0    0    0    0  0.00000000000E+00  0.00000000000E+00  0.45593999997E+02  0.45594000000E+02  0.51100000000E-03 0.  1.
         11   -1    0    0    0    0 -0.00000000000E+00 -0.00000000000E+00 -0.45593999997E+02  0.45594000000E+02  0.51100000000E-03 0. -1.
         23    2    1    2    0    0  0.71054273576E-14  0.00000000000E+00  0.88817841970E-15  0.91188000000E+02  0.91188000000E+02 0.  0.
    9900012    2    3    3    0    0  0.35651500981E+02 -0.65227553050E+01 -0.64964426648E+01  0.54367087107E+02  0.40000006679E+02 0.  0.
        -12    1    3    3    0    0 -0.35651500981E+02  0.65227553050E+01  0.64964426648E+01  0.36820912893E+02  0.00000000000E+00 0.  1.
         11    1    4    4    0    0  0.24582868129E+02 -0.78146861026E+00 -0.25174635950E+01  0.24723788582E+02  0.51100000000E-03 0. -1.
        -11    1    4    4    0    0 -0.64474444406E+00  0.76603005353E+01  0.55239924122E+01  0.94662765711E+01  0.51100000000E-03 0.  1.
        -12    1    4    4    0    0  0.11713377296E+02 -0.13401587230E+02 -0.95029714820E+01  0.20177021955E+02  0.00000000000E+00 0.  1.
</event>
<event>
 8    1  0.3011071E-007  0.9118800E+02  0.7816164E-02  0.1184000E+00
        -11   -1    0    0    0    0  0.00000000000E+00  0.00000000000E+00  0.45593999997E+02  0.45594000000E+02  0.51100000000E-03 0.  1.
         11   -1    0    0    0    0 -0.00000000000E+00 -0.00000000000E+00 -0.45593999997E+02  0.45594000000E+02  0.51100000000E-03 0. -1.
         23    2    1    2    0    0  0.00000000000E+00  0.88817841970E-15  0.17763568394E-14  0.91188000000E+02  0.91188000000E+02 0.  0.
    9900012    2    3    3    0    0 -0.35004716721E+02  0.13330146264E+01  0.11343437211E+02  0.54367072683E+02  0.39999973796E+02 0.  0.
         12    1    3    3    0    0  0.35004716721E+02 -0.13330146264E+01 -0.11343437211E+02  0.36820927317E+02  0.00000000000E+00 0. -1.
         11    1    4    4    0    0 -0.11585661266E+02  0.19167496414E+01 -0.56596565839E+00  0.11756776495E+02  0.51100000000E-03 0. -1.
        -11    1    4    4    0    0 -0.24066890129E+02  0.12057271738E+02  0.13024476592E+02  0.29903678586E+02  0.51100000000E-03 0.  1.
         12    1    4    4    0    0  0.64783467439E+00 -0.12641006753E+02 -0.11150737227E+01  0.12706617602E+02  0.00000000000E+00 0. -1.
</event>
<event>
 8    1  0.3011071E-007  0.9118800E+02  0.7816164E-02  0.1184000E+00
        -11   -1    0    0    0    0  0.00000000000E+00  0.00000000000E+00  0.45593999997E+02  0.45594000000E+02  0.51100000000E-03 0. -1.
         11   -1    0    0    0    0 -0.00000000000E+00 -0.00000000000E+00 -0.45593999997E+02  0.45594000000E+02  0.51100000000E-03 0.  1.
         23    2    1    2    0    0  0.00000000000E+00  0.00000000000E+00  0.00000000000E+00  0.91188000000E+02  0.91188000000E+02 0.  0.
    9900012    2    3    3    0    0 -0.24867699701E+02 -0.24170010927E+02 -0.12376901607E+02  0.54367087328E+02  0.40000007181E+02 0.  0.
         12    1    3    3    0    0  0.24867699701E+02  0.24170010927E+02  0.12376901607E+02  0.36820912672E+02  0.00000000000E+00 0. -1.
         11    1    4    4    0    0 -0.67364535519E+01 -0.12697416156E+02 -0.87342093673E+01  0.16819351861E+02  0.51100000000E-03 0. -1.
        -11    1    4    4    0    0  0.68751846403E+01 -0.83411084926E+01 -0.57761291066E+01  0.12255852579E+02  0.51100000000E-03 0.  1.
         12    1    4    4    0    0 -0.25006430789E+02 -0.31314862783E+01  0.21334368667E+01  0.25291882887E+02  0.00000000000E+00 0. -1.
</event>
<event>
 8    1  0.3011071E-007  0.9118800E+02  0.7816164E-02  0.1184000E+00
        -11   -1    0    0    0    0  0.00000000000E+00  0.00000000000E+00  0.45593999997E+02  0.45594000000E+02  0.51100000000E-03 0. -1.
         11   -1    0    0    0    0 -0.00000000000E+00 -0.00000000000E+00 -0.45593999997E+02  0.45594000000E+02  0.51100000000E-03 0.  1.
         23    2    1    2    0    0  0.88817841970E-15  0.71054273576E-14  0.00000000000E+00  0.91188000000E+02  0.91188000000E+02 0.  0.
    9900012    2    3    3    0    0  0.13749741303E+01  0.23285185460E+02  0.28490179241E+02  0.54367072134E+02  0.39999972543E+02 0.  0.
        -12    1    3    3    0    0 -0.13749741303E+01 -0.23285185460E+02 -0.28490179241E+02  0.36820927866E+02  0.00000000000E+00 0.  1.
         11    1    4    4    0    0 -0.73977581281E+01  0.37647112806E+01  0.27193164919E+02  0.28431814837E+02  0.51100000000E-03 0. -1.
        -11    1    4    4    0    0 -0.19344733572E+01  0.13461709002E+02  0.73864701863E+00  0.13620036568E+02  0.51100000000E-03 0.  1.
         12    1    4    4    0    0  0.10707205616E+02  0.60587651767E+01  0.55836730363E+00  0.12315220729E+02  0.00000000000E+00 0. -1.
</event>
<event>
 8    1  0.3011071E-007  0.9118800E+02  0.7816164E-02  0.1184000E+00
        -11   -1    0    0    0    0  0.00000000000E+00  0.00000000000E+00  0.45593999997E+02  0.45594000000E+02  0.51100000000E-03 0. -1.
         11   -1    0    0    0    0 -0.00000000000E+00 -0.00000000000E+00 -0.45593999997E+02  0.45594000000E+02  0.51100000000E-03 0.  1.
         23    2    1    2    0    0  0.00000000000E+00  0.00000000000E+00  0.00000000000E+00  0.91188000000E+02  0.91188000000E+02 0.  0.
    9900012    2    3    3    0    0 -0.11225403372E+02 -0.26364644730E+02  0.23123022614E+02  0.54367104473E+02  0.40000046268E+02 0.  0.
        -12    1    3    3    0    0  0.11225403372E+02  0.26364644730E+02 -0.23123022614E+02  0.36820895527E+02  0.00000000000E+00 0.  1.
         11    1    4    4    0    0 -0.66080508118E+01 -0.17883896181E+02  0.14398022382E+02  0.23891486494E+02  0.51100000000E-03 0. -1.
        -11    1    4    4    0    0  0.33096724709E+01  0.57979078311E+01  0.12080967105E+02  0.13802877727E+02  0.51100000000E-03 0.  1.
         12    1    4    4    0    0 -0.79270250311E+01 -0.14278656380E+02 -0.33559668731E+01  0.16672740252E+02  0.00000000000E+00 0. -1.
</event>
<event>
 8    1  0.3011071E-007  0.9118800E+02  0.7816164E-02  0.1184000E+00
        -11   -1    0    0    0    0  0.00000000000E+00  0.00000000000E+00  0.45593999997E+02  0.45594000000E+02  0.51100000000E-03 0.  1.
         11   -1    0    0    0    0 -0.00000000000E+00 -0.00000000000E+00 -0.45593999997E+02  0.45594000000E+02  0.51100000000E-03 0. -1.
         23    2    1    2    0    0  0.88817841970E-15  0.13322676296E-14  0.00000000000E+00  0.91188000000E+02  0.91188000000E+02 0.  0.
    9900012    2    3    3    0    0 -0.45855914425E+01 -0.26831530865E+01 -0.36435604257E+02  0.54367079086E+02  0.39999988392E+02 0.  0.
        -12    1    3    3    0    0  0.45855914425E+01  0.26831530865E+01  0.36435604257E+02  0.36820920914E+02  0.00000000000E+00 0.  1.
         11    1    4    4    0    0  0.85834209412E+01  0.12142538455E+00 -0.12409787162E+01  0.86735164503E+01  0.51100000000E-03 0. -1.
        -11    1    4    4    0    0 -0.26116965070E+01 -0.12026461463E+02 -0.26447042499E+02  0.29170238106E+02  0.51100000000E-03 0.  1.
        -12    1    4    4    0    0 -0.10557315877E+02  0.92218829916E+01 -0.87475830427E+01  0.16523324530E+02  0.00000000000E+00 0.  1.
</event>
<event>
 8    1  0.3011071E-007  0.9118800E+02  0.7816164E-02  0.1184000E+00
        -11   -1    0    0    0    0  0.00000000000E+00  0.00000000000E+00  0.45593999997E+02  0.45594000000E+02  0.51100000000E-03 0.  1.
         11   -1    0    0    0    0 -0.00000000000E+00 -0.00000000000E+00 -0.45593999997E+02  0.45594000000E+02  0.51100000000E-03 0. -1.
         23    2    1    2    0    0  0.00000000000E+00  0.44408920985E-15  0.35527136788E-14  0.91188000000E+02  0.91188000000E+02 0.  0.
    9900012    2    3    3    0    0  0.24705525803E+02 -0.18748021111E+00  0.27301800472E+02  0.54366994269E+02  0.39999795035E+02 0.  0.
         12    1    3    3    0    0 -0.24705525803E+02  0.18748021111E+00 -0.27301800472E+02  0.36821005731E+02  0.00000000000E+00 0. -1.
         11    1    4    4    0    0  0.23650947054E+02 -0.17671057868E+00  0.10197759122E+02  0.25756413076E+02  0.51100000000E-03 0. -1.
        -11    1    4    4    0    0  0.89222697563E+01 -0.24443134462E+01 -0.40663320214E+00  0.92599631020E+01  0.51100000000E-03 0.  1.
         12    1    4    4    0    0 -0.78676910071E+01  0.24335438138E+01  0.17510674551E+02  0.19350618091E+02  0.00000000000E+00 0. -1.
</event>
<event>
 8    1  0.3011071E-007  0.9118800E+02  0.7816164E-02  0.1184000E+00
        -11   -1    0    0    0    0  0.00000000000E+00  0.00000000000E+00  0.45593999997E+02  0.45594000000E+02  0.51100000000E-03 0.  1.
         11   -1    0    0    0    0 -0.00000000000E+00 -0.00000000000E+00 -0.45593999997E+02  0.45594000000E+02  0.51100000000E-03 0. -1.
         23    2    1    2    0    0  0.00000000000E+00  0.17763568394E-14 -0.35527136788E-14  0.91188000000E+02  0.91188000000E+02 0.  0.
    9900012    2    3    3    0    0  0.26690424268E+02  0.14826148229E+02  0.20581201707E+02  0.54367091774E+02  0.40000017316E+02 0.  0.
         12    1    3    3    0    0 -0.26690424268E+02 -0.14826148229E+02 -0.20581201707E+02  0.36820908226E+02  0.00000000000E+00 0. -1.
         11    1    4    4    0    0  0.50853787771E+01  0.13943963264E+02  0.20128099901E+02  0.25008710377E+02  0.51100000000E-03 0.  1.
        -11    1    4    4    0    0  0.20579683183E+02 -0.65660885133E+01  0.19593802677E+01  0.21690459875E+02  0.51100000000E-03 0. -1.
         12    1    4    4    0    0  0.10253623076E+01  0.74482734782E+01 -0.15062784614E+01  0.76679215223E+01  0.00000000000E+00 0. -1.
</event>
<event>
 8    1  0.3011071E-007  0.9118800E+02  0.7816164E-02  0.1184000E+00
        -11   -1    0    0    0    0  0.00000000000E+00  0.00000000000E+00  0.45593999997E+02  0.45594000000E+02  0.51100000000E-03 0. -1.
         11   -1    0    0    0    0 -0.00000000000E+00 -0.00000000000E+00 -0.45593999997E+02  0.45594000000E+02  0.51100000000E-03 0.  1.
         23    2    1    2    0    0 -0.17763568394E-14  0.00000000000E+00 -0.35527136788E-14  0.91188000000E+02  0.91188000000E+02 0.  0.
    9900012    2    3    3    0    0  0.11680928578E+02 -0.19644368106E+02 -0.28869208350E+02  0.54367129811E+02  0.40000104030E+02 0.  0.
         12    1    3    3    0    0 -0.11680928578E+02  0.19644368106E+02  0.28869208350E+02  0.36820870189E+02  0.00000000000E+00 0. -1.
         11    1    4    4    0    0  0.11953082580E+02 -0.70530074458E+01 -0.14229299058E+02  0.19876972836E+02  0.51100000000E-03 0.  1.
        -11    1    4    4    0    0  0.59298690212E+01  0.72753801415E+01 -0.64074772573E+00  0.94077128315E+01  0.51100000000E-03 0. -1.
         12    1    4    4    0    0 -0.62020230229E+01 -0.19866740801E+02 -0.13999161567E+02  0.25082444144E+02  0.00000000000E+00 0. -1.
</event>
<event>
 8    1  0.3011071E-007  0.9118800E+02  0.7816164E-02  0.1184000E+00
        -11   -1    0    0    0    0  0.00000000000E+00  0.00000000000E+00  0.45593999997E+02  0.45594000000E+02  0.51100000000E-03 0.  1.
         11   -1    0    0    0    0 -0.00000000000E+00 -0.00000000000E+00 -0.45593999997E+02  0.45594000000E+02  0.51100000000E-03 0. -1.
         23    2    1    2    0    0 -0.35527136788E-14  0.88817841970E-15  0.00000000000E+00  0.91188000000E+02  0.91188000000E+02 0.  0.
    9900012    2    3    3    0    0 -0.21254530523E+02 -0.54158914578E+01  0.29575202586E+02  0.54367088061E+02  0.40000008852E+02 0.  0.
         12    1    3    3    0    0  0.21254530523E+02  0.54158914578E+01 -0.29575202586E+02  0.36820911939E+02  0.00000000000E+00 0. -1.
         11    1    4    4    0    0 -0.73858376755E+01  0.11615065672E+00 -0.25548989732E+01  0.78161114481E+01  0.51100000000E-03 0. -1.
        -11    1    4    4    0    0 -0.14689870774E+02 -0.16612005519E+02  0.17907203389E+02  0.28502964130E+02  0.51100000000E-03 0.  1.
         12    1    4    4    0    0  0.82117792626E+00  0.11079963404E+02  0.14222898170E+02  0.18048012483E+02  0.00000000000E+00 0. -1.
</event>
<event>
 8    1  0.3011071E-007  0.9118800E+02  0.7816164E-02  0.1184000E+00
        -11   -1    0    0    0    0  0.00000000000E+00  0.00000000000E+00  0.45593999997E+02  0.45594000000E+02  0.51100000000E-03 0.  1.
         11   -1    0    0    0    0 -0.00000000000E+00 -0.00000000000E+00 -0.45593999997E+02  0.45594000000E+02  0.51100000000E-03 0. -1.
         23    2    1    2    0    0  0.00000000000E+00 -0.17763568394E-14  0.00000000000E+00  0.91188000000E+02  0.91188000000E+02 0.  0.
    9900012    2    3    3    0    0  0.27340240134E+02 -0.88434707456E+01  0.23023568132E+02  0.54367076669E+02  0.39999982882E+02 0.  0.
        -12    1    3    3    0    0 -0.27340240134E+02  0.88434707456E+01 -0.23023568132E+02  0.36820923331E+02  0.00000000000E+00 0.  1.
         11    1    4    4    0    0  0.24825890351E+02  0.75666736813E+01  0.52271795361E+01  0.26474568712E+02  0.51100000000E-03 0. -1.
        -11    1    4    4    0    0 -0.52700346287E+01 -0.78019866956E+01  0.51648585083E+01  0.10738716174E+02  0.51100000000E-03 0.  1.
         12    1    4    4    0    0  0.77843844122E+01 -0.86081577313E+01  0.12631530087E+02  0.17153791783E+02  0.00000000000E+00 0. -1.
</event>
<event>
 8    1  0.3011071E-007  0.9118800E+02  0.7816164E-02  0.1184000E+00
        -11   -1    0    0    0    0  0.00000000000E+00  0.00000000000E+00  0.45593999997E+02  0.45594000000E+02  0.51100000000E-03 0. -1.
         11   -1    0    0    0    0 -0.00000000000E+00 -0.00000000000E+00 -0.45593999997E+02  0.45594000000E+02  0.51100000000E-03 0.  1.
         23    2    1    2    0    0  0.88817841970E-15  0.00000000000E+00 -0.35527136788E-14  0.91188000000E+02  0.91188000000E+02 0.  0.
    9900012    2    3    3    0    0 -0.60921287941E+01 -0.21034618297E+02  0.29600861248E+02  0.54367079496E+02  0.39999989327E+02 0.  0.
        -12    1    3    3    0    0  0.60921287941E+01  0.21034618297E+02 -0.29600861248E+02  0.36820920504E+02  0.00000000000E+00 0.  1.
         11    1    4    4    0    0 -0.10207523474E+02 -0.41429332672E+01  0.20503271760E+02  0.23275342847E+02  0.51100000000E-03 0.  1.
        -11    1    4    4    0    0 -0.50761760999E+01 -0.53517693134E+01  0.13765943098E+02  0.15617624282E+02  0.51100000000E-03 0. -1.
        -12    1    4    4    0    0  0.91915707795E+01 -0.11539915716E+02 -0.46683536097E+01  0.15474112367E+02  0.00000000000E+00 0.  1.
</event>
<event>
 8    1  0.3011071E-007  0.9118800E+02  0.7816164E-02  0.1184000E+00
        -11   -1    0    0    0    0  0.00000000000E+00  0.00000000000E+00  0.45593999997E+02  0.45594000000E+02  0.51100000000E-03 0. -1.
         11   -1    0    0    0    0 -0.00000000000E+00 -0.00000000000E+00 -0.45593999997E+02  0.45594000000E+02  0.51100000000E-03 0.  1.
         23    2    1    2    0    0 -0.35527136788E-14  0.35527136788E-14  0.00000000000E+00  0.91188000000E+02  0.91188000000E+02 0.  0.
    9900012    2    3    3    0    0  0.22011444036E+02 -0.16658443972E+02  0.24367454823E+02  0.54367078248E+02  0.39999986481E+02 0.  0.
        -12    1    3    3    0    0 -0.22011444036E+02  0.16658443972E+02 -0.24367454823E+02  0.36820921752E+02  0.00000000000E+00 0.  1.
         11    1    4    4    0    0  0.13809709203E+02 -0.32677869993E+00 -0.28665032535E+01  0.14107859290E+02  0.51100000000E-03 0. -1.
        -11    1    4    4    0    0 -0.18781798443E+01 -0.10951475323E+02  0.42786867346E+00  0.11119597256E+02  0.51100000000E-03 0.  1.
         12    1    4    4    0    0  0.10079914677E+02 -0.53801899493E+01  0.26806089403E+02  0.29139621701E+02  0.00000000000E+00 0. -1.
</event>
<event>
 8    1  0.3011071E-007  0.9118800E+02  0.7816164E-02  0.1184000E+00
        -11   -1    0    0    0    0  0.00000000000E+00  0.00000000000E+00  0.45593999997E+02  0.45594000000E+02  0.51100000000E-03 0.  1.
         11   -1    0    0    0    0 -0.00000000000E+00 -0.00000000000E+00 -0.45593999997E+02  0.45594000000E+02  0.51100000000E-03 0. -1.
         23    2    1    2    0    0  0.00000000000E+00  0.00000000000E+00 -0.17763568394E-14  0.91188000000E+02  0.91188000000E+02 0.  0.
    9900012    2    3    3    0    0 -0.11368252319E+02  0.34179490481E+02 -0.76356643445E+01  0.54367107828E+02  0.40000053916E+02 0.  0.
        -12    1    3    3    0    0  0.11368252319E+02 -0.34179490481E+02  0.76356643445E+01  0.36820892172E+02  0.00000000000E+00 0.  1.
         11    1    4    4    0    0 -0.13119683678E+02  0.42585794164E+01 -0.76456350770E+01  0.15770774694E+02  0.51100000000E-03 0. -1.
        -11    1    4    4    0    0  0.86969505765E+01  0.13311965213E+01 -0.22714627785E+01  0.90867253135E+01  0.51100000000E-03 0.  1.
        -12    1    4    4    0    0 -0.69455192177E+01  0.28589714543E+02  0.22814335110E+01  0.29509607821E+02  0.00000000000E+00 0.  1.
</event>
<event>
 8    1  0.3011071E-007  0.9118800E+02  0.7816164E-02  0.1184000E+00
        -11   -1    0    0    0    0  0.00000000000E+00  0.00000000000E+00  0.45593999997E+02  0.45594000000E+02  0.51100000000E-03 0.  1.
         11   -1    0    0    0    0 -0.00000000000E+00 -0.00000000000E+00 -0.45593999997E+02  0.45594000000E+02  0.51100000000E-03 0. -1.
         23    2    1    2    0    0  0.35527136788E-14 -0.44408920985E-15  0.00000000000E+00  0.91188000000E+02  0.91188000000E+02 0.  0.
    9900012    2    3    3    0    0  0.30569922860E+02 -0.25255772122E+01  0.20368629099E+02  0.54367085083E+02  0.40000002065E+02 0.  0.
         12    1    3    3    0    0 -0.30569922860E+02  0.25255772122E+01 -0.20368629099E+02  0.36820914917E+02  0.00000000000E+00 0. -1.
         11    1    4    4    0    0  0.21970833186E+01  0.10666716390E+02 -0.33060359581E+01  0.11381383382E+02  0.51100000000E-03 0. -1.
        -11    1    4    4    0    0  0.21085016264E+02 -0.16863686735E+02  0.21571904812E+02  0.34558774842E+02  0.51100000000E-03 0.  1.
         12    1    4    4    0    0  0.72878232770E+01  0.36713931321E+01  0.21027602459E+01  0.84269268597E+01  0.00000000000E+00 0. -1.
</event>
<event>
 8    1  0.3011071E-007  0.9118800E+02  0.7816164E-02  0.1184000E+00
        -11   -1    0    0    0    0  0.00000000000E+00  0.00000000000E+00  0.45593999997E+02  0.45594000000E+02  0.51100000000E-03 0.  1.
         11   -1    0    0    0    0 -0.00000000000E+00 -0.00000000000E+00 -0.45593999997E+02  0.45594000000E+02  0.51100000000E-03 0. -1.
         23    2    1    2    0    0  0.00000000000E+00  0.17763568394E-14 -0.35527136788E-14  0.91188000000E+02  0.91188000000E+02 0.  0.
    9900012    2    3    3    0    0  0.23173008407E+02 -0.13091989672E+02  0.25443885789E+02  0.54367084255E+02  0.40000000177E+02 0.  0.
         12    1    3    3    0    0 -0.23173008407E+02  0.13091989672E+02 -0.25443885789E+02  0.36820915745E+02  0.00000000000E+00 0. -1.
         11    1    4    4    0    0 -0.19767017257E+01  0.25740356587E+01 -0.53102933170E+01  0.62235218854E+01  0.51100000000E-03 0. -1.
        -11    1    4    4    0    0  0.14978290466E+00 -0.90366699715E+01  0.16141191925E+01  0.91809160829E+01  0.51100000000E-03 0.  1.
        -12    1    4    4    0    0  0.24999927228E+02 -0.66293553591E+01  0.29140059914E+02  0.38962646287E+02  0.00000000000E+00 0.  1.
</event>
<event>
 8    1  0.3011071E-007  0.9118800E+02  0.7816164E-02  0.1184000E+00
        -11   -1    0    0    0    0  0.00000000000E+00  0.00000000000E+00  0.45593999997E+02  0.45594000000E+02  0.51100000000E-03 0.  1.
         11   -1    0    0    0    0 -0.00000000000E+00 -0.00000000000E+00 -0.45593999997E+02  0.45594000000E+02  0.51100000000E-03 0. -1.
         23    2    1    2    0    0 -0.17763568394E-14  0.00000000000E+00  0.00000000000E+00  0.91188000000E+02  0.91188000000E+02 0.  0.
    9900012    2    3    3    0    0  0.89153829065E+01 -0.29479818006E+02 -0.20180119647E+02  0.54367069118E+02  0.39999965668E+02 0.  0.
        -12    1    3    3    0    0 -0.89153829065E+01  0.29479818006E+02  0.20180119647E+02  0.36820930882E+02  0.00000000000E+00 0.  1.
         11    1    4    4    0    0 -0.82249341068E+01 -0.14844168395E+02 -0.17457546631E+02  0.24346761819E+02  0.51100000000E-03 0. -1.
        -11    1    4    4    0    0  0.92976460083E+01 -0.15633127983E+02  0.51081948578E+01  0.18892712002E+02  0.51100000000E-03 0.  1.
         12    1    4    4    0    0  0.78426710050E+01  0.99747837279E+00 -0.78307678738E+01  0.11127595297E+02  0.00000000000E+00 0. -1.
</event>
<event>
 8    1  0.3011071E-007  0.9118800E+02  0.7816164E-02  0.1184000E+00
        -11   -1    0    0    0    0  0.00000000000E+00  0.00000000000E+00  0.45593999997E+02  0.45594000000E+02  0.51100000000E-03 0.  1.
         11   -1    0    0    0    0 -0.00000000000E+00 -0.00000000000E+00 -0.45593999997E+02  0.45594000000E+02  0.51100000000E-03 0. -1.
         23    2    1    2    0    0  0.00000000000E+00  0.00000000000E+00  0.00000000000E+00  0.91188000000E+02  0.91188000000E+02 0.  0.
    9900012    2    3    3    0    0  0.18434500321E+02  0.27698206454E+02 -0.15772106970E+02  0.54367071153E+02  0.39999970308E+02 0.  0.
         12    1    3    3    0    0 -0.18434500321E+02 -0.27698206454E+02  0.15772106970E+02  0.36820928847E+02  0.00000000000E+00 0. -1.
         11    1    4    4    0    0  0.19649550422E+02  0.14586169400E+02 -0.12702137746E+01  0.24504583507E+02  0.51100000000E-03 0. -1.
        -11    1    4    4    0    0  0.37425555660E+01  0.95051396300E+01  0.35368511272E+01  0.10810352340E+02  0.51100000000E-03 0.  1.
         12    1    4    4    0    0 -0.49576056678E+01  0.36068974241E+01 -0.18038744323E+02  0.19052135306E+02  0.00000000000E+00 0. -1.
</event>
<event>
 8    1  0.3011071E-007  0.9118800E+02  0.7816164E-02  0.1184000E+00
        -11   -1    0    0    0    0  0.00000000000E+00  0.00000000000E+00  0.45593999997E+02  0.45594000000E+02  0.51100000000E-03 0.  1.
         11   -1    0    0    0    0 -0.00000000000E+00 -0.00000000000E+00 -0.45593999997E+02  0.45594000000E+02  0.51100000000E-03 0. -1.
         23    2    1    2    0    0  0.88817841970E-15  0.17763568394E-14  0.00000000000E+00  0.91188000000E+02  0.91188000000E+02 0.  0.
    9900012    2    3    3    0    0  0.73682250936E+01  0.10801239697E+02 -0.34421279166E+02  0.54367055152E+02  0.39999933831E+02 0.  0.
        -12    1    3    3    0    0 -0.73682250936E+01 -0.10801239697E+02  0.34421279166E+02  0.36820944848E+02  0.00000000000E+00 0.  1.
         11    1    4    4    0    0 -0.34327214040E+01  0.20001032646E+02 -0.25821802027E+02  0.32841899204E+02  0.51100000000E-03 0. -1.
        -11    1    4    4    0    0 -0.29977846180E+01 -0.13575611935E+01  0.34146107861E+00  0.33085164258E+01  0.51100000000E-03 0.  1.
        -12    1    4    4    0    0  0.13798731116E+02 -0.78422317546E+01 -0.89409382181E+01  0.18216639523E+02  0.00000000000E+00 0.  1.
</event>
<event>
 8    1  0.3011071E-007  0.9118800E+02  0.7816164E-02  0.1184000E+00
        -11   -1    0    0    0    0  0.00000000000E+00  0.00000000000E+00  0.45593999997E+02  0.45594000000E+02  0.51100000000E-03 0.  1.
         11   -1    0    0    0    0 -0.00000000000E+00 -0.00000000000E+00 -0.45593999997E+02  0.45594000000E+02  0.51100000000E-03 0. -1.
         23    2    1    2    0    0 -0.35527136788E-14  0.00000000000E+00  0.00000000000E+00  0.91188000000E+02  0.91188000000E+02 0.  0.
    9900012    2    3    3    0    0 -0.25964211082E+02 -0.19722001170E+02 -0.17107969918E+02  0.54367079018E+02  0.39999988236E+02 0.  0.
        -12    1    3    3    0    0  0.25964211082E+02  0.19722001170E+02  0.17107969918E+02  0.36820920982E+02  0.00000000000E+00 0.  1.
         11    1    4    4    0    0 -0.11029583585E+01  0.29993675830E+01  0.43708856837E+01  0.54145512242E+01  0.51100000000E-03 0. -1.
        -11    1    4    4    0    0 -0.52881369802E+01  0.34111228446E+01 -0.14155772330E+02  0.15491482896E+02  0.51100000000E-03 0.  1.
         12    1    4    4    0    0 -0.19573115743E+02 -0.26132491598E+02 -0.73230832716E+01  0.33461044897E+02  0.00000000000E+00 0. -1.
</event>
<event>
 8    1  0.3011071E-007  0.9118800E+02  0.7816164E-02  0.1184000E+00
        -11   -1    0    0    0    0  0.00000000000E+00  0.00000000000E+00  0.45593999997E+02  0.45594000000E+02  0.51100000000E-03 0.  1.
         11   -1    0    0    0    0 -0.00000000000E+00 -0.00000000000E+00 -0.45593999997E+02  0.45594000000E+02  0.51100000000E-03 0. -1.
         23    2    1    2    0    0 -0.71054273576E-14  0.35527136788E-14 -0.22204460493E-15  0.91188000000E+02  0.91188000000E+02 0.  0.
    9900012    2    3    3    0    0  0.30287573500E+02 -0.20892476363E+02  0.13954448616E+01  0.54367082800E+02  0.39999996859E+02 0.  0.
         12    1    3    3    0    0 -0.30287573500E+02  0.20892476363E+02 -0.13954448616E+01  0.36820917200E+02  0.00000000000E+00 0. -1.
         11    1    4    4    0    0 -0.56263601962E+01 -0.77249639506E+01 -0.39516063217E+01  0.10341479095E+02  0.51100000000E-03 0. -1.
        -11    1    4    4    0    0  0.15021004398E+02  0.39654061777E+01  0.68186100251E+01  0.16966097437E+02  0.51100000000E-03 0.  1.
         12    1    4    4    0    0  0.20892929298E+02 -0.17132918590E+02 -0.14715588419E+01  0.27059506268E+02  0.00000000000E+00 0. -1.
</event>
<event>
 8    1  0.3011071E-007  0.9118800E+02  0.7816164E-02  0.1184000E+00
        -11   -1    0    0    0    0  0.00000000000E+00  0.00000000000E+00  0.45593999997E+02  0.45594000000E+02  0.51100000000E-03 0.  1.
         11   -1    0    0    0    0 -0.00000000000E+00 -0.00000000000E+00 -0.45593999997E+02  0.45594000000E+02  0.51100000000E-03 0. -1.
         23    2    1    2    0    0 -0.17763568394E-14  0.00000000000E+00  0.00000000000E+00  0.91188000000E+02  0.91188000000E+02 0.  0.
    9900012    2    3    3    0    0  0.13578335143E+02  0.40856143780E+01 -0.33981127931E+02  0.54367075438E+02  0.39999980077E+02 0.  0.
        -12    1    3    3    0    0 -0.13578335143E+02 -0.40856143780E+01  0.33981127931E+02  0.36820924562E+02  0.00000000000E+00 0.  1.
         11    1    4    4    0    0 -0.33598065948E+01 -0.15820015860E+01 -0.10859760021E+02  0.11477169396E+02  0.51100000000E-03 0. -1.
        -11    1    4    4    0    0 -0.79486123921E+01  0.53757040269E+01 -0.12675960185E+02  0.15898383554E+02  0.51100000000E-03 0.  1.
         12    1    4    4    0    0  0.24886754130E+02  0.29191193713E+00 -0.10445407725E+02  0.26991522488E+02  0.00000000000E+00 0. -1.
</event>
<event>
 8    1  0.3011071E-007  0.9118800E+02  0.7816164E-02  0.1184000E+00
        -11   -1    0    0    0    0  0.00000000000E+00  0.00000000000E+00  0.45593999997E+02  0.45594000000E+02  0.51100000000E-03 0.  1.
         11   -1    0    0    0    0 -0.00000000000E+00 -0.00000000000E+00 -0.45593999997E+02  0.45594000000E+02  0.51100000000E-03 0. -1.
         23    2    1    2    0    0 -0.35527136788E-14  0.00000000000E+00 -0.13322676296E-14  0.91188000000E+02  0.91188000000E+02 0.  0.
    9900012    2    3    3    0    0 -0.30692601423E+02  0.20322758933E+02  0.85431786083E+00  0.54367079699E+02  0.39999989791E+02 0.  0.
         12    1    3    3    0    0  0.30692601423E+02 -0.20322758933E+02 -0.85431786083E+00  0.36820920301E+02  0.00000000000E+00 0. -1.
         11    1    4    4    0    0 -0.12712384049E+02  0.22878664932E+02  0.81608872344E+01  0.27416019004E+02  0.51100000000E-03 0. -1.
        -11    1    4    4    0    0  0.12748751097E+01 -0.21216738099E+01  0.39362000537E+01  0.46497825137E+01  0.51100000000E-03 0.  1.
        -12    1    4    4    0    0 -0.19255092484E+02 -0.43423218915E+00 -0.11242769427E+02  0.22301278182E+02  0.00000000000E+00 0.  1.
</event>
<event>
 8    1  0.3011071E-007  0.9118800E+02  0.7816164E-02  0.1184000E+00
        -11   -1    0    0    0    0  0.00000000000E+00  0.00000000000E+00  0.45593999997E+02  0.45594000000E+02  0.51100000000E-03 0.  1.
         11   -1    0    0    0    0 -0.00000000000E+00 -0.00000000000E+00 -0.45593999997E+02  0.45594000000E+02  0.51100000000E-03 0. -1.
         23    2    1    2    0    0  0.00000000000E+00  0.00000000000E+00  0.00000000000E+00  0.91188000000E+02  0.91188000000E+02 0.  0.
    9900012    2    3    3    0    0 -0.15651470858E+02 -0.25734452717E+02 -0.21178984405E+02  0.54367082343E+02  0.39999995817E+02 0.  0.
        -12    1    3    3    0    0  0.15651470858E+02  0.25734452717E+02  0.21178984405E+02  0.36820917657E+02  0.00000000000E+00 0.  1.
         11    1    4    4    0    0 -0.16008608140E+02 -0.68944028695E+01 -0.28163847540E+02  0.33121150856E+02  0.51100000000E-03 0. -1.
        -11    1    4    4    0    0 -0.20785747915E+01 -0.10046821316E+02  0.64230254343E+01  0.12104311121E+02  0.51100000000E-03 0.  1.
         12    1    4    4    0    0  0.24357120730E+01 -0.87932285319E+01  0.56183770050E+00  0.91416203662E+01  0.00000000000E+00 0. -1.
</event>
<event>
 8    1  0.3011071E-007  0.9118800E+02  0.7816164E-02  0.1184000E+00
        -11   -1    0    0    0    0  0.00000000000E+00  0.00000000000E+00  0.45593999997E+02  0.45594000000E+02  0.51100000000E-03 0.  1.
         11   -1    0    0    0    0 -0.00000000000E+00 -0.00000000000E+00 -0.45593999997E+02  0.45594000000E+02  0.51100000000E-03 0. -1.
         23    2    1    2    0    0 -0.88817841970E-15  0.00000000000E+00  0.00000000000E+00  0.91188000000E+02  0.91188000000E+02 0.  0.
    9900012    2    3    3    0    0 -0.59512243017E+01  0.97985226960E+01 -0.34990737861E+02  0.54367084018E+02  0.39999999636E+02 0.  0.
        -12    1    3    3    0    0  0.59512243017E+01 -0.97985226960E+01  0.34990737861E+02  0.36820915982E+02  0.00000000000E+00 0.  1.
         11    1    4    4    0    0 -0.11342249119E+02  0.10626611273E+02  0.10518328185E+01  0.15578120386E+02  0.51100000000E-03 0.  1.
        -11    1    4    4    0    0 -0.31453228775E+01  0.31172469374E+01 -0.16764492142E+02  0.17339506381E+02  0.51100000000E-03 0. -1.
        -12    1    4    4    0    0  0.85363476945E+01 -0.39453355148E+01 -0.19278078537E+02  0.21449457251E+02  0.00000000000E+00 0.  1.
</event>
<event>
 8    1  0.3011071E-007  0.9118800E+02  0.7816164E-02  0.1184000E+00
        -11   -1    0    0    0    0  0.00000000000E+00  0.00000000000E+00  0.45593999997E+02  0.45594000000E+02  0.51100000000E-03 0.  1.
         11   -1    0    0    0    0 -0.00000000000E+00 -0.00000000000E+00 -0.45593999997E+02  0.45594000000E+02  0.51100000000E-03 0. -1.
         23    2    1    2    0    0  0.17763568394E-14  0.00000000000E+00  0.00000000000E+00  0.91188000000E+02  0.91188000000E+02 0.  0.
    9900012    2    3    3    0    0 -0.11212245039E+02 -0.17567001877E+02 -0.30355653529E+02  0.54367086175E+02  0.40000004553E+02 0.  0.
        -12    1    3    3    0    0  0.11212245039E+02  0.17567001877E+02  0.30355653529E+02  0.36820913825E+02  0.00000000000E+00 0.  1.
         11    1    4    4    0    0 -0.94709394861E-02 -0.68158000265E+01  0.70988361580E+00  0.68526750039E+01  0.51100000000E-03 0. -1.
        -11    1    4    4    0    0 -0.13976830604E+02  0.39449538018E+01 -0.17806694694E+01  0.14631651932E+02  0.51100000000E-03 0.  1.
         12    1    4    4    0    0  0.27740565045E+01 -0.14696155652E+02 -0.29284867675E+02  0.32882759239E+02  0.00000000000E+00 0. -1.
</event>
<event>
 8    1  0.3011071E-007  0.9118800E+02  0.7816164E-02  0.1184000E+00
        -11   -1    0    0    0    0  0.00000000000E+00  0.00000000000E+00  0.45593999997E+02  0.45594000000E+02  0.51100000000E-03 0.  1.
         11   -1    0    0    0    0 -0.00000000000E+00 -0.00000000000E+00 -0.45593999997E+02  0.45594000000E+02  0.51100000000E-03 0. -1.
         23    2    1    2    0    0 -0.35527136788E-14 -0.17763568394E-14 -0.35527136788E-14  0.91188000000E+02  0.91188000000E+02 0.  0.
    9900012    2    3    3    0    0  0.28090703824E+02 -0.90848837525E+01  0.22003569396E+02  0.54367084473E+02  0.40000000672E+02 0.  0.
         12    1    3    3    0    0 -0.28090703824E+02  0.90848837525E+01 -0.22003569396E+02  0.36820915527E+02  0.00000000000E+00 0. -1.
         11    1    4    4    0    0  0.71002424876E+00 -0.55537426486E+00  0.78080532159E+01  0.78599154125E+01  0.51100000000E-03 0. -1.
        -11    1    4    4    0    0  0.11261782663E+02 -0.36796691996E+01  0.24186714000E+02  0.26932598251E+02  0.51100000000E-03 0.  1.
        -12    1    4    4    0    0  0.16118896913E+02 -0.48498402881E+01 -0.99911978199E+01  0.19574570810E+02  0.00000000000E+00 0.  1.
</event>
<event>
 8    1  0.3011071E-007  0.9118800E+02  0.7816164E-02  0.1184000E+00
        -11   -1    0    0    0    0  0.00000000000E+00  0.00000000000E+00  0.45593999997E+02  0.45594000000E+02  0.51100000000E-03 0.  1.
         11   -1    0    0    0    0 -0.00000000000E+00 -0.00000000000E+00 -0.45593999997E+02  0.45594000000E+02  0.51100000000E-03 0. -1.
         23    2    1    2    0    0  0.00000000000E+00  0.35527136788E-14  0.00000000000E+00  0.91188000000E+02  0.91188000000E+02 0.  0.
    9900012    2    3    3    0    0  0.21718919088E+02 -0.24186648773E+02 -0.17293770547E+02  0.54367083051E+02  0.39999997432E+02 0.  0.
        -12    1    3    3    0    0 -0.21718919088E+02  0.24186648773E+02  0.17293770547E+02  0.36820916949E+02  0.00000000000E+00 0.  1.
         11    1    4    4    0    0  0.10659038795E+02 -0.13064339065E+02  0.19411392657E+01  0.16972332932E+02  0.51100000000E-03 0. -1.
        -11    1    4    4    0    0  0.92125007289E+01  0.82189358159E+00 -0.22955555258E+02  0.24748801914E+02  0.51100000000E-03 0.  1.
         12    1    4    4    0    0  0.18473795641E+01 -0.11944203289E+02  0.37206454450E+01  0.12645948205E+02  0.00000000000E+00 0. -1.
</event>
<event>
 8    1  0.3011071E-007  0.9118800E+02  0.7816164E-02  0.1184000E+00
        -11   -1    0    0    0    0  0.00000000000E+00  0.00000000000E+00  0.45593999997E+02  0.45594000000E+02  0.51100000000E-03 0. -1.
         11   -1    0    0    0    0 -0.00000000000E+00 -0.00000000000E+00 -0.45593999997E+02  0.45594000000E+02  0.51100000000E-03 0.  1.
         23    2    1    2    0    0  0.17763568394E-14  0.00000000000E+00  0.00000000000E+00  0.91188000000E+02  0.91188000000E+02 0.  0.
    9900012    2    3    3    0    0  0.50316254560E+01 -0.27644531859E+02 -0.23795845595E+02  0.54367086594E+02  0.40000005509E+02 0.  0.
         12    1    3    3    0    0 -0.50316254560E+01  0.27644531859E+02  0.23795845595E+02  0.36820913406E+02  0.00000000000E+00 0. -1.
         11    1    4    4    0    0 -0.11321981915E+01 -0.75086257856E+00  0.58108963069E+01  0.59675944490E+01  0.51100000000E-03 0. -1.
        -11    1    4    4    0    0  0.41667286457E+01  0.42599716453E+01 -0.96706889491E+01  0.11359190598E+02  0.51100000000E-03 0.  1.
        -12    1    4    4    0    0  0.19970950017E+01 -0.31153640926E+02 -0.19936052953E+02  0.37040301548E+02  0.00000000000E+00 0.  1.
</event>
<event>
 8    1  0.3011071E-007  0.9118800E+02  0.7816164E-02  0.1184000E+00
        -11   -1    0    0    0    0  0.00000000000E+00  0.00000000000E+00  0.45593999997E+02  0.45594000000E+02  0.51100000000E-03 0.  1.
         11   -1    0    0    0    0 -0.00000000000E+00 -0.00000000000E+00 -0.45593999997E+02  0.45594000000E+02  0.51100000000E-03 0. -1.
         23    2    1    2    0    0  0.00000000000E+00  0.35527136788E-14  0.00000000000E+00  0.91188000000E+02  0.91188000000E+02 0.  0.
    9900012    2    3    3    0    0 -0.26923615264E+02  0.16748747842E+02  0.18718411334E+02  0.54367074753E+02  0.39999978514E+02 0.  0.
         12    1    3    3    0    0  0.26923615264E+02 -0.16748747842E+02 -0.18718411334E+02  0.36820925247E+02  0.00000000000E+00 0. -1.
         11    1    4    4    0    0 -0.10153939102E+02  0.12049541034E+02 -0.97064778209E+01  0.18507015707E+02  0.51100000000E-03 0. -1.
        -11    1    4    4    0    0 -0.11884125193E+02 -0.10368256991E+01  0.87571970892E+01  0.14798511420E+02  0.51100000000E-03 0.  1.
         12    1    4    4    0    0 -0.48855509693E+01  0.57360325067E+01  0.19667692066E+02  0.21061547626E+02  0.00000000000E+00 0. -1.
</event>
<event>
 8    1  0.3011071E-007  0.9118800E+02  0.7816164E-02  0.1184000E+00
        -11   -1    0    0    0    0  0.00000000000E+00  0.00000000000E+00  0.45593999997E+02  0.45594000000E+02  0.51100000000E-03 0.  1.
         11   -1    0    0    0    0 -0.00000000000E+00 -0.00000000000E+00 -0.45593999997E+02  0.45594000000E+02  0.51100000000E-03 0. -1.
         23    2    1    2    0    0 -0.35527136788E-14  0.17763568394E-14 -0.35527136788E-14  0.91188000000E+02  0.91188000000E+02 0.  0.
    9900012    2    3    3    0    0 -0.22868692717E+02  0.97916979761E+01 -0.27146367531E+02  0.54367085753E+02  0.40000003592E+02 0.  0.
        -12    1    3    3    0    0  0.22868692717E+02 -0.97916979761E+01  0.27146367531E+02  0.36820914247E+02  0.00000000000E+00 0.  1.
         11    1    4    4    0    0 -0.11824148580E+02  0.17280701392E+02 -0.14401936083E+02  0.25413557277E+02  0.51100000000E-03 0. -1.
        -11    1    4    4    0    0  0.84738496738E+00  0.41070891268E+01  0.36910654427E+01  0.55866095928E+01  0.51100000000E-03 0.  1.
        -12    1    4    4    0    0 -0.11891929104E+02 -0.11596092543E+02 -0.16435496891E+02  0.23366918884E+02  0.00000000000E+00 0.  1.
</event>
<event>
 8    1  0.3011071E-007  0.9118800E+02  0.7816164E-02  0.1184000E+00
        -11   -1    0    0    0    0  0.00000000000E+00  0.00000000000E+00  0.45593999997E+02  0.45594000000E+02  0.51100000000E-03 0.  1.
         11   -1    0    0    0    0 -0.00000000000E+00 -0.00000000000E+00 -0.45593999997E+02  0.45594000000E+02  0.51100000000E-03 0. -1.
         23    2    1    2    0    0  0.00000000000E+00  0.00000000000E+00  0.00000000000E+00  0.91188000000E+02  0.91188000000E+02 0.  0.
    9900012    2    3    3    0    0  0.10441172659E+02  0.34075411959E+02 -0.92534473946E+01  0.54367108167E+02  0.40000054689E+02 0.  0.
        -12    1    3    3    0    0 -0.10441172659E+02 -0.34075411959E+02  0.92534473946E+01  0.36820891833E+02  0.00000000000E+00 0.  1.
         11    1    4    4    0    0 -0.80124098656E+00 -0.17799474871E+00 -0.22252824825E+00  0.85040480449E+00  0.51100000000E-03 0.  1.
        -11    1    4    4    0    0 -0.26783317773E+01  0.38171472721E+02 -0.72462021746E+01  0.38945375040E+02  0.51100000000E-03 0. -1.
         12    1    4    4    0    0  0.13920745423E+02 -0.39180660134E+01 -0.17847169718E+01  0.14571328322E+02  0.00000000000E+00 0. -1.
</event>
<event>
 8    1  0.3011071E-007  0.9118800E+02  0.7816164E-02  0.1184000E+00
        -11   -1    0    0    0    0  0.00000000000E+00  0.00000000000E+00  0.45593999997E+02  0.45594000000E+02  0.51100000000E-03 0. -1.
         11   -1    0    0    0    0 -0.00000000000E+00 -0.00000000000E+00 -0.45593999997E+02  0.45594000000E+02  0.51100000000E-03 0.  1.
         23    2    1    2    0    0  0.00000000000E+00  0.00000000000E+00  0.35527136788E-14  0.91188000000E+02  0.91188000000E+02 0.  0.
    9900012    2    3    3    0    0 -0.58638848113E+01  0.19956129883E+02 -0.30383342647E+02  0.54367085082E+02  0.40000002062E+02 0.  0.
         12    1    3    3    0    0  0.58638848113E+01 -0.19956129883E+02  0.30383342647E+02  0.36820914918E+02  0.00000000000E+00 0. -1.
         11    1    4    4    0    0  0.30343247561E+01 -0.56133319332E+01  0.36354529816E+01  0.73439186243E+01  0.51100000000E-03 0. -1.
        -11    1    4    4    0    0 -0.58369673003E+01 -0.32751448154E+00 -0.32447115343E+01  0.66862251085E+01  0.51100000000E-03 0.  1.
        -12    1    4    4    0    0 -0.30612422671E+01  0.25896976297E+02 -0.30774084094E+02  0.40336941349E+02  0.00000000000E+00 0.  1.
</event>
<event>
 8    1  0.3011071E-007  0.9118800E+02  0.7816164E-02  0.1184000E+00
        -11   -1    0    0    0    0  0.00000000000E+00  0.00000000000E+00  0.45593999997E+02  0.45594000000E+02  0.51100000000E-03 0.  1.
         11   -1    0    0    0    0 -0.00000000000E+00 -0.00000000000E+00 -0.45593999997E+02  0.45594000000E+02  0.51100000000E-03 0. -1.
         23    2    1    2    0    0 -0.17763568394E-14  0.17763568394E-14  0.00000000000E+00  0.91188000000E+02  0.91188000000E+02 0.  0.
    9900012    2    3    3    0    0  0.11246206786E+02 -0.15334315891E+02 -0.31530221139E+02  0.54367173611E+02  0.40000203880E+02 0.  0.
        -12    1    3    3    0    0 -0.11246206786E+02  0.15334315891E+02  0.31530221139E+02  0.36820826389E+02  0.00000000000E+00 0.  1.
         11    1    4    4    0    0  0.36000767033E+01 -0.24106255604E+02 -0.15004253422E+02  0.28621665439E+02  0.51100000000E-03 0.  1.
        -11    1    4    4    0    0  0.90914610600E+01  0.81993750516E+01 -0.19130341611E+02  0.22712428004E+02  0.51100000000E-03 0. -1.
         12    1    4    4    0    0 -0.14453309774E+01  0.57256466152E+00  0.26043738934E+01  0.30330801675E+01  0.00000000000E+00 0. -1.
</event>
<event>
 8    1  0.3011071E-007  0.9118800E+02  0.7816164E-02  0.1184000E+00
        -11   -1    0    0    0    0  0.00000000000E+00  0.00000000000E+00  0.45593999997E+02  0.45594000000E+02  0.51100000000E-03 0. -1.
         11   -1    0    0    0    0 -0.00000000000E+00 -0.00000000000E+00 -0.45593999997E+02  0.45594000000E+02  0.51100000000E-03 0.  1.
         23    2    1    2    0    0  0.00000000000E+00  0.00000000000E+00  0.11102230246E-15  0.91188000000E+02  0.91188000000E+02 0.  0.
    9900012    2    3    3    0    0 -0.17093260894E+02 -0.32611466598E+02  0.30292953322E+00  0.54367094417E+02  0.40000023342E+02 0.  0.
        -12    1    3    3    0    0  0.17093260894E+02  0.32611466598E+02 -0.30292953322E+00  0.36820905583E+02  0.00000000000E+00 0.  1.
         11    1    4    4    0    0 -0.15826864662E+02 -0.27328418411E+02 -0.15426004495E+01  0.31618218075E+02  0.51100000000E-03 0. -1.
        -11    1    4    4    0    0 -0.55778770337E+01 -0.11210032356E+02  0.64586283611E+01  0.14088698243E+02  0.51100000000E-03 0.  1.
        -12    1    4    4    0    0  0.43114808020E+01  0.59269841687E+01 -0.46130983783E+01  0.86601780981E+01  0.00000000000E+00 0.  1.
</event>
<event>
 8    1  0.3011071E-007  0.9118800E+02  0.7816164E-02  0.1184000E+00
        -11   -1    0    0    0    0  0.00000000000E+00  0.00000000000E+00  0.45593999997E+02  0.45594000000E+02  0.51100000000E-03 0. -1.
         11   -1    0    0    0    0 -0.00000000000E+00 -0.00000000000E+00 -0.45593999997E+02  0.45594000000E+02  0.51100000000E-03 0.  1.
         23    2    1    2    0    0  0.00000000000E+00  0.17763568394E-14  0.00000000000E+00  0.91188000000E+02  0.91188000000E+02 0.  0.
    9900012    2    3    3    0    0 -0.28049560899E+02 -0.12540410969E+02 -0.20291422813E+02  0.54367060120E+02  0.39999945154E+02 0.  0.
         12    1    3    3    0    0  0.28049560899E+02  0.12540410969E+02  0.20291422813E+02  0.36820939880E+02  0.00000000000E+00 0. -1.
         11    1    4    4    0    0 -0.12090354578E+02 -0.11311275621E+02  0.19467159177E+01  0.16670672845E+02  0.51100000000E-03 0. -1.
        -11    1    4    4    0    0  0.52642403361E+01  0.58538698689E+01 -0.77098290839E+01  0.11019141687E+02  0.51100000000E-03 0.  1.
        -12    1    4    4    0    0 -0.21223446657E+02 -0.70830052172E+01 -0.14528309646E+02  0.26677245587E+02  0.00000000000E+00 0.  1.
</event>
<event>
 8    1  0.3011071E-007  0.9118800E+02  0.7816164E-02  0.1184000E+00
        -11   -1    0    0    0    0  0.00000000000E+00  0.00000000000E+00  0.45593999997E+02  0.45594000000E+02  0.51100000000E-03 0.  1.
         11   -1    0    0    0    0 -0.00000000000E+00 -0.00000000000E+00 -0.45593999997E+02  0.45594000000E+02  0.51100000000E-03 0. -1.
         23    2    1    2    0    0  0.00000000000E+00  0.44408920985E-15  0.00000000000E+00  0.91188000000E+02  0.91188000000E+02 0.  0.
    9900012    2    3    3    0    0 -0.35139725066E+02 -0.26188754021E+01 -0.10682707395E+02  0.54367095294E+02  0.40000025342E+02 0.  0.
        -12    1    3    3    0    0  0.35139725066E+02  0.26188754021E+01  0.10682707395E+02  0.36820904706E+02  0.00000000000E+00 0.  1.
         11    1    4    4    0    0 -0.36430153043E+01  0.57377251799E+01 -0.57190595694E+01  0.88826062260E+01  0.51100000000E-03 0. -1.
        -11    1    4    4    0    0 -0.16219332684E+01  0.18560244865E+01  0.10175866763E+02  0.10470136535E+02  0.51100000000E-03 0.  1.
        -12    1    4    4    0    0 -0.29874776493E+02 -0.10212625069E+02 -0.15139514589E+02  0.35014352533E+02  0.00000000000E+00 0.  1.
</event>
<event>
 8    1  0.3011071E-007  0.9118800E+02  0.7816164E-02  0.1184000E+00
        -11   -1    0    0    0    0  0.00000000000E+00  0.00000000000E+00  0.45593999997E+02  0.45594000000E+02  0.51100000000E-03 0. -1.
         11   -1    0    0    0    0 -0.00000000000E+00 -0.00000000000E+00 -0.45593999997E+02  0.45594000000E+02  0.51100000000E-03 0.  1.
         23    2    1    2    0    0 -0.35527136788E-14  0.00000000000E+00  0.00000000000E+00  0.91188000000E+02  0.91188000000E+02 0.  0.
    9900012    2    3    3    0    0 -0.16850286815E+02 -0.30335193913E+02  0.12313224547E+02  0.54367195362E+02  0.40000253466E+02 0.  0.
        -12    1    3    3    0    0  0.16850286815E+02  0.30335193913E+02 -0.12313224547E+02  0.36820804638E+02  0.00000000000E+00 0.  1.
         11    1    4    4    0    0  0.70571611562E+01 -0.15398554905E+02  0.11311069914E+02  0.20368095631E+02  0.51100000000E-03 0. -1.
        -11    1    4    4    0    0 -0.12088659853E+01  0.94493361883E+00 -0.53597919762E+01  0.55750898472E+01  0.51100000000E-03 0.  1.
         12    1    4    4    0    0 -0.22698581985E+02 -0.15881572626E+02  0.63619466099E+01  0.28424009884E+02  0.00000000000E+00 0. -1.
</event>
<event>
 8    1  0.3011071E-007  0.9118800E+02  0.7816164E-02  0.1184000E+00
        -11   -1    0    0    0    0  0.00000000000E+00  0.00000000000E+00  0.45593999997E+02  0.45594000000E+02  0.51100000000E-03 0.  1.
         11   -1    0    0    0    0 -0.00000000000E+00 -0.00000000000E+00 -0.45593999997E+02  0.45594000000E+02  0.51100000000E-03 0. -1.
         23    2    1    2    0    0  0.00000000000E+00  0.35527136788E-14  0.00000000000E+00  0.91188000000E+02  0.91188000000E+02 0.  0.
    9900012    2    3    3    0    0 -0.24732753518E+02 -0.23986410255E+02 -0.12989342029E+02  0.54367082306E+02  0.39999995734E+02 0.  0.
        -12    1    3    3    0    0  0.24732753518E+02  0.23986410255E+02  0.12989342029E+02  0.36820917694E+02  0.00000000000E+00 0.  1.
         11    1    4    4    0    0 -0.29521803916E+01  0.15844283289E+00  0.45150510635E+01  0.53968657166E+01  0.51100000000E-03 0. -1.
        -11    1    4    4    0    0 -0.25085126082E+02 -0.61559787529E+01 -0.37819382369E+01  0.26104840203E+02  0.51100000000E-03 0.  1.
         12    1    4    4    0    0  0.33045529553E+01 -0.17988874335E+02 -0.13722454855E+02  0.22865376387E+02  0.00000000000E+00 0. -1.
</event>
<event>
 8    1  0.3011071E-007  0.9118800E+02  0.7816164E-02  0.1184000E+00
        -11   -1    0    0    0    0  0.00000000000E+00  0.00000000000E+00  0.45593999997E+02  0.45594000000E+02  0.51100000000E-03 0.  1.
         11   -1    0    0    0    0 -0.00000000000E+00 -0.00000000000E+00 -0.45593999997E+02  0.45594000000E+02  0.51100000000E-03 0. -1.
         23    2    1    2    0    0  0.00000000000E+00  0.35527136788E-14 -0.88817841970E-15  0.91188000000E+02  0.91188000000E+02 0.  0.
    9900012    2    3    3    0    0 -0.32381296566E+02 -0.16751948290E+02 -0.51576198414E+01  0.54367120309E+02  0.40000082367E+02 0.  0.
         12    1    3    3    0    0  0.32381296566E+02  0.16751948290E+02  0.51576198414E+01  0.36820879691E+02  0.00000000000E+00 0. -1.
         11    1    4    4    0    0 -0.22533310468E+02 -0.20053460464E+02  0.95412412259E+01  0.31637424700E+02  0.51100000000E-03 0. -1.
        -11    1    4    4    0    0 -0.44645428627E+01 -0.11072882751E+01  0.17092351887E+01  0.49071086689E+01  0.51100000000E-03 0.  1.
         12    1    4    4    0    0 -0.53834432353E+01  0.44088004495E+01 -0.16408096256E+02  0.17822586940E+02  0.00000000000E+00 0. -1.
</event>
<event>
 8    1  0.3011071E-007  0.9118800E+02  0.7816164E-02  0.1184000E+00
        -11   -1    0    0    0    0  0.00000000000E+00  0.00000000000E+00  0.45593999997E+02  0.45594000000E+02  0.51100000000E-03 0. -1.
         11   -1    0    0    0    0 -0.00000000000E+00 -0.00000000000E+00 -0.45593999997E+02  0.45594000000E+02  0.51100000000E-03 0.  1.
         23    2    1    2    0    0  0.35527136788E-14  0.00000000000E+00 -0.35527136788E-14  0.91188000000E+02  0.91188000000E+02 0.  0.
    9900012    2    3    3    0    0  0.29996336542E+02  0.13405706935E+02 -0.16621889980E+02  0.54367076453E+02  0.39999982390E+02 0.  0.
         12    1    3    3    0    0 -0.29996336542E+02 -0.13405706935E+02  0.16621889980E+02  0.36820923547E+02  0.00000000000E+00 0. -1.
         11    1    4    4    0    0  0.11189068211E+02 -0.85143599108E+00 -0.52608488052E+01  0.12393414424E+02  0.51100000000E-03 0. -1.
        -11    1    4    4    0    0  0.25265636728E+02  0.42967924152E+01 -0.14825385383E+02  0.29607547625E+02  0.51100000000E-03 0.  1.
         12    1    4    4    0    0 -0.64583683976E+01  0.99603505109E+01  0.34643442082E+01  0.12366114404E+02  0.00000000000E+00 0. -1.
</event>
<event>
 8    1  0.3011071E-007  0.9118800E+02  0.7816164E-02  0.1184000E+00
        -11   -1    0    0    0    0  0.00000000000E+00  0.00000000000E+00  0.45593999997E+02  0.45594000000E+02  0.51100000000E-03 0. -1.
         11   -1    0    0    0    0 -0.00000000000E+00 -0.00000000000E+00 -0.45593999997E+02  0.45594000000E+02  0.51100000000E-03 0.  1.
         23    2    1    2    0    0  0.35527136788E-14 -0.35527136788E-14  0.35527136788E-14  0.91188000000E+02  0.91188000000E+02 0.  0.
    9900012    2    3    3    0    0 -0.11921377221E+02  0.26776962706E+02 -0.22285669516E+02  0.54367135910E+02  0.40000117933E+02 0.  0.
         12    1    3    3    0    0  0.11921377221E+02 -0.26776962706E+02  0.22285669516E+02  0.36820864090E+02  0.00000000000E+00 0. -1.
         11    1    4    4    0    0 -0.20793935598E+02 -0.40798910215E+00 -0.83266226255E+01  0.22402831459E+02  0.51100000000E-03 0. -1.
        -11    1    4    4    0    0  0.15109610267E+01  0.56245027638E+01 -0.41954791067E+01  0.71777489340E+01  0.51100000000E-03 0.  1.
         12    1    4    4    0    0  0.73615973499E+01  0.21560449044E+02 -0.97635677834E+01  0.24786555517E+02  0.00000000000E+00 0. -1.
</event>
<event>
 8    1  0.3011071E-007  0.9118800E+02  0.7816164E-02  0.1184000E+00
        -11   -1    0    0    0    0  0.00000000000E+00  0.00000000000E+00  0.45593999997E+02  0.45594000000E+02  0.51100000000E-03 0.  1.
         11   -1    0    0    0    0 -0.00000000000E+00 -0.00000000000E+00 -0.45593999997E+02  0.45594000000E+02  0.51100000000E-03 0. -1.
         23    2    1    2    0    0  0.00000000000E+00  0.00000000000E+00  0.00000000000E+00  0.91188000000E+02  0.91188000000E+02 0.  0.
    9900012    2    3    3    0    0 -0.19524467203E+02 -0.14713156475E+02  0.27533573992E+02  0.54367088961E+02  0.40000010903E+02 0.  0.
         12    1    3    3    0    0  0.19524467203E+02  0.14713156475E+02 -0.27533573992E+02  0.36820911039E+02  0.00000000000E+00 0. -1.
         11    1    4    4    0    0 -0.54810522622E+01 -0.83821637782E+01  0.30285468275E+01  0.10463015801E+02  0.51100000000E-03 0. -1.
        -11    1    4    4    0    0 -0.69222904636E+00 -0.69145573739E+01 -0.68883070066E+01  0.97846337902E+01  0.51100000000E-03 0.  1.
        -12    1    4    4    0    0 -0.13351185895E+02  0.58356467738E+00  0.31393334171E+02  0.34119439369E+02  0.00000000000E+00 0.  1.
</event>
<event>
 8    1  0.3011071E-007  0.9118800E+02  0.7816164E-02  0.1184000E+00
        -11   -1    0    0    0    0  0.00000000000E+00  0.00000000000E+00  0.45593999997E+02  0.45594000000E+02  0.51100000000E-03 0.  1.
         11   -1    0    0    0    0 -0.00000000000E+00 -0.00000000000E+00 -0.45593999997E+02  0.45594000000E+02  0.51100000000E-03 0. -1.
         23    2    1    2    0    0  0.00000000000E+00  0.26645352591E-14  0.00000000000E+00  0.91188000000E+02  0.91188000000E+02 0.  0.
    9900012    2    3    3    0    0 -0.21847704847E+02  0.35384724046E+01 -0.29426769214E+02  0.54367112716E+02  0.40000065058E+02 0.  0.
        -12    1    3    3    0    0  0.21847704847E+02 -0.35384724046E+01  0.29426769214E+02  0.36820887284E+02  0.00000000000E+00 0.  1.
         11    1    4    4    0    0  0.40349217362E+01  0.52509445193E+01 -0.54676533883E+01  0.85876798728E+01  0.51100000000E-03 0. -1.
        -11    1    4    4    0    0  0.60735514617E-01  0.10089121645E+02 -0.34383163917E+01  0.10659084587E+02  0.51100000000E-03 0.  1.
        -12    1    4    4    0    0 -0.25943362097E+02 -0.11801593760E+02 -0.20520799434E+02  0.35120348256E+02  0.00000000000E+00 0.  1.
</event>
<event>
 8    1  0.3011071E-007  0.9118800E+02  0.7816164E-02  0.1184000E+00
        -11   -1    0    0    0    0  0.00000000000E+00  0.00000000000E+00  0.45593999997E+02  0.45594000000E+02  0.51100000000E-03 0.  1.
         11   -1    0    0    0    0 -0.00000000000E+00 -0.00000000000E+00 -0.45593999997E+02  0.45594000000E+02  0.51100000000E-03 0. -1.
         23    2    1    2    0    0  0.00000000000E+00  0.44408920985E-15 -0.17763568394E-14  0.91188000000E+02  0.91188000000E+02 0.  0.
    9900012    2    3    3    0    0  0.34602378712E+02  0.38509324905E+01 -0.11984376791E+02  0.54367087726E+02  0.40000008090E+02 0.  0.
        -12    1    3    3    0    0 -0.34602378712E+02 -0.38509324905E+01  0.11984376791E+02  0.36820912274E+02  0.00000000000E+00 0.  1.
         11    1    4    4    0    0  0.87527021826E+00 -0.52873610529E+01  0.25238915097E+00  0.53652572541E+01  0.51100000000E-03 0. -1.
        -11    1    4    4    0    0  0.47233629409E+01  0.51467017048E+01  0.10027424579E+02  0.12220799477E+02  0.51100000000E-03 0.  1.
         12    1    4    4    0    0  0.29003745553E+02  0.39915918385E+01 -0.22264190521E+02  0.36781030995E+02  0.00000000000E+00 0. -1.
</event>
<event>
 8    1  0.3011071E-007  0.9118800E+02  0.7816164E-02  0.1184000E+00
        -11   -1    0    0    0    0  0.00000000000E+00  0.00000000000E+00  0.45593999997E+02  0.45594000000E+02  0.51100000000E-03 0.  1.
         11   -1    0    0    0    0 -0.00000000000E+00 -0.00000000000E+00 -0.45593999997E+02  0.45594000000E+02  0.51100000000E-03 0. -1.
         23    2    1    2    0    0  0.00000000000E+00  0.00000000000E+00  0.00000000000E+00  0.91188000000E+02  0.91188000000E+02 0.  0.
    9900012    2    3    3    0    0 -0.17446911049E+02  0.19679627060E+02  0.25770117264E+02  0.54367063426E+02  0.39999952692E+02 0.  0.
         12    1    3    3    0    0  0.17446911049E+02 -0.19679627060E+02 -0.25770117264E+02  0.36820936574E+02  0.00000000000E+00 0. -1.
         11    1    4    4    0    0  0.90674252800E-02 -0.85901535791E+00  0.27026704731E+02  0.27040354260E+02  0.51100000000E-03 0.  1.
        -11    1    4    4    0    0 -0.14364674391E+02  0.16873069377E+02  0.64361476728E+00  0.22168865122E+02  0.51100000000E-03 0. -1.
        -12    1    4    4    0    0 -0.30913040833E+01  0.36655730411E+01 -0.19002022342E+01  0.51578440444E+01  0.00000000000E+00 0.  1.
</event>
<event>
 8    1  0.3011071E-007  0.9118800E+02  0.7816164E-02  0.1184000E+00
        -11   -1    0    0    0    0  0.00000000000E+00  0.00000000000E+00  0.45593999997E+02  0.45594000000E+02  0.51100000000E-03 0. -1.
         11   -1    0    0    0    0 -0.00000000000E+00 -0.00000000000E+00 -0.45593999997E+02  0.45594000000E+02  0.51100000000E-03 0.  1.
         23    2    1    2    0    0  0.00000000000E+00  0.00000000000E+00  0.00000000000E+00  0.91188000000E+02  0.91188000000E+02 0.  0.
    9900012    2    3    3    0    0  0.42035236823E+01 -0.16194082635E+02  0.32800344123E+02  0.54367075265E+02  0.39999979681E+02 0.  0.
        -12    1    3    3    0    0 -0.42035236823E+01  0.16194082635E+02 -0.32800344123E+02  0.36820924735E+02  0.00000000000E+00 0.  1.
         11    1    4    4    0    0  0.59844109840E+01 -0.27705944385E+02  0.14937920307E+02  0.32040193390E+02  0.51100000000E-03 0. -1.
        -11    1    4    4    0    0  0.33469189754E-01  0.51789468825E+01  0.28014436201E+01  0.58881828790E+01  0.51100000000E-03 0.  1.
        -12    1    4    4    0    0 -0.18143564915E+01  0.63329148677E+01  0.15060980196E+02  0.16438698996E+02  0.00000000000E+00 0.  1.
</event>
<event>
 8    1  0.3011071E-007  0.9118800E+02  0.7816164E-02  0.1184000E+00
        -11   -1    0    0    0    0  0.00000000000E+00  0.00000000000E+00  0.45593999997E+02  0.45594000000E+02  0.51100000000E-03 0.  1.
         11   -1    0    0    0    0 -0.00000000000E+00 -0.00000000000E+00 -0.45593999997E+02  0.45594000000E+02  0.51100000000E-03 0. -1.
         23    2    1    2    0    0  0.13322676296E-14  0.00000000000E+00  0.00000000000E+00  0.91188000000E+02  0.91188000000E+02 0.  0.
    9900012    2    3    3    0    0 -0.27280096305E+01  0.18348186625E+02  0.31806959364E+02  0.54367073166E+02  0.39999974896E+02 0.  0.
         12    1    3    3    0    0  0.27280096305E+01 -0.18348186625E+02 -0.31806959364E+02  0.36820926834E+02  0.00000000000E+00 0. -1.
         11    1    4    4    0    0  0.49544756377E+01 -0.42282257571E+01  0.90002714049E+01  0.11109887827E+02  0.51100000000E-03 0. -1.
        -11    1    4    4    0    0 -0.12064670667E+02  0.71421667505E+01  0.23313906699E+02  0.27204872175E+02  0.51100000000E-03 0.  1.
         12    1    4    4    0    0  0.43821853990E+01  0.15434245632E+02 -0.50721874045E+00  0.16052313165E+02  0.00000000000E+00 0. -1.
</event>
<event>
 8    1  0.3011071E-007  0.9118800E+02  0.7816164E-02  0.1184000E+00
        -11   -1    0    0    0    0  0.00000000000E+00  0.00000000000E+00  0.45593999997E+02  0.45594000000E+02  0.51100000000E-03 0. -1.
         11   -1    0    0    0    0 -0.00000000000E+00 -0.00000000000E+00 -0.45593999997E+02  0.45594000000E+02  0.51100000000E-03 0.  1.
         23    2    1    2    0    0  0.00000000000E+00  0.00000000000E+00  0.17763568394E-14  0.91188000000E+02  0.91188000000E+02 0.  0.
    9900012    2    3    3    0    0 -0.32860040193E+02 -0.72494691758E+01 -0.14948256490E+02  0.54366981316E+02  0.39999765506E+02 0.  0.
         12    1    3    3    0    0  0.32860040193E+02  0.72494691758E+01  0.14948256490E+02  0.36821018684E+02  0.00000000000E+00 0. -1.
         11    1    4    4    0    0 -0.48042267324E+01 -0.51701863195E+01 -0.10356685614E+02  0.12532851162E+02  0.51100000000E-03 0. -1.
        -11    1    4    4    0    0 -0.33748897419E+02 -0.14401480091E+01  0.10470887474E+01  0.33795835518E+02  0.51100000000E-03 0.  1.
        -12    1    4    4    0    0  0.56930839582E+01 -0.63913484722E+00 -0.56386596234E+01  0.80382946361E+01  0.00000000000E+00 0.  1.
</event>
<event>
 8    1  0.3011071E-007  0.9118800E+02  0.7816164E-02  0.1184000E+00
        -11   -1    0    0    0    0  0.00000000000E+00  0.00000000000E+00  0.45593999997E+02  0.45594000000E+02  0.51100000000E-03 0. -1.
         11   -1    0    0    0    0 -0.00000000000E+00 -0.00000000000E+00 -0.45593999997E+02  0.45594000000E+02  0.51100000000E-03 0.  1.
         23    2    1    2    0    0  0.35527136788E-14  0.00000000000E+00  0.00000000000E+00  0.91188000000E+02  0.91188000000E+02 0.  0.
    9900012    2    3    3    0    0 -0.27578983483E+02  0.16124782361E+02 -0.18307676484E+02  0.54367082652E+02  0.39999996521E+02 0.  0.
         12    1    3    3    0    0  0.27578983483E+02 -0.16124782361E+02  0.18307676484E+02  0.36820917348E+02  0.00000000000E+00 0. -1.
         11    1    4    4    0    0  0.54886278386E+01  0.14179359873E+02 -0.13534986705E+02  0.20356206604E+02  0.51100000000E-03 0. -1.
        -11    1    4    4    0    0 -0.14633517160E+02  0.27290753719E+00  0.86483667605E+00  0.14661590833E+02  0.51100000000E-03 0.  1.
        -12    1    4    4    0    0 -0.18434094161E+02  0.16725149508E+01 -0.56375264552E+01  0.19349285215E+02  0.00000000000E+00 0.  1.
</event>
<event>
 8    1  0.3011071E-007  0.9118800E+02  0.7816164E-02  0.1184000E+00
        -11   -1    0    0    0    0  0.00000000000E+00  0.00000000000E+00  0.45593999997E+02  0.45594000000E+02  0.51100000000E-03 0.  1.
         11   -1    0    0    0    0 -0.00000000000E+00 -0.00000000000E+00 -0.45593999997E+02  0.45594000000E+02  0.51100000000E-03 0. -1.
         23    2    1    2    0    0  0.00000000000E+00  0.00000000000E+00  0.00000000000E+00  0.91188000000E+02  0.91188000000E+02 0.  0.
    9900012    2    3    3    0    0  0.23023995579E+02 -0.22131013787E+02 -0.18327406904E+02  0.54367082202E+02  0.39999995497E+02 0.  0.
        -12    1    3    3    0    0 -0.23023995579E+02  0.22131013787E+02  0.18327406904E+02  0.36820917798E+02  0.00000000000E+00 0.  1.
         11    1    4    4    0    0  0.62873128876E+01  0.41614770620E+01 -0.11561646001E+02  0.13802892928E+02  0.51100000000E-03 0. -1.
        -11    1    4    4    0    0  0.21727886231E+02 -0.15867099051E+02  0.50405774635E+00  0.26909476896E+02  0.51100000000E-03 0.  1.
        -12    1    4    4    0    0 -0.49912035400E+01 -0.10425391798E+02 -0.72698186494E+01  0.13654712378E+02  0.00000000000E+00 0.  1.
</event>
<event>
 8    1  0.3011071E-007  0.9118800E+02  0.7816164E-02  0.1184000E+00
        -11   -1    0    0    0    0  0.00000000000E+00  0.00000000000E+00  0.45593999997E+02  0.45594000000E+02  0.51100000000E-03 0.  1.
         11   -1    0    0    0    0 -0.00000000000E+00 -0.00000000000E+00 -0.45593999997E+02  0.45594000000E+02  0.51100000000E-03 0. -1.
         23    2    1    2    0    0  0.35527136788E-14  0.71054273576E-14 -0.17763568394E-14  0.91188000000E+02  0.91188000000E+02 0.  0.
    9900012    2    3    3    0    0 -0.27498466662E+02 -0.23844535826E+02  0.55724420044E+01  0.54367086548E+02  0.40000005404E+02 0.  0.
        -12    1    3    3    0    0  0.27498466662E+02  0.23844535826E+02 -0.55724420044E+01  0.36820913452E+02  0.00000000000E+00 0.  1.
         11    1    4    4    0    0 -0.16177513313E+02 -0.32355268605E+02  0.24063762767E+01  0.36254185835E+02  0.51100000000E-03 0. -1.
        -11    1    4    4    0    0 -0.35739778566E+00  0.32818484952E+01  0.48325236019E+01  0.58524821526E+01  0.51100000000E-03 0.  1.
        -12    1    4    4    0    0 -0.10963555563E+02  0.52288842840E+01 -0.16664578741E+01  0.12260418561E+02  0.00000000000E+00 0.  1.
</event>
<event>
 8    1  0.3011071E-007  0.9118800E+02  0.7816164E-02  0.1184000E+00
        -11   -1    0    0    0    0  0.00000000000E+00  0.00000000000E+00  0.45593999997E+02  0.45594000000E+02  0.51100000000E-03 0.  1.
         11   -1    0    0    0    0 -0.00000000000E+00 -0.00000000000E+00 -0.45593999997E+02  0.45594000000E+02  0.51100000000E-03 0. -1.
         23    2    1    2    0    0  0.35527136788E-14  0.88817841970E-15  0.00000000000E+00  0.91188000000E+02  0.91188000000E+02 0.  0.
    9900012    2    3    3    0    0  0.30719574486E+02 -0.50429223394E+01  0.19663570130E+02  0.54367091367E+02  0.40000016389E+02 0.  0.
         12    1    3    3    0    0 -0.30719574486E+02  0.50429223394E+01 -0.19663570130E+02  0.36820908633E+02  0.00000000000E+00 0. -1.
         11    1    4    4    0    0  0.19240269039E+01  0.12623141840E+02 -0.32240769244E+01  0.13169672043E+02  0.51100000000E-03 0. -1.
        -11    1    4    4    0    0  0.22238606480E+02 -0.12187986967E+02  0.19566557472E+02  0.32030498218E+02  0.51100000000E-03 0.  1.
         12    1    4    4    0    0  0.65569411013E+01 -0.54780772125E+01  0.33210895824E+01  0.91669211061E+01  0.00000000000E+00 0. -1.
</event>
<event>
 8    1  0.3011071E-007  0.9118800E+02  0.7816164E-02  0.1184000E+00
        -11   -1    0    0    0    0  0.00000000000E+00  0.00000000000E+00  0.45593999997E+02  0.45594000000E+02  0.51100000000E-03 0.  1.
         11   -1    0    0    0    0 -0.00000000000E+00 -0.00000000000E+00 -0.45593999997E+02  0.45594000000E+02  0.51100000000E-03 0. -1.
         23    2    1    2    0    0  0.35527136788E-14 -0.17763568394E-14  0.35527136788E-14  0.91188000000E+02  0.91188000000E+02 0.  0.
    9900012    2    3    3    0    0  0.14939689655E+02 -0.10929301241E+02  0.31829793824E+02  0.54367085733E+02  0.40000003545E+02 0.  0.
         12    1    3    3    0    0 -0.14939689655E+02  0.10929301241E+02 -0.31829793824E+02  0.36820914267E+02  0.00000000000E+00 0. -1.
         11    1    4    4    0    0 -0.12069632193E+01 -0.49279413389E+01 -0.10385845699E+01  0.51788052891E+01  0.51100000000E-03 0. -1.
        -11    1    4    4    0    0 -0.27756713138E+01  0.22619674390E+01  0.27663731162E+02  0.27894495335E+02  0.51100000000E-03 0.  1.
         12    1    4    4    0    0  0.18922324188E+02 -0.82633273414E+01  0.52046472313E+01  0.21293785108E+02  0.00000000000E+00 0. -1.
</event>
<event>
 8    1  0.3011071E-007  0.9118800E+02  0.7816164E-02  0.1184000E+00
        -11   -1    0    0    0    0  0.00000000000E+00  0.00000000000E+00  0.45593999997E+02  0.45594000000E+02  0.51100000000E-03 0. -1.
         11   -1    0    0    0    0 -0.00000000000E+00 -0.00000000000E+00 -0.45593999997E+02  0.45594000000E+02  0.51100000000E-03 0.  1.
         23    2    1    2    0    0  0.00000000000E+00  0.00000000000E+00  0.00000000000E+00  0.91188000000E+02  0.91188000000E+02 0.  0.
    9900012    2    3    3    0    0  0.83816501738E+01  0.60634763983E+01 -0.35337827063E+02  0.54367084378E+02  0.40000000457E+02 0.  0.
         12    1    3    3    0    0 -0.83816501738E+01 -0.60634763983E+01  0.35337827063E+02  0.36820915622E+02  0.00000000000E+00 0. -1.
         11    1    4    4    0    0  0.72995722968E+01  0.20513536036E+02 -0.11756164464E+02  0.24744622033E+02  0.51100000000E-03 0. -1.
        -11    1    4    4    0    0  0.40488208450E+01 -0.54241950803E+01 -0.40118960410E+01  0.78683004905E+01  0.51100000000E-03 0.  1.
        -12    1    4    4    0    0 -0.29667429679E+01 -0.90258645570E+01 -0.19569766559E+02  0.21754161855E+02  0.00000000000E+00 0.  1.
</event>
<event>
 8    1  0.3011071E-007  0.9118800E+02  0.7816164E-02  0.1184000E+00
        -11   -1    0    0    0    0  0.00000000000E+00  0.00000000000E+00  0.45593999997E+02  0.45594000000E+02  0.51100000000E-03 0. -1.
         11   -1    0    0    0    0 -0.00000000000E+00 -0.00000000000E+00 -0.45593999997E+02  0.45594000000E+02  0.51100000000E-03 0.  1.
         23    2    1    2    0    0  0.35527136788E-14  0.00000000000E+00  0.00000000000E+00  0.91188000000E+02  0.91188000000E+02 0.  0.
    9900012    2    3    3    0    0  0.22643991562E+02  0.27126585379E+02  0.10352677399E+02  0.54367083152E+02  0.39999997662E+02 0.  0.
        -12    1    3    3    0    0 -0.22643991562E+02 -0.27126585379E+02 -0.10352677399E+02  0.36820916848E+02  0.00000000000E+00 0.  1.
         11    1    4    4    0    0  0.83617215120E+01 -0.46237187216E+01  0.23059515860E+01  0.98292713076E+01  0.51100000000E-03 0.  1.
        -11    1    4    4    0    0  0.18434204140E+01 -0.45353193117E+01 -0.12831518764E+01  0.50610077140E+01  0.51100000000E-03 0. -1.
         12    1    4    4    0    0  0.12438849636E+02  0.36285623412E+02  0.93298776897E+01  0.39476804131E+02  0.00000000000E+00 0. -1.
</event>
<event>
 8    1  0.3011071E-007  0.9118800E+02  0.7816164E-02  0.1184000E+00
        -11   -1    0    0    0    0  0.00000000000E+00  0.00000000000E+00  0.45593999997E+02  0.45594000000E+02  0.51100000000E-03 0. -1.
         11   -1    0    0    0    0 -0.00000000000E+00 -0.00000000000E+00 -0.45593999997E+02  0.45594000000E+02  0.51100000000E-03 0.  1.
         23    2    1    2    0    0  0.35527136788E-14  0.00000000000E+00  0.00000000000E+00  0.91188000000E+02  0.91188000000E+02 0.  0.
    9900012    2    3    3    0    0 -0.30334180483E+02  0.12726490987E+02 -0.16542529441E+02  0.54367063582E+02  0.39999953047E+02 0.  0.
         12    1    3    3    0    0  0.30334180483E+02 -0.12726490987E+02  0.16542529441E+02  0.36820936418E+02  0.00000000000E+00 0. -1.
         11    1    4    4    0    0 -0.32509464452E+01  0.18010606633E+02 -0.17797255367E+02  0.25528276537E+02  0.51100000000E-03 0. -1.
        -11    1    4    4    0    0 -0.14029450173E+02  0.10798677786E+01  0.23881657975E+01  0.14272173020E+02  0.51100000000E-03 0.  1.
        -12    1    4    4    0    0 -0.13053783864E+02 -0.63639834244E+01 -0.11334398719E+01  0.14566614024E+02  0.00000000000E+00 0.  1.
</event>
<event>
 8    1  0.3011071E-007  0.9118800E+02  0.7816164E-02  0.1184000E+00
        -11   -1    0    0    0    0  0.00000000000E+00  0.00000000000E+00  0.45593999997E+02  0.45594000000E+02  0.51100000000E-03 0. -1.
         11   -1    0    0    0    0 -0.00000000000E+00 -0.00000000000E+00 -0.45593999997E+02  0.45594000000E+02  0.51100000000E-03 0.  1.
         23    2    1    2    0    0  0.00000000000E+00  0.22204460493E-15  0.00000000000E+00  0.91188000000E+02  0.91188000000E+02 0.  0.
    9900012    2    3    3    0    0 -0.35427464265E+02 -0.18936659911E+01  0.98533303787E+01  0.54367091338E+02  0.40000016323E+02 0.  0.
        -12    1    3    3    0    0  0.35427464265E+02  0.18936659911E+01 -0.98533303787E+01  0.36820908662E+02  0.00000000000E+00 0.  1.
         11    1    4    4    0    0 -0.20400124291E+02  0.12674942421E+02  0.19698749271E+02  0.31062195022E+02  0.51100000000E-03 0. -1.
        -11    1    4    4    0    0 -0.99211755071E+01 -0.77067113249E+01 -0.61527600557E+01  0.13988551728E+02  0.51100000000E-03 0.  1.
        -12    1    4    4    0    0 -0.51061644669E+01 -0.68618970872E+01 -0.36926588367E+01  0.93163445880E+01  0.00000000000E+00 0.  1.
</event>
<event>
 8    1  0.3011071E-007  0.9118800E+02  0.7816164E-02  0.1184000E+00
        -11   -1    0    0    0    0  0.00000000000E+00  0.00000000000E+00  0.45593999997E+02  0.45594000000E+02  0.51100000000E-03 0.  1.
         11   -1    0    0    0    0 -0.00000000000E+00 -0.00000000000E+00 -0.45593999997E+02  0.45594000000E+02  0.51100000000E-03 0. -1.
         23    2    1    2    0    0  0.00000000000E+00  0.00000000000E+00 -0.17763568394E-14  0.91188000000E+02  0.91188000000E+02 0.  0.
    9900012    2    3    3    0    0 -0.18065438035E+02  0.28440370432E+02 -0.14851456974E+02  0.54367075298E+02  0.39999979756E+02 0.  0.
        -12    1    3    3    0    0  0.18065438035E+02 -0.28440370432E+02  0.14851456974E+02  0.36820924702E+02  0.00000000000E+00 0.  1.
         11    1    4    4    0    0  0.43095416418E+01 -0.30622421010E+01 -0.35105174956E+01  0.63461176474E+01  0.51100000000E-03 0. -1.
        -11    1    4    4    0    0 -0.57637428127E+01  0.67217301910E+01 -0.15547956718E+02  0.17892494134E+02  0.51100000000E-03 0.  1.
         12    1    4    4    0    0 -0.16611236864E+02  0.24780882342E+02  0.42070172394E+01  0.30128463516E+02  0.00000000000E+00 0. -1.
</event>
<event>
 8    1  0.3011071E-007  0.9118800E+02  0.7816164E-02  0.1184000E+00
        -11   -1    0    0    0    0  0.00000000000E+00  0.00000000000E+00  0.45593999997E+02  0.45594000000E+02  0.51100000000E-03 0.  1.
         11   -1    0    0    0    0 -0.00000000000E+00 -0.00000000000E+00 -0.45593999997E+02  0.45594000000E+02  0.51100000000E-03 0. -1.
         23    2    1    2    0    0 -0.35527136788E-14  0.00000000000E+00  0.88817841970E-15  0.91188000000E+02  0.91188000000E+02 0.  0.
    9900012    2    3    3    0    0  0.97155847270E+01 -0.34607187403E+02  0.79831638542E+01  0.54367069653E+02  0.39999966887E+02 0.  0.
         12    1    3    3    0    0 -0.97155847270E+01  0.34607187403E+02 -0.79831638542E+01  0.36820930347E+02  0.00000000000E+00 0. -1.
         11    1    4    4    0    0  0.17090106490E+02 -0.17259160516E+02  0.11512430513E+02  0.26879107465E+02  0.51100000000E-03 0. -1.
        -11    1    4    4    0    0 -0.49627716760E+01 -0.16123839495E+02  0.57494293465E+01  0.17823109741E+02  0.51100000000E-03 0.  1.
         12    1    4    4    0    0 -0.24117500865E+01 -0.12241873919E+01 -0.92786960056E+01  0.96648524466E+01  0.00000000000E+00 0. -1.
</event>
<event>
 8    1  0.3011071E-007  0.9118800E+02  0.7816164E-02  0.1184000E+00
        -11   -1    0    0    0    0  0.00000000000E+00  0.00000000000E+00  0.45593999997E+02  0.45594000000E+02  0.51100000000E-03 0.  1.
         11   -1    0    0    0    0 -0.00000000000E+00 -0.00000000000E+00 -0.45593999997E+02  0.45594000000E+02  0.51100000000E-03 0. -1.
         23    2    1    2    0    0  0.35527136788E-14  0.00000000000E+00  0.00000000000E+00  0.91188000000E+02  0.91188000000E+02 0.  0.
    9900012    2    3    3    0    0  0.30644056699E+02 -0.17731873185E+02 -0.10114449038E+02  0.54367087234E+02  0.40000006967E+02 0.  0.
         12    1    3    3    0    0 -0.30644056699E+02  0.17731873185E+02  0.10114449038E+02  0.36820912766E+02  0.00000000000E+00 0. -1.
         11    1    4    4    0    0  0.10792179121E+02 -0.25197373505E+02 -0.72558672436E+01  0.28355358778E+02  0.51100000000E-03 0. -1.
        -11    1    4    4    0    0  0.11649011241E+01  0.49052784611E+01  0.34658812658E+01  0.61180948521E+01  0.51100000000E-03 0.  1.
         12    1    4    4    0    0  0.18686976454E+02  0.25602218591E+01 -0.63244630603E+01  0.19893633603E+02  0.00000000000E+00 0. -1.
</event>
<event>
 8    1  0.3011071E-007  0.9118800E+02  0.7816164E-02  0.1184000E+00
        -11   -1    0    0    0    0  0.00000000000E+00  0.00000000000E+00  0.45593999997E+02  0.45594000000E+02  0.51100000000E-03 0.  1.
         11   -1    0    0    0    0 -0.00000000000E+00 -0.00000000000E+00 -0.45593999997E+02  0.45594000000E+02  0.51100000000E-03 0. -1.
         23    2    1    2    0    0 -0.35527136788E-14  0.17763568394E-14 -0.35527136788E-14  0.91188000000E+02  0.91188000000E+02 0.  0.
    9900012    2    3    3    0    0 -0.22439832136E+02  0.11125042324E+02 -0.26990132986E+02  0.54367083233E+02  0.39999997846E+02 0.  0.
        -12    1    3    3    0    0  0.22439832136E+02 -0.11125042324E+02  0.26990132986E+02  0.36820916767E+02  0.00000000000E+00 0.  1.
         11    1    4    4    0    0 -0.23015356008E+02  0.20934545414E+02 -0.18524268060E+02  0.36209257260E+02  0.51100000000E-03 0. -1.
        -11    1    4    4    0    0  0.36061122373E+01 -0.53853473930E+01  0.16681202011E+01  0.66924313428E+01  0.51100000000E-03 0.  1.
        -12    1    4    4    0    0 -0.30305883647E+01 -0.44241556973E+01 -0.10133985127E+02  0.11465394630E+02  0.00000000000E+00 0.  1.
</event>
<event>
 8    1  0.3011071E-007  0.9118800E+02  0.7816164E-02  0.1184000E+00
        -11   -1    0    0    0    0  0.00000000000E+00  0.00000000000E+00  0.45593999997E+02  0.45594000000E+02  0.51100000000E-03 0. -1.
         11   -1    0    0    0    0 -0.00000000000E+00 -0.00000000000E+00 -0.45593999997E+02  0.45594000000E+02  0.51100000000E-03 0.  1.
         23    2    1    2    0    0  0.35527136788E-14 -0.35527136788E-14 -0.44408920985E-15  0.91188000000E+02  0.91188000000E+02 0.  0.
    9900012    2    3    3    0    0  0.24173446488E+02 -0.27712318083E+02 -0.18574241637E+01  0.54367107654E+02  0.40000053519E+02 0.  0.
         12    1    3    3    0    0 -0.24173446488E+02  0.27712318083E+02  0.18574241637E+01  0.36820892346E+02  0.00000000000E+00 0. -1.
         11    1    4    4    0    0  0.14334445044E+02  0.85649674026E+00 -0.88161963472E+01  0.16850377435E+02  0.51100000000E-03 0.  1.
        -11    1    4    4    0    0  0.68016569665E+01 -0.30162838173E+02  0.13592508869E+01  0.30950071201E+02  0.51100000000E-03 0. -1.
        -12    1    4    4    0    0  0.30373444771E+01  0.15940233494E+01  0.55995212966E+01  0.65666590182E+01  0.00000000000E+00 0.  1.
</event>
<event>
 8    1  0.3011071E-007  0.9118800E+02  0.7816164E-02  0.1184000E+00
        -11   -1    0    0    0    0  0.00000000000E+00  0.00000000000E+00  0.45593999997E+02  0.45594000000E+02  0.51100000000E-03 0. -1.
         11   -1    0    0    0    0 -0.00000000000E+00 -0.00000000000E+00 -0.45593999997E+02  0.45594000000E+02  0.51100000000E-03 0.  1.
         23    2    1    2    0    0  0.00000000000E+00  0.00000000000E+00  0.00000000000E+00  0.91188000000E+02  0.91188000000E+02 0.  0.
    9900012    2    3    3    0    0 -0.11742721084E+02 -0.64102366921E+01 -0.34304468881E+02  0.54367092649E+02  0.40000019312E+02 0.  0.
         12    1    3    3    0    0  0.11742721084E+02  0.64102366921E+01  0.34304468881E+02  0.36820907351E+02  0.00000000000E+00 0. -1.
         11    1    4    4    0    0 -0.15081319748E+02 -0.69501691493E+01 -0.47542793518E+01  0.17272933421E+02  0.51100000000E-03 0. -1.
        -11    1    4    4    0    0  0.17133258944E+01  0.61220802085E+01  0.60275955100E+00  0.63858179615E+01  0.51100000000E-03 0.  1.
        -12    1    4    4    0    0  0.16252727692E+01 -0.55821477513E+01 -0.30152949081E+02  0.30708341267E+02  0.00000000000E+00 0.  1.
</event>
<event>
 8    1  0.3011071E-007  0.9118800E+02  0.7816164E-02  0.1184000E+00
        -11   -1    0    0    0    0  0.00000000000E+00  0.00000000000E+00  0.45593999997E+02  0.45594000000E+02  0.51100000000E-03 0.  1.
         11   -1    0    0    0    0 -0.00000000000E+00 -0.00000000000E+00 -0.45593999997E+02  0.45594000000E+02  0.51100000000E-03 0. -1.
         23    2    1    2    0    0  0.44408920985E-15 -0.22204460493E-15  0.00000000000E+00  0.91188000000E+02  0.91188000000E+02 0.  0.
    9900012    2    3    3    0    0  0.10324625068E+01  0.11819151101E+01 -0.36787460339E+02  0.54367080126E+02  0.39999990764E+02 0.  0.
        -12    1    3    3    0    0 -0.10324625068E+01 -0.11819151101E+01  0.36787460339E+02  0.36820919874E+02  0.00000000000E+00 0.  1.
         11    1    4    4    0    0  0.11271467493E+02 -0.27693061632E+01  0.27943767507E+01  0.11938323909E+02  0.51100000000E-03 0. -1.
        -11    1    4    4    0    0 -0.10417875822E+02  0.14497244311E+01 -0.19192351431E+02  0.21885616081E+02  0.51100000000E-03 0.  1.
        -12    1    4    4    0    0  0.17887083586E+00  0.25014968423E+01 -0.20389485659E+02  0.20543140136E+02  0.00000000000E+00 0.  1.
</event>
<event>
 8    1  0.3011071E-007  0.9118800E+02  0.7816164E-02  0.1184000E+00
        -11   -1    0    0    0    0  0.00000000000E+00  0.00000000000E+00  0.45593999997E+02  0.45594000000E+02  0.51100000000E-03 0. -1.
         11   -1    0    0    0    0 -0.00000000000E+00 -0.00000000000E+00 -0.45593999997E+02  0.45594000000E+02  0.51100000000E-03 0.  1.
         23    2    1    2    0    0  0.00000000000E+00  0.00000000000E+00  0.35527136788E-14  0.91188000000E+02  0.91188000000E+02 0.  0.
    9900012    2    3    3    0    0 -0.17915084854E+02 -0.19894901463E+02 -0.25278905390E+02  0.54367076230E+02  0.39999981882E+02 0.  0.
         12    1    3    3    0    0  0.17915084854E+02  0.19894901463E+02  0.25278905390E+02  0.36820923770E+02  0.00000000000E+00 0. -1.
         11    1    4    4    0    0 -0.95546058363E+01 -0.18545022311E+02 -0.16371099039E+01  0.20925784914E+02  0.51100000000E-03 0. -1.
        -11    1    4    4    0    0  0.15036246282E+01 -0.78498640763E+01 -0.19241080716E+02  0.20835077164E+02  0.51100000000E-03 0.  1.
        -12    1    4    4    0    0 -0.98641036464E+01  0.64999849236E+01 -0.44007147695E+01  0.12606214152E+02  0.00000000000E+00 0.  1.
</event>
<event>
 8    1  0.3011071E-007  0.9118800E+02  0.7816164E-02  0.1184000E+00
        -11   -1    0    0    0    0  0.00000000000E+00  0.00000000000E+00  0.45593999997E+02  0.45594000000E+02  0.51100000000E-03 0. -1.
         11   -1    0    0    0    0 -0.00000000000E+00 -0.00000000000E+00 -0.45593999997E+02  0.45594000000E+02  0.51100000000E-03 0.  1.
         23    2    1    2    0    0  0.00000000000E+00  0.00000000000E+00  0.00000000000E+00  0.91188000000E+02  0.91188000000E+02 0.  0.
    9900012    2    3    3    0    0  0.26073425876E+02 -0.10270946234E+02  0.23884436909E+02  0.54367052159E+02  0.39999927006E+02 0.  0.
        -12    1    3    3    0    0 -0.26073425876E+02  0.10270946234E+02 -0.23884436909E+02  0.36820947841E+02  0.00000000000E+00 0.  1.
         11    1    4    4    0    0 -0.61211087971E+00 -0.15671316130E+02  0.18690279672E+02  0.24398593883E+02  0.51100000000E-03 0. -1.
        -11    1    4    4    0    0  0.16597609660E+02 -0.21478924659E+01  0.13247279344E+01  0.16788358848E+02  0.51100000000E-03 0.  1.
        -12    1    4    4    0    0  0.10087927096E+02  0.75482623621E+01  0.38694293026E+01  0.13180099427E+02  0.00000000000E+00 0.  1.
</event>
<event>
 8    1  0.3011071E-007  0.9118800E+02  0.7816164E-02  0.1184000E+00
        -11   -1    0    0    0    0  0.00000000000E+00  0.00000000000E+00  0.45593999997E+02  0.45594000000E+02  0.51100000000E-03 0. -1.
         11   -1    0    0    0    0 -0.00000000000E+00 -0.00000000000E+00 -0.45593999997E+02  0.45594000000E+02  0.51100000000E-03 0.  1.
         23    2    1    2    0    0  0.35527136788E-14  0.00000000000E+00  0.00000000000E+00  0.91188000000E+02  0.91188000000E+02 0.  0.
    9900012    2    3    3    0    0 -0.28950499372E+02 -0.16007814641E+02 -0.16167773825E+02  0.54367103027E+02  0.40000042970E+02 0.  0.
        -12    1    3    3    0    0  0.28950499372E+02  0.16007814641E+02  0.16167773825E+02  0.36820896973E+02  0.00000000000E+00 0.  1.
         11    1    4    4    0    0 -0.22724759624E+02 -0.36319247871E+01 -0.15483068264E+02  0.27736816341E+02  0.51100000000E-03 0. -1.
        -11    1    4    4    0    0 -0.34370140812E+01 -0.59138872066E+01 -0.11703377877E+02  0.13555669725E+02  0.51100000000E-03 0.  1.
         12    1    4    4    0    0 -0.27887256669E+01 -0.64620026469E+01  0.11018672317E+02  0.13074616961E+02  0.00000000000E+00 0. -1.
</event>
<event>
 8    1  0.3011071E-007  0.9118800E+02  0.7816164E-02  0.1184000E+00
        -11   -1    0    0    0    0  0.00000000000E+00  0.00000000000E+00  0.45593999997E+02  0.45594000000E+02  0.51100000000E-03 0. -1.
         11   -1    0    0    0    0 -0.00000000000E+00 -0.00000000000E+00 -0.45593999997E+02  0.45594000000E+02  0.51100000000E-03 0.  1.
         23    2    1    2    0    0 -0.35527136788E-14 -0.17763568394E-14 -0.35527136788E-14  0.91188000000E+02  0.91188000000E+02 0.  0.
    9900012    2    3    3    0    0  0.24237898896E+02  0.10608582333E+02  0.25607813952E+02  0.54367110584E+02  0.40000060198E+02 0.  0.
        -12    1    3    3    0    0 -0.24237898896E+02 -0.10608582333E+02 -0.25607813952E+02  0.36820889416E+02  0.00000000000E+00 0.  1.
         11    1    4    4    0    0 -0.78952330067E-01  0.18581420994E+01 -0.48925902204E+01  0.52341536907E+01  0.51100000000E-03 0. -1.
        -11    1    4    4    0    0  0.29057738845E+02  0.12746510659E+02  0.21998874134E+02  0.38610570887E+02  0.51100000000E-03 0.  1.
         12    1    4    4    0    0 -0.47408876195E+01 -0.39960704261E+01  0.85015300381E+01  0.10522386006E+02  0.00000000000E+00 0. -1.
</event>
<event>
 8    1  0.3011071E-007  0.9118800E+02  0.7816164E-02  0.1184000E+00
        -11   -1    0    0    0    0  0.00000000000E+00  0.00000000000E+00  0.45593999997E+02  0.45594000000E+02  0.51100000000E-03 0.  1.
         11   -1    0    0    0    0 -0.00000000000E+00 -0.00000000000E+00 -0.45593999997E+02  0.45594000000E+02  0.51100000000E-03 0. -1.
         23    2    1    2    0    0  0.17763568394E-14  0.00000000000E+00  0.00000000000E+00  0.91188000000E+02  0.91188000000E+02 0.  0.
    9900012    2    3    3    0    0 -0.10994981609E+02  0.14481764636E+02  0.32018271220E+02  0.54367070904E+02  0.39999969740E+02 0.  0.
         12    1    3    3    0    0  0.10994981609E+02 -0.14481764636E+02 -0.32018271220E+02  0.36820929096E+02  0.00000000000E+00 0. -1.
         11    1    4    4    0    0  0.13140612725E+02 -0.11411444552E+01  0.53049587127E+01  0.14216908970E+02  0.51100000000E-03 0. -1.
        -11    1    4    4    0    0 -0.12260537264E+02  0.59774574017E+01  0.17865138146E+02  0.22476964480E+02  0.51100000000E-03 0.  1.
         12    1    4    4    0    0 -0.11875057070E+02  0.96454516893E+01  0.88481743612E+01  0.17673197454E+02  0.00000000000E+00 0. -1.
</event>
<event>
 8    1  0.3011071E-007  0.9118800E+02  0.7816164E-02  0.1184000E+00
        -11   -1    0    0    0    0  0.00000000000E+00  0.00000000000E+00  0.45593999997E+02  0.45594000000E+02  0.51100000000E-03 0. -1.
         11   -1    0    0    0    0 -0.00000000000E+00 -0.00000000000E+00 -0.45593999997E+02  0.45594000000E+02  0.51100000000E-03 0.  1.
         23    2    1    2    0    0  0.00000000000E+00  0.00000000000E+00  0.00000000000E+00  0.91188000000E+02  0.91188000000E+02 0.  0.
    9900012    2    3    3    0    0 -0.20055422465E+02  0.23147670245E+02 -0.20438781445E+02  0.54367103827E+02  0.40000044794E+02 0.  0.
         12    1    3    3    0    0  0.20055422465E+02 -0.23147670245E+02  0.20438781445E+02  0.36820896173E+02  0.00000000000E+00 0. -1.
         11    1    4    4    0    0 -0.14368853393E+02  0.20517300580E+02 -0.11169276045E+02  0.27425832686E+02  0.51100000000E-03 0.  1.
        -11    1    4    4    0    0 -0.33653683148E+01 -0.10981656198E+02 -0.43836547493E+01  0.12293856432E+02  0.51100000000E-03 0. -1.
         12    1    4    4    0    0 -0.23212007579E+01  0.13612025863E+02 -0.48858506507E+01  0.14647414708E+02  0.00000000000E+00 0. -1.
</event>
<event>
 8    1  0.3011071E-007  0.9118800E+02  0.7816164E-02  0.1184000E+00
        -11   -1    0    0    0    0  0.00000000000E+00  0.00000000000E+00  0.45593999997E+02  0.45594000000E+02  0.51100000000E-03 0. -1.
         11   -1    0    0    0    0 -0.00000000000E+00 -0.00000000000E+00 -0.45593999997E+02  0.45594000000E+02  0.51100000000E-03 0.  1.
         23    2    1    2    0    0  0.35527136788E-14  0.17763568394E-14 -0.71054273576E-14  0.91188000000E+02  0.91188000000E+02 0.  0.
    9900012    2    3    3    0    0  0.62266581779E+01 -0.11725941182E+02  0.34344014031E+02  0.54367078388E+02  0.39999986800E+02 0.  0.
        -12    1    3    3    0    0 -0.62266581779E+01  0.11725941182E+02 -0.34344014031E+02  0.36820921612E+02  0.00000000000E+00 0.  1.
         11    1    4    4    0    0 -0.96277554385E+01 -0.13018385900E+02  0.19882605695E+01  0.16313345046E+02  0.51100000000E-03 0. -1.
        -11    1    4    4    0    0 -0.10494688677E+01 -0.50765065282E+00  0.94892884024E+01  0.95606322350E+01  0.51100000000E-03 0.  1.
        -12    1    4    4    0    0  0.16903882484E+02  0.18000953716E+01  0.22866465059E+02  0.28493101107E+02  0.00000000000E+00 0.  1.
</event>
<event>
 8    1  0.3011071E-007  0.9118800E+02  0.7816164E-02  0.1184000E+00
        -11   -1    0    0    0    0  0.00000000000E+00  0.00000000000E+00  0.45593999997E+02  0.45594000000E+02  0.51100000000E-03 0.  1.
         11   -1    0    0    0    0 -0.00000000000E+00 -0.00000000000E+00 -0.45593999997E+02  0.45594000000E+02  0.51100000000E-03 0. -1.
         23    2    1    2    0    0 -0.35527136788E-14  0.35527136788E-14 -0.17763568394E-14  0.91188000000E+02  0.91188000000E+02 0.  0.
    9900012    2    3    3    0    0  0.30406713325E+02 -0.17669865627E+02  0.10908123961E+02  0.54367088348E+02  0.40000009508E+02 0.  0.
        -12    1    3    3    0    0 -0.30406713325E+02  0.17669865627E+02 -0.10908123961E+02  0.36820911652E+02  0.00000000000E+00 0.  1.
         11    1    4    4    0    0  0.13673369352E+02  0.27524939082E+01 -0.62901193936E+01  0.15300420072E+02  0.51100000000E-03 0. -1.
        -11    1    4    4    0    0  0.15104435363E+02 -0.25403754089E+02  0.12731607547E+02  0.32180561220E+02  0.51100000000E-03 0.  1.
         12    1    4    4    0    0  0.16289086099E+01  0.49813945531E+01  0.44666358076E+01  0.68861070563E+01  0.00000000000E+00 0. -1.
</event>
<event>
 8    1  0.3011071E-007  0.9118800E+02  0.7816164E-02  0.1184000E+00
        -11   -1    0    0    0    0  0.00000000000E+00  0.00000000000E+00  0.45593999997E+02  0.45594000000E+02  0.51100000000E-03 0.  1.
         11   -1    0    0    0    0 -0.00000000000E+00 -0.00000000000E+00 -0.45593999997E+02  0.45594000000E+02  0.51100000000E-03 0. -1.
         23    2    1    2    0    0  0.00000000000E+00  0.00000000000E+00  0.00000000000E+00  0.91188000000E+02  0.91188000000E+02 0.  0.
    9900012    2    3    3    0    0  0.45001441958E+01 -0.36309857804E+02  0.41379737999E+01  0.54367083408E+02  0.39999998245E+02 0.  0.
        -12    1    3    3    0    0 -0.45001441958E+01  0.36309857804E+02 -0.41379737999E+01  0.36820916592E+02  0.00000000000E+00 0.  1.
         11    1    4    4    0    0  0.10787001288E+02  0.71168561062E+00 -0.26936333986E+01  0.11140985340E+02  0.51100000000E-03 0. -1.
        -11    1    4    4    0    0  0.68071385518E+01 -0.80255904024E+01  0.40983786522E+01  0.11293535514E+02  0.51100000000E-03 0.  1.
         12    1    4    4    0    0 -0.13093995644E+02 -0.28995953012E+02  0.27332285464E+01  0.31932562554E+02  0.00000000000E+00 0. -1.
</event>
<event>
 8    1  0.3011071E-007  0.9118800E+02  0.7816164E-02  0.1184000E+00
        -11   -1    0    0    0    0  0.00000000000E+00  0.00000000000E+00  0.45593999997E+02  0.45594000000E+02  0.51100000000E-03 0. -1.
         11   -1    0    0    0    0 -0.00000000000E+00 -0.00000000000E+00 -0.45593999997E+02  0.45594000000E+02  0.51100000000E-03 0.  1.
         23    2    1    2    0    0  0.00000000000E+00 -0.66613381478E-15 -0.17763568394E-14  0.91188000000E+02  0.91188000000E+02 0.  0.
    9900012    2    3    3    0    0 -0.33130772565E+02 -0.15509551777E+01 -0.15991504177E+02  0.54367058152E+02  0.39999940670E+02 0.  0.
         12    1    3    3    0    0  0.33130772565E+02  0.15509551777E+01  0.15991504177E+02  0.36820941848E+02  0.00000000000E+00 0. -1.
         11    1    4    4    0    0 -0.22084808016E+02 -0.10941128066E+02  0.34080032896E+01  0.24880946830E+02  0.51100000000E-03 0.  1.
        -11    1    4    4    0    0 -0.10097938553E+01 -0.12845785041E+01  0.25900249979E+01  0.30623610686E+01  0.51100000000E-03 0. -1.
        -12    1    4    4    0    0 -0.10036170694E+02  0.10674751393E+02 -0.21989532464E+02  0.26423750254E+02  0.00000000000E+00 0.  1.
</event>
<event>
 8    1  0.3011071E-007  0.9118800E+02  0.7816164E-02  0.1184000E+00
        -11   -1    0    0    0    0  0.00000000000E+00  0.00000000000E+00  0.45593999997E+02  0.45594000000E+02  0.51100000000E-03 0.  1.
         11   -1    0    0    0    0 -0.00000000000E+00 -0.00000000000E+00 -0.45593999997E+02  0.45594000000E+02  0.51100000000E-03 0. -1.
         23    2    1    2    0    0  0.35527136788E-14 -0.35527136788E-14 -0.35527136788E-14  0.91188000000E+02  0.91188000000E+02 0.  0.
    9900012    2    3    3    0    0  0.17226672788E+02 -0.26134201574E+02 -0.19391379006E+02  0.54367077592E+02  0.39999984986E+02 0.  0.
         12    1    3    3    0    0 -0.17226672788E+02  0.26134201574E+02  0.19391379006E+02  0.36820922408E+02  0.00000000000E+00 0. -1.
         11    1    4    4    0    0  0.24374570073E+02 -0.10268481191E+02 -0.14082003095E+02  0.29964381917E+02  0.51100000000E-03 0. -1.
        -11    1    4    4    0    0 -0.76481469084E+01 -0.20392257358E+01  0.27638284077E+01  0.83839931097E+01  0.51100000000E-03 0.  1.
         12    1    4    4    0    0  0.50024962293E+00 -0.13826494647E+02 -0.80732043192E+01  0.16018702565E+02  0.00000000000E+00 0. -1.
</event>
<event>
 8    1  0.3011071E-007  0.9118800E+02  0.7816164E-02  0.1184000E+00
        -11   -1    0    0    0    0  0.00000000000E+00  0.00000000000E+00  0.45593999997E+02  0.45594000000E+02  0.51100000000E-03 0. -1.
         11   -1    0    0    0    0 -0.00000000000E+00 -0.00000000000E+00 -0.45593999997E+02  0.45594000000E+02  0.51100000000E-03 0.  1.
         23    2    1    2    0    0  0.00000000000E+00  0.17763568394E-14  0.00000000000E+00  0.91188000000E+02  0.91188000000E+02 0.  0.
    9900012    2    3    3    0    0 -0.17862882303E+02 -0.13515461236E+02 -0.29223779537E+02  0.54367088184E+02  0.40000009132E+02 0.  0.
         12    1    3    3    0    0  0.17862882303E+02  0.13515461236E+02  0.29223779537E+02  0.36820911816E+02  0.00000000000E+00 0. -1.
         11    1    4    4    0    0 -0.42585603153E+01 -0.18348932349E+02 -0.21572800976E+02  0.28639210822E+02  0.51100000000E-03 0. -1.
        -11    1    4    4    0    0 -0.16817527967E+02  0.44780212910E+01 -0.11379026564E+02  0.20793368352E+02  0.51100000000E-03 0.  1.
         12    1    4    4    0    0  0.32132059793E+01  0.35544982217E+00  0.37280480040E+01  0.49345090092E+01  0.00000000000E+00 0. -1.
</event>
<event>
 8    1  0.3011071E-007  0.9118800E+02  0.7816164E-02  0.1184000E+00
        -11   -1    0    0    0    0  0.00000000000E+00  0.00000000000E+00  0.45593999997E+02  0.45594000000E+02  0.51100000000E-03 0.  1.
         11   -1    0    0    0    0 -0.00000000000E+00 -0.00000000000E+00 -0.45593999997E+02  0.45594000000E+02  0.51100000000E-03 0. -1.
         23    2    1    2    0    0  0.44408920985E-15  0.00000000000E+00 -0.71054273576E-14  0.91188000000E+02  0.91188000000E+02 0.  0.
    9900012    2    3    3    0    0 -0.25227796840E+01  0.13376520237E+02 -0.34212339798E+02  0.54367083317E+02  0.39999998037E+02 0.  0.
        -12    1    3    3    0    0  0.25227796840E+01 -0.13376520237E+02  0.34212339798E+02  0.36820916683E+02  0.00000000000E+00 0.  1.
         11    1    4    4    0    0  0.12590264668E+01 -0.31855642836E+01  0.83125527754E+00  0.35247628355E+01  0.51100000000E-03 0.  1.
        -11    1    4    4    0    0 -0.60914377238E+01  0.14513806691E+02 -0.41118386567E+02  0.44028149091E+02  0.51100000000E-03 0. -1.
         12    1    4    4    0    0  0.23096315730E+01  0.20482778290E+01  0.60747914918E+01  0.68141713903E+01  0.00000000000E+00 0. -1.
</event>
<event>
 8    1  0.3011071E-007  0.9118800E+02  0.7816164E-02  0.1184000E+00
        -11   -1    0    0    0    0  0.00000000000E+00  0.00000000000E+00  0.45593999997E+02  0.45594000000E+02  0.51100000000E-03 0.  1.
         11   -1    0    0    0    0 -0.00000000000E+00 -0.00000000000E+00 -0.45593999997E+02  0.45594000000E+02  0.51100000000E-03 0. -1.
         23    2    1    2    0    0  0.00000000000E+00  0.00000000000E+00  0.00000000000E+00  0.91188000000E+02  0.91188000000E+02 0.  0.
    9900012    2    3    3    0    0  0.27133940628E+02  0.24526542827E+02  0.42401090391E+01  0.54367074405E+02  0.39999977720E+02 0.  0.
        -12    1    3    3    0    0 -0.27133940628E+02 -0.24526542827E+02 -0.42401090391E+01  0.36820925595E+02  0.00000000000E+00 0.  1.
         11    1    4    4    0    0 -0.13460652310E+00 -0.10364187736E+01 -0.61972602601E+01  0.62847687136E+01  0.51100000000E-03 0. -1.
        -11    1    4    4    0    0 -0.30609521488E+01 -0.14453529163E+01  0.64383420679E+01  0.72739756636E+01  0.51100000000E-03 0.  1.
        -12    1    4    4    0    0  0.30329499300E+02  0.27008314517E+02  0.39990272313E+01  0.40808330027E+02  0.00000000000E+00 0.  1.
</event>
<event>
 8    1  0.3011071E-007  0.9118800E+02  0.7816164E-02  0.1184000E+00
        -11   -1    0    0    0    0  0.00000000000E+00  0.00000000000E+00  0.45593999997E+02  0.45594000000E+02  0.51100000000E-03 0. -1.
         11   -1    0    0    0    0 -0.00000000000E+00 -0.00000000000E+00 -0.45593999997E+02  0.45594000000E+02  0.51100000000E-03 0.  1.
         23    2    1    2    0    0 -0.17763568394E-14  0.00000000000E+00 -0.35527136788E-14  0.91188000000E+02  0.91188000000E+02 0.  0.
    9900012    2    3    3    0    0 -0.12411401173E+02  0.20389210198E+02 -0.28035996090E+02  0.54367084091E+02  0.39999999803E+02 0.  0.
         12    1    3    3    0    0  0.12411401173E+02 -0.20389210198E+02  0.28035996090E+02  0.36820915909E+02  0.00000000000E+00 0. -1.
         11    1    4    4    0    0  0.51648656119E+01 -0.13993325404E+01 -0.43382368579E+01  0.68887058033E+01  0.51100000000E-03 0. -1.
        -11    1    4    4    0    0 -0.96173847750E+01  0.35058796525E+01  0.58814942027E+01  0.11805814515E+02  0.51100000000E-03 0.  1.
        -12    1    4    4    0    0 -0.79588820102E+01  0.18282663086E+02 -0.29579253435E+02  0.35672563773E+02  0.00000000000E+00 0.  1.
</event>
<event>
 8    1  0.3011071E-007  0.9118800E+02  0.7816164E-02  0.1184000E+00
        -11   -1    0    0    0    0  0.00000000000E+00  0.00000000000E+00  0.45593999997E+02  0.45594000000E+02  0.51100000000E-03 0.  1.
         11   -1    0    0    0    0 -0.00000000000E+00 -0.00000000000E+00 -0.45593999997E+02  0.45594000000E+02  0.51100000000E-03 0. -1.
         23    2    1    2    0    0  0.58286708793E-15  0.00000000000E+00  0.71054273576E-14  0.91188000000E+02  0.91188000000E+02 0.  0.
    9900012    2    3    3    0    0  0.12771942275E+00  0.84078785537E+01 -0.35847885805E+02  0.54367086775E+02  0.40000005922E+02 0.  0.
        -12    1    3    3    0    0 -0.12771942275E+00 -0.84078785537E+01  0.35847885805E+02  0.36820913225E+02  0.00000000000E+00 0.  1.
         11    1    4    4    0    0  0.76288647424E+01 -0.60147779720E+01 -0.23769520757E+02  0.25678147296E+02  0.51100000000E-03 0. -1.
        -11    1    4    4    0    0 -0.75722210614E+01  0.14838146079E+02 -0.55509900037E-01  0.16658697202E+02  0.51100000000E-03 0.  1.
        -12    1    4    4    0    0  0.71075741823E-01 -0.41548955344E+00 -0.12022855148E+02  0.12030242277E+02  0.00000000000E+00 0.  1.
</event>
<event>
 8    1  0.3011071E-007  0.9118800E+02  0.7816164E-02  0.1184000E+00
        -11   -1    0    0    0    0  0.00000000000E+00  0.00000000000E+00  0.45593999997E+02  0.45594000000E+02  0.51100000000E-03 0. -1.
         11   -1    0    0    0    0 -0.00000000000E+00 -0.00000000000E+00 -0.45593999997E+02  0.45594000000E+02  0.51100000000E-03 0.  1.
         23    2    1    2    0    0  0.35527136788E-14  0.88817841970E-15  0.00000000000E+00  0.91188000000E+02  0.91188000000E+02 0.  0.
    9900012    2    3    3    0    0 -0.31830805942E+02  0.30899386583E+01 -0.18249162265E+02  0.54367084052E+02  0.39999999714E+02 0.  0.
         12    1    3    3    0    0  0.31830805942E+02 -0.30899386583E+01  0.18249162265E+02  0.36820915948E+02  0.00000000000E+00 0. -1.
         11    1    4    4    0    0  0.30683606408E+01 -0.99858846870E+01 -0.32408350583E+01  0.10937812493E+02  0.51100000000E-03 0. -1.
        -11    1    4    4    0    0 -0.21896713773E+02  0.24211708668E+01 -0.18993464246E+01  0.22111889551E+02  0.51100000000E-03 0.  1.
        -12    1    4    4    0    0 -0.13002452810E+02  0.10654652478E+02 -0.13108980782E+02  0.21317382008E+02  0.00000000000E+00 0.  1.
</event>
<event>
 8    1  0.3011071E-007  0.9118800E+02  0.7816164E-02  0.1184000E+00
        -11   -1    0    0    0    0  0.00000000000E+00  0.00000000000E+00  0.45593999997E+02  0.45594000000E+02  0.51100000000E-03 0.  1.
         11   -1    0    0    0    0 -0.00000000000E+00 -0.00000000000E+00 -0.45593999997E+02  0.45594000000E+02  0.51100000000E-03 0. -1.
         23    2    1    2    0    0  0.00000000000E+00 -0.35527136788E-14  0.17763568394E-14  0.91188000000E+02  0.91188000000E+02 0.  0.
    9900012    2    3    3    0    0  0.31065623271E+02  0.12515358479E+02  0.15299436969E+02  0.54367083136E+02  0.39999997626E+02 0.  0.
         12    1    3    3    0    0 -0.31065623271E+02 -0.12515358479E+02 -0.15299436969E+02  0.36820916864E+02  0.00000000000E+00 0. -1.
         11    1    4    4    0    0  0.21946203423E+02  0.27074961682E+02  0.10177017766E+02  0.36307865341E+02  0.51100000000E-03 0.  1.
        -11    1    4    4    0    0  0.31609067039E+01 -0.64039249850E+01  0.12954919181E+01  0.72580910697E+01  0.51100000000E-03 0. -1.
        -12    1    4    4    0    0  0.59585131445E+01 -0.81556782183E+01  0.38269272854E+01  0.10801126726E+02  0.00000000000E+00 0.  1.
</event>
<event>
 8    1  0.3011071E-007  0.9118800E+02  0.7816164E-02  0.1184000E+00
        -11   -1    0    0    0    0  0.00000000000E+00  0.00000000000E+00  0.45593999997E+02  0.45594000000E+02  0.51100000000E-03 0.  1.
         11   -1    0    0    0    0 -0.00000000000E+00 -0.00000000000E+00 -0.45593999997E+02  0.45594000000E+02  0.51100000000E-03 0. -1.
         23    2    1    2    0    0 -0.15543122345E-14  0.00000000000E+00 -0.17763568394E-14  0.91188000000E+02  0.91188000000E+02 0.  0.
    9900012    2    3    3    0    0 -0.38163921849E+00 -0.34209449946E+02 -0.13614217124E+02  0.54367095312E+02  0.40000025384E+02 0.  0.
        -12    1    3    3    0    0  0.38163921849E+00  0.34209449946E+02  0.13614217124E+02  0.36820904688E+02  0.00000000000E+00 0.  1.
         11    1    4    4    0    0  0.12951902421E+02 -0.24978207116E+02  0.87092252939E+00  0.28149975371E+02  0.51100000000E-03 0.  1.
        -11    1    4    4    0    0 -0.15093895400E+01 -0.65986196944E+01 -0.12109050241E+02  0.13872603817E+02  0.51100000000E-03 0. -1.
        -12    1    4    4    0    0 -0.11824152100E+02 -0.26326231355E+01 -0.23760894126E+01  0.12344516125E+02  0.00000000000E+00 0.  1.
</event>
<event>
 8    1  0.3011071E-007  0.9118800E+02  0.7816164E-02  0.1184000E+00
        -11   -1    0    0    0    0  0.00000000000E+00  0.00000000000E+00  0.45593999997E+02  0.45594000000E+02  0.51100000000E-03 0.  1.
         11   -1    0    0    0    0 -0.00000000000E+00 -0.00000000000E+00 -0.45593999997E+02  0.45594000000E+02  0.51100000000E-03 0. -1.
         23    2    1    2    0    0  0.14988010832E-14  0.00000000000E+00 -0.71054273576E-14  0.91188000000E+02  0.91188000000E+02 0.  0.
    9900012    2    3    3    0    0 -0.27856081706E+00 -0.14602536174E+02  0.33800402166E+02  0.54367097710E+02  0.40000030849E+02 0.  0.
         12    1    3    3    0    0  0.27856081706E+00  0.14602536174E+02 -0.33800402166E+02  0.36820902290E+02  0.00000000000E+00 0. -1.
         11    1    4    4    0    0 -0.62122930762E+00  0.19859753524E+01  0.18128765783E+02  0.18247799128E+02  0.51100000000E-03 0. -1.
        -11    1    4    4    0    0 -0.13343315838E+02 -0.98539046879E+01  0.11877004351E+02  0.20401145746E+02  0.51100000000E-03 0.  1.
        -12    1    4    4    0    0  0.13685984328E+02 -0.67346068388E+01  0.37946320334E+01  0.15718152836E+02  0.00000000000E+00 0.  1.
</event>
<event>
 8    1  0.3011071E-007  0.9118800E+02  0.7816164E-02  0.1184000E+00
        -11   -1    0    0    0    0  0.00000000000E+00  0.00000000000E+00  0.45593999997E+02  0.45594000000E+02  0.51100000000E-03 0.  1.
         11   -1    0    0    0    0 -0.00000000000E+00 -0.00000000000E+00 -0.45593999997E+02  0.45594000000E+02  0.51100000000E-03 0. -1.
         23    2    1    2    0    0  0.00000000000E+00  0.00000000000E+00  0.00000000000E+00  0.91188000000E+02  0.91188000000E+02 0.  0.
    9900012    2    3    3    0    0  0.15774825305E+02 -0.19460985867E+02  0.26985258663E+02  0.54367091953E+02  0.40000017724E+02 0.  0.
         12    1    3    3    0    0 -0.15774825305E+02  0.19460985867E+02 -0.26985258663E+02  0.36820908047E+02  0.00000000000E+00 0. -1.
         11    1    4    4    0    0  0.10359732126E+02 -0.13714674567E+02  0.14848340189E+02  0.22713202215E+02  0.51100000000E-03 0. -1.
        -11    1    4    4    0    0  0.77744308616E+01 -0.15372867311E+02  0.13176011629E+02  0.21688109813E+02  0.51100000000E-03 0.  1.
         12    1    4    4    0    0 -0.23593376829E+01  0.96265560104E+01 -0.10390931549E+01  0.99657799247E+01  0.00000000000E+00 0. -1.
</event>
<event>
 8    1  0.3011071E-007  0.9118800E+02  0.7816164E-02  0.1184000E+00
        -11   -1    0    0    0    0  0.00000000000E+00  0.00000000000E+00  0.45593999997E+02  0.45594000000E+02  0.51100000000E-03 0.  1.
         11   -1    0    0    0    0 -0.00000000000E+00 -0.00000000000E+00 -0.45593999997E+02  0.45594000000E+02  0.51100000000E-03 0. -1.
         23    2    1    2    0    0 -0.88817841970E-15 -0.35527136788E-14  0.00000000000E+00  0.91188000000E+02  0.91188000000E+02 0.  0.
    9900012    2    3    3    0    0  0.45285680156E+01  0.19110059427E+02 -0.31146059857E+02  0.54367090937E+02  0.40000015409E+02 0.  0.
        -12    1    3    3    0    0 -0.45285680156E+01 -0.19110059427E+02  0.31146059857E+02  0.36820909063E+02  0.00000000000E+00 0.  1.
         11    1    4    4    0    0  0.84872841708E+01 -0.52228189494E+01 -0.10668271773E+02  0.14598762045E+02  0.51100000000E-03 0. -1.
        -11    1    4    4    0    0 -0.47868731654E+01  0.17114361744E+02 -0.25394610699E+02  0.30995189714E+02  0.51100000000E-03 0.  1.
         12    1    4    4    0    0  0.82815701026E+00  0.72185166331E+01  0.49168226140E+01  0.87731391779E+01  0.00000000000E+00 0. -1.
</event>
<event>
 8    1  0.3011071E-007  0.9118800E+02  0.7816164E-02  0.1184000E+00
        -11   -1    0    0    0    0  0.00000000000E+00  0.00000000000E+00  0.45593999997E+02  0.45594000000E+02  0.51100000000E-03 0.  1.
         11   -1    0    0    0    0 -0.00000000000E+00 -0.00000000000E+00 -0.45593999997E+02  0.45594000000E+02  0.51100000000E-03 0. -1.
         23    2    1    2    0    0 -0.17763568394E-14  0.00000000000E+00  0.88817841970E-15  0.91188000000E+02  0.91188000000E+02 0.  0.
    9900012    2    3    3    0    0  0.12147934363E+02  0.34644054466E+02  0.28277400592E+01  0.54367096521E+02  0.40000028140E+02 0.  0.
        -12    1    3    3    0    0 -0.12147934363E+02 -0.34644054466E+02 -0.28277400592E+01  0.36820903479E+02  0.00000000000E+00 0.  1.
         11    1    4    4    0    0  0.49901995570E+01 -0.32762124687E+01 -0.60806990085E+01  0.85211830430E+01  0.51100000000E-03 0. -1.
        -11    1    4    4    0    0 -0.73433901989E+01  0.47595507007E+01  0.23831870670E+01  0.90696352376E+01  0.51100000000E-03 0.  1.
        -12    1    4    4    0    0  0.14501125005E+02  0.33160716234E+02  0.65252520008E+01  0.36776278241E+02  0.00000000000E+00 0.  1.
</event>
<event>
 8    1  0.3011071E-007  0.9118800E+02  0.7816164E-02  0.1184000E+00
        -11   -1    0    0    0    0  0.00000000000E+00  0.00000000000E+00  0.45593999997E+02  0.45594000000E+02  0.51100000000E-03 0.  1.
         11   -1    0    0    0    0 -0.00000000000E+00 -0.00000000000E+00 -0.45593999997E+02  0.45594000000E+02  0.51100000000E-03 0. -1.
         23    2    1    2    0    0 -0.35527136788E-14  0.17763568394E-14  0.00000000000E+00  0.91188000000E+02  0.91188000000E+02 0.  0.
    9900012    2    3    3    0    0  0.30866113510E+02 -0.72129399206E+01  0.18735998721E+02  0.54367066911E+02  0.39999960637E+02 0.  0.
         12    1    3    3    0    0 -0.30866113510E+02  0.72129399206E+01 -0.18735998721E+02  0.36820933089E+02  0.00000000000E+00 0. -1.
         11    1    4    4    0    0  0.76312455587E+01  0.80924239952E+01  0.16331346875E+02  0.19759456620E+02  0.51100000000E-03 0. -1.
        -11    1    4    4    0    0  0.46303211009E+01 -0.12803390860E+02 -0.48922864717E+01  0.14467244319E+02  0.51100000000E-03 0.  1.
        -12    1    4    4    0    0  0.18604546850E+02 -0.25019730558E+01  0.72969383177E+01  0.20140365972E+02  0.00000000000E+00 0.  1.
</event>
<event>
 8    1  0.3011071E-007  0.9118800E+02  0.7816164E-02  0.1184000E+00
        -11   -1    0    0    0    0  0.00000000000E+00  0.00000000000E+00  0.45593999997E+02  0.45594000000E+02  0.51100000000E-03 0.  1.
         11   -1    0    0    0    0 -0.00000000000E+00 -0.00000000000E+00 -0.45593999997E+02  0.45594000000E+02  0.51100000000E-03 0. -1.
         23    2    1    2    0    0  0.35527136788E-14 -0.71054273576E-14  0.88817841970E-15  0.91188000000E+02  0.91188000000E+02 0.  0.
    9900012    2    3    3    0    0  0.22745125882E+02  0.27884448820E+02  0.78036127480E+01  0.54367087337E+02  0.40000007203E+02 0.  0.
         12    1    3    3    0    0 -0.22745125882E+02 -0.27884448820E+02 -0.78036127480E+01  0.36820912663E+02  0.00000000000E+00 0. -1.
         11    1    4    4    0    0  0.51254766144E+01 -0.46237394710E+01 -0.81464367454E+00  0.69507641161E+01  0.51100000000E-03 0. -1.
        -11    1    4    4    0    0  0.16535269628E+02  0.35005268356E+02  0.35456459716E+00  0.38715754812E+02  0.51100000000E-03 0.  1.
        -12    1    4    4    0    0  0.10843796394E+01 -0.24970800648E+01  0.82636918254E+01  0.87005684089E+01  0.00000000000E+00 0.  1.
</event>
<event>
 8    1  0.3011071E-007  0.9118800E+02  0.7816164E-02  0.1184000E+00
        -11   -1    0    0    0    0  0.00000000000E+00  0.00000000000E+00  0.45593999997E+02  0.45594000000E+02  0.51100000000E-03 0.  1.
         11   -1    0    0    0    0 -0.00000000000E+00 -0.00000000000E+00 -0.45593999997E+02  0.45594000000E+02  0.51100000000E-03 0. -1.
         23    2    1    2    0    0 -0.35527136788E-14 -0.35527136788E-14  0.77715611724E-15  0.91188000000E+02  0.91188000000E+02 0.  0.
    9900012    2    3    3    0    0  0.19648871187E+02 -0.31131213978E+02  0.74134892984E+00  0.54367079032E+02  0.39999988270E+02 0.  0.
        -12    1    3    3    0    0 -0.19648871187E+02  0.31131213978E+02 -0.74134892984E+00  0.36820920968E+02  0.00000000000E+00 0.  1.
         11    1    4    4    0    0  0.13224692910E+02 -0.24024556698E+02 -0.17084367437E+02  0.32310175458E+02  0.51100000000E-03 0. -1.
        -11    1    4    4    0    0  0.25240730430E+01  0.10365294008E+01  0.91012621837E+01  0.95014899633E+01  0.51100000000E-03 0.  1.
         12    1    4    4    0    0  0.39001052341E+01 -0.81431866807E+01  0.87244541834E+01  0.12555413611E+02  0.00000000000E+00 0. -1.
</event>
<event>
 8    1  0.3011071E-007  0.9118800E+02  0.7816164E-02  0.1184000E+00
        -11   -1    0    0    0    0  0.00000000000E+00  0.00000000000E+00  0.45593999997E+02  0.45594000000E+02  0.51100000000E-03 0. -1.
         11   -1    0    0    0    0 -0.00000000000E+00 -0.00000000000E+00 -0.45593999997E+02  0.45594000000E+02  0.51100000000E-03 0.  1.
         23    2    1    2    0    0 -0.35527136788E-14  0.17763568394E-14  0.35527136788E-14  0.91188000000E+02  0.91188000000E+02 0.  0.
    9900012    2    3    3    0    0 -0.24160024412E+02  0.12020825645E+02  0.25051400666E+02  0.54367086050E+02  0.40000004268E+02 0.  0.
        -12    1    3    3    0    0  0.24160024412E+02 -0.12020825645E+02 -0.25051400666E+02  0.36820913950E+02  0.00000000000E+00 0.  1.
         11    1    4    4    0    0 -0.86434314818E+01  0.17997327092E+02 -0.35526982466E+01  0.20278914057E+02  0.51100000000E-03 0.  1.
        -11    1    4    4    0    0 -0.98148087344E+01  0.47920541831E+00  0.17017968513E+02  0.19651243240E+02  0.51100000000E-03 0. -1.
        -12    1    4    4    0    0 -0.57017841960E+01 -0.64557068657E+01  0.11586130400E+02  0.14436928752E+02  0.00000000000E+00 0.  1.
</event>
<event>
 8    1  0.3011071E-007  0.9118800E+02  0.7816164E-02  0.1184000E+00
        -11   -1    0    0    0    0  0.00000000000E+00  0.00000000000E+00  0.45593999997E+02  0.45594000000E+02  0.51100000000E-03 0.  1.
         11   -1    0    0    0    0 -0.00000000000E+00 -0.00000000000E+00 -0.45593999997E+02  0.45594000000E+02  0.51100000000E-03 0. -1.
         23    2    1    2    0    0  0.00000000000E+00  0.00000000000E+00 -0.35527136788E-14  0.91188000000E+02  0.91188000000E+02 0.  0.
    9900012    2    3    3    0    0  0.26356846493E+02 -0.13326186161E+02 -0.21988811184E+02  0.54367103597E+02  0.40000044271E+02 0.  0.
        -12    1    3    3    0    0 -0.26356846493E+02  0.13326186161E+02  0.21988811184E+02  0.36820896403E+02  0.00000000000E+00 0.  1.
         11    1    4    4    0    0 -0.44133312717E+01  0.37931619078E+01  0.34313097300E+01  0.67556981058E+01  0.51100000000E-03 0. -1.
        -11    1    4    4    0    0  0.52176687362E+01 -0.10895854298E+02 -0.17085466089E+01  0.12200936018E+02  0.51100000000E-03 0.  1.
         12    1    4    4    0    0  0.25552509028E+02 -0.62234937700E+01 -0.23711574305E+02  0.35410469474E+02  0.00000000000E+00 0. -1.
</event>
<event>
 8    1  0.3011071E-007  0.9118800E+02  0.7816164E-02  0.1184000E+00
        -11   -1    0    0    0    0  0.00000000000E+00  0.00000000000E+00  0.45593999997E+02  0.45594000000E+02  0.51100000000E-03 0.  1.
         11   -1    0    0    0    0 -0.00000000000E+00 -0.00000000000E+00 -0.45593999997E+02  0.45594000000E+02  0.51100000000E-03 0. -1.
         23    2    1    2    0    0  0.00000000000E+00  0.00000000000E+00  0.35527136788E-14  0.91188000000E+02  0.91188000000E+02 0.  0.
    9900012    2    3    3    0    0  0.25120133974E+02  0.34077851367E+01 -0.26704793796E+02  0.54367080102E+02  0.39999990709E+02 0.  0.
        -12    1    3    3    0    0 -0.25120133974E+02 -0.34077851367E+01  0.26704793796E+02  0.36820919898E+02  0.00000000000E+00 0.  1.
         11    1    4    4    0    0 -0.37490485984E+01  0.13385497684E+02 -0.79786458708E+01  0.16027654346E+02  0.51100000000E-03 0. -1.
        -11    1    4    4    0    0  0.52380370148E+01 -0.72870697511E+01 -0.87949824289E+01  0.12565434076E+02  0.51100000000E-03 0.  1.
        -12    1    4    4    0    0  0.23631145557E+02 -0.26906427966E+01 -0.99311654966E+01  0.25773991680E+02  0.00000000000E+00 0.  1.
</event>
<event>
 8    1  0.3011071E-007  0.9118800E+02  0.7816164E-02  0.1184000E+00
        -11   -1    0    0    0    0  0.00000000000E+00  0.00000000000E+00  0.45593999997E+02  0.45594000000E+02  0.51100000000E-03 0.  1.
         11   -1    0    0    0    0 -0.00000000000E+00 -0.00000000000E+00 -0.45593999997E+02  0.45594000000E+02  0.51100000000E-03 0. -1.
         23    2    1    2    0    0  0.00000000000E+00  0.00000000000E+00 -0.35527136788E-14  0.91188000000E+02  0.91188000000E+02 0.  0.
    9900012    2    3    3    0    0 -0.11193930648E+02 -0.32870616728E+02 -0.12247368158E+02  0.54367088086E+02  0.40000008909E+02 0.  0.
        -12    1    3    3    0    0  0.11193930648E+02  0.32870616728E+02  0.12247368158E+02  0.36820911914E+02  0.00000000000E+00 0.  1.
         11    1    4    4    0    0 -0.74237623600E+00  0.17655814270E+01  0.13102154331E+01  0.23205742809E+01  0.51100000000E-03 0.  1.
        -11    1    4    4    0    0 -0.14537681758E+02 -0.34187294478E+02 -0.21629760924E+02  0.42987926823E+02  0.51100000000E-03 0. -1.
         12    1    4    4    0    0  0.40861273459E+01 -0.44890367683E+00  0.80721773338E+01  0.90585869818E+01  0.00000000000E+00 0. -1.
</event>
<event>
 8    1  0.3011071E-007  0.9118800E+02  0.7816164E-02  0.1184000E+00
        -11   -1    0    0    0    0  0.00000000000E+00  0.00000000000E+00  0.45593999997E+02  0.45594000000E+02  0.51100000000E-03 0.  1.
         11   -1    0    0    0    0 -0.00000000000E+00 -0.00000000000E+00 -0.45593999997E+02  0.45594000000E+02  0.51100000000E-03 0. -1.
         23    2    1    2    0    0  0.35527136788E-14  0.35527136788E-14  0.00000000000E+00  0.91188000000E+02  0.91188000000E+02 0.  0.
    9900012    2    3    3    0    0  0.30400768586E+02  0.20606907897E+02  0.26321534181E+01  0.54367087255E+02  0.40000007016E+02 0.  0.
         12    1    3    3    0    0 -0.30400768586E+02 -0.20606907897E+02 -0.26321534181E+01  0.36820912745E+02  0.00000000000E+00 0. -1.
         11    1    4    4    0    0 -0.34546428813E+01 -0.52299787993E+01 -0.94596957093E+00  0.63389347976E+01  0.51100000000E-03 0. -1.
        -11    1    4    4    0    0  0.63973453559E+01  0.82219731629E+01  0.10377671230E+02  0.14704520758E+02  0.51100000000E-03 0.  1.
         12    1    4    4    0    0  0.27458066112E+02  0.17614913534E+02 -0.67995482410E+01  0.33323631700E+02  0.00000000000E+00 0. -1.
</event>
<event>
 8    1  0.3011071E-007  0.9118800E+02  0.7816164E-02  0.1184000E+00
        -11   -1    0    0    0    0  0.00000000000E+00  0.00000000000E+00  0.45593999997E+02  0.45594000000E+02  0.51100000000E-03 0.  1.
         11   -1    0    0    0    0 -0.00000000000E+00 -0.00000000000E+00 -0.45593999997E+02  0.45594000000E+02  0.51100000000E-03 0. -1.
         23    2    1    2    0    0  0.00000000000E+00  0.00000000000E+00  0.00000000000E+00  0.91188000000E+02  0.91188000000E+02 0.  0.
    9900012    2    3    3    0    0  0.10699262257E+02 -0.31562024127E+02  0.15657079670E+02  0.54367085785E+02  0.40000003665E+02 0.  0.
         12    1    3    3    0    0 -0.10699262257E+02  0.31562024127E+02 -0.15657079670E+02  0.36820914215E+02  0.00000000000E+00 0. -1.
         11    1    4    4    0    0 -0.30031562034E+01 -0.26221335568E+00  0.59241345574E-01  0.30151638138E+01  0.51100000000E-03 0. -1.
        -11    1    4    4    0    0  0.19643276037E+02 -0.18169997822E+02 -0.39686703372E+01  0.27051015856E+02  0.51100000000E-03 0.  1.
        -12    1    4    4    0    0 -0.59408575770E+01 -0.13129812949E+02  0.19566508662E+02  0.24300906116E+02  0.00000000000E+00 0.  1.
</event>
<event>
 8    1  0.3011071E-007  0.9118800E+02  0.7816164E-02  0.1184000E+00
        -11   -1    0    0    0    0  0.00000000000E+00  0.00000000000E+00  0.45593999997E+02  0.45594000000E+02  0.51100000000E-03 0.  1.
         11   -1    0    0    0    0 -0.00000000000E+00 -0.00000000000E+00 -0.45593999997E+02  0.45594000000E+02  0.51100000000E-03 0. -1.
         23    2    1    2    0    0  0.00000000000E+00  0.88817841970E-15  0.71054273576E-14  0.91188000000E+02  0.91188000000E+02 0.  0.
    9900012    2    3    3    0    0 -0.67369303655E+01 -0.52911051014E+01 -0.35810581442E+02  0.54367085194E+02  0.40000002318E+02 0.  0.
        -12    1    3    3    0    0  0.67369303655E+01  0.52911051014E+01  0.35810581442E+02  0.36820914806E+02  0.00000000000E+00 0.  1.
         11    1    4    4    0    0  0.32278402691E+01 -0.14877227641E+02 -0.25919756282E+02  0.30059684314E+02  0.51100000000E-03 0. -1.
        -11    1    4    4    0    0 -0.10592382401E+02  0.36386839125E+01 -0.13328429479E+02  0.17409354330E+02  0.51100000000E-03 0.  1.
        -12    1    4    4    0    0  0.62761176628E+00  0.59474386274E+01  0.34376043194E+01  0.68980465505E+01  0.00000000000E+00 0.  1.
</event>
<event>
 8    1  0.3011071E-007  0.9118800E+02  0.7816164E-02  0.1184000E+00
        -11   -1    0    0    0    0  0.00000000000E+00  0.00000000000E+00  0.45593999997E+02  0.45594000000E+02  0.51100000000E-03 0. -1.
         11   -1    0    0    0    0 -0.00000000000E+00 -0.00000000000E+00 -0.45593999997E+02  0.45594000000E+02  0.51100000000E-03 0.  1.
         23    2    1    2    0    0  0.00000000000E+00  0.35527136788E-14  0.00000000000E+00  0.91188000000E+02  0.91188000000E+02 0.  0.
    9900012    2    3    3    0    0 -0.34055195612E+02 -0.12222548278E+02  0.68288152512E+01  0.54367085395E+02  0.40000002775E+02 0.  0.
        -12    1    3    3    0    0  0.34055195612E+02  0.12222548278E+02 -0.68288152512E+01  0.36820914605E+02  0.00000000000E+00 0.  1.
         11    1    4    4    0    0 -0.84327762916E+01 -0.13340676919E+02 -0.73510164151E+01  0.17410422718E+02  0.51100000000E-03 0.  1.
        -11    1    4    4    0    0 -0.23629681700E+02 -0.20427469196E+01  0.15306825836E+01  0.23767155102E+02  0.51100000000E-03 0. -1.
        -12    1    4    4    0    0 -0.19927376206E+01  0.31608755607E+01  0.12649149083E+02  0.13189507574E+02  0.00000000000E+00 0.  1.
</event>
<event>
 8    1  0.3011071E-007  0.9118800E+02  0.7816164E-02  0.1184000E+00
        -11   -1    0    0    0    0  0.00000000000E+00  0.00000000000E+00  0.45593999997E+02  0.45594000000E+02  0.51100000000E-03 0. -1.
         11   -1    0    0    0    0 -0.00000000000E+00 -0.00000000000E+00 -0.45593999997E+02  0.45594000000E+02  0.51100000000E-03 0.  1.
         23    2    1    2    0    0 -0.35527136788E-14 -0.66613381478E-15 -0.71054273576E-14  0.91188000000E+02  0.91188000000E+02 0.  0.
    9900012    2    3    3    0    0 -0.24766206278E+02 -0.12572965038E+01 -0.27218248592E+02  0.54367097997E+02  0.40000031504E+02 0.  0.
         12    1    3    3    0    0  0.24766206278E+02  0.12572965038E+01  0.27218248592E+02  0.36820902003E+02  0.00000000000E+00 0. -1.
         11    1    4    4    0    0 -0.26766926857E+02  0.11587527748E+02 -0.12180855749E+02  0.31608739610E+02  0.51100000000E-03 0. -1.
        -11    1    4    4    0    0  0.16676419467E+01 -0.13904744830E+02 -0.90621283721E+01  0.16680681322E+02  0.51100000000E-03 0.  1.
        -12    1    4    4    0    0  0.33307863311E+00  0.10599205782E+01 -0.59752644715E+01  0.60776770655E+01  0.00000000000E+00 0.  1.
</event>
<event>
 8    1  0.3011071E-007  0.9118800E+02  0.7816164E-02  0.1184000E+00
        -11   -1    0    0    0    0  0.00000000000E+00  0.00000000000E+00  0.45593999997E+02  0.45594000000E+02  0.51100000000E-03 0.  1.
         11   -1    0    0    0    0 -0.00000000000E+00 -0.00000000000E+00 -0.45593999997E+02  0.45594000000E+02  0.51100000000E-03 0. -1.
         23    2    1    2    0    0  0.77715611724E-15  0.00000000000E+00  0.00000000000E+00  0.91188000000E+02  0.91188000000E+02 0.  0.
    9900012    2    3    3    0    0  0.28372469156E+00 -0.31428478898E+02 -0.19182025433E+02  0.54367083590E+02  0.39999998660E+02 0.  0.
         12    1    3    3    0    0 -0.28372469156E+00  0.31428478898E+02  0.19182025433E+02  0.36820916410E+02  0.00000000000E+00 0. -1.
         11    1    4    4    0    0 -0.15583434351E+01 -0.58046334241E+01 -0.15886279578E+02  0.16985172432E+02  0.51100000000E-03 0. -1.
        -11    1    4    4    0    0  0.92178365758E+01 -0.27517426577E+02 -0.53167994852E+01  0.29503315637E+02  0.51100000000E-03 0.  1.
         12    1    4    4    0    0 -0.73757684492E+01  0.18935811032E+01  0.20210536299E+01  0.78785955211E+01  0.00000000000E+00 0. -1.
</event>
<event>
 8    1  0.3011071E-007  0.9118800E+02  0.7816164E-02  0.1184000E+00
        -11   -1    0    0    0    0  0.00000000000E+00  0.00000000000E+00  0.45593999997E+02  0.45594000000E+02  0.51100000000E-03 0.  1.
         11   -1    0    0    0    0 -0.00000000000E+00 -0.00000000000E+00 -0.45593999997E+02  0.45594000000E+02  0.51100000000E-03 0. -1.
         23    2    1    2    0    0  0.17763568394E-14  0.88817841970E-15  0.00000000000E+00  0.91188000000E+02  0.91188000000E+02 0.  0.
    9900012    2    3    3    0    0  0.69414591701E+01  0.50425722032E+01  0.35807440200E+02  0.54367025494E+02  0.39999866219E+02 0.  0.
         12    1    3    3    0    0 -0.69414591701E+01 -0.50425722032E+01 -0.35807440200E+02  0.36820974506E+02  0.00000000000E+00 0. -1.
         11    1    4    4    0    0  0.33367468420E+01 -0.47202295863E+00  0.37368843150E+02  0.37520489387E+02  0.51100000000E-03 0.  1.
        -11    1    4    4    0    0  0.73457568186E+01  0.88954325648E+01 -0.22609258443E+01  0.11755877240E+02  0.51100000000E-03 0. -1.
        -12    1    4    4    0    0 -0.37410444905E+01 -0.33808374030E+01  0.69952289448E+00  0.50906588675E+01  0.00000000000E+00 0.  1.
</event>
<event>
 8    1  0.3011071E-007  0.9118800E+02  0.7816164E-02  0.1184000E+00
        -11   -1    0    0    0    0  0.00000000000E+00  0.00000000000E+00  0.45593999997E+02  0.45594000000E+02  0.51100000000E-03 0.  1.
         11   -1    0    0    0    0 -0.00000000000E+00 -0.00000000000E+00 -0.45593999997E+02  0.45594000000E+02  0.51100000000E-03 0. -1.
         23    2    1    2    0    0  0.00000000000E+00 -0.17763568394E-14  0.00000000000E+00  0.91188000000E+02  0.91188000000E+02 0.  0.
    9900012    2    3    3    0    0  0.35091995847E+02 -0.10076024463E+02  0.47754847372E+01  0.54367086161E+02  0.40000004521E+02 0.  0.
        -12    1    3    3    0    0 -0.35091995847E+02  0.10076024463E+02 -0.47754847372E+01  0.36820913839E+02  0.00000000000E+00 0.  1.
         11    1    4    4    0    0  0.16031580193E+02 -0.81361668009E+01  0.14479761228E+02  0.23084026061E+02  0.51100000000E-03 0. -1.
        -11    1    4    4    0    0  0.66438251173E+01 -0.29166358680E+01  0.72423680984E+01  0.10251783889E+02  0.51100000000E-03 0.  1.
         12    1    4    4    0    0  0.12416590536E+02  0.97677820616E+00 -0.16946644589E+02  0.21031276211E+02  0.00000000000E+00 0. -1.
</event>
<event>
 8    1  0.3011071E-007  0.9118800E+02  0.7816164E-02  0.1184000E+00
        -11   -1    0    0    0    0  0.00000000000E+00  0.00000000000E+00  0.45593999997E+02  0.45594000000E+02  0.51100000000E-03 0. -1.
         11   -1    0    0    0    0 -0.00000000000E+00 -0.00000000000E+00 -0.45593999997E+02  0.45594000000E+02  0.51100000000E-03 0.  1.
         23    2    1    2    0    0 -0.88817841970E-15  0.49266146718E-15  0.00000000000E+00  0.91188000000E+02  0.91188000000E+02 0.  0.
    9900012    2    3    3    0    0 -0.74499717471E+01  0.13387904300E-01 -0.36059384221E+02  0.54367062360E+02  0.39999950263E+02 0.  0.
         12    1    3    3    0    0  0.74499717471E+01 -0.13387904300E-01  0.36059384221E+02  0.36820937640E+02  0.00000000000E+00 0. -1.
         11    1    4    4    0    0  0.83652302724E+01 -0.12033740527E+02 -0.18604861328E+02  0.23683936621E+02  0.51100000000E-03 0. -1.
        -11    1    4    4    0    0 -0.72157878600E+01  0.13120079036E+02 -0.55729731206E+01  0.15976923922E+02  0.51100000000E-03 0.  1.
        -12    1    4    4    0    0 -0.85994141595E+01 -0.10729506053E+01 -0.11881549772E+02  0.14706201817E+02  0.00000000000E+00 0.  1.
</event>
<event>
 8    1  0.3011071E-007  0.9118800E+02  0.7816164E-02  0.1184000E+00
        -11   -1    0    0    0    0  0.00000000000E+00  0.00000000000E+00  0.45593999997E+02  0.45594000000E+02  0.51100000000E-03 0.  1.
         11   -1    0    0    0    0 -0.00000000000E+00 -0.00000000000E+00 -0.45593999997E+02  0.45594000000E+02  0.51100000000E-03 0. -1.
         23    2    1    2    0    0  0.00000000000E+00  0.00000000000E+00 -0.17763568394E-14  0.91188000000E+02  0.91188000000E+02 0.  0.
    9900012    2    3    3    0    0  0.33486215043E+02 -0.12994514405E+02  0.80990768297E+01  0.54367094959E+02  0.40000024578E+02 0.  0.
         12    1    3    3    0    0 -0.33486215043E+02  0.12994514405E+02 -0.80990768297E+01  0.36820905041E+02  0.00000000000E+00 0. -1.
         11    1    4    4    0    0  0.25797298930E+02 -0.12750338281E+02  0.47799439277E+01  0.29170526607E+02  0.51100000000E-03 0. -1.
        -11    1    4    4    0    0  0.12251615552E+02  0.50828803206E+01  0.91180391671E+01  0.16095850226E+02  0.51100000000E-03 0.  1.
         12    1    4    4    0    0 -0.45626994382E+01 -0.53270564448E+01 -0.57989062651E+01  0.91007181256E+01  0.00000000000E+00 0. -1.
</event>
<event>
 8    1  0.3011071E-007  0.9118800E+02  0.7816164E-02  0.1184000E+00
        -11   -1    0    0    0    0  0.00000000000E+00  0.00000000000E+00  0.45593999997E+02  0.45594000000E+02  0.51100000000E-03 0.  1.
         11   -1    0    0    0    0 -0.00000000000E+00 -0.00000000000E+00 -0.45593999997E+02  0.45594000000E+02  0.51100000000E-03 0. -1.
         23    2    1    2    0    0  0.35527136788E-14  0.35527136788E-14  0.00000000000E+00  0.91188000000E+02  0.91188000000E+02 0.  0.
    9900012    2    3    3    0    0  0.27213048985E+02  0.17343368164E+02  0.17732373305E+02  0.54367088586E+02  0.40000010050E+02 0.  0.
         12    1    3    3    0    0 -0.27213048985E+02 -0.17343368164E+02 -0.17732373305E+02  0.36820911414E+02  0.00000000000E+00 0. -1.
         11    1    4    4    0    0  0.18319829986E+02  0.41636718997E+01  0.11982684134E+02  0.22283111401E+02  0.51100000000E-03 0. -1.
        -11    1    4    4    0    0  0.15833233783E+02  0.96521693599E+01 -0.46266969562E+01  0.19111828546E+02  0.51100000000E-03 0.  1.
         12    1    4    4    0    0 -0.69400147843E+01  0.35275269047E+01  0.10376386127E+02  0.12972148639E+02  0.00000000000E+00 0. -1.
</event>
<event>
 8    1  0.3011071E-007  0.9118800E+02  0.7816164E-02  0.1184000E+00
        -11   -1    0    0    0    0  0.00000000000E+00  0.00000000000E+00  0.45593999997E+02  0.45594000000E+02  0.51100000000E-03 0.  1.
         11   -1    0    0    0    0 -0.00000000000E+00 -0.00000000000E+00 -0.45593999997E+02  0.45594000000E+02  0.51100000000E-03 0. -1.
         23    2    1    2    0    0  0.00000000000E+00  0.35527136788E-14  0.17763568394E-14  0.91188000000E+02  0.91188000000E+02 0.  0.
    9900012    2    3    3    0    0  0.18519353465E+02  0.27526122285E+02  0.15972907838E+02  0.54366978210E+02  0.39999758425E+02 0.  0.
         12    1    3    3    0    0 -0.18519353465E+02 -0.27526122285E+02 -0.15972907838E+02  0.36821021790E+02  0.00000000000E+00 0. -1.
         11    1    4    4    0    0  0.24500564259E+01 -0.86193480457E+01  0.33363680657E+01  0.95617618332E+01  0.51100000000E-03 0. -1.
        -11    1    4    4    0    0 -0.30779537220E+01  0.10594409054E+02  0.39117414256E+01  0.11705427099E+02  0.51100000000E-03 0.  1.
         12    1    4    4    0    0  0.19147250761E+02  0.25551061277E+02  0.87247983467E+01  0.33099789279E+02  0.00000000000E+00 0. -1.
</event>
<event>
 8    1  0.3011071E-007  0.9118800E+02  0.7816164E-02  0.1184000E+00
        -11   -1    0    0    0    0  0.00000000000E+00  0.00000000000E+00  0.45593999997E+02  0.45594000000E+02  0.51100000000E-03 0.  1.
         11   -1    0    0    0    0 -0.00000000000E+00 -0.00000000000E+00 -0.45593999997E+02  0.45594000000E+02  0.51100000000E-03 0. -1.
         23    2    1    2    0    0  0.00000000000E+00  0.35527136788E-14  0.35527136788E-14  0.91188000000E+02  0.91188000000E+02 0.  0.
    9900012    2    3    3    0    0  0.21002743204E+02  0.12167307370E+02 -0.27687923135E+02  0.54367086401E+02  0.40000005069E+02 0.  0.
        -12    1    3    3    0    0 -0.21002743204E+02 -0.12167307370E+02  0.27687923135E+02  0.36820913599E+02  0.00000000000E+00 0.  1.
         11    1    4    4    0    0  0.16147533160E+02  0.72052088418E+01 -0.17937169560E+02  0.25187296673E+02  0.51100000000E-03 0. -1.
        -11    1    4    4    0    0  0.39670400851E+01  0.15409740391E+02 -0.17853286316E+01  0.16012023749E+02  0.51100000000E-03 0.  1.
         12    1    4    4    0    0  0.88816995872E+00 -0.10447641863E+02 -0.79654249431E+01  0.13167765980E+02  0.00000000000E+00 0. -1.
</event>
<event>
 8    1  0.3011071E-007  0.9118800E+02  0.7816164E-02  0.1184000E+00
        -11   -1    0    0    0    0  0.00000000000E+00  0.00000000000E+00  0.45593999997E+02  0.45594000000E+02  0.51100000000E-03 0.  1.
         11   -1    0    0    0    0 -0.00000000000E+00 -0.00000000000E+00 -0.45593999997E+02  0.45594000000E+02  0.51100000000E-03 0. -1.
         23    2    1    2    0    0  0.00000000000E+00  0.35527136788E-14  0.88817841970E-15  0.91188000000E+02  0.91188000000E+02 0.  0.
    9900012    2    3    3    0    0 -0.26335565076E+02 -0.24970613055E+02 -0.62197812206E+01  0.54367093131E+02  0.40000020410E+02 0.  0.
        -12    1    3    3    0    0  0.26335565076E+02  0.24970613055E+02  0.62197812206E+01  0.36820906869E+02  0.00000000000E+00 0.  1.
         11    1    4    4    0    0 -0.20256304873E+02 -0.15560232950E+02 -0.10145478197E+02  0.27483985604E+02  0.51100000000E-03 0. -1.
        -11    1    4    4    0    0 -0.10200458032E+02 -0.15797236896E+02  0.42367222985E+01  0.19275680369E+02  0.51100000000E-03 0.  1.
        -12    1    4    4    0    0  0.41211978286E+01  0.63868567905E+01 -0.31102532239E+00  0.76074271574E+01  0.00000000000E+00 0.  1.
</event>
<event>
 8    1  0.3011071E-007  0.9118800E+02  0.7816164E-02  0.1184000E+00
        -11   -1    0    0    0    0  0.00000000000E+00  0.00000000000E+00  0.45593999997E+02  0.45594000000E+02  0.51100000000E-03 0.  1.
         11   -1    0    0    0    0 -0.00000000000E+00 -0.00000000000E+00 -0.45593999997E+02  0.45594000000E+02  0.51100000000E-03 0. -1.
         23    2    1    2    0    0 -0.35527136788E-14  0.44408920985E-15  0.00000000000E+00  0.91188000000E+02  0.91188000000E+02 0.  0.
    9900012    2    3    3    0    0  0.21281464797E+02 -0.37036149656E+01  0.29818682935E+02  0.54367199361E+02  0.40000262582E+02 0.  0.
         12    1    3    3    0    0 -0.21281464797E+02  0.37036149656E+01 -0.29818682935E+02  0.36820800639E+02  0.00000000000E+00 0. -1.
         11    1    4    4    0    0  0.26343604396E+02 -0.71161129973E+00  0.18397495741E+02  0.32139690929E+02  0.51100000000E-03 0. -1.
        -11    1    4    4    0    0 -0.62685840344E+01 -0.81624035621E+01  0.13099897456E+02  0.16659150379E+02  0.51100000000E-03 0.  1.
        -12    1    4    4    0    0  0.12064444349E+01  0.51703998962E+01 -0.16787102624E+01  0.55683580530E+01  0.00000000000E+00 0.  1.
</event>
<event>
 8    1  0.3011071E-007  0.9118800E+02  0.7816164E-02  0.1184000E+00
        -11   -1    0    0    0    0  0.00000000000E+00  0.00000000000E+00  0.45593999997E+02  0.45594000000E+02  0.51100000000E-03 0.  1.
         11   -1    0    0    0    0 -0.00000000000E+00 -0.00000000000E+00 -0.45593999997E+02  0.45594000000E+02  0.51100000000E-03 0. -1.
         23    2    1    2    0    0 -0.22204460493E-15  0.17763568394E-14  0.71054273576E-14  0.91188000000E+02  0.91188000000E+02 0.  0.
    9900012    2    3    3    0    0 -0.13040290250E+01  0.83315302454E+01  0.35842219705E+02  0.54367087446E+02  0.40000007450E+02 0.  0.
         12    1    3    3    0    0  0.13040290250E+01 -0.83315302454E+01 -0.35842219705E+02  0.36820912554E+02  0.00000000000E+00 0. -1.
         11    1    4    4    0    0  0.66459112563E+01 -0.27191510643E+01  0.38490508886E+02  0.39154580747E+02  0.51100000000E-03 0. -1.
        -11    1    4    4    0    0 -0.53558884489E+01  0.70794889004E+01  0.13870020887E+01  0.89849028500E+01  0.51100000000E-03 0.  1.
         12    1    4    4    0    0 -0.25940518323E+01  0.39711924093E+01 -0.40352912694E+01  0.62276038481E+01  0.00000000000E+00 0. -1.
</event>
<event>
 8    1  0.3011071E-007  0.9118800E+02  0.7816164E-02  0.1184000E+00
        -11   -1    0    0    0    0  0.00000000000E+00  0.00000000000E+00  0.45593999997E+02  0.45594000000E+02  0.51100000000E-03 0.  1.
         11   -1    0    0    0    0 -0.00000000000E+00 -0.00000000000E+00 -0.45593999997E+02  0.45594000000E+02  0.51100000000E-03 0. -1.
         23    2    1    2    0    0  0.00000000000E+00  0.00000000000E+00  0.00000000000E+00  0.91188000000E+02  0.91188000000E+02 0.  0.
    9900012    2    3    3    0    0  0.32297815787E+02  0.46243240308E+01  0.17065967509E+02  0.54367074911E+02  0.39999978875E+02 0.  0.
        -12    1    3    3    0    0 -0.32297815787E+02 -0.46243240308E+01 -0.17065967509E+02  0.36820925089E+02  0.00000000000E+00 0.  1.
         11    1    4    4    0    0  0.78727734765E+01  0.15086085233E+02  0.10951265634E+02  0.20236124854E+02  0.51100000000E-03 0. -1.
        -11    1    4    4    0    0  0.21275596980E+02 -0.24305055447E+01  0.11149291051E+02  0.24142598767E+02  0.51100000000E-03 0.  1.
        -12    1    4    4    0    0  0.31494453312E+01 -0.80312556573E+01 -0.50345891752E+01  0.99883512899E+01  0.00000000000E+00 0.  1.
</event>
<event>
 8    1  0.3011071E-007  0.9118800E+02  0.7816164E-02  0.1184000E+00
        -11   -1    0    0    0    0  0.00000000000E+00  0.00000000000E+00  0.45593999997E+02  0.45594000000E+02  0.51100000000E-03 0. -1.
         11   -1    0    0    0    0 -0.00000000000E+00 -0.00000000000E+00 -0.45593999997E+02  0.45594000000E+02  0.51100000000E-03 0.  1.
         23    2    1    2    0    0  0.00000000000E+00 -0.35527136788E-14  0.17763568394E-14  0.91188000000E+02  0.91188000000E+02 0.  0.
    9900012    2    3    3    0    0 -0.25063255848E+02  0.26540948397E+02 -0.48155884583E+01  0.54367100667E+02  0.40000037590E+02 0.  0.
        -12    1    3    3    0    0  0.25063255848E+02 -0.26540948397E+02  0.48155884583E+01  0.36820899333E+02  0.00000000000E+00 0.  1.
         11    1    4    4    0    0 -0.17487379349E+01  0.75644930510E+00  0.28786822179E+01  0.34521169576E+01  0.51100000000E-03 0. -1.
        -11    1    4    4    0    0 -0.12850067496E+02  0.69426616361E+00 -0.17754857360E+02  0.21928091579E+02  0.51100000000E-03 0.  1.
         12    1    4    4    0    0 -0.10464450417E+02  0.25090232928E+02  0.10060586684E+02  0.28986892130E+02  0.00000000000E+00 0. -1.
</event>
<event>
 8    1  0.3011071E-007  0.9118800E+02  0.7816164E-02  0.1184000E+00
        -11   -1    0    0    0    0  0.00000000000E+00  0.00000000000E+00  0.45593999997E+02  0.45594000000E+02  0.51100000000E-03 0. -1.
         11   -1    0    0    0    0 -0.00000000000E+00 -0.00000000000E+00 -0.45593999997E+02  0.45594000000E+02  0.51100000000E-03 0.  1.
         23    2    1    2    0    0  0.71054273576E-14  0.17763568394E-14  0.14210854715E-13  0.91188000000E+02  0.91188000000E+02 0.  0.
    9900012    2    3    3    0    0  0.10010498781E+02  0.84462920217E+01  0.34412696504E+02  0.54367032938E+02  0.39999883188E+02 0.  0.
        -12    1    3    3    0    0 -0.10010498781E+02 -0.84462920217E+01 -0.34412696504E+02  0.36820967062E+02  0.00000000000E+00 0.  1.
         11    1    4    4    0    0 -0.59046050772E+01  0.10059749644E+02  0.45172626577E+01  0.12508740392E+02  0.51100000000E-03 0. -1.
        -11    1    4    4    0    0  0.17924439532E+02 -0.47351322455E+01  0.32435541066E+02  0.37360023212E+02  0.51100000000E-03 0.  1.
        -12    1    4    4    0    0 -0.20093356744E+01  0.31216746228E+01 -0.25401072198E+01  0.44982693329E+01  0.00000000000E+00 0.  1.
</event>
<event>
 8    1  0.3011071E-007  0.9118800E+02  0.7816164E-02  0.1184000E+00
        -11   -1    0    0    0    0  0.00000000000E+00  0.00000000000E+00  0.45593999997E+02  0.45594000000E+02  0.51100000000E-03 0. -1.
         11   -1    0    0    0    0 -0.00000000000E+00 -0.00000000000E+00 -0.45593999997E+02  0.45594000000E+02  0.51100000000E-03 0.  1.
         23    2    1    2    0    0  0.00000000000E+00  0.00000000000E+00  0.00000000000E+00  0.91188000000E+02  0.91188000000E+02 0.  0.
    9900012    2    3    3    0    0  0.24271183249E+02  0.20977587654E+02 -0.18072909416E+02  0.54367087805E+02  0.40000008269E+02 0.  0.
         12    1    3    3    0    0 -0.24271183249E+02 -0.20977587654E+02  0.18072909416E+02  0.36820912195E+02  0.00000000000E+00 0. -1.
         11    1    4    4    0    0 -0.19158468834E+01 -0.90323648049E+00  0.63905710039E+01  0.67324366642E+01  0.51100000000E-03 0. -1.
        -11    1    4    4    0    0  0.12618595838E+02  0.99478041690E+01  0.13505875632E+01  0.16124883123E+02  0.51100000000E-03 0.  1.
        -12    1    4    4    0    0  0.13568434295E+02  0.11933019966E+02 -0.25814067983E+02  0.31509768018E+02  0.00000000000E+00 0.  1.
</event>
<event>
 8    1  0.3011071E-007  0.9118800E+02  0.7816164E-02  0.1184000E+00
        -11   -1    0    0    0    0  0.00000000000E+00  0.00000000000E+00  0.45593999997E+02  0.45594000000E+02  0.51100000000E-03 0. -1.
         11   -1    0    0    0    0 -0.00000000000E+00 -0.00000000000E+00 -0.45593999997E+02  0.45594000000E+02  0.51100000000E-03 0.  1.
         23    2    1    2    0    0  0.00000000000E+00  0.00000000000E+00  0.00000000000E+00  0.91188000000E+02  0.91188000000E+02 0.  0.
    9900012    2    3    3    0    0  0.29236885858E+02 -0.38214512404E+01 -0.22054044033E+02  0.54367084171E+02  0.39999999985E+02 0.  0.
         12    1    3    3    0    0 -0.29236885858E+02  0.38214512404E+01  0.22054044033E+02  0.36820915829E+02  0.00000000000E+00 0. -1.
         11    1    4    4    0    0  0.12100603596E+02  0.68384275317E+01 -0.17094663147E+02  0.22032163010E+02  0.51100000000E-03 0.  1.
        -11    1    4    4    0    0 -0.90315746318E+00 -0.78920977340E+01  0.69396951091E+01  0.10547998318E+02  0.51100000000E-03 0. -1.
         12    1    4    4    0    0  0.18039439725E+02 -0.27677810381E+01 -0.11899075995E+02  0.21786922844E+02  0.00000000000E+00 0. -1.
</event>
<event>
 8    1  0.3011071E-007  0.9118800E+02  0.7816164E-02  0.1184000E+00
        -11   -1    0    0    0    0  0.00000000000E+00  0.00000000000E+00  0.45593999997E+02  0.45594000000E+02  0.51100000000E-03 0. -1.
         11   -1    0    0    0    0 -0.00000000000E+00 -0.00000000000E+00 -0.45593999997E+02  0.45594000000E+02  0.51100000000E-03 0.  1.
         23    2    1    2    0    0  0.17763568394E-14  0.00000000000E+00 -0.17763568394E-14  0.91188000000E+02  0.91188000000E+02 0.  0.
    9900012    2    3    3    0    0  0.14514513326E+02 -0.32935601279E+02 -0.77687636946E+01  0.54367100798E+02  0.40000037888E+02 0.  0.
         12    1    3    3    0    0 -0.14514513326E+02  0.32935601279E+02  0.77687636946E+01  0.36820899202E+02  0.00000000000E+00 0. -1.
         11    1    4    4    0    0  0.15411827119E+02 -0.16477588313E+02  0.96137041790E+01  0.24524653719E+02  0.51100000000E-03 0. -1.
        -11    1    4    4    0    0  0.44507063426E+01 -0.29109118245E+00  0.12189032641E+01  0.46237697232E+01  0.51100000000E-03 0.  1.
         12    1    4    4    0    0 -0.53480201354E+01 -0.16166921784E+02 -0.18601371138E+02  0.25218677355E+02  0.00000000000E+00 0. -1.
</event>
<event>
 8    1  0.3011071E-007  0.9118800E+02  0.7816164E-02  0.1184000E+00
        -11   -1    0    0    0    0  0.00000000000E+00  0.00000000000E+00  0.45593999997E+02  0.45594000000E+02  0.51100000000E-03 0.  1.
         11   -1    0    0    0    0 -0.00000000000E+00 -0.00000000000E+00 -0.45593999997E+02  0.45594000000E+02  0.51100000000E-03 0. -1.
         23    2    1    2    0    0 -0.35527136788E-14 -0.35527136788E-14  0.13322676296E-14  0.91188000000E+02  0.91188000000E+02 0.  0.
    9900012    2    3    3    0    0 -0.29830463797E+02 -0.21407303482E+02 -0.27651855251E+01  0.54367143631E+02  0.40000135536E+02 0.  0.
        -12    1    3    3    0    0  0.29830463797E+02  0.21407303482E+02  0.27651855251E+01  0.36820856369E+02  0.00000000000E+00 0.  1.
         11    1    4    4    0    0 -0.81102674457E+01 -0.78888184180E+01 -0.12905678696E+02  0.17162937888E+02  0.51100000000E-03 0. -1.
        -11    1    4    4    0    0 -0.19210700768E+02 -0.20116505693E+02  0.45198576583E+01  0.28180737016E+02  0.51100000000E-03 0.  1.
         12    1    4    4    0    0 -0.25094955837E+01  0.65980206284E+01  0.56206355127E+01  0.90234687268E+01  0.00000000000E+00 0. -1.
</event>
<event>
 8    1  0.3011071E-007  0.9118800E+02  0.7816164E-02  0.1184000E+00
        -11   -1    0    0    0    0  0.00000000000E+00  0.00000000000E+00  0.45593999997E+02  0.45594000000E+02  0.51100000000E-03 0.  1.
         11   -1    0    0    0    0 -0.00000000000E+00 -0.00000000000E+00 -0.45593999997E+02  0.45594000000E+02  0.51100000000E-03 0. -1.
         23    2    1    2    0    0 -0.35527136788E-14  0.00000000000E+00  0.00000000000E+00  0.91188000000E+02  0.91188000000E+02 0.  0.
    9900012    2    3    3    0    0 -0.31530493549E+02 -0.87681843753E+01  0.16873850967E+02  0.54367083021E+02  0.39999997363E+02 0.  0.
         12    1    3    3    0    0  0.31530493549E+02  0.87681843753E+01 -0.16873850967E+02  0.36820916979E+02  0.00000000000E+00 0. -1.
         11    1    4    4    0    0 -0.14941144675E+02  0.13171135849E+01  0.22740035575E+02  0.27241178583E+02  0.51100000000E-03 0. -1.
        -11    1    4    4    0    0 -0.69655737539E+01 -0.11866838076E+02  0.28129259384E+01  0.14044700646E+02  0.51100000000E-03 0.  1.
        -12    1    4    4    0    0 -0.96237751208E+01  0.17815401163E+01 -0.86791105463E+01  0.13081203792E+02  0.00000000000E+00 0.  1.
</event>
<event>
 8    1  0.3011071E-007  0.9118800E+02  0.7816164E-02  0.1184000E+00
        -11   -1    0    0    0    0  0.00000000000E+00  0.00000000000E+00  0.45593999997E+02  0.45594000000E+02  0.51100000000E-03 0. -1.
         11   -1    0    0    0    0 -0.00000000000E+00 -0.00000000000E+00 -0.45593999997E+02  0.45594000000E+02  0.51100000000E-03 0.  1.
         23    2    1    2    0    0  0.88817841970E-15  0.00000000000E+00  0.00000000000E+00  0.91188000000E+02  0.91188000000E+02 0.  0.
    9900012    2    3    3    0    0 -0.44951558168E+01  0.17845850061E+02 -0.31891979799E+02  0.54367093361E+02  0.40000020935E+02 0.  0.
         12    1    3    3    0    0  0.44951558168E+01 -0.17845850061E+02  0.31891979799E+02  0.36820906639E+02  0.00000000000E+00 0. -1.
         11    1    4    4    0    0  0.71334166682E+01  0.16560346841E+02 -0.62508817753E+00  0.18042213177E+02  0.51100000000E-03 0. -1.
        -11    1    4    4    0    0 -0.17485856801E+01 -0.59460778978E+01 -0.11775124860E+02  0.13306650968E+02  0.51100000000E-03 0.  1.
         12    1    4    4    0    0 -0.98799868049E+01  0.72315811179E+01 -0.19491766762E+02  0.23018229216E+02  0.00000000000E+00 0. -1.
</event>
<event>
 8    1  0.3011071E-007  0.9118800E+02  0.7816164E-02  0.1184000E+00
        -11   -1    0    0    0    0  0.00000000000E+00  0.00000000000E+00  0.45593999997E+02  0.45594000000E+02  0.51100000000E-03 0.  1.
         11   -1    0    0    0    0 -0.00000000000E+00 -0.00000000000E+00 -0.45593999997E+02  0.45594000000E+02  0.51100000000E-03 0. -1.
         23    2    1    2    0    0  0.00000000000E+00  0.00000000000E+00 -0.17763568394E-14  0.91188000000E+02  0.91188000000E+02 0.  0.
    9900012    2    3    3    0    0 -0.17726093837E+02  0.29471542742E+02  0.13152727885E+02  0.54367075444E+02  0.39999980090E+02 0.  0.
         12    1    3    3    0    0  0.17726093837E+02 -0.29471542742E+02 -0.13152727885E+02  0.36820924556E+02  0.00000000000E+00 0. -1.
         11    1    4    4    0    0  0.65228124994E+01 -0.43667491539E+01 -0.21600259961E+01  0.81413324241E+01  0.51100000000E-03 0. -1.
        -11    1    4    4    0    0 -0.37618635148E+01 -0.27730127037E+00  0.19599299657E+01  0.42508633041E+01  0.51100000000E-03 0.  1.
         12    1    4    4    0    0 -0.20487042822E+02  0.34115593167E+02  0.13352823915E+02  0.41974879716E+02  0.00000000000E+00 0. -1.
</event>
<event>
 8    1  0.3011071E-007  0.9118800E+02  0.7816164E-02  0.1184000E+00
        -11   -1    0    0    0    0  0.00000000000E+00  0.00000000000E+00  0.45593999997E+02  0.45594000000E+02  0.51100000000E-03 0.  1.
         11   -1    0    0    0    0 -0.00000000000E+00 -0.00000000000E+00 -0.45593999997E+02  0.45594000000E+02  0.51100000000E-03 0. -1.
         23    2    1    2    0    0 -0.35527136788E-14 -0.22204460493E-15  0.35527136788E-14  0.91188000000E+02  0.91188000000E+02 0.  0.
    9900012    2    3    3    0    0 -0.23110464890E+02  0.12783789419E+01  0.28636550333E+02  0.54367084000E+02  0.39999999594E+02 0.  0.
         12    1    3    3    0    0  0.23110464890E+02 -0.12783789419E+01 -0.28636550333E+02  0.36820916000E+02  0.00000000000E+00 0. -1.
         11    1    4    4    0    0 -0.12253425645E+02 -0.90530676416E+01  0.43060048613E+01  0.15831808232E+02  0.51100000000E-03 0. -1.
        -11    1    4    4    0    0  0.36447333893E+01 -0.51089721930E+01  0.19881516026E-03  0.62758010364E+01  0.51100000000E-03 0.  1.
         12    1    4    4    0    0 -0.14501772634E+02  0.15440418777E+02  0.24330346656E+02  0.32259474731E+02  0.00000000000E+00 0. -1.
</event>
<event>
 8    1  0.3011071E-007  0.9118800E+02  0.7816164E-02  0.1184000E+00
        -11   -1    0    0    0    0  0.00000000000E+00  0.00000000000E+00  0.45593999997E+02  0.45594000000E+02  0.51100000000E-03 0. -1.
         11   -1    0    0    0    0 -0.00000000000E+00 -0.00000000000E+00 -0.45593999997E+02  0.45594000000E+02  0.51100000000E-03 0.  1.
         23    2    1    2    0    0 -0.35527136788E-14  0.35527136788E-14 -0.35527136788E-14  0.91188000000E+02  0.91188000000E+02 0.  0.
    9900012    2    3    3    0    0 -0.24664539932E+02 -0.54506866665E+01 -0.26790563793E+02  0.54367030111E+02  0.39999876744E+02 0.  0.
         12    1    3    3    0    0  0.24664539932E+02  0.54506866665E+01  0.26790563793E+02  0.36820969889E+02  0.00000000000E+00 0. -1.
         11    1    4    4    0    0 -0.61492036300E+01 -0.88013858592E+01 -0.18911310411E+02  0.21746603414E+02  0.51100000000E-03 0. -1.
        -11    1    4    4    0    0 -0.57237927818E+01 -0.73697241826E+01 -0.12219935566E+02  0.15375352479E+02  0.51100000000E-03 0.  1.
         12    1    4    4    0    0 -0.12791543520E+02  0.10720423375E+02  0.43406821843E+01  0.17245074218E+02  0.00000000000E+00 0. -1.
</event>
<event>
 8    1  0.3011071E-007  0.9118800E+02  0.7816164E-02  0.1184000E+00
        -11   -1    0    0    0    0  0.00000000000E+00  0.00000000000E+00  0.45593999997E+02  0.45594000000E+02  0.51100000000E-03 0.  1.
         11   -1    0    0    0    0 -0.00000000000E+00 -0.00000000000E+00 -0.45593999997E+02  0.45594000000E+02  0.51100000000E-03 0. -1.
         23    2    1    2    0    0  0.00000000000E+00  0.00000000000E+00  0.17763568394E-14  0.91188000000E+02  0.91188000000E+02 0.  0.
    9900012    2    3    3    0    0  0.31061566566E+02 -0.13306507007E+02  0.14625164445E+02  0.54367089076E+02  0.40000011165E+02 0.  0.
         12    1    3    3    0    0 -0.31061566566E+02  0.13306507007E+02 -0.14625164445E+02  0.36820910924E+02  0.00000000000E+00 0. -1.
         11    1    4    4    0    0  0.27126800376E+02 -0.14264245790E+02  0.15649832048E+02  0.34412922718E+02  0.51100000000E-03 0. -1.
        -11    1    4    4    0    0  0.56742266438E+01 -0.29255003993E+01  0.78464042193E+01  0.10115407062E+02  0.51100000000E-03 0.  1.
         12    1    4    4    0    0 -0.17394604538E+01  0.38832391814E+01 -0.88710718223E+01  0.98387592961E+01  0.00000000000E+00 0. -1.
</event>
<event>
 8    1  0.3011071E-007  0.9118800E+02  0.7816164E-02  0.1184000E+00
        -11   -1    0    0    0    0  0.00000000000E+00  0.00000000000E+00  0.45593999997E+02  0.45594000000E+02  0.51100000000E-03 0.  1.
         11   -1    0    0    0    0 -0.00000000000E+00 -0.00000000000E+00 -0.45593999997E+02  0.45594000000E+02  0.51100000000E-03 0. -1.
         23    2    1    2    0    0  0.88817841970E-15  0.17763568394E-14 -0.71054273576E-14  0.91188000000E+02  0.91188000000E+02 0.  0.
    9900012    2    3    3    0    0 -0.39966104172E+01 -0.13708751721E+02  0.33939323763E+02  0.54367075703E+02  0.39999980681E+02 0.  0.
         12    1    3    3    0    0  0.39966104172E+01  0.13708751721E+02 -0.33939323763E+02  0.36820924297E+02  0.00000000000E+00 0. -1.
         11    1    4    4    0    0 -0.24071047087E+01 -0.95872269498E+01  0.30831370171E+02  0.32377190436E+02  0.51100000000E-03 0.  1.
        -11    1    4    4    0    0 -0.57276800144E+01  0.74644975978E+01  0.21395108372E+01  0.96489662461E+01  0.51100000000E-03 0. -1.
         12    1    4    4    0    0  0.41381743059E+01 -0.11586022369E+02  0.96844275513E+00  0.12340919021E+02  0.00000000000E+00 0. -1.
</event>
<event>
 8    1  0.3011071E-007  0.9118800E+02  0.7816164E-02  0.1184000E+00
        -11   -1    0    0    0    0  0.00000000000E+00  0.00000000000E+00  0.45593999997E+02  0.45594000000E+02  0.51100000000E-03 0.  1.
         11   -1    0    0    0    0 -0.00000000000E+00 -0.00000000000E+00 -0.45593999997E+02  0.45594000000E+02  0.51100000000E-03 0. -1.
         23    2    1    2    0    0  0.00000000000E+00  0.00000000000E+00  0.35527136788E-14  0.91188000000E+02  0.91188000000E+02 0.  0.
    9900012    2    3    3    0    0  0.17794285770E+02 -0.69318496682E+01  0.31481615354E+02  0.54367092200E+02  0.40000018289E+02 0.  0.
         12    1    3    3    0    0 -0.17794285770E+02  0.69318496682E+01 -0.31481615354E+02  0.36820907800E+02  0.00000000000E+00 0. -1.
         11    1    4    4    0    0 -0.22418763530E+01 -0.46576563056E+01  0.51238054194E+01  0.72782658704E+01  0.51100000000E-03 0. -1.
        -11    1    4    4    0    0 -0.20203258885E+01  0.53574433477E+01  0.22765536780E+02  0.23474530476E+02  0.51100000000E-03 0.  1.
         12    1    4    4    0    0  0.22056488011E+02 -0.76316367104E+01  0.35922731550E+01  0.23614295854E+02  0.00000000000E+00 0. -1.
</event>
<event>
 8    1  0.3011071E-007  0.9118800E+02  0.7816164E-02  0.1184000E+00
        -11   -1    0    0    0    0  0.00000000000E+00  0.00000000000E+00  0.45593999997E+02  0.45594000000E+02  0.51100000000E-03 0.  1.
         11   -1    0    0    0    0 -0.00000000000E+00 -0.00000000000E+00 -0.45593999997E+02  0.45594000000E+02  0.51100000000E-03 0. -1.
         23    2    1    2    0    0  0.00000000000E+00 -0.35527136788E-14 -0.35527136788E-14  0.91188000000E+02  0.91188000000E+02 0.  0.
    9900012    2    3    3    0    0 -0.13592811406E+02 -0.22162580464E+02  0.26073660713E+02  0.54367078261E+02  0.39999986512E+02 0.  0.
         12    1    3    3    0    0  0.13592811406E+02  0.22162580464E+02 -0.26073660713E+02  0.36820921739E+02  0.00000000000E+00 0. -1.
         11    1    4    4    0    0  0.85591493842E+00 -0.23155964396E+02  0.10489056189E+02  0.25435242823E+02  0.51100000000E-03 0. -1.
        -11    1    4    4    0    0 -0.90919820003E+01  0.60973860912E+01  0.18069259208E+02  0.21126769333E+02  0.51100000000E-03 0.  1.
        -12    1    4    4    0    0 -0.53567443438E+01 -0.51040021593E+01 -0.24846546841E+01  0.78050661052E+01  0.00000000000E+00 0.  1.
</event>
<event>
 8    1  0.3011071E-007  0.9118800E+02  0.7816164E-02  0.1184000E+00
        -11   -1    0    0    0    0  0.00000000000E+00  0.00000000000E+00  0.45593999997E+02  0.45594000000E+02  0.51100000000E-03 0.  1.
         11   -1    0    0    0    0 -0.00000000000E+00 -0.00000000000E+00 -0.45593999997E+02  0.45594000000E+02  0.51100000000E-03 0. -1.
         23    2    1    2    0    0 -0.44408920985E-15 -0.44408920985E-15  0.00000000000E+00  0.91188000000E+02  0.91188000000E+02 0.  0.
    9900012    2    3    3    0    0 -0.26524570627E+01  0.25370793079E+01 -0.36637520539E+02  0.54367079165E+02  0.39999988573E+02 0.  0.
        -12    1    3    3    0    0  0.26524570627E+01 -0.25370793079E+01  0.36637520539E+02  0.36820920835E+02  0.00000000000E+00 0.  1.
         11    1    4    4    0    0 -0.68796054322E+01  0.21977122379E+01 -0.14173571585E+02  0.15907515259E+02  0.51100000000E-03 0. -1.
        -11    1    4    4    0    0  0.26609263905E+01  0.97624340197E+00 -0.30305526453E+02  0.30437781035E+02  0.51100000000E-03 0.  1.
        -12    1    4    4    0    0  0.15662219790E+01 -0.63687633198E+00  0.78415774996E+01  0.80217828712E+01  0.00000000000E+00 0.  1.
</event>
<event>
 8    1  0.3011071E-007  0.9118800E+02  0.7816164E-02  0.1184000E+00
        -11   -1    0    0    0    0  0.00000000000E+00  0.00000000000E+00  0.45593999997E+02  0.45594000000E+02  0.51100000000E-03 0. -1.
         11   -1    0    0    0    0 -0.00000000000E+00 -0.00000000000E+00 -0.45593999997E+02  0.45594000000E+02  0.51100000000E-03 0.  1.
         23    2    1    2    0    0  0.00000000000E+00  0.00000000000E+00 -0.35527136788E-14  0.91188000000E+02  0.91188000000E+02 0.  0.
    9900012    2    3    3    0    0 -0.16267694421E+02 -0.11855582900E+02 -0.30831653271E+02  0.54367033539E+02  0.39999884560E+02 0.  0.
         12    1    3    3    0    0  0.16267694421E+02  0.11855582900E+02  0.30831653271E+02  0.36820966461E+02  0.00000000000E+00 0. -1.
         11    1    4    4    0    0 -0.82773721727E+01 -0.70570472291E+01 -0.10909494474E+02  0.15405644278E+02  0.51100000000E-03 0. -1.
        -11    1    4    4    0    0 -0.12547515099E+02 -0.16276365540E+02 -0.88526796911E+01  0.22377000432E+02  0.51100000000E-03 0.  1.
         12    1    4    4    0    0  0.45571928503E+01  0.11477829869E+02 -0.11069479105E+02  0.16584388829E+02  0.00000000000E+00 0. -1.
</event>
<event>
 8    1  0.3011071E-007  0.9118800E+02  0.7816164E-02  0.1184000E+00
        -11   -1    0    0    0    0  0.00000000000E+00  0.00000000000E+00  0.45593999997E+02  0.45594000000E+02  0.51100000000E-03 0.  1.
         11   -1    0    0    0    0 -0.00000000000E+00 -0.00000000000E+00 -0.45593999997E+02  0.45594000000E+02  0.51100000000E-03 0. -1.
         23    2    1    2    0    0  0.35527136788E-14  0.00000000000E+00  0.00000000000E+00  0.91188000000E+02  0.91188000000E+02 0.  0.
    9900012    2    3    3    0    0 -0.30150588585E+02  0.18529142900E+02 -0.10168186027E+02  0.54367093769E+02  0.40000021865E+02 0.  0.
        -12    1    3    3    0    0  0.30150588585E+02 -0.18529142900E+02  0.10168186027E+02  0.36820906231E+02  0.00000000000E+00 0.  1.
         11    1    4    4    0    0 -0.17509346187E+02 -0.41653006491E+00 -0.10483534795E+01  0.17545647508E+02  0.51100000000E-03 0. -1.
        -11    1    4    4    0    0  0.48955022573E+01 -0.29731706628E+01  0.27384905065E+01  0.63486232096E+01  0.51100000000E-03 0.  1.
         12    1    4    4    0    0 -0.17536744655E+02  0.21918843627E+02 -0.11858323054E+02  0.30472823052E+02  0.00000000000E+00 0. -1.
</event>
<event>
 8    1  0.3011071E-007  0.9118800E+02  0.7816164E-02  0.1184000E+00
        -11   -1    0    0    0    0  0.00000000000E+00  0.00000000000E+00  0.45593999997E+02  0.45594000000E+02  0.51100000000E-03 0.  1.
         11   -1    0    0    0    0 -0.00000000000E+00 -0.00000000000E+00 -0.45593999997E+02  0.45594000000E+02  0.51100000000E-03 0. -1.
         23    2    1    2    0    0  0.71054273576E-14 -0.17763568394E-14  0.00000000000E+00  0.91188000000E+02  0.91188000000E+02 0.  0.
    9900012    2    3    3    0    0  0.33642098078E+02 -0.14059792161E+02 -0.51295306934E+01  0.54367073833E+02  0.39999976417E+02 0.  0.
        -12    1    3    3    0    0 -0.33642098078E+02  0.14059792161E+02  0.51295306934E+01  0.36820926167E+02  0.00000000000E+00 0.  1.
         11    1    4    4    0    0  0.26109121305E+01 -0.16879921384E+02  0.78277873855E+01  0.18788902674E+02  0.51100000000E-03 0. -1.
        -11    1    4    4    0    0  0.16172808660E+02 -0.21115040569E+01 -0.19189845863E+01  0.16422566530E+02  0.51100000000E-03 0.  1.
        -12    1    4    4    0    0  0.14858377287E+02  0.49316332798E+01 -0.11038333493E+02  0.19155604629E+02  0.00000000000E+00 0.  1.
</event>
<event>
 8    1  0.3011071E-007  0.9118800E+02  0.7816164E-02  0.1184000E+00
        -11   -1    0    0    0    0  0.00000000000E+00  0.00000000000E+00  0.45593999997E+02  0.45594000000E+02  0.51100000000E-03 0. -1.
         11   -1    0    0    0    0 -0.00000000000E+00 -0.00000000000E+00 -0.45593999997E+02  0.45594000000E+02  0.51100000000E-03 0.  1.
         23    2    1    2    0    0  0.00000000000E+00  0.00000000000E+00  0.00000000000E+00  0.91188000000E+02  0.91188000000E+02 0.  0.
    9900012    2    3    3    0    0  0.35373738335E+02  0.10020590428E+02 -0.20163592513E+01  0.54367091524E+02  0.40000016748E+02 0.  0.
         12    1    3    3    0    0 -0.35373738335E+02 -0.10020590428E+02  0.20163592513E+01  0.36820908476E+02  0.00000000000E+00 0. -1.
         11    1    4    4    0    0  0.14338433356E+02  0.15211480992E+02 -0.35447710690E+01  0.21202481630E+02  0.51100000000E-03 0. -1.
        -11    1    4    4    0    0  0.23808797649E+02 -0.11030806651E+02 -0.90799874729E+00  0.26255704197E+02  0.51100000000E-03 0.  1.
         12    1    4    4    0    0 -0.27734926697E+01  0.58399160880E+01  0.24364105650E+01  0.69089056981E+01  0.00000000000E+00 0. -1.
</event>
<event>
 8    1  0.3011071E-007  0.9118800E+02  0.7816164E-02  0.1184000E+00
        -11   -1    0    0    0    0  0.00000000000E+00  0.00000000000E+00  0.45593999997E+02  0.45594000000E+02  0.51100000000E-03 0. -1.
         11   -1    0    0    0    0 -0.00000000000E+00 -0.00000000000E+00 -0.45593999997E+02  0.45594000000E+02  0.51100000000E-03 0.  1.
         23    2    1    2    0    0 -0.18873791419E-14  0.00000000000E+00  0.00000000000E+00  0.91188000000E+02  0.91188000000E+02 0.  0.
    9900012    2    3    3    0    0 -0.50733238433E+00 -0.34915683181E+01 -0.36651499123E+02  0.54367070851E+02  0.39999969619E+02 0.  0.
         12    1    3    3    0    0  0.50733238433E+00  0.34915683181E+01  0.36651499123E+02  0.36820929149E+02  0.00000000000E+00 0. -1.
         11    1    4    4    0    0 -0.31556185312E+01  0.22634503897E+01  0.11420714507E+01  0.40478961746E+01  0.51100000000E-03 0.  1.
        -11    1    4    4    0    0 -0.14781833649E+02  0.24113631547E+00 -0.17255394762E+02  0.22722442681E+02  0.51100000000E-03 0. -1.
        -12    1    4    4    0    0  0.17430119796E+02 -0.59961550233E+01 -0.20538175812E+02  0.27596731995E+02  0.00000000000E+00 0.  1.
</event>
<event>
 8    1  0.3011071E-007  0.9118800E+02  0.7816164E-02  0.1184000E+00
        -11   -1    0    0    0    0  0.00000000000E+00  0.00000000000E+00  0.45593999997E+02  0.45594000000E+02  0.51100000000E-03 0. -1.
         11   -1    0    0    0    0 -0.00000000000E+00 -0.00000000000E+00 -0.45593999997E+02  0.45594000000E+02  0.51100000000E-03 0.  1.
         23    2    1    2    0    0  0.00000000000E+00  0.44408920985E-15  0.00000000000E+00  0.91188000000E+02  0.91188000000E+02 0.  0.
    9900012    2    3    3    0    0  0.36598610500E+02  0.22045862032E+01  0.33853713387E+01  0.54367092489E+02  0.40000018946E+02 0.  0.
        -12    1    3    3    0    0 -0.36598610500E+02 -0.22045862032E+01 -0.33853713387E+01  0.36820907511E+02  0.00000000000E+00 0.  1.
         11    1    4    4    0    0 -0.30095730662E+01 -0.10965828552E+02  0.21351878669E+01  0.11570045521E+02  0.51100000000E-03 0. -1.
        -11    1    4    4    0    0  0.25677630126E+02  0.12029234476E+02  0.37353042718E+01  0.28600623581E+02  0.51100000000E-03 0.  1.
        -12    1    4    4    0    0  0.13930553440E+02  0.11411802784E+01 -0.24851207999E+01  0.14196423387E+02  0.00000000000E+00 0.  1.
</event>
<event>
 8    1  0.3011071E-007  0.9118800E+02  0.7816164E-02  0.1184000E+00
        -11   -1    0    0    0    0  0.00000000000E+00  0.00000000000E+00  0.45593999997E+02  0.45594000000E+02  0.51100000000E-03 0. -1.
         11   -1    0    0    0    0 -0.00000000000E+00 -0.00000000000E+00 -0.45593999997E+02  0.45594000000E+02  0.51100000000E-03 0.  1.
         23    2    1    2    0    0 -0.88817841970E-15  0.00000000000E+00  0.00000000000E+00  0.91188000000E+02  0.91188000000E+02 0.  0.
    9900012    2    3    3    0    0  0.73521263441E+01 -0.31881178480E+02 -0.16891322892E+02  0.54367080781E+02  0.39999992256E+02 0.  0.
         12    1    3    3    0    0 -0.73521263441E+01  0.31881178480E+02  0.16891322892E+02  0.36820919219E+02  0.00000000000E+00 0. -1.
         11    1    4    4    0    0  0.38191989320E+00 -0.24620174709E+01  0.12607036866E+01  0.27922691271E+01  0.51100000000E-03 0. -1.
        -11    1    4    4    0    0  0.18916732119E+02 -0.47916152885E+01 -0.15825971930E+01  0.19578226306E+02  0.51100000000E-03 0.  1.
        -12    1    4    4    0    0 -0.11946525668E+02 -0.24627545721E+02 -0.16569429386E+02  0.31996585348E+02  0.00000000000E+00 0.  1.
</event>
<event>
 8    1  0.3011071E-007  0.9118800E+02  0.7816164E-02  0.1184000E+00
        -11   -1    0    0    0    0  0.00000000000E+00  0.00000000000E+00  0.45593999997E+02  0.45594000000E+02  0.51100000000E-03 0. -1.
         11   -1    0    0    0    0 -0.00000000000E+00 -0.00000000000E+00 -0.45593999997E+02  0.45594000000E+02  0.51100000000E-03 0.  1.
         23    2    1    2    0    0  0.00000000000E+00 -0.88817841970E-15  0.00000000000E+00  0.91188000000E+02  0.91188000000E+02 0.  0.
    9900012    2    3    3    0    0 -0.35759645013E+02  0.67801194884E+01  0.55730594736E+01  0.54367065417E+02  0.39999957230E+02 0.  0.
        -12    1    3    3    0    0  0.35759645013E+02 -0.67801194884E+01 -0.55730594736E+01  0.36820934583E+02  0.00000000000E+00 0.  1.
         11    1    4    4    0    0 -0.96596340050E+01 -0.15302235787E+02  0.67600687169E+01  0.19317491517E+02  0.51100000000E-03 0.  1.
        -11    1    4    4    0    0 -0.71322655590E+01  0.10290899919E+02  0.12489048845E+01  0.12582988390E+02  0.51100000000E-03 0. -1.
        -12    1    4    4    0    0 -0.18967745449E+02  0.11791455356E+02 -0.24359141278E+01  0.22466585509E+02  0.00000000000E+00 0.  1.
</event>
<event>
 8    1  0.3011071E-007  0.9118800E+02  0.7816164E-02  0.1184000E+00
        -11   -1    0    0    0    0  0.00000000000E+00  0.00000000000E+00  0.45593999997E+02  0.45594000000E+02  0.51100000000E-03 0. -1.
         11   -1    0    0    0    0 -0.00000000000E+00 -0.00000000000E+00 -0.45593999997E+02  0.45594000000E+02  0.51100000000E-03 0.  1.
         23    2    1    2    0    0 -0.35527136788E-14  0.00000000000E+00  0.00000000000E+00  0.91188000000E+02  0.91188000000E+02 0.  0.
    9900012    2    3    3    0    0  0.28108314140E+02  0.18237532555E+02 -0.15267480086E+02  0.54367070277E+02  0.39999968310E+02 0.  0.
        -12    1    3    3    0    0 -0.28108314140E+02 -0.18237532555E+02  0.15267480086E+02  0.36820929723E+02  0.00000000000E+00 0.  1.
         11    1    4    4    0    0  0.60763524153E+01  0.33411682865E+01 -0.23000184036E+02  0.24022779400E+02  0.51100000000E-03 0.  1.
        -11    1    4    4    0    0  0.10307489801E+02  0.12152534815E+02 -0.17949369409E+00  0.15936143407E+02  0.51100000000E-03 0. -1.
        -12    1    4    4    0    0  0.11724471923E+02  0.27438294533E+01  0.79121976437E+01  0.14408147470E+02  0.00000000000E+00 0.  1.
</event>
<event>
 8    1  0.3011071E-007  0.9118800E+02  0.7816164E-02  0.1184000E+00
        -11   -1    0    0    0    0  0.00000000000E+00  0.00000000000E+00  0.45593999997E+02  0.45594000000E+02  0.51100000000E-03 0.  1.
         11   -1    0    0    0    0 -0.00000000000E+00 -0.00000000000E+00 -0.45593999997E+02  0.45594000000E+02  0.51100000000E-03 0. -1.
         23    2    1    2    0    0 -0.35527136788E-14  0.00000000000E+00  0.10658141036E-13  0.91188000000E+02  0.91188000000E+02 0.  0.
    9900012    2    3    3    0    0 -0.23244286953E+02 -0.34845621238E+01  0.28343284206E+02  0.54367071050E+02  0.39999970073E+02 0.  0.
         12    1    3    3    0    0  0.23244286953E+02  0.34845621238E+01 -0.28343284206E+02  0.36820928950E+02  0.00000000000E+00 0. -1.
         11    1    4    4    0    0 -0.11215621638E+02  0.27675240215E+01 -0.15347376392E+01  0.11653530702E+02  0.51100000000E-03 0. -1.
        -11    1    4    4    0    0 -0.11475557513E+02  0.70775685050E+01  0.25192642450E+02  0.28573582730E+02  0.51100000000E-03 0.  1.
        -12    1    4    4    0    0 -0.55310780115E+00 -0.13329654650E+02  0.46853793956E+01  0.14139957617E+02  0.00000000000E+00 0.  1.
</event>
<event>
 8    1  0.3011071E-007  0.9118800E+02  0.7816164E-02  0.1184000E+00
        -11   -1    0    0    0    0  0.00000000000E+00  0.00000000000E+00  0.45593999997E+02  0.45594000000E+02  0.51100000000E-03 0.  1.
         11   -1    0    0    0    0 -0.00000000000E+00 -0.00000000000E+00 -0.45593999997E+02  0.45594000000E+02  0.51100000000E-03 0. -1.
         23    2    1    2    0    0 -0.26645352591E-14  0.00000000000E+00 -0.71054273576E-14  0.91188000000E+02  0.91188000000E+02 0.  0.
    9900012    2    3    3    0    0 -0.77269166532E+01  0.22798370822E+01  0.35928818409E+02  0.54367042783E+02  0.39999905633E+02 0.  0.
         12    1    3    3    0    0  0.77269166532E+01 -0.22798370822E+01 -0.35928818409E+02  0.36820957217E+02  0.00000000000E+00 0. -1.
         11    1    4    4    0    0  0.55044323082E+01  0.10674542243E+02  0.11729954058E+02  0.16787985275E+02  0.51100000000E-03 0. -1.
        -11    1    4    4    0    0 -0.14108622059E+02  0.89714496907E+00  0.24449577021E+02  0.28242519404E+02  0.51100000000E-03 0.  1.
         12    1    4    4    0    0  0.87727309737E+00 -0.92918501302E+01 -0.25071267023E+00  0.93365381043E+01  0.00000000000E+00 0. -1.
</event>
<event>
 8    1  0.3011071E-007  0.9118800E+02  0.7816164E-02  0.1184000E+00
        -11   -1    0    0    0    0  0.00000000000E+00  0.00000000000E+00  0.45593999997E+02  0.45594000000E+02  0.51100000000E-03 0. -1.
         11   -1    0    0    0    0 -0.00000000000E+00 -0.00000000000E+00 -0.45593999997E+02  0.45594000000E+02  0.51100000000E-03 0.  1.
         23    2    1    2    0    0  0.00000000000E+00  0.00000000000E+00 -0.35527136788E-14  0.91188000000E+02  0.91188000000E+02 0.  0.
    9900012    2    3    3    0    0  0.76100678492E+01  0.20614173975E+02 -0.29545271245E+02  0.54367077222E+02  0.39999984142E+02 0.  0.
        -12    1    3    3    0    0 -0.76100678492E+01 -0.20614173975E+02  0.29545271245E+02  0.36820922778E+02  0.00000000000E+00 0.  1.
         11    1    4    4    0    0 -0.78249654278E+01  0.20047952274E+02 -0.37832199818E+01  0.21850931971E+02  0.51100000000E-03 0. -1.
        -11    1    4    4    0    0  0.13386679988E+02 -0.27484825419E+01 -0.11913251601E+02  0.18129614484E+02  0.51100000000E-03 0.  1.
        -12    1    4    4    0    0  0.20483532892E+01  0.33147042432E+01 -0.13848799661E+02  0.14386530766E+02  0.00000000000E+00 0.  1.
</event>
<event>
 8    1  0.3011071E-007  0.9118800E+02  0.7816164E-02  0.1184000E+00
        -11   -1    0    0    0    0  0.00000000000E+00  0.00000000000E+00  0.45593999997E+02  0.45594000000E+02  0.51100000000E-03 0.  1.
         11   -1    0    0    0    0 -0.00000000000E+00 -0.00000000000E+00 -0.45593999997E+02  0.45594000000E+02  0.51100000000E-03 0. -1.
         23    2    1    2    0    0 -0.10658141036E-13  0.00000000000E+00 -0.13322676296E-14  0.91188000000E+02  0.91188000000E+02 0.  0.
    9900012    2    3    3    0    0  0.31329193163E+02 -0.19185904636E+02  0.24834992403E+01  0.54367013464E+02  0.39999838794E+02 0.  0.
         12    1    3    3    0    0 -0.31329193163E+02  0.19185904636E+02 -0.24834992403E+01  0.36820986536E+02  0.00000000000E+00 0. -1.
         11    1    4    4    0    0  0.25670809648E+01 -0.80580820962E+01 -0.10837016600E+02  0.13746400285E+02  0.51100000000E-03 0.  1.
        -11    1    4    4    0    0  0.29957856297E+02 -0.15369504523E+02  0.10068238474E+02  0.35143480895E+02  0.51100000000E-03 0. -1.
         12    1    4    4    0    0 -0.11957440982E+01  0.42416819832E+01  0.32522773659E+01  0.54771322843E+01  0.00000000000E+00 0. -1.
</event>
<event>
 8    1  0.3011071E-007  0.9118800E+02  0.7816164E-02  0.1184000E+00
        -11   -1    0    0    0    0  0.00000000000E+00  0.00000000000E+00  0.45593999997E+02  0.45594000000E+02  0.51100000000E-03 0.  1.
         11   -1    0    0    0    0 -0.00000000000E+00 -0.00000000000E+00 -0.45593999997E+02  0.45594000000E+02  0.51100000000E-03 0. -1.
         23    2    1    2    0    0  0.35527136788E-14  0.35527136788E-14  0.00000000000E+00  0.91188000000E+02  0.91188000000E+02 0.  0.
    9900012    2    3    3    0    0  0.21538495905E+02  0.22649811215E+02  0.19464321718E+02  0.54367074239E+02  0.39999977344E+02 0.  0.
        -12    1    3    3    0    0 -0.21538495905E+02 -0.22649811215E+02 -0.19464321718E+02  0.36820925761E+02  0.00000000000E+00 0.  1.
         11    1    4    4    0    0  0.14196593591E+02  0.73887612754E+01 -0.76470985786E+01  0.17737394953E+02  0.51100000000E-03 0. -1.
        -11    1    4    4    0    0  0.13291721113E+02  0.11247606935E+02  0.20156255623E+02  0.26635561809E+02  0.51100000000E-03 0.  1.
         12    1    4    4    0    0 -0.59498187997E+01  0.40134430049E+01  0.69551646739E+01  0.99941174770E+01  0.00000000000E+00 0. -1.
</event>
<event>
 8    1  0.3011071E-007  0.9118800E+02  0.7816164E-02  0.1184000E+00
        -11   -1    0    0    0    0  0.00000000000E+00  0.00000000000E+00  0.45593999997E+02  0.45594000000E+02  0.51100000000E-03 0.  1.
         11   -1    0    0    0    0 -0.00000000000E+00 -0.00000000000E+00 -0.45593999997E+02  0.45594000000E+02  0.51100000000E-03 0. -1.
         23    2    1    2    0    0 -0.13322676296E-14  0.00000000000E+00 -0.35527136788E-14  0.91188000000E+02  0.91188000000E+02 0.  0.
    9900012    2    3    3    0    0  0.13692606586E+01 -0.19479523879E+02  0.31216253752E+02  0.54367065417E+02  0.39999957230E+02 0.  0.
         12    1    3    3    0    0 -0.13692606586E+01  0.19479523879E+02 -0.31216253752E+02  0.36820934583E+02  0.00000000000E+00 0. -1.
         11    1    4    4    0    0  0.25035585983E+01 -0.93498230931E+01 -0.26046599212E+01  0.10023534860E+02  0.51100000000E-03 0. -1.
        -11    1    4    4    0    0 -0.12013549662E+02 -0.66599028241E+01  0.28722136437E+02  0.31837726095E+02  0.51100000000E-03 0.  1.
        -12    1    4    4    0    0  0.10879251722E+02 -0.34697979618E+01  0.50987772358E+01  0.12505804462E+02  0.00000000000E+00 0.  1.
</event>
<event>
 8    1  0.3011071E-007  0.9118800E+02  0.7816164E-02  0.1184000E+00
        -11   -1    0    0    0    0  0.00000000000E+00  0.00000000000E+00  0.45593999997E+02  0.45594000000E+02  0.51100000000E-03 0.  1.
         11   -1    0    0    0    0 -0.00000000000E+00 -0.00000000000E+00 -0.45593999997E+02  0.45594000000E+02  0.51100000000E-03 0. -1.
         23    2    1    2    0    0  0.00000000000E+00 -0.17763568394E-14  0.00000000000E+00  0.91188000000E+02  0.91188000000E+02 0.  0.
    9900012    2    3    3    0    0 -0.21265750331E+02 -0.12488181829E+02  0.27341968016E+02  0.54367217316E+02  0.40000303513E+02 0.  0.
         12    1    3    3    0    0  0.21265750331E+02  0.12488181829E+02 -0.27341968016E+02  0.36820782684E+02  0.00000000000E+00 0. -1.
         11    1    4    4    0    0  0.49688581816E+01 -0.15758197323E+02  0.78095114524E+01  0.18275634158E+02  0.51100000000E-03 0. -1.
        -11    1    4    4    0    0 -0.14609413154E+01  0.52914209840E+01  0.33095900117E+01  0.64099042008E+01  0.51100000000E-03 0.  1.
         12    1    4    4    0    0 -0.24773667197E+02 -0.20214054903E+01  0.16222866551E+02  0.29681678957E+02  0.00000000000E+00 0. -1.
</event>
<event>
 8    1  0.3011071E-007  0.9118800E+02  0.7816164E-02  0.1184000E+00
        -11   -1    0    0    0    0  0.00000000000E+00  0.00000000000E+00  0.45593999997E+02  0.45594000000E+02  0.51100000000E-03 0. -1.
         11   -1    0    0    0    0 -0.00000000000E+00 -0.00000000000E+00 -0.45593999997E+02  0.45594000000E+02  0.51100000000E-03 0.  1.
         23    2    1    2    0    0 -0.35527136788E-14  0.00000000000E+00  0.44408920985E-15  0.91188000000E+02  0.91188000000E+02 0.  0.
    9900012    2    3    3    0    0  0.29589943611E+02  0.21898039301E+02  0.83144312250E+00  0.54367079509E+02  0.39999989357E+02 0.  0.
        -12    1    3    3    0    0 -0.29589943611E+02 -0.21898039301E+02 -0.83144312250E+00  0.36820920491E+02  0.00000000000E+00 0.  1.
         11    1    4    4    0    0  0.87114711369E+01  0.31562836286E+01  0.93240937931E+01  0.13144983113E+02  0.51100000000E-03 0. -1.
        -11    1    4    4    0    0  0.18309644508E+02  0.22472600105E+02 -0.15505375827E+02  0.32873659932E+02  0.51100000000E-03 0.  1.
        -12    1    4    4    0    0  0.25688279653E+01 -0.37308444325E+01  0.70127251560E+01  0.83484364649E+01  0.00000000000E+00 0.  1.
</event>
<event>
 8    1  0.3011071E-007  0.9118800E+02  0.7816164E-02  0.1184000E+00
        -11   -1    0    0    0    0  0.00000000000E+00  0.00000000000E+00  0.45593999997E+02  0.45594000000E+02  0.51100000000E-03 0.  1.
         11   -1    0    0    0    0 -0.00000000000E+00 -0.00000000000E+00 -0.45593999997E+02  0.45594000000E+02  0.51100000000E-03 0. -1.
         23    2    1    2    0    0 -0.22204460493E-15  0.35527136788E-14 -0.35527136788E-14  0.91188000000E+02  0.91188000000E+02 0.  0.
    9900012    2    3    3    0    0  0.18104464810E+01  0.28450663855E+02 -0.23303688913E+02  0.54367083292E+02  0.39999997981E+02 0.  0.
        -12    1    3    3    0    0 -0.18104464810E+01 -0.28450663855E+02  0.23303688913E+02  0.36820916708E+02  0.00000000000E+00 0.  1.
         11    1    4    4    0    0  0.10309506820E+02  0.13554690289E+02 -0.95807349197E+01  0.19539857767E+02  0.51100000000E-03 0. -1.
        -11    1    4    4    0    0 -0.88000744403E+01  0.13464539534E+02 -0.21535121427E+02  0.26879296682E+02  0.51100000000E-03 0.  1.
        -12    1    4    4    0    0  0.30101410123E+00  0.14314340324E+01  0.78121674336E+01  0.79479288427E+01  0.00000000000E+00 0.  1.
</event>
<event>
 8    1  0.3011071E-007  0.9118800E+02  0.7816164E-02  0.1184000E+00
        -11   -1    0    0    0    0  0.00000000000E+00  0.00000000000E+00  0.45593999997E+02  0.45594000000E+02  0.51100000000E-03 0. -1.
         11   -1    0    0    0    0 -0.00000000000E+00 -0.00000000000E+00 -0.45593999997E+02  0.45594000000E+02  0.51100000000E-03 0.  1.
         23    2    1    2    0    0  0.00000000000E+00  0.00000000000E+00  0.00000000000E+00  0.91188000000E+02  0.91188000000E+02 0.  0.
    9900012    2    3    3    0    0 -0.27501759142E+02  0.17975825600E+02  0.16622346103E+02  0.54367089475E+02  0.40000012077E+02 0.  0.
        -12    1    3    3    0    0  0.27501759142E+02 -0.17975825600E+02 -0.16622346103E+02  0.36820910525E+02  0.00000000000E+00 0.  1.
         11    1    4    4    0    0  0.21333924039E+01 -0.64293885561E+00 -0.31775657061E+01  0.38809351449E+01  0.51100000000E-03 0. -1.
        -11    1    4    4    0    0 -0.32128891661E+01  0.60916829340E+01 -0.77100957436E+01  0.10338125285E+02  0.51100000000E-03 0.  1.
         12    1    4    4    0    0 -0.26422262379E+02  0.12527081522E+02  0.27510007553E+02  0.40148029046E+02  0.00000000000E+00 0. -1.
</event>
<event>
 8    1  0.3011071E-007  0.9118800E+02  0.7816164E-02  0.1184000E+00
        -11   -1    0    0    0    0  0.00000000000E+00  0.00000000000E+00  0.45593999997E+02  0.45594000000E+02  0.51100000000E-03 0.  1.
         11   -1    0    0    0    0 -0.00000000000E+00 -0.00000000000E+00 -0.45593999997E+02  0.45594000000E+02  0.51100000000E-03 0. -1.
         23    2    1    2    0    0  0.35527136788E-14  0.35527136788E-14  0.00000000000E+00  0.91188000000E+02  0.91188000000E+02 0.  0.
    9900012    2    3    3    0    0 -0.20939793360E+02 -0.23981866626E+02  0.18497927776E+02  0.54367106409E+02  0.40000050681E+02 0.  0.
        -12    1    3    3    0    0  0.20939793360E+02  0.23981866626E+02 -0.18497927776E+02  0.36820893591E+02  0.00000000000E+00 0.  1.
         11    1    4    4    0    0 -0.46543225756E+01  0.33501800735E+01  0.56237615423E+01  0.80320059330E+01  0.51100000000E-03 0. -1.
        -11    1    4    4    0    0 -0.32271767088E+01  0.68533326036E+01  0.44426905367E+01  0.87818185333E+01  0.51100000000E-03 0.  1.
         12    1    4    4    0    0 -0.13058294075E+02 -0.34185379303E+02  0.84314756969E+01  0.37553281943E+02  0.00000000000E+00 0. -1.
</event>
<event>
 8    1  0.3011071E-007  0.9118800E+02  0.7816164E-02  0.1184000E+00
        -11   -1    0    0    0    0  0.00000000000E+00  0.00000000000E+00  0.45593999997E+02  0.45594000000E+02  0.51100000000E-03 0.  1.
         11   -1    0    0    0    0 -0.00000000000E+00 -0.00000000000E+00 -0.45593999997E+02  0.45594000000E+02  0.51100000000E-03 0. -1.
         23    2    1    2    0    0  0.00000000000E+00  0.17763568394E-14 -0.35527136788E-14  0.91188000000E+02  0.91188000000E+02 0.  0.
    9900012    2    3    3    0    0 -0.18311934868E+02 -0.10969282661E+02  0.30002252724E+02  0.54366983050E+02  0.39999769459E+02 0.  0.
         12    1    3    3    0    0  0.18311934868E+02  0.10969282661E+02 -0.30002252724E+02  0.36821016950E+02  0.00000000000E+00 0. -1.
         11    1    4    4    0    0 -0.20104255883E+01  0.55982524954E+01 -0.56858749008E+01  0.82286946533E+01  0.51100000000E-03 0. -1.
        -11    1    4    4    0    0 -0.15937630568E+02 -0.36897685688E+01  0.19974395807E+02  0.25818577582E+02  0.51100000000E-03 0.  1.
        -12    1    4    4    0    0 -0.36387871158E+00 -0.12877766587E+02  0.15713731817E+02  0.20319710815E+02  0.00000000000E+00 0.  1.
</event>
<event>
 8    1  0.3011071E-007  0.9118800E+02  0.7816164E-02  0.1184000E+00
        -11   -1    0    0    0    0  0.00000000000E+00  0.00000000000E+00  0.45593999997E+02  0.45594000000E+02  0.51100000000E-03 0.  1.
         11   -1    0    0    0    0 -0.00000000000E+00 -0.00000000000E+00 -0.45593999997E+02  0.45594000000E+02  0.51100000000E-03 0. -1.
         23    2    1    2    0    0 -0.35527136788E-14  0.35527136788E-14  0.00000000000E+00  0.91188000000E+02  0.91188000000E+02 0.  0.
    9900012    2    3    3    0    0 -0.21388115970E+02  0.26695988337E+02  0.13625243258E+02  0.54367156014E+02  0.40000163764E+02 0.  0.
         12    1    3    3    0    0  0.21388115970E+02 -0.26695988337E+02 -0.13625243258E+02  0.36820843986E+02  0.00000000000E+00 0. -1.
         11    1    4    4    0    0 -0.15185875440E+02  0.11406597682E+02 -0.41131600406E+01  0.19432945463E+02  0.51100000000E-03 0. -1.
        -11    1    4    4    0    0  0.62421323307E+01 -0.25673617100E+01  0.95181957245E+01  0.11668402303E+02  0.51100000000E-03 0.  1.
        -12    1    4    4    0    0 -0.12444372860E+02  0.17856752365E+02  0.82202075738E+01  0.23265808249E+02  0.00000000000E+00 0.  1.
</event>
<event>
 8    1  0.3011071E-007  0.9118800E+02  0.7816164E-02  0.1184000E+00
        -11   -1    0    0    0    0  0.00000000000E+00  0.00000000000E+00  0.45593999997E+02  0.45594000000E+02  0.51100000000E-03 0.  1.
         11   -1    0    0    0    0 -0.00000000000E+00 -0.00000000000E+00 -0.45593999997E+02  0.45594000000E+02  0.51100000000E-03 0. -1.
         23    2    1    2    0    0  0.00000000000E+00  0.44408920985E-15  0.00000000000E+00  0.91188000000E+02  0.91188000000E+02 0.  0.
    9900012    2    3    3    0    0 -0.10209327085E+02 -0.39566743478E+01 -0.35155285261E+02  0.54367085926E+02  0.40000003986E+02 0.  0.
        -12    1    3    3    0    0  0.10209327085E+02  0.39566743478E+01  0.35155285261E+02  0.36820914074E+02  0.00000000000E+00 0.  1.
         11    1    4    4    0    0 -0.53227250055E+01  0.28617180082E+01  0.62210794337E+01  0.86730998510E+01  0.51100000000E-03 0.  1.
        -11    1    4    4    0    0 -0.85696401670E+01 -0.73544120885E+00 -0.86294778941E+01  0.12183903125E+02  0.51100000000E-03 0. -1.
        -12    1    4    4    0    0  0.36830380875E+01 -0.60829511472E+01 -0.32746886801E+02  0.33510082951E+02  0.00000000000E+00 0.  1.
</event>
<event>
 8    1  0.3011071E-007  0.9118800E+02  0.7816164E-02  0.1184000E+00
        -11   -1    0    0    0    0  0.00000000000E+00  0.00000000000E+00  0.45593999997E+02  0.45594000000E+02  0.51100000000E-03 0.  1.
         11   -1    0    0    0    0 -0.00000000000E+00 -0.00000000000E+00 -0.45593999997E+02  0.45594000000E+02  0.51100000000E-03 0. -1.
         23    2    1    2    0    0  0.00000000000E+00  0.17763568394E-14  0.00000000000E+00  0.91188000000E+02  0.91188000000E+02 0.  0.
    9900012    2    3    3    0    0 -0.28933957096E+02 -0.14909243281E+02 -0.17213960020E+02  0.54367084367E+02  0.40000000432E+02 0.  0.
        -12    1    3    3    0    0  0.28933957096E+02  0.14909243281E+02  0.17213960020E+02  0.36820915633E+02  0.00000000000E+00 0.  1.
         11    1    4    4    0    0 -0.14249137219E+02  0.21211753229E+00 -0.13906815628E+02  0.19911866475E+02  0.51100000000E-03 0. -1.
        -11    1    4    4    0    0 -0.12822379258E+02  0.52374090639E+01 -0.11733342531E+01  0.13900380465E+02  0.51100000000E-03 0.  1.
        -12    1    4    4    0    0 -0.18624406190E+01 -0.20358769877E+02 -0.21338101388E+01  0.20554837428E+02  0.00000000000E+00 0.  1.
</event>
<event>
 8    1  0.3011071E-007  0.9118800E+02  0.7816164E-02  0.1184000E+00
        -11   -1    0    0    0    0  0.00000000000E+00  0.00000000000E+00  0.45593999997E+02  0.45594000000E+02  0.51100000000E-03 0. -1.
         11   -1    0    0    0    0 -0.00000000000E+00 -0.00000000000E+00 -0.45593999997E+02  0.45594000000E+02  0.51100000000E-03 0.  1.
         23    2    1    2    0    0 -0.66613381478E-15  0.00000000000E+00  0.71054273576E-14  0.91188000000E+02  0.91188000000E+02 0.  0.
    9900012    2    3    3    0    0  0.80988911184E+00  0.27045218770E+02 -0.24973592253E+02  0.54367080828E+02  0.39999992363E+02 0.  0.
         12    1    3    3    0    0 -0.80988911184E+00 -0.27045218770E+02  0.24973592253E+02  0.36820919172E+02  0.00000000000E+00 0. -1.
         11    1    4    4    0    0  0.11109262099E+02  0.19191869422E+01 -0.18013101988E+02  0.21250195914E+02  0.51100000000E-03 0. -1.
        -11    1    4    4    0    0  0.98814271566E+00 -0.24163615243E+01 -0.63009655515E+00  0.26855634367E+01  0.51100000000E-03 0.  1.
         12    1    4    4    0    0 -0.11287515703E+02  0.27542393352E+02 -0.63303937097E+01  0.30431321477E+02  0.00000000000E+00 0. -1.
</event>
<event>
 8    1  0.3011071E-007  0.9118800E+02  0.7816164E-02  0.1184000E+00
        -11   -1    0    0    0    0  0.00000000000E+00  0.00000000000E+00  0.45593999997E+02  0.45594000000E+02  0.51100000000E-03 0.  1.
         11   -1    0    0    0    0 -0.00000000000E+00 -0.00000000000E+00 -0.45593999997E+02  0.45594000000E+02  0.51100000000E-03 0. -1.
         23    2    1    2    0    0 -0.35527136788E-14  0.00000000000E+00  0.00000000000E+00  0.91188000000E+02  0.91188000000E+02 0.  0.
    9900012    2    3    3    0    0 -0.11934896657E+02  0.27745498166E+02 -0.21060041856E+02  0.54367084888E+02  0.40000001619E+02 0.  0.
        -12    1    3    3    0    0  0.11934896657E+02 -0.27745498166E+02  0.21060041856E+02  0.36820915112E+02  0.00000000000E+00 0.  1.
         11    1    4    4    0    0 -0.82256771632E+01  0.13971709966E+01 -0.14358949247E+02  0.16607024879E+02  0.51100000000E-03 0. -1.
        -11    1    4    4    0    0 -0.13547820932E+02  0.21751375344E+02 -0.79464886950E+01  0.26829320979E+02  0.51100000000E-03 0.  1.
        -12    1    4    4    0    0  0.98386014379E+01  0.45969518255E+01  0.12453960858E+01  0.10930739030E+02  0.00000000000E+00 0.  1.
</event>
<event>
 8    1  0.3011071E-007  0.9118800E+02  0.7816164E-02  0.1184000E+00
        -11   -1    0    0    0    0  0.00000000000E+00  0.00000000000E+00  0.45593999997E+02  0.45594000000E+02  0.51100000000E-03 0.  1.
         11   -1    0    0    0    0 -0.00000000000E+00 -0.00000000000E+00 -0.45593999997E+02  0.45594000000E+02  0.51100000000E-03 0. -1.
         23    2    1    2    0    0  0.71054273576E-14  0.00000000000E+00  0.00000000000E+00  0.91188000000E+02  0.91188000000E+02 0.  0.
    9900012    2    3    3    0    0 -0.32746071066E+02 -0.13455058872E+02 -0.10121082330E+02  0.54367080850E+02  0.39999992414E+02 0.  0.
        -12    1    3    3    0    0  0.32746071066E+02  0.13455058872E+02  0.10121082330E+02  0.36820919150E+02  0.00000000000E+00 0.  1.
         11    1    4    4    0    0  0.94653069437E+00 -0.71599908931E+01 -0.68736497438E+01  0.99703786792E+01  0.51100000000E-03 0. -1.
        -11    1    4    4    0    0 -0.15984281601E+02  0.89729559519E+01 -0.88471488575E+01  0.20353949002E+02  0.51100000000E-03 0.  1.
        -12    1    4    4    0    0 -0.17708320159E+02 -0.15268023931E+02  0.55997162712E+01  0.24042753169E+02  0.00000000000E+00 0.  1.
</event>
<event>
 8    1  0.3011071E-007  0.9118800E+02  0.7816164E-02  0.1184000E+00
        -11   -1    0    0    0    0  0.00000000000E+00  0.00000000000E+00  0.45593999997E+02  0.45594000000E+02  0.51100000000E-03 0.  1.
         11   -1    0    0    0    0 -0.00000000000E+00 -0.00000000000E+00 -0.45593999997E+02  0.45594000000E+02  0.51100000000E-03 0. -1.
         23    2    1    2    0    0  0.00000000000E+00  0.00000000000E+00  0.00000000000E+00  0.91188000000E+02  0.91188000000E+02 0.  0.
    9900012    2    3    3    0    0 -0.26440839976E+02  0.16601971182E+02  0.19520149868E+02  0.54367085879E+02  0.40000003879E+02 0.  0.
         12    1    3    3    0    0  0.26440839976E+02 -0.16601971182E+02 -0.19520149868E+02  0.36820914121E+02  0.00000000000E+00 0. -1.
         11    1    4    4    0    0 -0.56513542243E+01  0.71083250762E+01  0.31569438975E+01  0.96141762512E+01  0.51100000000E-03 0. -1.
        -11    1    4    4    0    0 -0.65985615218E+01  0.20125713724E+02  0.16771728921E+02  0.27016222132E+02  0.51100000000E-03 0.  1.
         12    1    4    4    0    0 -0.14190924230E+02 -0.10632067617E+02 -0.40852294959E+00  0.17736687496E+02  0.00000000000E+00 0. -1.
</event>
<event>
 8    1  0.3011071E-007  0.9118800E+02  0.7816164E-02  0.1184000E+00
        -11   -1    0    0    0    0  0.00000000000E+00  0.00000000000E+00  0.45593999997E+02  0.45594000000E+02  0.51100000000E-03 0.  1.
         11   -1    0    0    0    0 -0.00000000000E+00 -0.00000000000E+00 -0.45593999997E+02  0.45594000000E+02  0.51100000000E-03 0. -1.
         23    2    1    2    0    0 -0.17763568394E-14  0.44408920985E-15  0.71054273576E-14  0.91188000000E+02  0.91188000000E+02 0.  0.
    9900012    2    3    3    0    0  0.11013258949E+02 -0.25008141028E+01 -0.35046161538E+02  0.54367090419E+02  0.40000014228E+02 0.  0.
        -12    1    3    3    0    0 -0.11013258949E+02  0.25008141028E+01  0.35046161538E+02  0.36820909581E+02  0.00000000000E+00 0.  1.
         11    1    4    4    0    0 -0.75148742326E+01  0.10018227438E+01 -0.59929776428E+01  0.96639932135E+01  0.51100000000E-03 0. -1.
        -11    1    4    4    0    0  0.13517352892E+02 -0.15646285936E+02 -0.19855548868E+02  0.28666494622E+02  0.51100000000E-03 0.  1.
        -12    1    4    4    0    0  0.50107802900E+01  0.12143649090E+02 -0.91976350275E+01  0.16036602584E+02  0.00000000000E+00 0.  1.
</event>
<event>
 8    1  0.3011071E-007  0.9118800E+02  0.7816164E-02  0.1184000E+00
        -11   -1    0    0    0    0  0.00000000000E+00  0.00000000000E+00  0.45593999997E+02  0.45594000000E+02  0.51100000000E-03 0. -1.
         11   -1    0    0    0    0 -0.00000000000E+00 -0.00000000000E+00 -0.45593999997E+02  0.45594000000E+02  0.51100000000E-03 0.  1.
         23    2    1    2    0    0  0.00000000000E+00 -0.35527136788E-14 -0.35527136788E-14  0.91188000000E+02  0.91188000000E+02 0.  0.
    9900012    2    3    3    0    0 -0.12740004436E+02  0.21721009977E+02 -0.26863898866E+02  0.54367094936E+02  0.40000024527E+02 0.  0.
         12    1    3    3    0    0  0.12740004436E+02 -0.21721009977E+02  0.26863898866E+02  0.36820905064E+02  0.00000000000E+00 0. -1.
         11    1    4    4    0    0 -0.72754715505E+01  0.51911275979E+01 -0.23157460249E+02  0.24822333844E+02  0.51100000000E-03 0. -1.
        -11    1    4    4    0    0 -0.75601939254E+01  0.20047651078E+02 -0.86671335708E+01  0.23112421996E+02  0.51100000000E-03 0.  1.
         12    1    4    4    0    0  0.20956610403E+01 -0.35177686996E+01  0.49606949539E+01  0.64323390960E+01  0.00000000000E+00 0. -1.
</event>
<event>
 8    1  0.3011071E-007  0.9118800E+02  0.7816164E-02  0.1184000E+00
        -11   -1    0    0    0    0  0.00000000000E+00  0.00000000000E+00  0.45593999997E+02  0.45594000000E+02  0.51100000000E-03 0.  1.
         11   -1    0    0    0    0 -0.00000000000E+00 -0.00000000000E+00 -0.45593999997E+02  0.45594000000E+02  0.51100000000E-03 0. -1.
         23    2    1    2    0    0 -0.88817841970E-15  0.35527136788E-14  0.35527136788E-14  0.91188000000E+02  0.91188000000E+02 0.  0.
    9900012    2    3    3    0    0  0.51671200007E+01 -0.30325543856E+02 -0.20234733366E+02  0.54367052515E+02  0.39999927819E+02 0.  0.
         12    1    3    3    0    0 -0.51671200007E+01  0.30325543856E+02  0.20234733366E+02  0.36820947485E+02  0.00000000000E+00 0. -1.
         11    1    4    4    0    0  0.23205041934E+01  0.64628939639E+01  0.88612436526E+00  0.69237962674E+01  0.51100000000E-03 0. -1.
        -11    1    4    4    0    0  0.37260404719E+01 -0.26399795692E+02 -0.33923993530E+01  0.26876401616E+02  0.51100000000E-03 0.  1.
         12    1    4    4    0    0 -0.87942466459E+00 -0.10388642128E+02 -0.17728458378E+02  0.20566854632E+02  0.00000000000E+00 0. -1.
</event>
<event>
 8    1  0.3011071E-007  0.9118800E+02  0.7816164E-02  0.1184000E+00
        -11   -1    0    0    0    0  0.00000000000E+00  0.00000000000E+00  0.45593999997E+02  0.45594000000E+02  0.51100000000E-03 0. -1.
         11   -1    0    0    0    0 -0.00000000000E+00 -0.00000000000E+00 -0.45593999997E+02  0.45594000000E+02  0.51100000000E-03 0.  1.
         23    2    1    2    0    0  0.35527136788E-14  0.00000000000E+00 -0.35527136788E-14  0.91188000000E+02  0.91188000000E+02 0.  0.
    9900012    2    3    3    0    0  0.26360111173E+02  0.40200813266E+01 -0.25392205773E+02  0.54367073492E+02  0.39999975639E+02 0.  0.
         12    1    3    3    0    0 -0.26360111173E+02 -0.40200813266E+01  0.25392205773E+02  0.36820926508E+02  0.00000000000E+00 0. -1.
         11    1    4    4    0    0  0.10208031753E+02 -0.44206170624E+01 -0.47718910855E+01  0.12104408795E+02  0.51100000000E-03 0.  1.
        -11    1    4    4    0    0  0.61404644087E+01  0.20023135388E+02 -0.79913486356E+01  0.22416353566E+02  0.51100000000E-03 0. -1.
         12    1    4    4    0    0  0.10011615011E+02 -0.11582436999E+02 -0.12628966052E+02  0.19846311131E+02  0.00000000000E+00 0. -1.
</event>
<event>
 8    1  0.3011071E-007  0.9118800E+02  0.7816164E-02  0.1184000E+00
        -11   -1    0    0    0    0  0.00000000000E+00  0.00000000000E+00  0.45593999997E+02  0.45594000000E+02  0.51100000000E-03 0.  1.
         11   -1    0    0    0    0 -0.00000000000E+00 -0.00000000000E+00 -0.45593999997E+02  0.45594000000E+02  0.51100000000E-03 0. -1.
         23    2    1    2    0    0 -0.71054273576E-14 -0.88817841970E-15  0.17763568394E-14  0.91188000000E+02  0.91188000000E+02 0.  0.
    9900012    2    3    3    0    0 -0.35596669523E+02 -0.44529720295E+01  0.82962379986E+01  0.54367090099E+02  0.40000013498E+02 0.  0.
         12    1    3    3    0    0  0.35596669523E+02  0.44529720295E+01 -0.82962379986E+01  0.36820909901E+02  0.00000000000E+00 0. -1.
         11    1    4    4    0    0 -0.14758258447E+02 -0.66350319765E+01 -0.98190246642E+01  0.18927310621E+02  0.51100000000E-03 0. -1.
        -11    1    4    4    0    0 -0.25413568445E+02  0.22124459485E+01  0.17219882840E+02  0.30777731292E+02  0.51100000000E-03 0.  1.
        -12    1    4    4    0    0  0.45751573692E+01 -0.30386001513E-01  0.89537982320E+00  0.46620481861E+01  0.00000000000E+00 0.  1.
</event>
<event>
 8    1  0.3011071E-007  0.9118800E+02  0.7816164E-02  0.1184000E+00
        -11   -1    0    0    0    0  0.00000000000E+00  0.00000000000E+00  0.45593999997E+02  0.45594000000E+02  0.51100000000E-03 0. -1.
         11   -1    0    0    0    0 -0.00000000000E+00 -0.00000000000E+00 -0.45593999997E+02  0.45594000000E+02  0.51100000000E-03 0.  1.
         23    2    1    2    0    0 -0.71054273576E-14 -0.17763568394E-14  0.35527136788E-14  0.91188000000E+02  0.91188000000E+02 0.  0.
    9900012    2    3    3    0    0 -0.27190171538E+02 -0.15121749508E+02  0.19692818373E+02  0.54367084315E+02  0.40000000313E+02 0.  0.
        -12    1    3    3    0    0  0.27190171538E+02  0.15121749508E+02 -0.19692818373E+02  0.36820915685E+02  0.00000000000E+00 0.  1.
         11    1    4    4    0    0 -0.37890100858E+01 -0.12026166463E+02  0.17343523175E+02  0.21442552871E+02  0.51100000000E-03 0. -1.
        -11    1    4    4    0    0 -0.11155556616E+02  0.64478159344E+01  0.93239618634E+01  0.15904623190E+02  0.51100000000E-03 0.  1.
        -12    1    4    4    0    0 -0.12245604836E+02 -0.95433989789E+01 -0.69746666656E+01  0.17019908254E+02  0.00000000000E+00 0.  1.
</event>
<event>
 8    1  0.3011071E-007  0.9118800E+02  0.7816164E-02  0.1184000E+00
        -11   -1    0    0    0    0  0.00000000000E+00  0.00000000000E+00  0.45593999997E+02  0.45594000000E+02  0.51100000000E-03 0. -1.
         11   -1    0    0    0    0 -0.00000000000E+00 -0.00000000000E+00 -0.45593999997E+02  0.45594000000E+02  0.51100000000E-03 0.  1.
         23    2    1    2    0    0  0.00000000000E+00  0.00000000000E+00 -0.88817841970E-15  0.91188000000E+02  0.91188000000E+02 0.  0.
    9900012    2    3    3    0    0 -0.30635578506E+02  0.19668382367E+02  0.55131342854E+01  0.54367101247E+02  0.40000038912E+02 0.  0.
         12    1    3    3    0    0  0.30635578506E+02 -0.19668382367E+02 -0.55131342854E+01  0.36820898753E+02  0.00000000000E+00 0. -1.
         11    1    4    4    0    0 -0.77769426675E+01 -0.66442004818E+01 -0.10702592105E+01  0.10284536564E+02  0.51100000000E-03 0. -1.
        -11    1    4    4    0    0 -0.26464150597E+01  0.22340308373E+02  0.13138382559E+00  0.22496892070E+02  0.51100000000E-03 0.  1.
         12    1    4    4    0    0 -0.20212220779E+02  0.39722744764E+01  0.64520096703E+01  0.21585672612E+02  0.00000000000E+00 0. -1.
</event>
<event>
 8    1  0.3011071E-007  0.9118800E+02  0.7816164E-02  0.1184000E+00
        -11   -1    0    0    0    0  0.00000000000E+00  0.00000000000E+00  0.45593999997E+02  0.45594000000E+02  0.51100000000E-03 0.  1.
         11   -1    0    0    0    0 -0.00000000000E+00 -0.00000000000E+00 -0.45593999997E+02  0.45594000000E+02  0.51100000000E-03 0. -1.
         23    2    1    2    0    0 -0.71054273576E-14  0.00000000000E+00  0.22204460493E-14  0.91188000000E+02  0.91188000000E+02 0.  0.
    9900012    2    3    3    0    0  0.32836101319E+02 -0.16309016613E+02  0.34038682548E+01  0.54367083501E+02  0.39999998457E+02 0.  0.
         12    1    3    3    0    0 -0.32836101319E+02  0.16309016613E+02 -0.34038682548E+01  0.36820916499E+02  0.00000000000E+00 0. -1.
         11    1    4    4    0    0  0.20694664678E+02 -0.17897575721E+02  0.11591991812E+02  0.29714754538E+02  0.51100000000E-03 0. -1.
        -11    1    4    4    0    0  0.94140375739E+01  0.73796967589E+01  0.24752077039E+01  0.12215182403E+02  0.51100000000E-03 0.  1.
         12    1    4    4    0    0  0.27273990671E+01 -0.57911376509E+01 -0.10663331261E+02  0.12437146560E+02  0.00000000000E+00 0. -1.
</event>
<event>
 8    1  0.3011071E-007  0.9118800E+02  0.7816164E-02  0.1184000E+00
        -11   -1    0    0    0    0  0.00000000000E+00  0.00000000000E+00  0.45593999997E+02  0.45594000000E+02  0.51100000000E-03 0.  1.
         11   -1    0    0    0    0 -0.00000000000E+00 -0.00000000000E+00 -0.45593999997E+02  0.45594000000E+02  0.51100000000E-03 0. -1.
         23    2    1    2    0    0  0.00000000000E+00  0.00000000000E+00  0.35527136788E-14  0.91188000000E+02  0.91188000000E+02 0.  0.
    9900012    2    3    3    0    0  0.34799905548E+02 -0.15355534774E+01  0.11932651245E+02  0.54367088599E+02  0.40000010079E+02 0.  0.
         12    1    3    3    0    0 -0.34799905548E+02  0.15355534774E+01 -0.11932651245E+02  0.36820911401E+02  0.00000000000E+00 0. -1.
         11    1    4    4    0    0  0.59131261042E+00 -0.13036442918E+01  0.10654705073E+01  0.17844793935E+01  0.51100000000E-03 0. -1.
        -11    1    4    4    0    0  0.22341454238E+02  0.12624830074E+02  0.20286417754E+02  0.32711858055E+02  0.51100000000E-03 0.  1.
        -12    1    4    4    0    0  0.11867138700E+02 -0.12856739259E+02 -0.94192370166E+01  0.19870751150E+02  0.00000000000E+00 0.  1.
</event>
<event>
 8    1  0.3011071E-007  0.9118800E+02  0.7816164E-02  0.1184000E+00
        -11   -1    0    0    0    0  0.00000000000E+00  0.00000000000E+00  0.45593999997E+02  0.45594000000E+02  0.51100000000E-03 0. -1.
         11   -1    0    0    0    0 -0.00000000000E+00 -0.00000000000E+00 -0.45593999997E+02  0.45594000000E+02  0.51100000000E-03 0.  1.
         23    2    1    2    0    0 -0.44408920985E-15  0.35527136788E-14  0.35527136788E-14  0.91188000000E+02  0.91188000000E+02 0.  0.
    9900012    2    3    3    0    0 -0.11839080533E+01  0.28283802565E+02  0.23545803576E+02  0.54367082143E+02  0.39999995361E+02 0.  0.
        -12    1    3    3    0    0  0.11839080533E+01 -0.28283802565E+02 -0.23545803576E+02  0.36820917857E+02  0.00000000000E+00 0.  1.
         11    1    4    4    0    0 -0.83156293717E+01 -0.13430234058E+01  0.10619513872E+02  0.13554610981E+02  0.51100000000E-03 0.  1.
        -11    1    4    4    0    0  0.73235144418E+01  0.12505114519E+02 -0.56447761147E+01  0.15552339070E+02  0.51100000000E-03 0. -1.
         12    1    4    4    0    0 -0.19179312337E+00  0.17121711452E+02  0.18571065819E+02  0.25260132092E+02  0.00000000000E+00 0. -1.
</event>
<event>
 8    1  0.3011071E-007  0.9118800E+02  0.7816164E-02  0.1184000E+00
        -11   -1    0    0    0    0  0.00000000000E+00  0.00000000000E+00  0.45593999997E+02  0.45594000000E+02  0.51100000000E-03 0.  1.
         11   -1    0    0    0    0 -0.00000000000E+00 -0.00000000000E+00 -0.45593999997E+02  0.45594000000E+02  0.51100000000E-03 0. -1.
         23    2    1    2    0    0  0.00000000000E+00  0.35527136788E-14  0.00000000000E+00  0.91188000000E+02  0.91188000000E+02 0.  0.
    9900012    2    3    3    0    0 -0.11936158408E+02  0.29232163717E+02 -0.18941713320E+02  0.54367085066E+02  0.40000002024E+02 0.  0.
        -12    1    3    3    0    0  0.11936158408E+02 -0.29232163717E+02  0.18941713320E+02  0.36820914934E+02  0.00000000000E+00 0.  1.
         11    1    4    4    0    0 -0.55538486140E+01  0.22502256044E+02 -0.18366035863E+02  0.29572082021E+02  0.51100000000E-03 0. -1.
        -11    1    4    4    0    0  0.79083347385E+01  0.43569066672E+01  0.35977698000E+01  0.97194825911E+01  0.51100000000E-03 0.  1.
        -12    1    4    4    0    0 -0.14290644532E+02  0.23730010054E+01 -0.41734472573E+01  0.15075520453E+02  0.00000000000E+00 0.  1.
</event>
<event>
 8    1  0.3011071E-007  0.9118800E+02  0.7816164E-02  0.1184000E+00
        -11   -1    0    0    0    0  0.00000000000E+00  0.00000000000E+00  0.45593999997E+02  0.45594000000E+02  0.51100000000E-03 0.  1.
         11   -1    0    0    0    0 -0.00000000000E+00 -0.00000000000E+00 -0.45593999997E+02  0.45594000000E+02  0.51100000000E-03 0. -1.
         23    2    1    2    0    0 -0.17763568394E-14  0.00000000000E+00  0.00000000000E+00  0.91188000000E+02  0.91188000000E+02 0.  0.
    9900012    2    3    3    0    0 -0.10347239075E+02  0.18856251376E+02 -0.29885723729E+02  0.54367081282E+02  0.39999993399E+02 0.  0.
        -12    1    3    3    0    0  0.10347239075E+02 -0.18856251376E+02  0.29885723729E+02  0.36820918718E+02  0.00000000000E+00 0.  1.
         11    1    4    4    0    0  0.62399250397E+01  0.74400613369E+01  0.43813649469E+01  0.10653052908E+02  0.51100000000E-03 0. -1.
        -11    1    4    4    0    0 -0.19580186998E+02  0.11630737136E+02 -0.24294875483E+02  0.33300131294E+02  0.51100000000E-03 0.  1.
        -12    1    4    4    0    0  0.29930228833E+01 -0.21454709743E+00 -0.99722131932E+01  0.10413897081E+02  0.00000000000E+00 0.  1.
</event>
<event>
 8    1  0.3011071E-007  0.9118800E+02  0.7816164E-02  0.1184000E+00
        -11   -1    0    0    0    0  0.00000000000E+00  0.00000000000E+00  0.45593999997E+02  0.45594000000E+02  0.51100000000E-03 0. -1.
         11   -1    0    0    0    0 -0.00000000000E+00 -0.00000000000E+00 -0.45593999997E+02  0.45594000000E+02  0.51100000000E-03 0.  1.
         23    2    1    2    0    0 -0.35527136788E-14  0.35527136788E-14  0.00000000000E+00  0.91188000000E+02  0.91188000000E+02 0.  0.
    9900012    2    3    3    0    0 -0.25451237403E+02  0.16163697436E+02  0.21136430926E+02  0.54367091369E+02  0.40000016393E+02 0.  0.
        -12    1    3    3    0    0  0.25451237403E+02 -0.16163697436E+02 -0.21136430926E+02  0.36820908631E+02  0.00000000000E+00 0.  1.
         11    1    4    4    0    0 -0.50419706881E+00  0.14391849069E+02  0.15877153107E+02  0.21435100311E+02  0.51100000000E-03 0. -1.
        -11    1    4    4    0    0 -0.17015405637E+02  0.10439749792E+02 -0.22917283962E+00  0.19964090892E+02  0.51100000000E-03 0.  1.
        -12    1    4    4    0    0 -0.79316346973E+01 -0.86679014244E+01  0.54884506589E+01  0.12967900166E+02  0.00000000000E+00 0.  1.
</event>
<event>
 8    1  0.3011071E-007  0.9118800E+02  0.7816164E-02  0.1184000E+00
        -11   -1    0    0    0    0  0.00000000000E+00  0.00000000000E+00  0.45593999997E+02  0.45594000000E+02  0.51100000000E-03 0.  1.
         11   -1    0    0    0    0 -0.00000000000E+00 -0.00000000000E+00 -0.45593999997E+02  0.45594000000E+02  0.51100000000E-03 0. -1.
         23    2    1    2    0    0  0.35527136788E-14 -0.17763568394E-14  0.00000000000E+00  0.91188000000E+02  0.91188000000E+02 0.  0.
    9900012    2    3    3    0    0  0.27274131246E+02 -0.14180233482E+02  0.20268543892E+02  0.54367202503E+02  0.40000269744E+02 0.  0.
         12    1    3    3    0    0 -0.27274131246E+02  0.14180233482E+02 -0.20268543892E+02  0.36820797497E+02  0.00000000000E+00 0. -1.
         11    1    4    4    0    0 -0.12887560765E+01  0.89738262503E+00 -0.11706127162E+01  0.19587042127E+01  0.51100000000E-03 0. -1.
        -11    1    4    4    0    0  0.34517110085E+02 -0.19180018789E+02  0.21916058336E+02  0.45162125975E+02  0.51100000000E-03 0.  1.
        -12    1    4    4    0    0 -0.59542227621E+01  0.41024026819E+01 -0.47690172757E+00  0.72463723147E+01  0.00000000000E+00 0.  1.
</event>
<event>
 8    1  0.3011071E-007  0.9118800E+02  0.7816164E-02  0.1184000E+00
        -11   -1    0    0    0    0  0.00000000000E+00  0.00000000000E+00  0.45593999997E+02  0.45594000000E+02  0.51100000000E-03 0.  1.
         11   -1    0    0    0    0 -0.00000000000E+00 -0.00000000000E+00 -0.45593999997E+02  0.45594000000E+02  0.51100000000E-03 0. -1.
         23    2    1    2    0    0  0.35527136788E-14  0.35527136788E-14 -0.35527136788E-14  0.91188000000E+02  0.91188000000E+02 0.  0.
    9900012    2    3    3    0    0 -0.21363885661E+02 -0.17770901472E+02  0.24156988256E+02  0.54367073460E+02  0.39999975566E+02 0.  0.
         12    1    3    3    0    0  0.21363885661E+02  0.17770901472E+02 -0.24156988256E+02  0.36820926540E+02  0.00000000000E+00 0. -1.
         11    1    4    4    0    0 -0.43958222706E+01 -0.11192296347E+02  0.14438345000E+02  0.18789799295E+02  0.51100000000E-03 0. -1.
        -11    1    4    4    0    0 -0.33219019287E+01 -0.13864016397E+02 -0.41005574085E+01  0.14834438122E+02  0.51100000000E-03 0.  1.
         12    1    4    4    0    0 -0.13646161462E+02  0.72854112724E+01  0.13819200665E+02  0.20742836042E+02  0.00000000000E+00 0. -1.
</event>
<event>
 8    1  0.3011071E-007  0.9118800E+02  0.7816164E-02  0.1184000E+00
        -11   -1    0    0    0    0  0.00000000000E+00  0.00000000000E+00  0.45593999997E+02  0.45594000000E+02  0.51100000000E-03 0. -1.
         11   -1    0    0    0    0 -0.00000000000E+00 -0.00000000000E+00 -0.45593999997E+02  0.45594000000E+02  0.51100000000E-03 0.  1.
         23    2    1    2    0    0  0.00000000000E+00 -0.71054273576E-14  0.88817841970E-15  0.91188000000E+02  0.91188000000E+02 0.  0.
    9900012    2    3    3    0    0  0.15313001334E+02  0.32842143735E+02 -0.65333269706E+01  0.54367098650E+02  0.40000032992E+02 0.  0.
         12    1    3    3    0    0 -0.15313001334E+02 -0.32842143735E+02  0.65333269706E+01  0.36820901350E+02  0.00000000000E+00 0. -1.
         11    1    4    4    0    0 -0.28446676866E+01  0.28531172178E+01  0.94306952637E+01  0.10255263308E+02  0.51100000000E-03 0. -1.
        -11    1    4    4    0    0  0.85602665958E+01  0.62182478700E+01 -0.15130888359E+02  0.18463167484E+02  0.51100000000E-03 0.  1.
         12    1    4    4    0    0  0.95974024251E+01  0.23770778647E+02 -0.83313387529E+00  0.25648667857E+02  0.00000000000E+00 0. -1.
</event>
<event>
 8    1  0.3011071E-007  0.9118800E+02  0.7816164E-02  0.1184000E+00
        -11   -1    0    0    0    0  0.00000000000E+00  0.00000000000E+00  0.45593999997E+02  0.45594000000E+02  0.51100000000E-03 0.  1.
         11   -1    0    0    0    0 -0.00000000000E+00 -0.00000000000E+00 -0.45593999997E+02  0.45594000000E+02  0.51100000000E-03 0. -1.
         23    2    1    2    0    0  0.00000000000E+00  0.00000000000E+00  0.00000000000E+00  0.91188000000E+02  0.91188000000E+02 0.  0.
    9900012    2    3    3    0    0 -0.73953826467E+01  0.25340940590E+02  0.25669532444E+02  0.54367084064E+02  0.39999999741E+02 0.  0.
         12    1    3    3    0    0  0.73953826467E+01 -0.25340940590E+02 -0.25669532444E+02  0.36820915936E+02  0.00000000000E+00 0. -1.
         11    1    4    4    0    0 -0.26077549528E+01 -0.46304877627E+01  0.58971237327E+01  0.79383796454E+01  0.51100000000E-03 0.  1.
        -11    1    4    4    0    0  0.19609944985E+01 -0.51026274762E+01  0.60815569682E+01  0.81772637234E+01  0.51100000000E-03 0. -1.
        -12    1    4    4    0    0 -0.67486221924E+01  0.35074055829E+02  0.13690851743E+02  0.38251440695E+02  0.00000000000E+00 0.  1.
</event>
<event>
 8    1  0.3011071E-007  0.9118800E+02  0.7816164E-02  0.1184000E+00
        -11   -1    0    0    0    0  0.00000000000E+00  0.00000000000E+00  0.45593999997E+02  0.45594000000E+02  0.51100000000E-03 0.  1.
         11   -1    0    0    0    0 -0.00000000000E+00 -0.00000000000E+00 -0.45593999997E+02  0.45594000000E+02  0.51100000000E-03 0. -1.
         23    2    1    2    0    0  0.17763568394E-14  0.17763568394E-14 -0.71054273576E-14  0.91188000000E+02  0.91188000000E+02 0.  0.
    9900012    2    3    3    0    0  0.12201216817E+02  0.12446104840E+02 -0.32434617417E+02  0.54367087131E+02  0.40000006733E+02 0.  0.
        -12    1    3    3    0    0 -0.12201216817E+02 -0.12446104840E+02  0.32434617417E+02  0.36820912869E+02  0.00000000000E+00 0.  1.
         11    1    4    4    0    0  0.49657761925E+00 -0.11445009633E+02 -0.77774992511E+01  0.13846455492E+02  0.51100000000E-03 0. -1.
        -11    1    4    4    0    0  0.54163905308E+01  0.24112545385E+02 -0.23539406240E+02  0.34129983558E+02  0.51100000000E-03 0.  1.
        -12    1    4    4    0    0  0.62882486670E+01 -0.22143091216E+00 -0.11177119265E+01  0.63906480812E+01  0.00000000000E+00 0.  1.
</event>
<event>
 8    1  0.3011071E-007  0.9118800E+02  0.7816164E-02  0.1184000E+00
        -11   -1    0    0    0    0  0.00000000000E+00  0.00000000000E+00  0.45593999997E+02  0.45594000000E+02  0.51100000000E-03 0.  1.
         11   -1    0    0    0    0 -0.00000000000E+00 -0.00000000000E+00 -0.45593999997E+02  0.45594000000E+02  0.51100000000E-03 0. -1.
         23    2    1    2    0    0  0.00000000000E+00  0.44408920985E-15  0.00000000000E+00  0.91188000000E+02  0.91188000000E+02 0.  0.
    9900012    2    3    3    0    0 -0.88856011708E+01  0.39630659301E+01  0.35512239867E+02  0.54367095881E+02  0.40000026681E+02 0.  0.
         12    1    3    3    0    0  0.88856011708E+01 -0.39630659301E+01 -0.35512239867E+02  0.36820904119E+02  0.00000000000E+00 0. -1.
         11    1    4    4    0    0 -0.73226199551E+01  0.51300441095E+01 -0.44059426262E+01  0.99674694010E+01  0.51100000000E-03 0. -1.
        -11    1    4    4    0    0  0.19714229211E+01 -0.22084897109E+00 -0.17050964809E+01  0.26158434342E+01  0.51100000000E-03 0.  1.
        -12    1    4    4    0    0 -0.35344041368E+01 -0.94612920831E+00  0.41623278974E+02  0.41783783046E+02  0.00000000000E+00 0.  1.
</event>
<event>
 8    1  0.3011071E-007  0.9118800E+02  0.7816164E-02  0.1184000E+00
        -11   -1    0    0    0    0  0.00000000000E+00  0.00000000000E+00  0.45593999997E+02  0.45594000000E+02  0.51100000000E-03 0. -1.
         11   -1    0    0    0    0 -0.00000000000E+00 -0.00000000000E+00 -0.45593999997E+02  0.45594000000E+02  0.51100000000E-03 0.  1.
         23    2    1    2    0    0  0.00000000000E+00  0.00000000000E+00  0.17763568394E-14  0.91188000000E+02  0.91188000000E+02 0.  0.
    9900012    2    3    3    0    0  0.31404701616E+02 -0.16190815632E+02 -0.10362539903E+02  0.54367081656E+02  0.39999994252E+02 0.  0.
        -12    1    3    3    0    0 -0.31404701616E+02  0.16190815632E+02  0.10362539903E+02  0.36820918344E+02  0.00000000000E+00 0.  1.
         11    1    4    4    0    0  0.48952022216E+01 -0.14855230412E+02  0.10548734569E+02  0.18865754071E+02  0.51100000000E-03 0. -1.
        -11    1    4    4    0    0  0.17955553617E+02 -0.36203940471E+01 -0.83426919044E+01  0.20127336317E+02  0.51100000000E-03 0.  1.
         12    1    4    4    0    0  0.85539457778E+01  0.22848088273E+01 -0.12568582568E+02  0.15373991268E+02  0.00000000000E+00 0. -1.
</event>
<event>
 8    1  0.3011071E-007  0.9118800E+02  0.7816164E-02  0.1184000E+00
        -11   -1    0    0    0    0  0.00000000000E+00  0.00000000000E+00  0.45593999997E+02  0.45594000000E+02  0.51100000000E-03 0. -1.
         11   -1    0    0    0    0 -0.00000000000E+00 -0.00000000000E+00 -0.45593999997E+02  0.45594000000E+02  0.51100000000E-03 0.  1.
         23    2    1    2    0    0  0.00000000000E+00  0.35527136788E-14  0.17763568394E-14  0.91188000000E+02  0.91188000000E+02 0.  0.
    9900012    2    3    3    0    0  0.32896479742E+02  0.13600652369E+02 -0.94146405673E+01  0.54366924767E+02  0.39999636590E+02 0.  0.
         12    1    3    3    0    0 -0.32896479742E+02 -0.13600652369E+02  0.94146405673E+01  0.36821075233E+02  0.00000000000E+00 0. -1.
         11    1    4    4    0    0  0.61491299317E+01  0.14400385095E+02 -0.10719912914E+02  0.18976285805E+02  0.51100000000E-03 0. -1.
        -11    1    4    4    0    0  0.24533346512E+02  0.46276191085E+01 -0.63385890291E+01  0.25758060114E+02  0.51100000000E-03 0.  1.
         12    1    4    4    0    0  0.22140032985E+01 -0.54273518341E+01  0.76438613762E+01  0.96325788486E+01  0.00000000000E+00 0. -1.
</event>
<event>
 8    1  0.3011071E-007  0.9118800E+02  0.7816164E-02  0.1184000E+00
        -11   -1    0    0    0    0  0.00000000000E+00  0.00000000000E+00  0.45593999997E+02  0.45594000000E+02  0.51100000000E-03 0.  1.
         11   -1    0    0    0    0 -0.00000000000E+00 -0.00000000000E+00 -0.45593999997E+02  0.45594000000E+02  0.51100000000E-03 0. -1.
         23    2    1    2    0    0  0.00000000000E+00  0.00000000000E+00  0.35527136788E-14  0.91188000000E+02  0.91188000000E+02 0.  0.
    9900012    2    3    3    0    0 -0.82587936565E+01  0.33446710128E+02  0.12995848639E+02  0.54367052526E+02  0.39999927844E+02 0.  0.
         12    1    3    3    0    0  0.82587936565E+01 -0.33446710128E+02 -0.12995848639E+02  0.36820947474E+02  0.00000000000E+00 0. -1.
         11    1    4    4    0    0 -0.49834208807E+01  0.25774746138E+01  0.73340604590E+01  0.92339754243E+01  0.51100000000E-03 0. -1.
        -11    1    4    4    0    0  0.16389004842E+00  0.45063973340E+01  0.15988092990E+02  0.16611851029E+02  0.51100000000E-03 0.  1.
         12    1    4    4    0    0 -0.34392628242E+01  0.26362838180E+02 -0.10326304810E+02  0.28521226073E+02  0.00000000000E+00 0. -1.
</event>
<event>
 8    1  0.3011071E-007  0.9118800E+02  0.7816164E-02  0.1184000E+00
        -11   -1    0    0    0    0  0.00000000000E+00  0.00000000000E+00  0.45593999997E+02  0.45594000000E+02  0.51100000000E-03 0. -1.
         11   -1    0    0    0    0 -0.00000000000E+00 -0.00000000000E+00 -0.45593999997E+02  0.45594000000E+02  0.51100000000E-03 0.  1.
         23    2    1    2    0    0 -0.35527136788E-14 -0.35527136788E-14  0.00000000000E+00  0.91188000000E+02  0.91188000000E+02 0.  0.
    9900012    2    3    3    0    0  0.29049882080E+02 -0.20523046787E+02 -0.95230277817E+01  0.54367093488E+02  0.40000021224E+02 0.  0.
         12    1    3    3    0    0 -0.29049882080E+02  0.20523046787E+02  0.95230277817E+01  0.36820906512E+02  0.00000000000E+00 0. -1.
         11    1    4    4    0    0 -0.55923872089E+01 -0.63995317484E+01 -0.11164550308E+01  0.85717718932E+01  0.51100000000E-03 0. -1.
        -11    1    4    4    0    0  0.17751613484E+02 -0.18423452468E+02 -0.11574343235E+02  0.28080398923E+02  0.51100000000E-03 0.  1.
        -12    1    4    4    0    0  0.16890655805E+02  0.42999374293E+01  0.31677704838E+01  0.17714922672E+02  0.00000000000E+00 0.  1.
</event>
<event>
 8    1  0.3011071E-007  0.9118800E+02  0.7816164E-02  0.1184000E+00
        -11   -1    0    0    0    0  0.00000000000E+00  0.00000000000E+00  0.45593999997E+02  0.45594000000E+02  0.51100000000E-03 0.  1.
         11   -1    0    0    0    0 -0.00000000000E+00 -0.00000000000E+00 -0.45593999997E+02  0.45594000000E+02  0.51100000000E-03 0. -1.
         23    2    1    2    0    0 -0.71054273576E-14 -0.71054273576E-14  0.00000000000E+00  0.91188000000E+02  0.91188000000E+02 0.  0.
    9900012    2    3    3    0    0 -0.19496202571E+02 -0.30644453222E+02  0.60494272778E+01  0.54367082054E+02  0.39999995160E+02 0.  0.
        -12    1    3    3    0    0  0.19496202571E+02  0.30644453222E+02 -0.60494272778E+01  0.36820917946E+02  0.00000000000E+00 0.  1.
         11    1    4    4    0    0 -0.16140026899E+02 -0.32908159693E+02  0.27130287607E+01  0.36753339549E+02  0.51100000000E-03 0. -1.
        -11    1    4    4    0    0 -0.74323937908E+01 -0.48268021642E+01  0.32357619464E+01  0.94344396881E+01  0.51100000000E-03 0.  1.
        -12    1    4    4    0    0  0.40762181190E+01  0.70905086352E+01  0.10063657075E+00  0.81793028174E+01  0.00000000000E+00 0.  1.
</event>
<event>
 8    1  0.3011071E-007  0.9118800E+02  0.7816164E-02  0.1184000E+00
        -11   -1    0    0    0    0  0.00000000000E+00  0.00000000000E+00  0.45593999997E+02  0.45594000000E+02  0.51100000000E-03 0.  1.
         11   -1    0    0    0    0 -0.00000000000E+00 -0.00000000000E+00 -0.45593999997E+02  0.45594000000E+02  0.51100000000E-03 0. -1.
         23    2    1    2    0    0  0.44408920985E-15 -0.88817841970E-15 -0.71054273576E-14  0.91188000000E+02  0.91188000000E+02 0.  0.
    9900012    2    3    3    0    0 -0.26782135319E+01  0.32119590107E+01 -0.36582652686E+02  0.54367082223E+02  0.39999995544E+02 0.  0.
        -12    1    3    3    0    0  0.26782135319E+01 -0.32119590107E+01  0.36582652686E+02  0.36820917777E+02  0.00000000000E+00 0.  1.
         11    1    4    4    0    0 -0.92497381425E+01 -0.12002674289E+02 -0.14297710397E+02  0.20833779510E+02  0.51100000000E-03 0. -1.
        -11    1    4    4    0    0 -0.88891263096E+00  0.12978711414E+02 -0.22216049240E+02  0.25744707412E+02  0.51100000000E-03 0.  1.
         12    1    4    4    0    0  0.74604372416E+01  0.22359218856E+01 -0.68893048726E-01  0.77885953013E+01  0.00000000000E+00 0. -1.
</event>
<event>
 8    1  0.3011071E-007  0.9118800E+02  0.7816164E-02  0.1184000E+00
        -11   -1    0    0    0    0  0.00000000000E+00  0.00000000000E+00  0.45593999997E+02  0.45594000000E+02  0.51100000000E-03 0.  1.
         11   -1    0    0    0    0 -0.00000000000E+00 -0.00000000000E+00 -0.45593999997E+02  0.45594000000E+02  0.51100000000E-03 0. -1.
         23    2    1    2    0    0  0.00000000000E+00  0.17763568394E-14 -0.71054273576E-14  0.91188000000E+02  0.91188000000E+02 0.  0.
    9900012    2    3    3    0    0  0.26990371665E+02 -0.11074789264E+02  0.22464401096E+02  0.54367076105E+02  0.39999981597E+02 0.  0.
         12    1    3    3    0    0 -0.26990371665E+02  0.11074789264E+02 -0.22464401096E+02  0.36820923895E+02  0.00000000000E+00 0. -1.
         11    1    4    4    0    0 -0.10322943541E+02 -0.32226101007E+01  0.78526339716E+01  0.13364589023E+02  0.51100000000E-03 0. -1.
        -11    1    4    4    0    0  0.18050295499E+02 -0.37116999004E+01  0.90457396750E+01  0.20528402039E+02  0.51100000000E-03 0.  1.
         12    1    4    4    0    0  0.19263019707E+02 -0.41404792632E+01  0.55660274493E+01  0.20474085043E+02  0.00000000000E+00 0. -1.
</event>
<event>
 8    1  0.3011071E-007  0.9118800E+02  0.7816164E-02  0.1184000E+00
        -11   -1    0    0    0    0  0.00000000000E+00  0.00000000000E+00  0.45593999997E+02  0.45594000000E+02  0.51100000000E-03 0. -1.
         11   -1    0    0    0    0 -0.00000000000E+00 -0.00000000000E+00 -0.45593999997E+02  0.45594000000E+02  0.51100000000E-03 0.  1.
         23    2    1    2    0    0  0.35527136788E-14  0.00000000000E+00  0.35527136788E-14  0.91188000000E+02  0.91188000000E+02 0.  0.
    9900012    2    3    3    0    0 -0.20619123748E+02 -0.14065790355E+02 -0.27069991586E+02  0.54367093345E+02  0.40000020899E+02 0.  0.
         12    1    3    3    0    0  0.20619123748E+02  0.14065790355E+02  0.27069991586E+02  0.36820906655E+02  0.00000000000E+00 0. -1.
         11    1    4    4    0    0 -0.57313927506E+01 -0.84255561491E+01  0.46458387330E+01  0.11199226629E+02  0.51100000000E-03 0. -1.
        -11    1    4    4    0    0  0.61922264550E+00  0.81446264541E+01 -0.60510811164E+01  0.10165331264E+02  0.51100000000E-03 0.  1.
        -12    1    4    4    0    0 -0.15506953643E+02 -0.13784860660E+02 -0.25664749203E+02  0.33002535453E+02  0.00000000000E+00 0.  1.
</event>
<event>
 8    1  0.3011071E-007  0.9118800E+02  0.7816164E-02  0.1184000E+00
        -11   -1    0    0    0    0  0.00000000000E+00  0.00000000000E+00  0.45593999997E+02  0.45594000000E+02  0.51100000000E-03 0.  1.
         11   -1    0    0    0    0 -0.00000000000E+00 -0.00000000000E+00 -0.45593999997E+02  0.45594000000E+02  0.51100000000E-03 0. -1.
         23    2    1    2    0    0 -0.35527136788E-14  0.35527136788E-14 -0.17763568394E-14  0.91188000000E+02  0.91188000000E+02 0.  0.
    9900012    2    3    3    0    0  0.22212687614E+02 -0.28149036022E+02  0.83670090001E+01  0.54367101591E+02  0.40000039698E+02 0.  0.
        -12    1    3    3    0    0 -0.22212687614E+02  0.28149036022E+02 -0.83670090001E+01  0.36820898409E+02  0.00000000000E+00 0.  1.
         11    1    4    4    0    0  0.10424611818E+02 -0.19127818492E+02 -0.50583082876E+01  0.22363641359E+02  0.51100000000E-03 0. -1.
        -11    1    4    4    0    0  0.11381440123E+02 -0.17297732072E+02  0.86580408234E+01  0.22443493161E+02  0.51100000000E-03 0.  1.
        -12    1    4    4    0    0  0.40663567333E+00  0.82765145418E+01  0.47672764642E+01  0.95599670721E+01  0.00000000000E+00 0.  1.
</event>
<event>
 8    1  0.3011071E-007  0.9118800E+02  0.7816164E-02  0.1184000E+00
        -11   -1    0    0    0    0  0.00000000000E+00  0.00000000000E+00  0.45593999997E+02  0.45594000000E+02  0.51100000000E-03 0. -1.
         11   -1    0    0    0    0 -0.00000000000E+00 -0.00000000000E+00 -0.45593999997E+02  0.45594000000E+02  0.51100000000E-03 0.  1.
         23    2    1    2    0    0  0.00000000000E+00  0.00000000000E+00 -0.71054273576E-14  0.91188000000E+02  0.91188000000E+02 0.  0.
    9900012    2    3    3    0    0 -0.14165201151E+02  0.23164736199E+02 -0.24870108791E+02  0.54367078799E+02  0.39999987739E+02 0.  0.
         12    1    3    3    0    0  0.14165201151E+02 -0.23164736199E+02  0.24870108791E+02  0.36820921201E+02  0.00000000000E+00 0. -1.
         11    1    4    4    0    0 -0.97122092780E+01  0.10866309061E+02  0.91249539244E+01  0.17195012825E+02  0.51100000000E-03 0. -1.
        -11    1    4    4    0    0 -0.50342761972E+01  0.12999407191E+02 -0.30090698817E+02  0.33162911207E+02  0.51100000000E-03 0.  1.
         12    1    4    4    0    0  0.58128432393E+00 -0.70098005383E+00 -0.39043638983E+01  0.40091547677E+01  0.00000000000E+00 0. -1.
</event>
<event>
 8    1  0.3011071E-007  0.9118800E+02  0.7816164E-02  0.1184000E+00
        -11   -1    0    0    0    0  0.00000000000E+00  0.00000000000E+00  0.45593999997E+02  0.45594000000E+02  0.51100000000E-03 0.  1.
         11   -1    0    0    0    0 -0.00000000000E+00 -0.00000000000E+00 -0.45593999997E+02  0.45594000000E+02  0.51100000000E-03 0. -1.
         23    2    1    2    0    0 -0.17763568394E-14 -0.17763568394E-14  0.71054273576E-14  0.91188000000E+02  0.91188000000E+02 0.  0.
    9900012    2    3    3    0    0  0.92621298433E+01  0.13602808298E+02 -0.32938928189E+02  0.54366858884E+02  0.39999486394E+02 0.  0.
         12    1    3    3    0    0 -0.92621298433E+01 -0.13602808298E+02  0.32938928189E+02  0.36821141116E+02  0.00000000000E+00 0. -1.
         11    1    4    4    0    0 -0.22632301037E+01 -0.59585954079E+01 -0.81649982109E+01  0.10358294540E+02  0.51100000000E-03 0. -1.
        -11    1    4    4    0    0  0.85031395920E+01  0.18476225495E+02 -0.13696794143E+01  0.20385051225E+02  0.51100000000E-03 0.  1.
        -12    1    4    4    0    0  0.30222203550E+01  0.10851782107E+01 -0.23404250564E+02  0.23623513119E+02  0.00000000000E+00 0.  1.
</event>
<event>
 8    1  0.3011071E-007  0.9118800E+02  0.7816164E-02  0.1184000E+00
        -11   -1    0    0    0    0  0.00000000000E+00  0.00000000000E+00  0.45593999997E+02  0.45594000000E+02  0.51100000000E-03 0. -1.
         11   -1    0    0    0    0 -0.00000000000E+00 -0.00000000000E+00 -0.45593999997E+02  0.45594000000E+02  0.51100000000E-03 0.  1.
         23    2    1    2    0    0  0.35527136788E-14  0.35527136788E-14 -0.35527136788E-14  0.91188000000E+02  0.91188000000E+02 0.  0.
    9900012    2    3    3    0    0 -0.26329596633E+02 -0.11404089468E+02  0.23075492530E+02  0.54367091932E+02  0.40000017677E+02 0.  0.
         12    1    3    3    0    0  0.26329596633E+02  0.11404089468E+02 -0.23075492530E+02  0.36820908068E+02  0.00000000000E+00 0. -1.
         11    1    4    4    0    0 -0.25164407167E+02 -0.18752210736E+02  0.22232356607E+02  0.38459985389E+02  0.51100000000E-03 0.  1.
        -11    1    4    4    0    0  0.28208409931E+01  0.78524213227E+01  0.53170717937E+01  0.98938828202E+01  0.51100000000E-03 0. -1.
        -12    1    4    4    0    0 -0.39860304593E+01 -0.50430005472E+00 -0.44739358707E+01  0.60132237229E+01  0.00000000000E+00 0.  1.
</event>
<event>
 8    1  0.3011071E-007  0.9118800E+02  0.7816164E-02  0.1184000E+00
        -11   -1    0    0    0    0  0.00000000000E+00  0.00000000000E+00  0.45593999997E+02  0.45594000000E+02  0.51100000000E-03 0. -1.
         11   -1    0    0    0    0 -0.00000000000E+00 -0.00000000000E+00 -0.45593999997E+02  0.45594000000E+02  0.51100000000E-03 0.  1.
         23    2    1    2    0    0 -0.17763568394E-14  0.00000000000E+00  0.00000000000E+00  0.91188000000E+02  0.91188000000E+02 0.  0.
    9900012    2    3    3    0    0 -0.14767213634E+02 -0.25876148601E+02  0.21636397855E+02  0.54367090491E+02  0.40000014392E+02 0.  0.
        -12    1    3    3    0    0  0.14767213634E+02  0.25876148601E+02 -0.21636397855E+02  0.36820909509E+02  0.00000000000E+00 0.  1.
         11    1    4    4    0    0 -0.18133474423E+02 -0.22229509496E+02 -0.30581750098E+00  0.28689153207E+02  0.51100000000E-03 0. -1.
        -11    1    4    4    0    0  0.74055022706E+01 -0.51208877573E+01  0.15691015957E+02  0.18090686480E+02  0.51100000000E-03 0.  1.
         12    1    4    4    0    0 -0.40392414818E+01  0.14742486523E+01  0.62511993988E+01  0.75872508038E+01  0.00000000000E+00 0. -1.
</event>
<event>
 8    1  0.3011071E-007  0.9118800E+02  0.7816164E-02  0.1184000E+00
        -11   -1    0    0    0    0  0.00000000000E+00  0.00000000000E+00  0.45593999997E+02  0.45594000000E+02  0.51100000000E-03 0. -1.
         11   -1    0    0    0    0 -0.00000000000E+00 -0.00000000000E+00 -0.45593999997E+02  0.45594000000E+02  0.51100000000E-03 0.  1.
         23    2    1    2    0    0  0.55511151231E-15  0.00000000000E+00 -0.17763568394E-14  0.91188000000E+02  0.91188000000E+02 0.  0.
    9900012    2    3    3    0    0 -0.32580798931E+00 -0.34662449798E+02  0.12417219759E+02  0.54367096652E+02  0.40000028437E+02 0.  0.
        -12    1    3    3    0    0  0.32580798931E+00  0.34662449798E+02 -0.12417219759E+02  0.36820903348E+02  0.00000000000E+00 0.  1.
         11    1    4    4    0    0  0.12020243688E+02 -0.17725702990E+02  0.91664761363E+01  0.23296160410E+02  0.51100000000E-03 0. -1.
        -11    1    4    4    0    0  0.58124836069E+01 -0.31623166229E+01  0.48785755060E+01  0.82210529334E+01  0.51100000000E-03 0.  1.
         12    1    4    4    0    0 -0.18158535284E+02 -0.13774430185E+02 -0.16278318831E+01  0.22849883309E+02  0.00000000000E+00 0. -1.
</event>
<event>
 8    1  0.3011071E-007  0.9118800E+02  0.7816164E-02  0.1184000E+00
        -11   -1    0    0    0    0  0.00000000000E+00  0.00000000000E+00  0.45593999997E+02  0.45594000000E+02  0.51100000000E-03 0. -1.
         11   -1    0    0    0    0 -0.00000000000E+00 -0.00000000000E+00 -0.45593999997E+02  0.45594000000E+02  0.51100000000E-03 0.  1.
         23    2    1    2    0    0  0.17763568394E-14  0.71054273576E-14  0.00000000000E+00  0.91188000000E+02  0.91188000000E+02 0.  0.
    9900012    2    3    3    0    0  0.14099315429E+02  0.30953756419E+02  0.14101542590E+02  0.54367092415E+02  0.40000018778E+02 0.  0.
        -12    1    3    3    0    0 -0.14099315429E+02 -0.30953756419E+02 -0.14101542590E+02  0.36820907585E+02  0.00000000000E+00 0.  1.
         11    1    4    4    0    0  0.34102745587E+01  0.10654701840E+02 -0.91995663232E+01  0.14483945065E+02  0.51100000000E-03 0. -1.
        -11    1    4    4    0    0  0.45171356795E+01  0.77627307396E+01 -0.35151290984E+01  0.96447206347E+01  0.51100000000E-03 0.  1.
         12    1    4    4    0    0  0.61719051904E+01  0.12536323839E+02  0.26816238012E+02  0.30238426715E+02  0.00000000000E+00 0. -1.
</event>
<event>
 8    1  0.3011071E-007  0.9118800E+02  0.7816164E-02  0.1184000E+00
        -11   -1    0    0    0    0  0.00000000000E+00  0.00000000000E+00  0.45593999997E+02  0.45594000000E+02  0.51100000000E-03 0. -1.
         11   -1    0    0    0    0 -0.00000000000E+00 -0.00000000000E+00 -0.45593999997E+02  0.45594000000E+02  0.51100000000E-03 0.  1.
         23    2    1    2    0    0  0.00000000000E+00  0.00000000000E+00 -0.17763568394E-14  0.91188000000E+02  0.91188000000E+02 0.  0.
    9900012    2    3    3    0    0  0.30511667124E+02 -0.15732963319E+02 -0.13315114867E+02  0.54367078646E+02  0.39999987388E+02 0.  0.
         12    1    3    3    0    0 -0.30511667124E+02  0.15732963319E+02  0.13315114867E+02  0.36820921354E+02  0.00000000000E+00 0. -1.
         11    1    4    4    0    0  0.27577061365E+02 -0.40096357093E+00 -0.13449033986E+02  0.30684386921E+02  0.51100000000E-03 0.  1.
        -11    1    4    4    0    0 -0.38329282723E+01  0.63418278538E+00  0.43540413116E+01  0.58353408598E+01  0.51100000000E-03 0. -1.
         12    1    4    4    0    0  0.67675340309E+01 -0.15966182534E+02 -0.42201221930E+01  0.17847350865E+02  0.00000000000E+00 0. -1.
</event>
<event>
 8    1  0.3011071E-007  0.9118800E+02  0.7816164E-02  0.1184000E+00
        -11   -1    0    0    0    0  0.00000000000E+00  0.00000000000E+00  0.45593999997E+02  0.45594000000E+02  0.51100000000E-03 0. -1.
         11   -1    0    0    0    0 -0.00000000000E+00 -0.00000000000E+00 -0.45593999997E+02  0.45594000000E+02  0.51100000000E-03 0.  1.
         23    2    1    2    0    0 -0.17763568394E-14  0.00000000000E+00  0.35527136788E-14  0.91188000000E+02  0.91188000000E+02 0.  0.
    9900012    2    3    3    0    0  0.12460267808E+02  0.23402342556E+02  0.25550983737E+02  0.54367072786E+02  0.39999974031E+02 0.  0.
        -12    1    3    3    0    0 -0.12460267808E+02 -0.23402342556E+02 -0.25550983737E+02  0.36820927214E+02  0.00000000000E+00 0.  1.
         11    1    4    4    0    0 -0.63148302170E+01 -0.71161268352E+01 -0.50440727197E+00  0.95273694566E+01  0.51100000000E-03 0.  1.
        -11    1    4    4    0    0  0.87258357653E+01  0.14878882936E+02  0.16780079716E+02  0.24064339649E+02  0.51100000000E-03 0. -1.
        -12    1    4    4    0    0  0.10049262260E+02  0.15639586456E+02  0.92753112929E+01  0.20775363681E+02  0.00000000000E+00 0.  1.
</event>
<event>
 8    1  0.3011071E-007  0.9118800E+02  0.7816164E-02  0.1184000E+00
        -11   -1    0    0    0    0  0.00000000000E+00  0.00000000000E+00  0.45593999997E+02  0.45594000000E+02  0.51100000000E-03 0. -1.
         11   -1    0    0    0    0 -0.00000000000E+00 -0.00000000000E+00 -0.45593999997E+02  0.45594000000E+02  0.51100000000E-03 0.  1.
         23    2    1    2    0    0 -0.17763568394E-14  0.00000000000E+00  0.00000000000E+00  0.91188000000E+02  0.91188000000E+02 0.  0.
    9900012    2    3    3    0    0 -0.84922820928E+01  0.33889092421E+02 -0.11627119808E+02  0.54367090787E+02  0.40000015067E+02 0.  0.
         12    1    3    3    0    0  0.84922820928E+01 -0.33889092421E+02  0.11627119808E+02  0.36820909213E+02  0.00000000000E+00 0. -1.
         11    1    4    4    0    0 -0.96437527357E+01  0.19000867658E+02 -0.17079116328E+02  0.27308078537E+02  0.51100000000E-03 0.  1.
        -11    1    4    4    0    0  0.43411127442E+01 -0.11956649370E+00  0.10127582361E+02  0.11019413811E+02  0.51100000000E-03 0. -1.
         12    1    4    4    0    0 -0.31896421013E+01  0.15007791257E+02 -0.46755858412E+01  0.16039598439E+02  0.00000000000E+00 0. -1.
</event>
<event>
 8    1  0.3011071E-007  0.9118800E+02  0.7816164E-02  0.1184000E+00
        -11   -1    0    0    0    0  0.00000000000E+00  0.00000000000E+00  0.45593999997E+02  0.45594000000E+02  0.51100000000E-03 0.  1.
         11   -1    0    0    0    0 -0.00000000000E+00 -0.00000000000E+00 -0.45593999997E+02  0.45594000000E+02  0.51100000000E-03 0. -1.
         23    2    1    2    0    0  0.00000000000E+00  0.00000000000E+00  0.00000000000E+00  0.91188000000E+02  0.91188000000E+02 0.  0.
    9900012    2    3    3    0    0  0.14873621544E+02 -0.19679532055E+02  0.27336267780E+02  0.54367080186E+02  0.39999990901E+02 0.  0.
         12    1    3    3    0    0 -0.14873621544E+02  0.19679532055E+02 -0.27336267780E+02  0.36820919814E+02  0.00000000000E+00 0. -1.
         11    1    4    4    0    0  0.59925430606E+01 -0.64876709048E+01  0.90795241261E+00  0.88783345255E+01  0.51100000000E-03 0. -1.
        -11    1    4    4    0    0  0.33735154207E+01 -0.19783531947E+02  0.26955165025E+01  0.20249309915E+02  0.51100000000E-03 0.  1.
         12    1    4    4    0    0  0.55075630628E+01  0.65916707960E+01  0.23732798865E+02  0.25239435746E+02  0.00000000000E+00 0. -1.
</event>
<event>
 8    1  0.3011071E-007  0.9118800E+02  0.7816164E-02  0.1184000E+00
        -11   -1    0    0    0    0  0.00000000000E+00  0.00000000000E+00  0.45593999997E+02  0.45594000000E+02  0.51100000000E-03 0.  1.
         11   -1    0    0    0    0 -0.00000000000E+00 -0.00000000000E+00 -0.45593999997E+02  0.45594000000E+02  0.51100000000E-03 0. -1.
         23    2    1    2    0    0  0.00000000000E+00  0.17763568394E-14  0.00000000000E+00  0.91188000000E+02  0.91188000000E+02 0.  0.
    9900012    2    3    3    0    0 -0.24510503226E+02  0.98636454982E+01  0.25646109731E+02  0.54367092689E+02  0.40000019402E+02 0.  0.
         12    1    3    3    0    0  0.24510503226E+02 -0.98636454982E+01 -0.25646109731E+02  0.36820907311E+02  0.00000000000E+00 0. -1.
         11    1    4    4    0    0 -0.49883157788E+01 -0.44147723591E+01  0.23413236203E+02  0.24342414405E+02  0.51100000000E-03 0. -1.
        -11    1    4    4    0    0 -0.10752192735E+02 -0.12872827339E+01 -0.33011266032E+01  0.11320962086E+02  0.51100000000E-03 0.  1.
        -12    1    4    4    0    0 -0.87699947126E+01  0.15565700591E+02  0.55340001309E+01  0.18703716198E+02  0.00000000000E+00 0.  1.
</event>
<event>
 8    1  0.3011071E-007  0.9118800E+02  0.7816164E-02  0.1184000E+00
        -11   -1    0    0    0    0  0.00000000000E+00  0.00000000000E+00  0.45593999997E+02  0.45594000000E+02  0.51100000000E-03 0.  1.
         11   -1    0    0    0    0 -0.00000000000E+00 -0.00000000000E+00 -0.45593999997E+02  0.45594000000E+02  0.51100000000E-03 0. -1.
         23    2    1    2    0    0  0.00000000000E+00  0.17763568394E-14 -0.17763568394E-14  0.91188000000E+02  0.91188000000E+02 0.  0.
    9900012    2    3    3    0    0  0.32854356981E+02 -0.95008339816E+01 -0.13642030160E+02  0.54367087384E+02  0.40000007309E+02 0.  0.
        -12    1    3    3    0    0 -0.32854356981E+02  0.95008339816E+01  0.13642030160E+02  0.36820912616E+02  0.00000000000E+00 0.  1.
         11    1    4    4    0    0 -0.11151620085E+01 -0.48541985054E+01 -0.17791478983E+01  0.52888748274E+01  0.51100000000E-03 0. -1.
        -11    1    4    4    0    0  0.21531189706E+02 -0.97642562924E+01  0.81140745513E+01  0.24995420324E+02  0.51100000000E-03 0.  1.
         12    1    4    4    0    0  0.12438329284E+02  0.51176208161E+01 -0.19976956813E+02  0.24082792232E+02  0.00000000000E+00 0. -1.
</event>
<event>
 8    1  0.3011071E-007  0.9118800E+02  0.7816164E-02  0.1184000E+00
        -11   -1    0    0    0    0  0.00000000000E+00  0.00000000000E+00  0.45593999997E+02  0.45594000000E+02  0.51100000000E-03 0.  1.
         11   -1    0    0    0    0 -0.00000000000E+00 -0.00000000000E+00 -0.45593999997E+02  0.45594000000E+02  0.51100000000E-03 0. -1.
         23    2    1    2    0    0  0.35527136788E-14  0.00000000000E+00  0.35527136788E-14  0.91188000000E+02  0.91188000000E+02 0.  0.
    9900012    2    3    3    0    0 -0.23161716555E+02 -0.13476536733E+02 -0.25252682828E+02  0.54367080048E+02  0.39999990586E+02 0.  0.
        -12    1    3    3    0    0  0.23161716555E+02  0.13476536733E+02  0.25252682828E+02  0.36820919952E+02  0.00000000000E+00 0.  1.
         11    1    4    4    0    0 -0.14435691440E+02 -0.16812065972E+02 -0.48321344887E+01  0.22680041305E+02  0.51100000000E-03 0. -1.
        -11    1    4    4    0    0  0.74643359249E+01  0.28497436239E+01 -0.76353111163E+01  0.11051485223E+02  0.51100000000E-03 0.  1.
         12    1    4    4    0    0 -0.16190361040E+02  0.48578561548E+00 -0.12785237223E+02  0.20635553521E+02  0.00000000000E+00 0. -1.
</event>
<event>
 8    1  0.3011071E-007  0.9118800E+02  0.7816164E-02  0.1184000E+00
        -11   -1    0    0    0    0  0.00000000000E+00  0.00000000000E+00  0.45593999997E+02  0.45594000000E+02  0.51100000000E-03 0. -1.
         11   -1    0    0    0    0 -0.00000000000E+00 -0.00000000000E+00 -0.45593999997E+02  0.45594000000E+02  0.51100000000E-03 0.  1.
         23    2    1    2    0    0  0.00000000000E+00  0.00000000000E+00  0.88817841970E-15  0.91188000000E+02  0.91188000000E+02 0.  0.
    9900012    2    3    3    0    0  0.77372870137E+01  0.35476716903E+02 -0.61085929384E+01  0.54367109731E+02  0.40000058253E+02 0.  0.
         12    1    3    3    0    0 -0.77372870137E+01 -0.35476716903E+02  0.61085929384E+01  0.36820890269E+02  0.00000000000E+00 0. -1.
         11    1    4    4    0    0  0.95284440406E+01  0.18302185405E+02  0.57286079239E+01  0.21414438714E+02  0.51100000000E-03 0. -1.
        -11    1    4    4    0    0  0.10299078527E+02  0.38700370703E+01 -0.10024554343E+02  0.14884216320E+02  0.51100000000E-03 0.  1.
         12    1    4    4    0    0 -0.12090235554E+02  0.13304494428E+02 -0.18126465192E+01  0.18068454697E+02  0.00000000000E+00 0. -1.
</event>
