<event>
 8    1  0.1229941E-006  0.9118800E+02  0.7816164E-02  0.1184000E+00
        -11   -1    0    0    0    0  0.00000000000E+00  0.00000000000E+00  0.45593999997E+02  0.45594000000E+02  0.51100000000E-03 0. -1.
         11   -1    0    0    0    0 -0.00000000000E+00 -0.00000000000E+00 -0.45593999997E+02  0.45594000000E+02  0.51100000000E-03 0.  1.
         23    2    1    2    0    0 -0.88817841970E-15  0.35527136788E-14  0.00000000000E+00  0.91188000000E+02  0.91188000000E+02 0.  0.
    9900012    2    3    3    0    0  0.25888075040E+01 -0.22434916520E+02 -0.29081762631E+02  0.54367131986E+02  0.40000108989E+02 0.  0.
         12    1    3    3    0    0 -0.25888075040E+01  0.22434916520E+02  0.29081762631E+02  0.36820868014E+02  0.00000000000E+00 0. -1.
         11    1    4    4    0    0  0.82020224587E+01 -0.13881948193E+01 -0.94051236618E-01  0.83192008730E+01  0.51100000000E-03 0. -1.
        -11    1    4    4    0    0 -0.90332988020E+01 -0.50551604108E+01 -0.27784898806E+02  0.29650560466E+02  0.51100000000E-03 0.  1.
         12    1    4    4    0    0  0.34200838473E+01 -0.15991561290E+02 -0.12028125883E+01  0.16397370647E+02  0.00000000000E+00 0. -1.
</event>
<event>
 8    1  0.1229941E-006  0.9118800E+02  0.7816164E-02  0.1184000E+00
        -11   -1    0    0    0    0  0.00000000000E+00  0.00000000000E+00  0.45593999997E+02  0.45594000000E+02  0.51100000000E-03 0.  1.
         11   -1    0    0    0    0 -0.00000000000E+00 -0.00000000000E+00 -0.45593999997E+02  0.45594000000E+02  0.51100000000E-03 0. -1.
         23    2    1    2    0    0  0.00000000000E+00  0.00000000000E+00  0.00000000000E+00  0.91188000000E+02  0.91188000000E+02 0.  0.
    9900012    2    3    3    0    0 -0.24802714675E+02 -0.29533184476E+01 -0.27053339066E+02  0.54367083394E+02  0.39999998214E+02 0.  0.
        -12    1    3    3    0    0  0.24802714675E+02  0.29533184476E+01  0.27053339066E+02  0.36820916606E+02  0.00000000000E+00 0.  1.
         11    1    4    4    0    0 -0.20035428504E+02  0.42548216834E+01 -0.34016391384E+02  0.39706885876E+02  0.51100000000E-03 0. -1.
        -11    1    4    4    0    0 -0.49087912194E+01 -0.27326815238E+01  0.82680409256E+01  0.99962133108E+01  0.51100000000E-03 0.  1.
         12    1    4    4    0    0  0.14150504890E+00 -0.44754586071E+01 -0.13049886071E+01  0.46639842075E+01  0.00000000000E+00 0. -1.
</event>
<event>
 8    1  0.1229941E-006  0.9118800E+02  0.7816164E-02  0.1184000E+00
        -11   -1    0    0    0    0  0.00000000000E+00  0.00000000000E+00  0.45593999997E+02  0.45594000000E+02  0.51100000000E-03 0. -1.
         11   -1    0    0    0    0 -0.00000000000E+00 -0.00000000000E+00 -0.45593999997E+02  0.45594000000E+02  0.51100000000E-03 0.  1.
         23    2    1    2    0    0  0.00000000000E+00  0.00000000000E+00  0.00000000000E+00  0.91188000000E+02  0.91188000000E+02 0.  0.
    9900012    2    3    3    0    0  0.94920649546E+01 -0.11846937467E+02 -0.33545950516E+02  0.54367081754E+02  0.39999994475E+02 0.  0.
         12    1    3    3    0    0 -0.94920649546E+01  0.11846937467E+02  0.33545950516E+02  0.36820918246E+02  0.00000000000E+00 0. -1.
         11    1    4    4    0    0 -0.93415498530E+01 -0.62284484549E+01 -0.11087224424E+01  0.11282171313E+02  0.51100000000E-03 0. -1.
        -11    1    4    4    0    0  0.13575984049E+02  0.64922377944E+01 -0.15412699388E+02  0.21540840215E+02  0.51100000000E-03 0.  1.
         12    1    4    4    0    0  0.52576307581E+01 -0.12110726806E+02 -0.17024528685E+02  0.21544070226E+02  0.00000000000E+00 0. -1.
</event>
<event>
 8    1  0.1229941E-006  0.9118800E+02  0.7816164E-02  0.1184000E+00
        -11   -1    0    0    0    0  0.00000000000E+00  0.00000000000E+00  0.45593999997E+02  0.45594000000E+02  0.51100000000E-03 0.  1.
         11   -1    0    0    0    0 -0.00000000000E+00 -0.00000000000E+00 -0.45593999997E+02  0.45594000000E+02  0.51100000000E-03 0. -1.
         23    2    1    2    0    0  0.00000000000E+00  0.71054273576E-14 -0.35527136788E-14  0.91188000000E+02  0.91188000000E+02 0.  0.
    9900012    2    3    3    0    0  0.16728355156E+02 -0.27965300109E+02  0.17143038261E+02  0.54367086958E+02  0.40000006338E+02 0.  0.
         12    1    3    3    0    0 -0.16728355156E+02  0.27965300109E+02 -0.17143038261E+02  0.36820913042E+02  0.00000000000E+00 0. -1.
         11    1    4    4    0    0  0.97575660067E+01 -0.18130089866E+02  0.15340317660E+01  0.20646149923E+02  0.51100000000E-03 0. -1.
        -11    1    4    4    0    0 -0.54870490452E+01  0.61469351797E+01  0.16280299429E+00  0.82412999220E+01  0.51100000000E-03 0.  1.
        -12    1    4    4    0    0  0.12457838195E+02 -0.15982145422E+02  0.15446203501E+02  0.25479637112E+02  0.00000000000E+00 0.  1.
</event>
<event>
 8    1  0.1229941E-006  0.9118800E+02  0.7816164E-02  0.1184000E+00
        -11   -1    0    0    0    0  0.00000000000E+00  0.00000000000E+00  0.45593999997E+02  0.45594000000E+02  0.51100000000E-03 0.  1.
         11   -1    0    0    0    0 -0.00000000000E+00 -0.00000000000E+00 -0.45593999997E+02  0.45594000000E+02  0.51100000000E-03 0. -1.
         23    2    1    2    0    0 -0.88817841970E-15 -0.88817841970E-15  0.71054273576E-14  0.91188000000E+02  0.91188000000E+02 0.  0.
    9900012    2    3    3    0    0  0.66422456931E+01 -0.43719393021E+01  0.35952006687E+02  0.54367081137E+02  0.39999993067E+02 0.  0.
         12    1    3    3    0    0 -0.66422456931E+01  0.43719393021E+01 -0.35952006687E+02  0.36820918863E+02  0.00000000000E+00 0. -1.
         11    1    4    4    0    0  0.14319359538E+02 -0.14192250777E+02  0.15989659678E+02  0.25731950112E+02  0.51100000000E-03 0. -1.
        -11    1    4    4    0    0 -0.10508887391E+02  0.91105648414E+00  0.14068685012E+02  0.17583931197E+02  0.51100000000E-03 0.  1.
         12    1    4    4    0    0  0.28317735457E+01  0.89092549905E+01  0.58936619967E+01  0.11051199828E+02  0.00000000000E+00 0. -1.
</event>
<event>
 8    1  0.1229941E-006  0.9118800E+02  0.7816164E-02  0.1184000E+00
        -11   -1    0    0    0    0  0.00000000000E+00  0.00000000000E+00  0.45593999997E+02  0.45594000000E+02  0.51100000000E-03 0.  1.
         11   -1    0    0    0    0 -0.00000000000E+00 -0.00000000000E+00 -0.45593999997E+02  0.45594000000E+02  0.51100000000E-03 0. -1.
         23    2    1    2    0    0  0.35527136788E-14  0.00000000000E+00  0.00000000000E+00  0.91188000000E+02  0.91188000000E+02 0.  0.
    9900012    2    3    3    0    0 -0.14898229963E+02 -0.82431114521E+01 -0.32647728085E+02  0.54367078072E+02  0.39999986082E+02 0.  0.
        -12    1    3    3    0    0  0.14898229963E+02  0.82431114521E+01  0.32647728085E+02  0.36820921928E+02  0.00000000000E+00 0.  1.
         11    1    4    4    0    0 -0.11526793622E+02 -0.67024540603E+01 -0.31209929300E+02  0.33938909069E+02  0.51100000000E-03 0. -1.
        -11    1    4    4    0    0  0.11920576372E+01 -0.11681004933E+00 -0.10294357052E+02  0.10363804001E+02  0.51100000000E-03 0.  1.
        -12    1    4    4    0    0 -0.45634939787E+01 -0.14238473425E+01  0.88565582671E+01  0.10064365002E+02  0.00000000000E+00 0.  1.
</event>
<event>
 8    1  0.1229941E-006  0.9118800E+02  0.7816164E-02  0.1184000E+00
        -11   -1    0    0    0    0  0.00000000000E+00  0.00000000000E+00  0.45593999997E+02  0.45594000000E+02  0.51100000000E-03 0.  1.
         11   -1    0    0    0    0 -0.00000000000E+00 -0.00000000000E+00 -0.45593999997E+02  0.45594000000E+02  0.51100000000E-03 0. -1.
         23    2    1    2    0    0  0.00000000000E+00  0.88817841970E-15  0.00000000000E+00  0.91188000000E+02  0.91188000000E+02 0.  0.
    9900012    2    3    3    0    0  0.31315206629E+02  0.48104219916E+01 -0.18761595663E+02  0.54367084778E+02  0.40000001369E+02 0.  0.
        -12    1    3    3    0    0 -0.31315206629E+02 -0.48104219916E+01  0.18761595663E+02  0.36820915222E+02  0.00000000000E+00 0.  1.
         11    1    4    4    0    0  0.31476361538E+02  0.39479761775E+01 -0.12543922782E+02  0.34113015853E+02  0.51100000000E-03 0. -1.
        -11    1    4    4    0    0  0.34633721968E+01  0.56913577913E+01 -0.10789451433E+02  0.12680645211E+02  0.51100000000E-03 0.  1.
        -12    1    4    4    0    0 -0.36245271062E+01 -0.48289119772E+01  0.45717785521E+01  0.75734237143E+01  0.00000000000E+00 0.  1.
</event>
<event>
 8    1  0.1229941E-006  0.9118800E+02  0.7816164E-02  0.1184000E+00
        -11   -1    0    0    0    0  0.00000000000E+00  0.00000000000E+00  0.45593999997E+02  0.45594000000E+02  0.51100000000E-03 0. -1.
         11   -1    0    0    0    0 -0.00000000000E+00 -0.00000000000E+00 -0.45593999997E+02  0.45594000000E+02  0.51100000000E-03 0.  1.
         23    2    1    2    0    0  0.00000000000E+00 -0.88817841970E-15  0.00000000000E+00  0.91188000000E+02  0.91188000000E+02 0.  0.
    9900012    2    3    3    0    0 -0.35831429407E+02 -0.76745424563E+01  0.36041552552E+01  0.54367083792E+02  0.39999999121E+02 0.  0.
         12    1    3    3    0    0  0.35831429407E+02  0.76745424563E+01 -0.36041552552E+01  0.36820916208E+02  0.00000000000E+00 0. -1.
         11    1    4    4    0    0  0.24509277082E+01 -0.12438746756E+02  0.19508359264E+01  0.12827128617E+02  0.51100000000E-03 0. -1.
        -11    1    4    4    0    0 -0.70816988423E+01  0.57251881505E+01  0.45693740276E+01  0.10188592499E+02  0.51100000000E-03 0.  1.
        -12    1    4    4    0    0 -0.31200658273E+02 -0.96098385108E+00 -0.29160546988E+01  0.31351362676E+02  0.00000000000E+00 0.  1.
</event>
<event>
 8    1  0.1229941E-006  0.9118800E+02  0.7816164E-02  0.1184000E+00
        -11   -1    0    0    0    0  0.00000000000E+00  0.00000000000E+00  0.45593999997E+02  0.45594000000E+02  0.51100000000E-03 0. -1.
         11   -1    0    0    0    0 -0.00000000000E+00 -0.00000000000E+00 -0.45593999997E+02  0.45594000000E+02  0.51100000000E-03 0.  1.
         23    2    1    2    0    0  0.00000000000E+00  0.00000000000E+00  0.00000000000E+00  0.91188000000E+02  0.91188000000E+02 0.  0.
    9900012    2    3    3    0    0 -0.40780908665E+01 -0.18327475476E+02 -0.31674158715E+02  0.54367088649E+02  0.40000010193E+02 0.  0.
         12    1    3    3    0    0  0.40780908665E+01  0.18327475476E+02  0.31674158715E+02  0.36820911351E+02  0.00000000000E+00 0. -1.
         11    1    4    4    0    0 -0.79526097928E+01 -0.18233486454E+02 -0.13122510932E+02  0.23830743258E+02  0.51100000000E-03 0.  1.
        -11    1    4    4    0    0 -0.93101791532E+00  0.43591312102E+00  0.57079021254E+01  0.57997380581E+01  0.51100000000E-03 0. -1.
         12    1    4    4    0    0  0.48055368416E+01 -0.52990214270E+00 -0.24259549908E+02  0.24736607333E+02  0.00000000000E+00 0. -1.
</event>
<event>
 8    1  0.1229941E-006  0.9118800E+02  0.7816164E-02  0.1184000E+00
        -11   -1    0    0    0    0  0.00000000000E+00  0.00000000000E+00  0.45593999997E+02  0.45594000000E+02  0.51100000000E-03 0.  1.
         11   -1    0    0    0    0 -0.00000000000E+00 -0.00000000000E+00 -0.45593999997E+02  0.45594000000E+02  0.51100000000E-03 0. -1.
         23    2    1    2    0    0  0.00000000000E+00  0.17763568394E-14  0.00000000000E+00  0.91188000000E+02  0.91188000000E+02 0.  0.
    9900012    2    3    3    0    0  0.60533847434E+01 -0.13893243182E+02 -0.33557687814E+02  0.54367026569E+02  0.39999868669E+02 0.  0.
        -12    1    3    3    0    0 -0.60533847434E+01  0.13893243182E+02  0.33557687814E+02  0.36820973431E+02  0.00000000000E+00 0.  1.
         11    1    4    4    0    0  0.12979171915E+02 -0.53710463984E+01 -0.25834373510E+02  0.29406154083E+02  0.51100000000E-03 0. -1.
        -11    1    4    4    0    0 -0.80475937767E+01 -0.28271037099E+00 -0.12869942693E+02  0.15181538655E+02  0.51100000000E-03 0.  1.
        -12    1    4    4    0    0  0.11218066051E+01 -0.82394864127E+01  0.51466283890E+01  0.97793338310E+01  0.00000000000E+00 0.  1.
</event>
<event>
 8    1  0.1229941E-006  0.9118800E+02  0.7816164E-02  0.1184000E+00
        -11   -1    0    0    0    0  0.00000000000E+00  0.00000000000E+00  0.45593999997E+02  0.45594000000E+02  0.51100000000E-03 0. -1.
         11   -1    0    0    0    0 -0.00000000000E+00 -0.00000000000E+00 -0.45593999997E+02  0.45594000000E+02  0.51100000000E-03 0.  1.
         23    2    1    2    0    0 -0.35527136788E-14  0.00000000000E+00  0.00000000000E+00  0.91188000000E+02  0.91188000000E+02 0.  0.
    9900012    2    3    3    0    0 -0.22864526718E+02 -0.48055051271E+01 -0.28458755306E+02  0.54367079111E+02  0.39999988449E+02 0.  0.
         12    1    3    3    0    0  0.22864526718E+02  0.48055051271E+01  0.28458755306E+02  0.36820920889E+02  0.00000000000E+00 0. -1.
         11    1    4    4    0    0 -0.17243503775E+02 -0.14450556491E-01  0.42198683934E+01  0.17752349726E+02  0.51100000000E-03 0. -1.
        -11    1    4    4    0    0  0.29471871442E+01 -0.70608590364E+01 -0.15161260835E+02  0.16982504902E+02  0.51100000000E-03 0.  1.
        -12    1    4    4    0    0 -0.85682100872E+01  0.22698044658E+01 -0.17517362865E+02  0.19632224483E+02  0.00000000000E+00 0.  1.
</event>
<event>
 8    1  0.1229941E-006  0.9118800E+02  0.7816164E-02  0.1184000E+00
        -11   -1    0    0    0    0  0.00000000000E+00  0.00000000000E+00  0.45593999997E+02  0.45594000000E+02  0.51100000000E-03 0. -1.
         11   -1    0    0    0    0 -0.00000000000E+00 -0.00000000000E+00 -0.45593999997E+02  0.45594000000E+02  0.51100000000E-03 0.  1.
         23    2    1    2    0    0  0.88817841970E-15  0.35527136788E-14  0.35527136788E-14  0.91188000000E+02  0.91188000000E+02 0.  0.
    9900012    2    3    3    0    0  0.78018616958E+01  0.24612658209E+02  0.26251243691E+02  0.54367084946E+02  0.40000001752E+02 0.  0.
        -12    1    3    3    0    0 -0.78018616958E+01 -0.24612658209E+02 -0.26251243691E+02  0.36820915054E+02  0.00000000000E+00 0.  1.
         11    1    4    4    0    0 -0.96942278045E+01  0.68073746243E+01  0.30959475995E+01  0.12243500063E+02  0.51100000000E-03 0. -1.
        -11    1    4    4    0    0  0.53030698295E+01  0.21632387789E+02  0.16470588985E+02  0.27701318612E+02  0.51100000000E-03 0.  1.
        -12    1    4    4    0    0  0.12193019671E+02 -0.38271042041E+01  0.66847071067E+01  0.14422266271E+02  0.00000000000E+00 0.  1.
</event>
<event>
 8    1  0.1229941E-006  0.9118800E+02  0.7816164E-02  0.1184000E+00
        -11   -1    0    0    0    0  0.00000000000E+00  0.00000000000E+00  0.45593999997E+02  0.45594000000E+02  0.51100000000E-03 0.  1.
         11   -1    0    0    0    0 -0.00000000000E+00 -0.00000000000E+00 -0.45593999997E+02  0.45594000000E+02  0.51100000000E-03 0. -1.
         23    2    1    2    0    0  0.00000000000E+00  0.00000000000E+00 -0.88817841970E-15  0.91188000000E+02  0.91188000000E+02 0.  0.
    9900012    2    3    3    0    0 -0.33719477962E+02 -0.13615611040E+02  0.57786233878E+01  0.54367074614E+02  0.39999978197E+02 0.  0.
         12    1    3    3    0    0  0.33719477962E+02  0.13615611040E+02 -0.57786233878E+01  0.36820925386E+02  0.00000000000E+00 0. -1.
         11    1    4    4    0    0 -0.32945224434E+02 -0.42056974092E+01 -0.95601897851E+01  0.34561147734E+02  0.51100000000E-03 0. -1.
        -11    1    4    4    0    0 -0.25164805128E+01 -0.43335153359E+01  0.19425323453E+01  0.53745196541E+01  0.51100000000E-03 0.  1.
         12    1    4    4    0    0  0.17422269843E+01 -0.50763982944E+01  0.13396280828E+02  0.14431407226E+02  0.00000000000E+00 0. -1.
</event>
<event>
 8    1  0.1229941E-006  0.9118800E+02  0.7816164E-02  0.1184000E+00
        -11   -1    0    0    0    0  0.00000000000E+00  0.00000000000E+00  0.45593999997E+02  0.45594000000E+02  0.51100000000E-03 0.  1.
         11   -1    0    0    0    0 -0.00000000000E+00 -0.00000000000E+00 -0.45593999997E+02  0.45594000000E+02  0.51100000000E-03 0. -1.
         23    2    1    2    0    0  0.35527136788E-14 -0.17763568394E-14  0.00000000000E+00  0.91188000000E+02  0.91188000000E+02 0.  0.
    9900012    2    3    3    0    0  0.31585139563E+02  0.14861721538E+02 -0.11716982983E+02  0.54367088842E+02  0.40000010632E+02 0.  0.
        -12    1    3    3    0    0 -0.31585139563E+02 -0.14861721538E+02  0.11716982983E+02  0.36820911158E+02  0.00000000000E+00 0.  1.
         11    1    4    4    0    0  0.12473644854E+02  0.42036519511E+01 -0.19333597896E+00  0.13164341409E+02  0.51100000000E-03 0. -1.
        -11    1    4    4    0    0  0.13459918737E+02  0.67378536262E+01 -0.23197643307E+02  0.27653186781E+02  0.51100000000E-03 0.  1.
        -12    1    4    4    0    0  0.56515759728E+01  0.39202159611E+01  0.11673996303E+02  0.13549560651E+02  0.00000000000E+00 0.  1.
</event>
<event>
 8    1  0.1229941E-006  0.9118800E+02  0.7816164E-02  0.1184000E+00
        -11   -1    0    0    0    0  0.00000000000E+00  0.00000000000E+00  0.45593999997E+02  0.45594000000E+02  0.51100000000E-03 0.  1.
         11   -1    0    0    0    0 -0.00000000000E+00 -0.00000000000E+00 -0.45593999997E+02  0.45594000000E+02  0.51100000000E-03 0. -1.
         23    2    1    2    0    0 -0.17763568394E-14  0.00000000000E+00 -0.17763568394E-14  0.91188000000E+02  0.91188000000E+02 0.  0.
    9900012    2    3    3    0    0 -0.14876248746E+02  0.32088965839E+02  0.10235984483E+02  0.54367083611E+02  0.39999998709E+02 0.  0.
         12    1    3    3    0    0  0.14876248746E+02 -0.32088965839E+02 -0.10235984483E+02  0.36820916389E+02  0.00000000000E+00 0. -1.
         11    1    4    4    0    0 -0.74529372978E+01 -0.64739055709E+01  0.47125897823E+01  0.10939206115E+02  0.51100000000E-03 0.  1.
        -11    1    4    4    0    0  0.61799425957E+00  0.77918192805E-02 -0.30573924365E+01  0.31192349045E+01  0.51100000000E-03 0. -1.
         12    1    4    4    0    0 -0.80413057080E+01  0.38555079591E+02  0.85807871368E+01  0.40308642592E+02  0.00000000000E+00 0. -1.
</event>
<event>
 8    1  0.1229941E-006  0.9118800E+02  0.7816164E-02  0.1184000E+00
        -11   -1    0    0    0    0  0.00000000000E+00  0.00000000000E+00  0.45593999997E+02  0.45594000000E+02  0.51100000000E-03 0. -1.
         11   -1    0    0    0    0 -0.00000000000E+00 -0.00000000000E+00 -0.45593999997E+02  0.45594000000E+02  0.51100000000E-03 0.  1.
         23    2    1    2    0    0  0.00000000000E+00  0.44408920985E-15  0.00000000000E+00  0.91188000000E+02  0.91188000000E+02 0.  0.
    9900012    2    3    3    0    0 -0.30006827452E+02  0.26928776262E+01 -0.21168791751E+02  0.54367095233E+02  0.40000025203E+02 0.  0.
         12    1    3    3    0    0  0.30006827452E+02 -0.26928776262E+01  0.21168791751E+02  0.36820904767E+02  0.00000000000E+00 0. -1.
         11    1    4    4    0    0 -0.60086564482E+01  0.75358881975E+01  0.68744691134E+01  0.11838576312E+02  0.51100000000E-03 0. -1.
        -11    1    4    4    0    0 -0.13468484724E+01 -0.78804330432E+01 -0.27859264422E+01  0.84662041175E+01  0.51100000000E-03 0.  1.
        -12    1    4    4    0    0 -0.22651322532E+02  0.30374224719E+01 -0.25257334422E+02  0.34062314804E+02  0.00000000000E+00 0.  1.
</event>
<event>
 8    1  0.1229941E-006  0.9118800E+02  0.7816164E-02  0.1184000E+00
        -11   -1    0    0    0    0  0.00000000000E+00  0.00000000000E+00  0.45593999997E+02  0.45594000000E+02  0.51100000000E-03 0. -1.
         11   -1    0    0    0    0 -0.00000000000E+00 -0.00000000000E+00 -0.45593999997E+02  0.45594000000E+02  0.51100000000E-03 0.  1.
         23    2    1    2    0    0 -0.35527136788E-14  0.22204460493E-15  0.71054273576E-14  0.91188000000E+02  0.91188000000E+02 0.  0.
    9900012    2    3    3    0    0  0.17158335825E+02 -0.16896933130E+01  0.32534839869E+02  0.54367090763E+02  0.40000015011E+02 0.  0.
        -12    1    3    3    0    0 -0.17158335825E+02  0.16896933130E+01 -0.32534839869E+02  0.36820909237E+02  0.00000000000E+00 0.  1.
         11    1    4    4    0    0  0.51796134192E+01 -0.76397183841E+01  0.27183415200E+02  0.28707695038E+02  0.51100000000E-03 0. -1.
        -11    1    4    4    0    0 -0.61156385804E+01  0.33735154101E+00  0.18058374186E+01  0.63856002343E+01  0.51100000000E-03 0.  1.
        -12    1    4    4    0    0  0.18094360986E+02  0.56126735301E+01  0.35455872499E+01  0.19273795490E+02  0.00000000000E+00 0.  1.
</event>
<event>
 8    1  0.1229941E-006  0.9118800E+02  0.7816164E-02  0.1184000E+00
        -11   -1    0    0    0    0  0.00000000000E+00  0.00000000000E+00  0.45593999997E+02  0.45594000000E+02  0.51100000000E-03 0.  1.
         11   -1    0    0    0    0 -0.00000000000E+00 -0.00000000000E+00 -0.45593999997E+02  0.45594000000E+02  0.51100000000E-03 0. -1.
         23    2    1    2    0    0  0.00000000000E+00  0.00000000000E+00  0.00000000000E+00  0.91188000000E+02  0.91188000000E+02 0.  0.
    9900012    2    3    3    0    0  0.81211782402E+01 -0.16951164089E+02 -0.31661932522E+02  0.54367170691E+02  0.40000197224E+02 0.  0.
        -12    1    3    3    0    0 -0.81211782402E+01  0.16951164089E+02  0.31661932522E+02  0.36820829309E+02  0.00000000000E+00 0.  1.
         11    1    4    4    0    0  0.13009063173E+02 -0.82751148770E+01 -0.15358570589E+02  0.21762328498E+02  0.51100000000E-03 0. -1.
        -11    1    4    4    0    0 -0.11322277327E+02 -0.73544430789E+01 -0.20690463129E+02  0.24705810280E+02  0.51100000000E-03 0.  1.
        -12    1    4    4    0    0  0.64343923945E+01 -0.13216061329E+01  0.43871011955E+01  0.78990319126E+01  0.00000000000E+00 0.  1.
</event>
<event>
 8    1  0.1229941E-006  0.9118800E+02  0.7816164E-02  0.1184000E+00
        -11   -1    0    0    0    0  0.00000000000E+00  0.00000000000E+00  0.45593999997E+02  0.45594000000E+02  0.51100000000E-03 0.  1.
         11   -1    0    0    0    0 -0.00000000000E+00 -0.00000000000E+00 -0.45593999997E+02  0.45594000000E+02  0.51100000000E-03 0. -1.
         23    2    1    2    0    0 -0.17763568394E-14  0.00000000000E+00  0.00000000000E+00  0.91188000000E+02  0.91188000000E+02 0.  0.
    9900012    2    3    3    0    0 -0.12917461769E+02  0.88250165120E+01 -0.33332231207E+02  0.54367090557E+02  0.40000014542E+02 0.  0.
        -12    1    3    3    0    0  0.12917461769E+02 -0.88250165120E+01  0.33332231207E+02  0.36820909443E+02  0.00000000000E+00 0.  1.
         11    1    4    4    0    0  0.30659539005E+01  0.69749846071E+01 -0.48522195607E+01  0.90329684221E+01  0.51100000000E-03 0. -1.
        -11    1    4    4    0    0 -0.14057080183E+02 -0.34826040222E+01 -0.34285873977E+02  0.37218962756E+02  0.51100000000E-03 0.  1.
        -12    1    4    4    0    0 -0.19263354868E+01  0.53326359272E+01  0.58058623304E+01  0.81151593785E+01  0.00000000000E+00 0.  1.
</event>
<event>
 8    1  0.1229941E-006  0.9118800E+02  0.7816164E-02  0.1184000E+00
        -11   -1    0    0    0    0  0.00000000000E+00  0.00000000000E+00  0.45593999997E+02  0.45594000000E+02  0.51100000000E-03 0.  1.
         11   -1    0    0    0    0 -0.00000000000E+00 -0.00000000000E+00 -0.45593999997E+02  0.45594000000E+02  0.51100000000E-03 0. -1.
         23    2    1    2    0    0  0.00000000000E+00 -0.35527136788E-14  0.88817841970E-15  0.91188000000E+02  0.91188000000E+02 0.  0.
    9900012    2    3    3    0    0  0.32610746348E+02 -0.16899612343E+02 -0.25929014371E+01  0.54367070998E+02  0.39999969954E+02 0.  0.
         12    1    3    3    0    0 -0.32610746348E+02  0.16899612343E+02  0.25929014371E+01  0.36820929002E+02  0.00000000000E+00 0. -1.
         11    1    4    4    0    0 -0.57319840785E+00  0.28965885949E+01 -0.40291761502E+01  0.49953020542E+01  0.51100000000E-03 0. -1.
        -11    1    4    4    0    0  0.30929755185E+02 -0.27674371169E+01  0.59343874775E+01  0.31615271926E+02  0.51100000000E-03 0.  1.
        -12    1    4    4    0    0  0.22541895711E+01 -0.17028763821E+02 -0.44981127645E+01  0.17756497017E+02  0.00000000000E+00 0.  1.
</event>
<event>
 8    1  0.1229941E-006  0.9118800E+02  0.7816164E-02  0.1184000E+00
        -11   -1    0    0    0    0  0.00000000000E+00  0.00000000000E+00  0.45593999997E+02  0.45594000000E+02  0.51100000000E-03 0.  1.
         11   -1    0    0    0    0 -0.00000000000E+00 -0.00000000000E+00 -0.45593999997E+02  0.45594000000E+02  0.51100000000E-03 0. -1.
         23    2    1    2    0    0 -0.94368957093E-15  0.00000000000E+00  0.00000000000E+00  0.91188000000E+02  0.91188000000E+02 0.  0.
    9900012    2    3    3    0    0  0.47226605252E+00  0.31258453928E+02 -0.19454193314E+02  0.54367087264E+02  0.40000007036E+02 0.  0.
        -12    1    3    3    0    0 -0.47226605252E+00 -0.31258453928E+02  0.19454193314E+02  0.36820912736E+02  0.00000000000E+00 0.  1.
         11    1    4    4    0    0 -0.61313194227E+01  0.70803935398E+01 -0.17416287728E+01  0.95267162016E+01  0.51100000000E-03 0.  1.
        -11    1    4    4    0    0 -0.23869740757E+01  0.24213133018E+02 -0.23758087097E+02  0.34006178241E+02  0.51100000000E-03 0. -1.
         12    1    4    4    0    0  0.89905595509E+01 -0.35072629569E-01  0.60455225558E+01  0.10834192822E+02  0.00000000000E+00 0. -1.
</event>
<event>
 8    1  0.1229941E-006  0.9118800E+02  0.7816164E-02  0.1184000E+00
        -11   -1    0    0    0    0  0.00000000000E+00  0.00000000000E+00  0.45593999997E+02  0.45594000000E+02  0.51100000000E-03 0.  1.
         11   -1    0    0    0    0 -0.00000000000E+00 -0.00000000000E+00 -0.45593999997E+02  0.45594000000E+02  0.51100000000E-03 0. -1.
         23    2    1    2    0    0  0.00000000000E+00  0.88817841970E-15  0.17763568394E-14  0.91188000000E+02  0.91188000000E+02 0.  0.
    9900012    2    3    3    0    0  0.36103035105E+02  0.71153049217E+01  0.13125653780E+01  0.54367088336E+02  0.40000009479E+02 0.  0.
        -12    1    3    3    0    0 -0.36103035105E+02 -0.71153049217E+01 -0.13125653780E+01  0.36820911664E+02  0.00000000000E+00 0.  1.
         11    1    4    4    0    0  0.17178343023E+02 -0.44036799644E+01 -0.11744155183E+02  0.21270003466E+02  0.51100000000E-03 0. -1.
        -11    1    4    4    0    0  0.18028549975E+02  0.16910723340E+02  0.90620759836E+01  0.26327217845E+02  0.51100000000E-03 0.  1.
        -12    1    4    4    0    0  0.89614210741E+00 -0.53917384536E+01  0.39946445771E+01  0.67698670243E+01  0.00000000000E+00 0.  1.
</event>
<event>
 8    1  0.1229941E-006  0.9118800E+02  0.7816164E-02  0.1184000E+00
        -11   -1    0    0    0    0  0.00000000000E+00  0.00000000000E+00  0.45593999997E+02  0.45594000000E+02  0.51100000000E-03 0.  1.
         11   -1    0    0    0    0 -0.00000000000E+00 -0.00000000000E+00 -0.45593999997E+02  0.45594000000E+02  0.51100000000E-03 0. -1.
         23    2    1    2    0    0  0.17763568394E-14 -0.17763568394E-14 -0.71054273576E-14  0.91188000000E+02  0.91188000000E+02 0.  0.
    9900012    2    3    3    0    0  0.11808373810E+02  0.15600477646E+02 -0.31192409315E+02  0.54367095697E+02  0.40000026260E+02 0.  0.
        -12    1    3    3    0    0 -0.11808373810E+02 -0.15600477646E+02  0.31192409315E+02  0.36820904303E+02  0.00000000000E+00 0.  1.
         11    1    4    4    0    0  0.42810205178E+01 -0.37196522240E+01 -0.22609842213E+02  0.23310253420E+02  0.51100000000E-03 0. -1.
        -11    1    4    4    0    0 -0.10767387990E+00 -0.46630552693E+01 -0.99984729159E+00  0.47702592148E+01  0.51100000000E-03 0.  1.
        -12    1    4    4    0    0  0.76350271725E+01  0.23983185139E+02 -0.75827198102E+01  0.26286583062E+02  0.00000000000E+00 0.  1.
</event>
<event>
 8    1  0.1229941E-006  0.9118800E+02  0.7816164E-02  0.1184000E+00
        -11   -1    0    0    0    0  0.00000000000E+00  0.00000000000E+00  0.45593999997E+02  0.45594000000E+02  0.51100000000E-03 0. -1.
         11   -1    0    0    0    0 -0.00000000000E+00 -0.00000000000E+00 -0.45593999997E+02  0.45594000000E+02  0.51100000000E-03 0.  1.
         23    2    1    2    0    0  0.00000000000E+00  0.00000000000E+00  0.00000000000E+00  0.91188000000E+02  0.91188000000E+02 0.  0.
    9900012    2    3    3    0    0 -0.59880183830E+01  0.32984883790E+02 -0.15228940266E+02  0.54367088219E+02  0.40000009212E+02 0.  0.
         12    1    3    3    0    0  0.59880183830E+01 -0.32984883790E+02  0.15228940266E+02  0.36820911781E+02  0.00000000000E+00 0. -1.
         11    1    4    4    0    0 -0.43293415452E+01  0.17208243470E+01 -0.69428514504E+00  0.47102512430E+01  0.51100000000E-03 0. -1.
        -11    1    4    4    0    0 -0.66998023871E+00  0.13724760164E+02  0.11724559281E+02  0.18063311038E+02  0.51100000000E-03 0.  1.
         12    1    4    4    0    0 -0.98869659906E+00  0.17539299279E+02 -0.26259214402E+02  0.31593525937E+02  0.00000000000E+00 0. -1.
</event>
<event>
 8    1  0.1229941E-006  0.9118800E+02  0.7816164E-02  0.1184000E+00
        -11   -1    0    0    0    0  0.00000000000E+00  0.00000000000E+00  0.45593999997E+02  0.45594000000E+02  0.51100000000E-03 0. -1.
         11   -1    0    0    0    0 -0.00000000000E+00 -0.00000000000E+00 -0.45593999997E+02  0.45594000000E+02  0.51100000000E-03 0.  1.
         23    2    1    2    0    0  0.00000000000E+00  0.00000000000E+00  0.00000000000E+00  0.91188000000E+02  0.91188000000E+02 0.  0.
    9900012    2    3    3    0    0 -0.24842043309E+02 -0.50456017302E+01  0.26705728425E+02  0.54367066508E+02  0.39999959717E+02 0.  0.
        -12    1    3    3    0    0  0.24842043309E+02  0.50456017302E+01 -0.26705728425E+02  0.36820933492E+02  0.00000000000E+00 0.  1.
         11    1    4    4    0    0 -0.19183904290E+02 -0.13333881428E+02  0.14317403552E+02  0.27400777771E+02  0.51100000000E-03 0. -1.
        -11    1    4    4    0    0 -0.30169239144E+01  0.25301146938E+01  0.18047279220E+02  0.18471805483E+02  0.51100000000E-03 0.  1.
        -12    1    4    4    0    0 -0.26412151044E+01  0.57581650035E+01 -0.56589543481E+01  0.84944832538E+01  0.00000000000E+00 0.  1.
</event>
<event>
 8    1  0.1229941E-006  0.9118800E+02  0.7816164E-02  0.1184000E+00
        -11   -1    0    0    0    0  0.00000000000E+00  0.00000000000E+00  0.45593999997E+02  0.45594000000E+02  0.51100000000E-03 0.  1.
         11   -1    0    0    0    0 -0.00000000000E+00 -0.00000000000E+00 -0.45593999997E+02  0.45594000000E+02  0.51100000000E-03 0. -1.
         23    2    1    2    0    0  0.00000000000E+00 -0.35527136788E-14  0.00000000000E+00  0.91188000000E+02  0.91188000000E+02 0.  0.
    9900012    2    3    3    0    0  0.14343582202E+02 -0.23990911193E+02 -0.23968185488E+02  0.54367135183E+02  0.40000116278E+02 0.  0.
        -12    1    3    3    0    0 -0.14343582202E+02  0.23990911193E+02  0.23968185488E+02  0.36820864817E+02  0.00000000000E+00 0.  1.
         11    1    4    4    0    0 -0.49000453207E+01  0.64412167593E+01 -0.66744944094E+01  0.10490404824E+02  0.51100000000E-03 0. -1.
        -11    1    4    4    0    0  0.63569270029E+01 -0.99983768137E+00  0.15630097498E+01  0.66221745710E+01  0.51100000000E-03 0.  1.
         12    1    4    4    0    0  0.12886700519E+02 -0.29432290271E+02 -0.18856700828E+02  0.37254555789E+02  0.00000000000E+00 0. -1.
</event>
<event>
 8    1  0.1229941E-006  0.9118800E+02  0.7816164E-02  0.1184000E+00
        -11   -1    0    0    0    0  0.00000000000E+00  0.00000000000E+00  0.45593999997E+02  0.45594000000E+02  0.51100000000E-03 0. -1.
         11   -1    0    0    0    0 -0.00000000000E+00 -0.00000000000E+00 -0.45593999997E+02  0.45594000000E+02  0.51100000000E-03 0.  1.
         23    2    1    2    0    0  0.35527136788E-14 -0.35527136788E-14 -0.35527136788E-14  0.91188000000E+02  0.91188000000E+02 0.  0.
    9900012    2    3    3    0    0 -0.16928712126E+02 -0.22308961118E+02 -0.23906248967E+02  0.54367085019E+02  0.40000001917E+02 0.  0.
         12    1    3    3    0    0  0.16928712126E+02  0.22308961118E+02  0.23906248967E+02  0.36820914981E+02  0.00000000000E+00 0. -1.
         11    1    4    4    0    0 -0.18356474420E+02  0.11340152490E+01 -0.11864169953E+02  0.21886175377E+02  0.51100000000E-03 0. -1.
        -11    1    4    4    0    0 -0.65247098112E+01 -0.15078194065E+01 -0.40067457041E+01  0.78038047696E+01  0.51100000000E-03 0.  1.
         12    1    4    4    0    0  0.79524721055E+01 -0.21935156960E+02 -0.80353333104E+01  0.24677104872E+02  0.00000000000E+00 0. -1.
</event>
<event>
 8    1  0.1229941E-006  0.9118800E+02  0.7816164E-02  0.1184000E+00
        -11   -1    0    0    0    0  0.00000000000E+00  0.00000000000E+00  0.45593999997E+02  0.45594000000E+02  0.51100000000E-03 0.  1.
         11   -1    0    0    0    0 -0.00000000000E+00 -0.00000000000E+00 -0.45593999997E+02  0.45594000000E+02  0.51100000000E-03 0. -1.
         23    2    1    2    0    0  0.00000000000E+00  0.35527136788E-14  0.00000000000E+00  0.91188000000E+02  0.91188000000E+02 0.  0.
    9900012    2    3    3    0    0  0.19419582024E+02 -0.21377447026E+02 -0.22839957574E+02  0.54367094670E+02  0.40000023920E+02 0.  0.
        -12    1    3    3    0    0 -0.19419582024E+02  0.21377447026E+02  0.22839957574E+02  0.36820905330E+02  0.00000000000E+00 0.  1.
         11    1    4    4    0    0  0.11080200369E+02 -0.17343207282E+01 -0.26733182628E+02  0.28990373614E+02  0.51100000000E-03 0. -1.
        -11    1    4    4    0    0 -0.35586807521E+01 -0.49625863135E+01  0.17888551118E+01  0.63632911679E+01  0.51100000000E-03 0.  1.
        -12    1    4    4    0    0  0.11898062407E+02 -0.14680539984E+02  0.21043699420E+01  0.19013429888E+02  0.00000000000E+00 0.  1.
</event>
<event>
 8    1  0.1229941E-006  0.9118800E+02  0.7816164E-02  0.1184000E+00
        -11   -1    0    0    0    0  0.00000000000E+00  0.00000000000E+00  0.45593999997E+02  0.45594000000E+02  0.51100000000E-03 0.  1.
         11   -1    0    0    0    0 -0.00000000000E+00 -0.00000000000E+00 -0.45593999997E+02  0.45594000000E+02  0.51100000000E-03 0. -1.
         23    2    1    2    0    0  0.00000000000E+00  0.88817841970E-15 -0.35527136788E-14  0.91188000000E+02  0.91188000000E+02 0.  0.
    9900012    2    3    3    0    0  0.20166234929E+02  0.62055906810E+01  0.30176015295E+02  0.54367105308E+02  0.40000048169E+02 0.  0.
         12    1    3    3    0    0 -0.20166234929E+02 -0.62055906810E+01 -0.30176015295E+02  0.36820894692E+02  0.00000000000E+00 0. -1.
         11    1    4    4    0    0  0.37620941330E+01  0.51949927356E+01 -0.45339887537E+01  0.78548301107E+01  0.51100000000E-03 0. -1.
        -11    1    4    4    0    0  0.13999367528E+02 -0.10980871809E+02  0.25969652309E+02  0.31479909120E+02  0.51100000000E-03 0.  1.
        -12    1    4    4    0    0  0.24047732677E+01  0.11991469755E+02  0.87403517389E+01  0.15032366077E+02  0.00000000000E+00 0.  1.
</event>
<event>
 8    1  0.1229941E-006  0.9118800E+02  0.7816164E-02  0.1184000E+00
        -11   -1    0    0    0    0  0.00000000000E+00  0.00000000000E+00  0.45593999997E+02  0.45594000000E+02  0.51100000000E-03 0.  1.
         11   -1    0    0    0    0 -0.00000000000E+00 -0.00000000000E+00 -0.45593999997E+02  0.45594000000E+02  0.51100000000E-03 0. -1.
         23    2    1    2    0    0  0.00000000000E+00  0.00000000000E+00  0.44408920985E-15  0.91188000000E+02  0.91188000000E+02 0.  0.
    9900012    2    3    3    0    0  0.19121349854E+02 -0.31439621940E+02  0.13039376010E+01  0.54367134975E+02  0.40000115801E+02 0.  0.
        -12    1    3    3    0    0 -0.19121349854E+02  0.31439621940E+02 -0.13039376010E+01  0.36820865025E+02  0.00000000000E+00 0.  1.
         11    1    4    4    0    0 -0.81233285971E+01 -0.19841327102E+01  0.39867972826E+01  0.92638978266E+01  0.51100000000E-03 0. -1.
        -11    1    4    4    0    0  0.56119090642E+01 -0.12288701991E+02  0.77583636635E+01  0.15578765258E+02  0.51100000000E-03 0.  1.
        -12    1    4    4    0    0  0.21632769387E+02 -0.17166787239E+02 -0.10441223345E+02  0.29524471890E+02  0.00000000000E+00 0.  1.
</event>
<event>
 8    1  0.1229941E-006  0.9118800E+02  0.7816164E-02  0.1184000E+00
        -11   -1    0    0    0    0  0.00000000000E+00  0.00000000000E+00  0.45593999997E+02  0.45594000000E+02  0.51100000000E-03 0.  1.
         11   -1    0    0    0    0 -0.00000000000E+00 -0.00000000000E+00 -0.45593999997E+02  0.45594000000E+02  0.51100000000E-03 0. -1.
         23    2    1    2    0    0 -0.17763568394E-14  0.88817841970E-15  0.00000000000E+00  0.91188000000E+02  0.91188000000E+02 0.  0.
    9900012    2    3    3    0    0 -0.87703074418E+01 -0.71125268210E+01  0.35046741641E+02  0.54367076193E+02  0.39999981796E+02 0.  0.
         12    1    3    3    0    0  0.87703074418E+01  0.71125268210E+01 -0.35046741641E+02  0.36820923807E+02  0.00000000000E+00 0. -1.
         11    1    4    4    0    0  0.34993422980E+01 -0.18554841781E+01 -0.33216608980E+01  0.51692987374E+01  0.51100000000E-03 0. -1.
        -11    1    4    4    0    0 -0.17156796944E+02  0.61339754771E+01  0.25391105200E+02  0.31252032895E+02  0.51100000000E-03 0.  1.
        -12    1    4    4    0    0  0.48871472040E+01 -0.11391018120E+02  0.12977297339E+02  0.17945744560E+02  0.00000000000E+00 0.  1.
</event>
<event>
 8    1  0.1229941E-006  0.9118800E+02  0.7816164E-02  0.1184000E+00
        -11   -1    0    0    0    0  0.00000000000E+00  0.00000000000E+00  0.45593999997E+02  0.45594000000E+02  0.51100000000E-03 0. -1.
         11   -1    0    0    0    0 -0.00000000000E+00 -0.00000000000E+00 -0.45593999997E+02  0.45594000000E+02  0.51100000000E-03 0.  1.
         23    2    1    2    0    0  0.00000000000E+00  0.35527136788E-14  0.00000000000E+00  0.91188000000E+02  0.91188000000E+02 0.  0.
    9900012    2    3    3    0    0  0.41902565155E+01 -0.10512518122E+02 -0.35038702903E+02  0.54367055036E+02  0.39999933565E+02 0.  0.
         12    1    3    3    0    0 -0.41902565155E+01  0.10512518122E+02  0.35038702903E+02  0.36820944964E+02  0.00000000000E+00 0. -1.
         11    1    4    4    0    0 -0.20133638991E+01  0.22834100652E+00  0.40692638967E+01  0.45458423562E+01  0.51100000000E-03 0. -1.
        -11    1    4    4    0    0  0.64844902591E+01 -0.19081206275E+02 -0.35301617440E+02  0.40649049694E+02  0.51100000000E-03 0.  1.
        -12    1    4    4    0    0 -0.28086984450E+00  0.83403471463E+01 -0.38063493594E+01  0.91721629857E+01  0.00000000000E+00 0.  1.
</event>
<event>
 8    1  0.1229941E-006  0.9118800E+02  0.7816164E-02  0.1184000E+00
        -11   -1    0    0    0    0  0.00000000000E+00  0.00000000000E+00  0.45593999997E+02  0.45594000000E+02  0.51100000000E-03 0.  1.
         11   -1    0    0    0    0 -0.00000000000E+00 -0.00000000000E+00 -0.45593999997E+02  0.45594000000E+02  0.51100000000E-03 0. -1.
         23    2    1    2    0    0 -0.35527136788E-14  0.17763568394E-14  0.35527136788E-14  0.91188000000E+02  0.91188000000E+02 0.  0.
    9900012    2    3    3    0    0  0.20623862062E+02 -0.12973980687E+02 -0.27606328272E+02  0.54367119757E+02  0.40000081110E+02 0.  0.
        -12    1    3    3    0    0 -0.20623862062E+02  0.12973980687E+02  0.27606328272E+02  0.36820880243E+02  0.00000000000E+00 0.  1.
         11    1    4    4    0    0 -0.88098942205E+01 -0.66871662790E+01 -0.45292759179E+01  0.11951852142E+02  0.51100000000E-03 0.  1.
        -11    1    4    4    0    0  0.31140281398E+02 -0.52426469075E+01 -0.16680860569E+02  0.35713492993E+02  0.51100000000E-03 0. -1.
         12    1    4    4    0    0 -0.17065251156E+01 -0.10441675005E+01 -0.63961917849E+01  0.67017746224E+01  0.00000000000E+00 0. -1.
</event>
<event>
 8    1  0.1229941E-006  0.9118800E+02  0.7816164E-02  0.1184000E+00
        -11   -1    0    0    0    0  0.00000000000E+00  0.00000000000E+00  0.45593999997E+02  0.45594000000E+02  0.51100000000E-03 0.  1.
         11   -1    0    0    0    0 -0.00000000000E+00 -0.00000000000E+00 -0.45593999997E+02  0.45594000000E+02  0.51100000000E-03 0. -1.
         23    2    1    2    0    0 -0.35527136788E-14  0.00000000000E+00  0.17763568394E-14  0.91188000000E+02  0.91188000000E+02 0.  0.
    9900012    2    3    3    0    0 -0.27794965458E+02 -0.22061117481E+02  0.98248383529E+01  0.54367075813E+02  0.39999980930E+02 0.  0.
        -12    1    3    3    0    0  0.27794965458E+02  0.22061117481E+02 -0.98248383529E+01  0.36820924187E+02  0.00000000000E+00 0.  1.
         11    1    4    4    0    0 -0.86036249576E+01 -0.16626667231E+02  0.17201072197E+02  0.25423322178E+02  0.51100000000E-03 0. -1.
        -11    1    4    4    0    0 -0.15109187006E+02 -0.45761562412E+01 -0.14010251362E+02  0.21107247130E+02  0.51100000000E-03 0.  1.
        -12    1    4    4    0    0 -0.40821534949E+01 -0.85829400942E+00  0.66340175182E+01  0.78365065044E+01  0.00000000000E+00 0.  1.
</event>
<event>
 8    1  0.1229941E-006  0.9118800E+02  0.7816164E-02  0.1184000E+00
        -11   -1    0    0    0    0  0.00000000000E+00  0.00000000000E+00  0.45593999997E+02  0.45594000000E+02  0.51100000000E-03 0.  1.
         11   -1    0    0    0    0 -0.00000000000E+00 -0.00000000000E+00 -0.45593999997E+02  0.45594000000E+02  0.51100000000E-03 0. -1.
         23    2    1    2    0    0 -0.35527136788E-14  0.00000000000E+00  0.35527136788E-14  0.91188000000E+02  0.91188000000E+02 0.  0.
    9900012    2    3    3    0    0 -0.25702682993E+02  0.86677890406E+01  0.24900145166E+02  0.54367140298E+02  0.40000127938E+02 0.  0.
         12    1    3    3    0    0  0.25702682993E+02 -0.86677890406E+01 -0.24900145166E+02  0.36820859702E+02  0.00000000000E+00 0. -1.
         11    1    4    4    0    0 -0.21638206273E+01  0.67606160770E+01 -0.18788497547E+01  0.73428963025E+01  0.51100000000E-03 0. -1.
        -11    1    4    4    0    0 -0.29701568629E+02  0.45756036340E+01  0.26863058543E+02  0.40308103927E+02  0.51100000000E-03 0.  1.
        -12    1    4    4    0    0  0.61627062637E+01 -0.26684306704E+01 -0.84063621471E-01  0.67161400691E+01  0.00000000000E+00 0.  1.
</event>
<event>
 8    1  0.1229941E-006  0.9118800E+02  0.7816164E-02  0.1184000E+00
        -11   -1    0    0    0    0  0.00000000000E+00  0.00000000000E+00  0.45593999997E+02  0.45594000000E+02  0.51100000000E-03 0.  1.
         11   -1    0    0    0    0 -0.00000000000E+00 -0.00000000000E+00 -0.45593999997E+02  0.45594000000E+02  0.51100000000E-03 0. -1.
         23    2    1    2    0    0  0.00000000000E+00 -0.88817841970E-15  0.00000000000E+00  0.91188000000E+02  0.91188000000E+02 0.  0.
    9900012    2    3    3    0    0  0.74479571582E+01 -0.23587894219E+01 -0.35982548511E+02  0.54367085417E+02  0.40000002825E+02 0.  0.
        -12    1    3    3    0    0 -0.74479571582E+01  0.23587894219E+01  0.35982548511E+02  0.36820914583E+02  0.00000000000E+00 0.  1.
         11    1    4    4    0    0 -0.55856291973E+01  0.25931875007E+00 -0.24405754052E+02  0.25038117558E+02  0.51100000000E-03 0. -1.
        -11    1    4    4    0    0  0.29041075384E+01  0.89620236944E+01 -0.10195809488E+02  0.13881867333E+02  0.51100000000E-03 0.  1.
         12    1    4    4    0    0  0.10129478817E+02 -0.11580131866E+02 -0.13809849713E+01  0.15447100525E+02  0.00000000000E+00 0. -1.
</event>
<event>
 8    1  0.1229941E-006  0.9118800E+02  0.7816164E-02  0.1184000E+00
        -11   -1    0    0    0    0  0.00000000000E+00  0.00000000000E+00  0.45593999997E+02  0.45594000000E+02  0.51100000000E-03 0. -1.
         11   -1    0    0    0    0 -0.00000000000E+00 -0.00000000000E+00 -0.45593999997E+02  0.45594000000E+02  0.51100000000E-03 0.  1.
         23    2    1    2    0    0  0.35527136788E-14  0.00000000000E+00 -0.35527136788E-14  0.91188000000E+02  0.91188000000E+02 0.  0.
    9900012    2    3    3    0    0 -0.21984426987E+02 -0.22259284980E+02  0.19416225309E+02  0.54367073843E+02  0.39999976441E+02 0.  0.
        -12    1    3    3    0    0  0.21984426987E+02  0.22259284980E+02 -0.19416225309E+02  0.36820926157E+02  0.00000000000E+00 0.  1.
         11    1    4    4    0    0 -0.29863695717E+01  0.37464960062E+01  0.10971276699E+02  0.11971781330E+02  0.51100000000E-03 0. -1.
        -11    1    4    4    0    0 -0.10586533785E+02 -0.26398217788E+02  0.14594864276E+02  0.31967963080E+02  0.51100000000E-03 0.  1.
        -12    1    4    4    0    0 -0.84115236301E+01  0.39243680147E+00 -0.61499156658E+01  0.10427329434E+02  0.00000000000E+00 0.  1.
</event>
<event>
 8    1  0.1229941E-006  0.9118800E+02  0.7816164E-02  0.1184000E+00
        -11   -1    0    0    0    0  0.00000000000E+00  0.00000000000E+00  0.45593999997E+02  0.45594000000E+02  0.51100000000E-03 0.  1.
         11   -1    0    0    0    0 -0.00000000000E+00 -0.00000000000E+00 -0.45593999997E+02  0.45594000000E+02  0.51100000000E-03 0. -1.
         23    2    1    2    0    0  0.00000000000E+00 -0.17763568394E-14 -0.71054273576E-14  0.91188000000E+02  0.91188000000E+02 0.  0.
    9900012    2    3    3    0    0  0.10511020542E+02 -0.40742700473E+01  0.35052796913E+02  0.54367084739E+02  0.40000001280E+02 0.  0.
         12    1    3    3    0    0 -0.10511020542E+02  0.40742700473E+01 -0.35052796913E+02  0.36820915261E+02  0.00000000000E+00 0. -1.
         11    1    4    4    0    0  0.47224301317E+01 -0.85409806087E+01  0.15631184621E+01  0.98839787381E+01  0.51100000000E-03 0. -1.
        -11    1    4    4    0    0 -0.95855690288E+01  0.14197105638E+01  0.29047130761E+01  0.10116129201E+02  0.51100000000E-03 0.  1.
         12    1    4    4    0    0  0.15374159439E+02  0.30469999976E+01  0.30584965374E+02  0.34366976800E+02  0.00000000000E+00 0. -1.
</event>
<event>
 8    1  0.1229941E-006  0.9118800E+02  0.7816164E-02  0.1184000E+00
        -11   -1    0    0    0    0  0.00000000000E+00  0.00000000000E+00  0.45593999997E+02  0.45594000000E+02  0.51100000000E-03 0.  1.
         11   -1    0    0    0    0 -0.00000000000E+00 -0.00000000000E+00 -0.45593999997E+02  0.45594000000E+02  0.51100000000E-03 0. -1.
         23    2    1    2    0    0  0.35527136788E-14  0.00000000000E+00  0.00000000000E+00  0.91188000000E+02  0.91188000000E+02 0.  0.
    9900012    2    3    3    0    0 -0.13722179110E+02  0.34150263669E+02 -0.11196536658E+01  0.54366914566E+02  0.39999613335E+02 0.  0.
         12    1    3    3    0    0  0.13722179110E+02 -0.34150263669E+02  0.11196536658E+01  0.36821085434E+02  0.00000000000E+00 0. -1.
         11    1    4    4    0    0  0.66051303058E+01  0.20285977051E+01 -0.19968872042E+01  0.71923927711E+01  0.51100000000E-03 0. -1.
        -11    1    4    4    0    0 -0.71907657463E+01  0.33185027888E+02  0.14077926017E+01  0.33984335630E+02  0.51100000000E-03 0.  1.
         12    1    4    4    0    0 -0.13136543669E+02 -0.10633619241E+01 -0.53055906323E+00  0.13190186165E+02  0.00000000000E+00 0. -1.
</event>
<event>
 8    1  0.1229941E-006  0.9118800E+02  0.7816164E-02  0.1184000E+00
        -11   -1    0    0    0    0  0.00000000000E+00  0.00000000000E+00  0.45593999997E+02  0.45594000000E+02  0.51100000000E-03 0. -1.
         11   -1    0    0    0    0 -0.00000000000E+00 -0.00000000000E+00 -0.45593999997E+02  0.45594000000E+02  0.51100000000E-03 0.  1.
         23    2    1    2    0    0  0.00000000000E+00  0.17763568394E-14  0.00000000000E+00  0.91188000000E+02  0.91188000000E+02 0.  0.
    9900012    2    3    3    0    0  0.29802509077E+02 -0.12806257896E+02 -0.17423858544E+02  0.54367073407E+02  0.39999975446E+02 0.  0.
         12    1    3    3    0    0 -0.29802509077E+02  0.12806257896E+02  0.17423858544E+02  0.36820926593E+02  0.00000000000E+00 0. -1.
         11    1    4    4    0    0  0.82109487463E-01  0.25429727895E+01 -0.11016145454E+02  0.11306144944E+02  0.51100000000E-03 0. -1.
        -11    1    4    4    0    0  0.57689241655E+00 -0.42738342082E+01 -0.10750141425E+02  0.11582918657E+02  0.51100000000E-03 0.  1.
         12    1    4    4    0    0  0.29143507173E+02 -0.11075396477E+02  0.43424283350E+01  0.31478009806E+02  0.00000000000E+00 0. -1.
</event>
<event>
 8    1  0.1229941E-006  0.9118800E+02  0.7816164E-02  0.1184000E+00
        -11   -1    0    0    0    0  0.00000000000E+00  0.00000000000E+00  0.45593999997E+02  0.45594000000E+02  0.51100000000E-03 0.  1.
         11   -1    0    0    0    0 -0.00000000000E+00 -0.00000000000E+00 -0.45593999997E+02  0.45594000000E+02  0.51100000000E-03 0. -1.
         23    2    1    2    0    0  0.22204460493E-15  0.00000000000E+00 -0.71054273576E-14  0.91188000000E+02  0.91188000000E+02 0.  0.
    9900012    2    3    3    0    0 -0.13258759361E+01 -0.10305928764E+02  0.35324347889E+02  0.54367086534E+02  0.40000005371E+02 0.  0.
         12    1    3    3    0    0  0.13258759361E+01  0.10305928764E+02 -0.35324347889E+02  0.36820913466E+02  0.00000000000E+00 0. -1.
         11    1    4    4    0    0 -0.51605770897E+01  0.14751831548E+01  0.14546473966E+02  0.15505083887E+02  0.51100000000E-03 0. -1.
        -11    1    4    4    0    0 -0.45699604926E+01 -0.94359198352E+01  0.26451765513E+02  0.28453769892E+02  0.51100000000E-03 0.  1.
         12    1    4    4    0    0  0.84046616462E+01 -0.23451920838E+01 -0.56738915899E+01  0.10408232754E+02  0.00000000000E+00 0. -1.
</event>
<event>
 8    1  0.1229941E-006  0.9118800E+02  0.7816164E-02  0.1184000E+00
        -11   -1    0    0    0    0  0.00000000000E+00  0.00000000000E+00  0.45593999997E+02  0.45594000000E+02  0.51100000000E-03 0.  1.
         11   -1    0    0    0    0 -0.00000000000E+00 -0.00000000000E+00 -0.45593999997E+02  0.45594000000E+02  0.51100000000E-03 0. -1.
         23    2    1    2    0    0 -0.71054273576E-14  0.35527136788E-14 -0.13322676296E-14  0.91188000000E+02  0.91188000000E+02 0.  0.
    9900012    2    3    3    0    0 -0.31113576008E+02  0.19432076634E+02 -0.31800399852E+01  0.54367178870E+02  0.40000215870E+02 0.  0.
         12    1    3    3    0    0  0.31113576008E+02 -0.19432076634E+02  0.31800399852E+01  0.36820821130E+02  0.00000000000E+00 0. -1.
         11    1    4    4    0    0 -0.84098341931E+01 -0.35874105554E+01  0.15800083743E+01  0.92785371892E+01  0.51100000000E-03 0. -1.
        -11    1    4    4    0    0 -0.12196556492E+02  0.14613495823E+02 -0.18009845512E+02  0.26204289459E+02  0.51100000000E-03 0.  1.
        -12    1    4    4    0    0 -0.10507185323E+02  0.84059913672E+01  0.13249797152E+02  0.18884352222E+02  0.00000000000E+00 0.  1.
</event>
<event>
 8    1  0.1229941E-006  0.9118800E+02  0.7816164E-02  0.1184000E+00
        -11   -1    0    0    0    0  0.00000000000E+00  0.00000000000E+00  0.45593999997E+02  0.45594000000E+02  0.51100000000E-03 0.  1.
         11   -1    0    0    0    0 -0.00000000000E+00 -0.00000000000E+00 -0.45593999997E+02  0.45594000000E+02  0.51100000000E-03 0. -1.
         23    2    1    2    0    0  0.35527136788E-14  0.35527136788E-14 -0.44408920985E-15  0.91188000000E+02  0.91188000000E+02 0.  0.
    9900012    2    3    3    0    0  0.28599325933E+02  0.23071491553E+02  0.23592145280E+01  0.54367067645E+02  0.39999962310E+02 0.  0.
         12    1    3    3    0    0 -0.28599325933E+02 -0.23071491553E+02 -0.23592145280E+01  0.36820932355E+02  0.00000000000E+00 0. -1.
         11    1    4    4    0    0  0.23844646110E+01 -0.46904072059E+01 -0.75406682489E+01  0.91949588982E+01  0.51100000000E-03 0. -1.
        -11    1    4    4    0    0  0.16157245567E+02  0.24024654398E+02  0.15741900922E+02  0.32955243106E+02  0.51100000000E-03 0.  1.
         12    1    4    4    0    0  0.10057615755E+02  0.37372443607E+01 -0.58420181449E+01  0.12216865641E+02  0.00000000000E+00 0. -1.
</event>
<event>
 8    1  0.1229941E-006  0.9118800E+02  0.7816164E-02  0.1184000E+00
        -11   -1    0    0    0    0  0.00000000000E+00  0.00000000000E+00  0.45593999997E+02  0.45594000000E+02  0.51100000000E-03 0. -1.
         11   -1    0    0    0    0 -0.00000000000E+00 -0.00000000000E+00 -0.45593999997E+02  0.45594000000E+02  0.51100000000E-03 0.  1.
         23    2    1    2    0    0  0.88817841970E-15 -0.22204460493E-15  0.71054273576E-14  0.91188000000E+02  0.91188000000E+02 0.  0.
    9900012    2    3    3    0    0  0.72862016941E+01  0.86234575167E+00 -0.36082555017E+02  0.54367039232E+02  0.39999897537E+02 0.  0.
         12    1    3    3    0    0 -0.72862016941E+01 -0.86234575167E+00  0.36082555017E+02  0.36820960768E+02  0.00000000000E+00 0. -1.
         11    1    4    4    0    0 -0.14352845415E+01  0.41018806700E+01 -0.72455895386E+01  0.84489073121E+01  0.51100000000E-03 0. -1.
        -11    1    4    4    0    0  0.54320844775E+01 -0.22340505553E+01 -0.36788552596E+02  0.37254477932E+02  0.51100000000E-03 0.  1.
         12    1    4    4    0    0  0.32894017581E+01 -0.10054843630E+01  0.79515871172E+01  0.86636539874E+01  0.00000000000E+00 0. -1.
</event>
<event>
 8    1  0.1229941E-006  0.9118800E+02  0.7816164E-02  0.1184000E+00
        -11   -1    0    0    0    0  0.00000000000E+00  0.00000000000E+00  0.45593999997E+02  0.45594000000E+02  0.51100000000E-03 0. -1.
         11   -1    0    0    0    0 -0.00000000000E+00 -0.00000000000E+00 -0.45593999997E+02  0.45594000000E+02  0.51100000000E-03 0.  1.
         23    2    1    2    0    0  0.00000000000E+00  0.00000000000E+00  0.00000000000E+00  0.91188000000E+02  0.91188000000E+02 0.  0.
    9900012    2    3    3    0    0  0.16804074122E+02 -0.28732782409E+02 -0.15742625305E+02  0.54367082799E+02  0.39999996856E+02 0.  0.
         12    1    3    3    0    0 -0.16804074122E+02  0.28732782409E+02  0.15742625305E+02  0.36820917201E+02  0.00000000000E+00 0. -1.
         11    1    4    4    0    0 -0.31348477269E+01 -0.66022172124E+01  0.40806865438E+01  0.83706956294E+01  0.51100000000E-03 0. -1.
        -11    1    4    4    0    0 -0.64329951518E+01 -0.41038589095E+01 -0.99940415546E+01  0.12574018905E+02  0.51100000000E-03 0.  1.
        -12    1    4    4    0    0  0.26371917001E+02 -0.18026706287E+02 -0.98292702941E+01  0.33422368264E+02  0.00000000000E+00 0.  1.
</event>
<event>
 8    1  0.1229941E-006  0.9118800E+02  0.7816164E-02  0.1184000E+00
        -11   -1    0    0    0    0  0.00000000000E+00  0.00000000000E+00  0.45593999997E+02  0.45594000000E+02  0.51100000000E-03 0.  1.
         11   -1    0    0    0    0 -0.00000000000E+00 -0.00000000000E+00 -0.45593999997E+02  0.45594000000E+02  0.51100000000E-03 0. -1.
         23    2    1    2    0    0  0.35527136788E-14  0.00000000000E+00  0.35527136788E-14  0.91188000000E+02  0.91188000000E+02 0.  0.
    9900012    2    3    3    0    0  0.31774853818E+02  0.32431281811E+01  0.18319937725E+02  0.54367091079E+02  0.40000015732E+02 0.  0.
         12    1    3    3    0    0 -0.31774853818E+02 -0.32431281811E+01 -0.18319937725E+02  0.36820908921E+02  0.00000000000E+00 0. -1.
         11    1    4    4    0    0  0.19909708369E+02 -0.89137852028E+01  0.25567940972E+02  0.33609100847E+02  0.51100000000E-03 0. -1.
        -11    1    4    4    0    0  0.88164745129E+01  0.39997460969E+01 -0.41722043303E+00  0.96903180973E+01  0.51100000000E-03 0.  1.
         12    1    4    4    0    0  0.30486709357E+01  0.81571672870E+01 -0.68307828133E+01  0.11067672134E+02  0.00000000000E+00 0. -1.
</event>
<event>
 8    1  0.1229941E-006  0.9118800E+02  0.7816164E-02  0.1184000E+00
        -11   -1    0    0    0    0  0.00000000000E+00  0.00000000000E+00  0.45593999997E+02  0.45594000000E+02  0.51100000000E-03 0. -1.
         11   -1    0    0    0    0 -0.00000000000E+00 -0.00000000000E+00 -0.45593999997E+02  0.45594000000E+02  0.51100000000E-03 0.  1.
         23    2    1    2    0    0 -0.35527136788E-14  0.00000000000E+00 -0.35527136788E-14  0.91188000000E+02  0.91188000000E+02 0.  0.
    9900012    2    3    3    0    0 -0.20389636431E+02 -0.20995244437E+02 -0.22343718236E+02  0.54367091438E+02  0.40000016551E+02 0.  0.
         12    1    3    3    0    0  0.20389636431E+02  0.20995244437E+02  0.22343718236E+02  0.36820908562E+02  0.00000000000E+00 0. -1.
         11    1    4    4    0    0 -0.34611718493E+01  0.54322336168E+01  0.27702663992E+01  0.70116509341E+01  0.51100000000E-03 0. -1.
        -11    1    4    4    0    0 -0.17446574013E+02 -0.42405080080E+01 -0.11244633211E+02  0.21185056744E+02  0.51100000000E-03 0.  1.
        -12    1    4    4    0    0  0.51810943120E+00 -0.22186970046E+02 -0.13869351424E+02  0.26170383759E+02  0.00000000000E+00 0.  1.
</event>
<event>
 8    1  0.1229941E-006  0.9118800E+02  0.7816164E-02  0.1184000E+00
        -11   -1    0    0    0    0  0.00000000000E+00  0.00000000000E+00  0.45593999997E+02  0.45594000000E+02  0.51100000000E-03 0.  1.
         11   -1    0    0    0    0 -0.00000000000E+00 -0.00000000000E+00 -0.45593999997E+02  0.45594000000E+02  0.51100000000E-03 0. -1.
         23    2    1    2    0    0  0.00000000000E+00  0.00000000000E+00  0.00000000000E+00  0.91188000000E+02  0.91188000000E+02 0.  0.
    9900012    2    3    3    0    0 -0.29519650134E+02  0.18847736296E+02 -0.11363550458E+02  0.54367120236E+02  0.40000082203E+02 0.  0.
        -12    1    3    3    0    0  0.29519650134E+02 -0.18847736296E+02  0.11363550458E+02  0.36820879764E+02  0.00000000000E+00 0.  1.
         11    1    4    4    0    0 -0.24474128509E+02 -0.23941796522E+01  0.12706047954E+01  0.24623758838E+02  0.51100000000E-03 0. -1.
        -11    1    4    4    0    0  0.12367499085E+01  0.33277044565E+01 -0.99579176503E+01  0.10571815903E+02  0.51100000000E-03 0.  1.
        -12    1    4    4    0    0 -0.62822715339E+01  0.17914211492E+02 -0.26762376032E+01  0.19171545496E+02  0.00000000000E+00 0.  1.
</event>
<event>
 8    1  0.1229941E-006  0.9118800E+02  0.7816164E-02  0.1184000E+00
        -11   -1    0    0    0    0  0.00000000000E+00  0.00000000000E+00  0.45593999997E+02  0.45594000000E+02  0.51100000000E-03 0.  1.
         11   -1    0    0    0    0 -0.00000000000E+00 -0.00000000000E+00 -0.45593999997E+02  0.45594000000E+02  0.51100000000E-03 0. -1.
         23    2    1    2    0    0  0.13322676296E-14  0.00000000000E+00 -0.35527136788E-14  0.91188000000E+02  0.91188000000E+02 0.  0.
    9900012    2    3    3    0    0  0.15002529557E+01  0.26719957539E+02  0.25289781681E+02  0.54367082748E+02  0.39999996741E+02 0.  0.
         12    1    3    3    0    0 -0.15002529557E+01 -0.26719957539E+02 -0.25289781681E+02  0.36820917252E+02  0.00000000000E+00 0. -1.
         11    1    4    4    0    0 -0.16623964572E+01  0.55508314653E+00  0.97260809436E+01  0.98827288773E+01  0.51100000000E-03 0. -1.
        -11    1    4    4    0    0 -0.81414281904E+01  0.24973411236E+02  0.13733850907E+01  0.26302857423E+02  0.51100000000E-03 0.  1.
        -12    1    4    4    0    0  0.11304077603E+02  0.11914631557E+01  0.14190315647E+02  0.18181496447E+02  0.00000000000E+00 0.  1.
</event>
<event>
 8    1  0.1229941E-006  0.9118800E+02  0.7816164E-02  0.1184000E+00
        -11   -1    0    0    0    0  0.00000000000E+00  0.00000000000E+00  0.45593999997E+02  0.45594000000E+02  0.51100000000E-03 0. -1.
         11   -1    0    0    0    0 -0.00000000000E+00 -0.00000000000E+00 -0.45593999997E+02  0.45594000000E+02  0.51100000000E-03 0.  1.
         23    2    1    2    0    0 -0.17763568394E-14  0.00000000000E+00  0.00000000000E+00  0.91188000000E+02  0.91188000000E+02 0.  0.
    9900012    2    3    3    0    0  0.19211567186E+01  0.17424675131E+02  0.32380080776E+02  0.54367085051E+02  0.40000001992E+02 0.  0.
        -12    1    3    3    0    0 -0.19211567186E+01 -0.17424675131E+02 -0.32380080776E+02  0.36820914949E+02  0.00000000000E+00 0.  1.
         11    1    4    4    0    0  0.27709182655E+01  0.83214744122E+01  0.47854838393E+01  0.99912852158E+01  0.51100000000E-03 0. -1.
        -11    1    4    4    0    0  0.12202852140E+02  0.92964676338E+01  0.27304139987E+02  0.31318524415E+02  0.51100000000E-03 0.  1.
        -12    1    4    4    0    0 -0.13052613687E+02 -0.19326691456E+00  0.29045694941E+00  0.13057275421E+02  0.00000000000E+00 0.  1.
</event>
<event>
 8    1  0.1229941E-006  0.9118800E+02  0.7816164E-02  0.1184000E+00
        -11   -1    0    0    0    0  0.00000000000E+00  0.00000000000E+00  0.45593999997E+02  0.45594000000E+02  0.51100000000E-03 0.  1.
         11   -1    0    0    0    0 -0.00000000000E+00 -0.00000000000E+00 -0.45593999997E+02  0.45594000000E+02  0.51100000000E-03 0. -1.
         23    2    1    2    0    0 -0.26645352591E-14 -0.44408920985E-15  0.00000000000E+00  0.91188000000E+02  0.91188000000E+02 0.  0.
    9900012    2    3    3    0    0 -0.72008904216E+01  0.31227681012E+01 -0.35974651446E+02  0.54367081351E+02  0.39999993556E+02 0.  0.
        -12    1    3    3    0    0  0.72008904216E+01 -0.31227681012E+01  0.35974651446E+02  0.36820918649E+02  0.00000000000E+00 0.  1.
         11    1    4    4    0    0  0.15487309382E+02 -0.30314421043E+01 -0.20281934209E+02  0.25698312175E+02  0.51100000000E-03 0. -1.
        -11    1    4    4    0    0 -0.59857238324E+01  0.35369137188E+01 -0.32351153243E+01  0.76684170384E+01  0.51100000000E-03 0.  1.
         12    1    4    4    0    0 -0.16702475971E+02  0.26172964867E+01 -0.12457601913E+02  0.21000352137E+02  0.00000000000E+00 0. -1.
</event>
<event>
 8    1  0.1229941E-006  0.9118800E+02  0.7816164E-02  0.1184000E+00
        -11   -1    0    0    0    0  0.00000000000E+00  0.00000000000E+00  0.45593999997E+02  0.45594000000E+02  0.51100000000E-03 0.  1.
         11   -1    0    0    0    0 -0.00000000000E+00 -0.00000000000E+00 -0.45593999997E+02  0.45594000000E+02  0.51100000000E-03 0. -1.
         23    2    1    2    0    0  0.00000000000E+00  0.00000000000E+00  0.26645352591E-14  0.91188000000E+02  0.91188000000E+02 0.  0.
    9900012    2    3    3    0    0  0.34886444010E+02 -0.11122282677E+02  0.38743936192E+01  0.54367081034E+02  0.39999992833E+02 0.  0.
        -12    1    3    3    0    0 -0.34886444010E+02  0.11122282677E+02 -0.38743936192E+01  0.36820918966E+02  0.00000000000E+00 0.  1.
         11    1    4    4    0    0  0.34129731195E+01 -0.40610115898E+00 -0.41251464103E+01  0.53693702455E+01  0.51100000000E-03 0. -1.
        -11    1    4    4    0    0  0.21089681270E+02 -0.19523293674E+02  0.16311472870E+02  0.33045389987E+02  0.51100000000E-03 0.  1.
        -12    1    4    4    0    0  0.10383789621E+02  0.88071121558E+01 -0.83119328401E+01  0.15952320801E+02  0.00000000000E+00 0.  1.
</event>
<event>
 8    1  0.1229941E-006  0.9118800E+02  0.7816164E-02  0.1184000E+00
        -11   -1    0    0    0    0  0.00000000000E+00  0.00000000000E+00  0.45593999997E+02  0.45594000000E+02  0.51100000000E-03 0. -1.
         11   -1    0    0    0    0 -0.00000000000E+00 -0.00000000000E+00 -0.45593999997E+02  0.45594000000E+02  0.51100000000E-03 0.  1.
         23    2    1    2    0    0  0.00000000000E+00  0.00000000000E+00 -0.35527136788E-14  0.91188000000E+02  0.91188000000E+02 0.  0.
    9900012    2    3    3    0    0 -0.93154019543E+01  0.19038510390E+02  0.30108783609E+02  0.54367076032E+02  0.39999981429E+02 0.  0.
        -12    1    3    3    0    0  0.93154019543E+01 -0.19038510390E+02 -0.30108783609E+02  0.36820923968E+02  0.00000000000E+00 0.  1.
         11    1    4    4    0    0  0.89006031291E+01  0.12297570232E+02  0.22820275282E+02  0.27408318699E+02  0.51100000000E-03 0. -1.
        -11    1    4    4    0    0 -0.52796694606E+01  0.10871380554E+02  0.14326045340E+01  0.12170216957E+02  0.51100000000E-03 0.  1.
        -12    1    4    4    0    0 -0.12936335623E+02 -0.41304403961E+01  0.58559037930E+01  0.14788540376E+02  0.00000000000E+00 0.  1.
</event>
<event>
 8    1  0.1229941E-006  0.9118800E+02  0.7816164E-02  0.1184000E+00
        -11   -1    0    0    0    0  0.00000000000E+00  0.00000000000E+00  0.45593999997E+02  0.45594000000E+02  0.51100000000E-03 0.  1.
         11   -1    0    0    0    0 -0.00000000000E+00 -0.00000000000E+00 -0.45593999997E+02  0.45594000000E+02  0.51100000000E-03 0. -1.
         23    2    1    2    0    0  0.00000000000E+00 -0.71054273576E-14  0.44408920985E-15  0.91188000000E+02  0.91188000000E+02 0.  0.
    9900012    2    3    3    0    0  0.17656637417E+02  0.32286684271E+02 -0.12619419847E+01  0.54367091216E+02  0.40000016046E+02 0.  0.
         12    1    3    3    0    0 -0.17656637417E+02 -0.32286684271E+02  0.12619419847E+01  0.36820908784E+02  0.00000000000E+00 0. -1.
         11    1    4    4    0    0  0.92209669954E+01  0.11426228444E+02  0.11306921613E+01  0.14726282416E+02  0.51100000000E-03 0.  1.
        -11    1    4    4    0    0 -0.35209273111E+01  0.24498589706E+01  0.12432259608E+02  0.13151418834E+02  0.51100000000E-03 0. -1.
         12    1    4    4    0    0  0.11956597732E+02  0.18410596857E+02 -0.14824893754E+02  0.26489389966E+02  0.00000000000E+00 0. -1.
</event>
<event>
 8    1  0.1229941E-006  0.9118800E+02  0.7816164E-02  0.1184000E+00
        -11   -1    0    0    0    0  0.00000000000E+00  0.00000000000E+00  0.45593999997E+02  0.45594000000E+02  0.51100000000E-03 0.  1.
         11   -1    0    0    0    0 -0.00000000000E+00 -0.00000000000E+00 -0.45593999997E+02  0.45594000000E+02  0.51100000000E-03 0. -1.
         23    2    1    2    0    0 -0.17763568394E-14  0.35527136788E-14  0.00000000000E+00  0.91188000000E+02  0.91188000000E+02 0.  0.
    9900012    2    3    3    0    0  0.11037035962E+02 -0.27244057441E+02 -0.22174862724E+02  0.54367090648E+02  0.40000014751E+02 0.  0.
        -12    1    3    3    0    0 -0.11037035962E+02  0.27244057441E+02  0.22174862724E+02  0.36820909352E+02  0.00000000000E+00 0.  1.
         11    1    4    4    0    0  0.13828852585E+02 -0.14482096360E+01 -0.84822164588E+00  0.13930325021E+02  0.51100000000E-03 0. -1.
        -11    1    4    4    0    0 -0.11566084366E+02 -0.18443299186E+02 -0.88386842954E+01  0.23495785426E+02  0.51100000000E-03 0.  1.
         12    1    4    4    0    0  0.87742677423E+01 -0.73525486185E+01 -0.12487956782E+02  0.16940980202E+02  0.00000000000E+00 0. -1.
</event>
<event>
 8    1  0.1229941E-006  0.9118800E+02  0.7816164E-02  0.1184000E+00
        -11   -1    0    0    0    0  0.00000000000E+00  0.00000000000E+00  0.45593999997E+02  0.45594000000E+02  0.51100000000E-03 0. -1.
         11   -1    0    0    0    0 -0.00000000000E+00 -0.00000000000E+00 -0.45593999997E+02  0.45594000000E+02  0.51100000000E-03 0.  1.
         23    2    1    2    0    0  0.35527136788E-14  0.88817841970E-15 -0.35527136788E-14  0.91188000000E+02  0.91188000000E+02 0.  0.
    9900012    2    3    3    0    0 -0.31751334743E+02 -0.55220422803E+01  0.17808413607E+02  0.54367084692E+02  0.40000001173E+02 0.  0.
        -12    1    3    3    0    0  0.31751334743E+02  0.55220422803E+01 -0.17808413607E+02  0.36820915308E+02  0.00000000000E+00 0.  1.
         11    1    4    4    0    0 -0.28243629877E+02 -0.80560647445E+01  0.21755395868E+02  0.36549966586E+02  0.51100000000E-03 0. -1.
        -11    1    4    4    0    0  0.12611595822E+01  0.80335131246E+01  0.20493795285E+01  0.83861679763E+01  0.51100000000E-03 0.  1.
        -12    1    4    4    0    0 -0.47688644485E+01 -0.54994906603E+01 -0.59963617898E+01  0.94309501306E+01  0.00000000000E+00 0.  1.
</event>
<event>
 8    1  0.1229941E-006  0.9118800E+02  0.7816164E-02  0.1184000E+00
        -11   -1    0    0    0    0  0.00000000000E+00  0.00000000000E+00  0.45593999997E+02  0.45594000000E+02  0.51100000000E-03 0. -1.
         11   -1    0    0    0    0 -0.00000000000E+00 -0.00000000000E+00 -0.45593999997E+02  0.45594000000E+02  0.51100000000E-03 0.  1.
         23    2    1    2    0    0 -0.35527136788E-14 -0.88817841970E-15  0.00000000000E+00  0.91188000000E+02  0.91188000000E+02 0.  0.
    9900012    2    3    3    0    0 -0.25733864556E+02 -0.69103196858E+01  0.25412493267E+02  0.54367094020E+02  0.40000022437E+02 0.  0.
        -12    1    3    3    0    0  0.25733864556E+02  0.69103196858E+01 -0.25412493267E+02  0.36820905980E+02  0.00000000000E+00 0.  1.
         11    1    4    4    0    0  0.27608366595E+01 -0.82849301932E+01  0.19168267673E+02  0.21063826177E+02  0.51100000000E-03 0. -1.
        -11    1    4    4    0    0 -0.16134480207E+02 -0.46262921144E+01  0.93549501511E+01  0.19215595824E+02  0.51100000000E-03 0.  1.
         12    1    4    4    0    0 -0.12360221009E+02  0.60009026218E+01 -0.31107245567E+01  0.14087672020E+02  0.00000000000E+00 0. -1.
</event>
<event>
 8    1  0.1229941E-006  0.9118800E+02  0.7816164E-02  0.1184000E+00
        -11   -1    0    0    0    0  0.00000000000E+00  0.00000000000E+00  0.45593999997E+02  0.45594000000E+02  0.51100000000E-03 0.  1.
         11   -1    0    0    0    0 -0.00000000000E+00 -0.00000000000E+00 -0.45593999997E+02  0.45594000000E+02  0.51100000000E-03 0. -1.
         23    2    1    2    0    0 -0.35527136788E-14  0.88817841970E-15 -0.10658141036E-13  0.91188000000E+02  0.91188000000E+02 0.  0.
    9900012    2    3    3    0    0 -0.27386097974E+02 -0.27389856300E+01  0.24459786909E+02  0.54367060574E+02  0.39999946191E+02 0.  0.
         12    1    3    3    0    0  0.27386097974E+02  0.27389856300E+01 -0.24459786909E+02  0.36820939426E+02  0.00000000000E+00 0. -1.
         11    1    4    4    0    0 -0.26996341369E-01  0.45406645504E+01 -0.87724929178E+01  0.98780056497E+01  0.51100000000E-03 0. -1.
        -11    1    4    4    0    0 -0.15366080395E+02 -0.66687542168E+01  0.14074604988E+02  0.21878830301E+02  0.51100000000E-03 0.  1.
         12    1    4    4    0    0 -0.11993021238E+02 -0.61089596360E+00  0.19157674839E+02  0.22610224624E+02  0.00000000000E+00 0. -1.
</event>
<event>
 8    1  0.1229941E-006  0.9118800E+02  0.7816164E-02  0.1184000E+00
        -11   -1    0    0    0    0  0.00000000000E+00  0.00000000000E+00  0.45593999997E+02  0.45594000000E+02  0.51100000000E-03 0.  1.
         11   -1    0    0    0    0 -0.00000000000E+00 -0.00000000000E+00 -0.45593999997E+02  0.45594000000E+02  0.51100000000E-03 0. -1.
         23    2    1    2    0    0 -0.17763568394E-14 -0.17763568394E-14  0.00000000000E+00  0.91188000000E+02  0.91188000000E+02 0.  0.
    9900012    2    3    3    0    0 -0.14718071011E+02 -0.10597737985E+02 -0.32044459074E+02  0.54367068154E+02  0.39999963470E+02 0.  0.
        -12    1    3    3    0    0  0.14718071011E+02  0.10597737985E+02  0.32044459074E+02  0.36820931846E+02  0.00000000000E+00 0.  1.
         11    1    4    4    0    0 -0.18199705803E+02  0.44053366037E+01 -0.11572555544E+02  0.22012730952E+02  0.51100000000E-03 0. -1.
        -11    1    4    4    0    0 -0.27394958267E+01  0.45215117961E+00  0.26614530734E+01  0.38461163264E+01  0.51100000000E-03 0.  1.
         12    1    4    4    0    0  0.62211306185E+01 -0.15455225768E+02 -0.23133356604E+02  0.28508220875E+02  0.00000000000E+00 0. -1.
</event>
<event>
 8    1  0.1229941E-006  0.9118800E+02  0.7816164E-02  0.1184000E+00
        -11   -1    0    0    0    0  0.00000000000E+00  0.00000000000E+00  0.45593999997E+02  0.45594000000E+02  0.51100000000E-03 0. -1.
         11   -1    0    0    0    0 -0.00000000000E+00 -0.00000000000E+00 -0.45593999997E+02  0.45594000000E+02  0.51100000000E-03 0.  1.
         23    2    1    2    0    0  0.00000000000E+00 -0.71054273576E-14  0.00000000000E+00  0.91188000000E+02  0.91188000000E+02 0.  0.
    9900012    2    3    3    0    0  0.12449958674E+02 -0.33927975852E+02 -0.70477093713E+01  0.54367092573E+02  0.40000019139E+02 0.  0.
        -12    1    3    3    0    0 -0.12449958674E+02  0.33927975852E+02  0.70477093713E+01  0.36820907427E+02  0.00000000000E+00 0.  1.
         11    1    4    4    0    0  0.12481813521E+02 -0.87657917093E+01  0.74162205246E+01  0.16959808377E+02  0.51100000000E-03 0. -1.
        -11    1    4    4    0    0  0.28005121682E+01 -0.12415163457E+01 -0.12911070031E+02  0.13269512457E+02  0.51100000000E-03 0.  1.
        -12    1    4    4    0    0 -0.28323670148E+01 -0.23920667797E+02 -0.15528598646E+01  0.24137771738E+02  0.00000000000E+00 0.  1.
</event>
<event>
 8    1  0.1229941E-006  0.9118800E+02  0.7816164E-02  0.1184000E+00
        -11   -1    0    0    0    0  0.00000000000E+00  0.00000000000E+00  0.45593999997E+02  0.45594000000E+02  0.51100000000E-03 0.  1.
         11   -1    0    0    0    0 -0.00000000000E+00 -0.00000000000E+00 -0.45593999997E+02  0.45594000000E+02  0.51100000000E-03 0. -1.
         23    2    1    2    0    0 -0.88817841970E-15  0.00000000000E+00 -0.71054273576E-14  0.91188000000E+02  0.91188000000E+02 0.  0.
    9900012    2    3    3    0    0 -0.59422257352E+01 -0.11821681058E+02  0.34361579460E+02  0.54367077514E+02  0.39999984809E+02 0.  0.
         12    1    3    3    0    0  0.59422257352E+01  0.11821681058E+02 -0.34361579460E+02  0.36820922486E+02  0.00000000000E+00 0. -1.
         11    1    4    4    0    0  0.51937000498E+01  0.25499835815E+01 -0.39549837519E+01  0.70084829466E+01  0.51100000000E-03 0. -1.
        -11    1    4    4    0    0 -0.60195763100E+01 -0.11065085767E+02  0.39226302333E+02  0.41199201654E+02  0.51100000000E-03 0.  1.
         12    1    4    4    0    0 -0.51163494750E+01 -0.33065788725E+01 -0.90973912086E+00  0.61593929131E+01  0.00000000000E+00 0. -1.
</event>
<event>
 8    1  0.1229941E-006  0.9118800E+02  0.7816164E-02  0.1184000E+00
        -11   -1    0    0    0    0  0.00000000000E+00  0.00000000000E+00  0.45593999997E+02  0.45594000000E+02  0.51100000000E-03 0. -1.
         11   -1    0    0    0    0 -0.00000000000E+00 -0.00000000000E+00 -0.45593999997E+02  0.45594000000E+02  0.51100000000E-03 0.  1.
         23    2    1    2    0    0  0.00000000000E+00  0.00000000000E+00  0.88817841970E-15  0.91188000000E+02  0.91188000000E+02 0.  0.
    9900012    2    3    3    0    0  0.26194182499E+02 -0.25074052938E+02 -0.63981707734E+01  0.54367083162E+02  0.39999997685E+02 0.  0.
         12    1    3    3    0    0 -0.26194182499E+02  0.25074052938E+02  0.63981707734E+01  0.36820916838E+02  0.00000000000E+00 0. -1.
         11    1    4    4    0    0 -0.10682267348E+01  0.47255287310E+01 -0.23146029451E+01  0.53692752955E+01  0.51100000000E-03 0. -1.
        -11    1    4    4    0    0  0.12162266110E+02 -0.23675038717E+02 -0.13845964765E+02  0.30002315173E+02  0.51100000000E-03 0.  1.
         12    1    4    4    0    0  0.15100143124E+02 -0.61245429520E+01  0.97623969368E+01  0.18995492694E+02  0.00000000000E+00 0. -1.
</event>
<event>
 8    1  0.1229941E-006  0.9118800E+02  0.7816164E-02  0.1184000E+00
        -11   -1    0    0    0    0  0.00000000000E+00  0.00000000000E+00  0.45593999997E+02  0.45594000000E+02  0.51100000000E-03 0. -1.
         11   -1    0    0    0    0 -0.00000000000E+00 -0.00000000000E+00 -0.45593999997E+02  0.45594000000E+02  0.51100000000E-03 0.  1.
         23    2    1    2    0    0 -0.71054273576E-14  0.00000000000E+00  0.00000000000E+00  0.91188000000E+02  0.91188000000E+02 0.  0.
    9900012    2    3    3    0    0 -0.34883959060E+02 -0.88049266072E+01  0.78335023910E+01  0.54367067204E+02  0.39999961305E+02 0.  0.
        -12    1    3    3    0    0  0.34883959060E+02  0.88049266072E+01 -0.78335023910E+01  0.36820932796E+02  0.00000000000E+00 0.  1.
         11    1    4    4    0    0 -0.21601201268E+01  0.56133758865E+01 -0.83290562153E+01  0.10273718193E+02  0.51100000000E-03 0. -1.
        -11    1    4    4    0    0  0.94388875727E+00  0.29660174571E+01  0.86235728015E+00  0.32298368196E+01  0.51100000000E-03 0.  1.
         12    1    4    4    0    0 -0.33667727691E+02 -0.17384319951E+02  0.15300201326E+02  0.40863512191E+02  0.00000000000E+00 0. -1.
</event>
<event>
 8    1  0.1229941E-006  0.9118800E+02  0.7816164E-02  0.1184000E+00
        -11   -1    0    0    0    0  0.00000000000E+00  0.00000000000E+00  0.45593999997E+02  0.45594000000E+02  0.51100000000E-03 0.  1.
         11   -1    0    0    0    0 -0.00000000000E+00 -0.00000000000E+00 -0.45593999997E+02  0.45594000000E+02  0.51100000000E-03 0. -1.
         23    2    1    2    0    0  0.00000000000E+00  0.00000000000E+00  0.00000000000E+00  0.91188000000E+02  0.91188000000E+02 0.  0.
    9900012    2    3    3    0    0  0.21898606709E+02 -0.27773728604E+02  0.10239646930E+02  0.54367090919E+02  0.40000015367E+02 0.  0.
        -12    1    3    3    0    0 -0.21898606709E+02  0.27773728604E+02 -0.10239646930E+02  0.36820909081E+02  0.00000000000E+00 0.  1.
         11    1    4    4    0    0  0.29209041130E+01 -0.32139642361E+01  0.14914476491E+01  0.45919128149E+01  0.51100000000E-03 0. -1.
        -11    1    4    4    0    0  0.24846433708E+02 -0.23830981434E+02  0.17958297534E+02  0.38829903357E+02  0.51100000000E-03 0.  1.
        -12    1    4    4    0    0 -0.58687311125E+01 -0.72878293321E+00 -0.92100982538E+01  0.10945274747E+02  0.00000000000E+00 0.  1.
</event>
<event>
 8    1  0.1229941E-006  0.9118800E+02  0.7816164E-02  0.1184000E+00
        -11   -1    0    0    0    0  0.00000000000E+00  0.00000000000E+00  0.45593999997E+02  0.45594000000E+02  0.51100000000E-03 0.  1.
         11   -1    0    0    0    0 -0.00000000000E+00 -0.00000000000E+00 -0.45593999997E+02  0.45594000000E+02  0.51100000000E-03 0. -1.
         23    2    1    2    0    0  0.00000000000E+00  0.00000000000E+00 -0.44408920985E-14  0.91188000000E+02  0.91188000000E+02 0.  0.
    9900012    2    3    3    0    0  0.36629413708E+02 -0.24737470440E+01  0.28189909847E+01  0.54367080902E+02  0.39999992532E+02 0.  0.
        -12    1    3    3    0    0 -0.36629413708E+02  0.24737470440E+01 -0.28189909847E+01  0.36820919098E+02  0.00000000000E+00 0.  1.
         11    1    4    4    0    0  0.15506585691E+02 -0.77964482264E+00  0.21454197127E+01  0.15673700005E+02  0.51100000000E-03 0. -1.
        -11    1    4    4    0    0  0.94666221098E+01 -0.43673994886E+01 -0.15438014779E+02  0.18628564439E+02  0.51100000000E-03 0.  1.
        -12    1    4    4    0    0  0.11656205907E+02  0.26732972673E+01  0.16111586051E+02  0.20064816458E+02  0.00000000000E+00 0.  1.
</event>
<event>
 8    1  0.1229941E-006  0.9118800E+02  0.7816164E-02  0.1184000E+00
        -11   -1    0    0    0    0  0.00000000000E+00  0.00000000000E+00  0.45593999997E+02  0.45594000000E+02  0.51100000000E-03 0. -1.
         11   -1    0    0    0    0 -0.00000000000E+00 -0.00000000000E+00 -0.45593999997E+02  0.45594000000E+02  0.51100000000E-03 0.  1.
         23    2    1    2    0    0  0.00000000000E+00  0.35527136788E-14 -0.17763568394E-14  0.91188000000E+02  0.91188000000E+02 0.  0.
    9900012    2    3    3    0    0 -0.27131617030E+02  0.20374213968E+02 -0.14301989788E+02  0.54367080004E+02  0.39999990485E+02 0.  0.
         12    1    3    3    0    0  0.27131617030E+02 -0.20374213968E+02  0.14301989788E+02  0.36820919996E+02  0.00000000000E+00 0. -1.
         11    1    4    4    0    0  0.35335864879E+01  0.18018893986E+02  0.36287471839E+01  0.18717226834E+02  0.51100000000E-03 0. -1.
        -11    1    4    4    0    0 -0.12105911762E+02  0.10759194446E+01 -0.81366447939E+01  0.14625856932E+02  0.51100000000E-03 0.  1.
         12    1    4    4    0    0 -0.18559291756E+02  0.12794005367E+01 -0.97940921780E+01  0.21023996238E+02  0.00000000000E+00 0. -1.
</event>
<event>
 8    1  0.1229941E-006  0.9118800E+02  0.7816164E-02  0.1184000E+00
        -11   -1    0    0    0    0  0.00000000000E+00  0.00000000000E+00  0.45593999997E+02  0.45594000000E+02  0.51100000000E-03 0.  1.
         11   -1    0    0    0    0 -0.00000000000E+00 -0.00000000000E+00 -0.45593999997E+02  0.45594000000E+02  0.51100000000E-03 0. -1.
         23    2    1    2    0    0  0.17763568394E-14  0.71054273576E-14  0.17763568394E-14  0.91188000000E+02  0.91188000000E+02 0.  0.
    9900012    2    3    3    0    0  0.40342636803E+01  0.35487635891E+02  0.89516782725E+01  0.54367080287E+02  0.39999991131E+02 0.  0.
         12    1    3    3    0    0 -0.40342636803E+01 -0.35487635891E+02 -0.89516782725E+01  0.36820919713E+02  0.00000000000E+00 0. -1.
         11    1    4    4    0    0 -0.11106982953E+02  0.15699924821E+02  0.48286646471E+01  0.19828482349E+02  0.51100000000E-03 0. -1.
        -11    1    4    4    0    0  0.33003735173E+01  0.90144488395E+01  0.13056884934E+02  0.16206017329E+02  0.51100000000E-03 0.  1.
         12    1    4    4    0    0  0.11840873116E+02  0.10773262230E+02 -0.89338713087E+01  0.18332580610E+02  0.00000000000E+00 0. -1.
</event>
<event>
 8    1  0.1229941E-006  0.9118800E+02  0.7816164E-02  0.1184000E+00
        -11   -1    0    0    0    0  0.00000000000E+00  0.00000000000E+00  0.45593999997E+02  0.45594000000E+02  0.51100000000E-03 0.  1.
         11   -1    0    0    0    0 -0.00000000000E+00 -0.00000000000E+00 -0.45593999997E+02  0.45594000000E+02  0.51100000000E-03 0. -1.
         23    2    1    2    0    0  0.00000000000E+00  0.17763568394E-14  0.00000000000E+00  0.91188000000E+02  0.91188000000E+02 0.  0.
    9900012    2    3    3    0    0  0.24531042558E+02 -0.11903178324E+02 -0.24745196858E+02  0.54367048482E+02  0.39999918624E+02 0.  0.
        -12    1    3    3    0    0 -0.24531042558E+02  0.11903178324E+02  0.24745196858E+02  0.36820951518E+02  0.00000000000E+00 0.  1.
         11    1    4    4    0    0 -0.19754917369E+01 -0.12294720563E+02 -0.17533356688E+01  0.12575249801E+02  0.51100000000E-03 0. -1.
        -11    1    4    4    0    0  0.11707240357E+02 -0.10313280495E+02 -0.56159365248E+01  0.16581977405E+02  0.51100000000E-03 0.  1.
        -12    1    4    4    0    0  0.14799293937E+02  0.10704822734E+02 -0.17375924664E+02  0.25209821276E+02  0.00000000000E+00 0.  1.
</event>
<event>
 8    1  0.1229941E-006  0.9118800E+02  0.7816164E-02  0.1184000E+00
        -11   -1    0    0    0    0  0.00000000000E+00  0.00000000000E+00  0.45593999997E+02  0.45594000000E+02  0.51100000000E-03 0. -1.
         11   -1    0    0    0    0 -0.00000000000E+00 -0.00000000000E+00 -0.45593999997E+02  0.45594000000E+02  0.51100000000E-03 0.  1.
         23    2    1    2    0    0  0.00000000000E+00  0.13322676296E-14  0.00000000000E+00  0.91188000000E+02  0.91188000000E+02 0.  0.
    9900012    2    3    3    0    0 -0.81879049843E+01 -0.28133241428E+01 -0.35788337208E+02  0.54367331064E+02  0.40000562823E+02 0.  0.
         12    1    3    3    0    0  0.81879049843E+01  0.28133241428E+01  0.35788337208E+02  0.36820668936E+02  0.00000000000E+00 0. -1.
         11    1    4    4    0    0 -0.78040635657E+01  0.88235392022E+01 -0.14932491216E+02  0.19019399212E+02  0.51100000000E-03 0.  1.
        -11    1    4    4    0    0 -0.85797824743E+01 -0.27918537053E+01  0.22374787201E+01  0.92958821906E+01  0.51100000000E-03 0. -1.
         12    1    4    4    0    0  0.81959410557E+01 -0.88450096397E+01 -0.23093324712E+02  0.26052049662E+02  0.00000000000E+00 0. -1.
</event>
<event>
 8    1  0.1229941E-006  0.9118800E+02  0.7816164E-02  0.1184000E+00
        -11   -1    0    0    0    0  0.00000000000E+00  0.00000000000E+00  0.45593999997E+02  0.45594000000E+02  0.51100000000E-03 0.  1.
         11   -1    0    0    0    0 -0.00000000000E+00 -0.00000000000E+00 -0.45593999997E+02  0.45594000000E+02  0.51100000000E-03 0. -1.
         23    2    1    2    0    0  0.00000000000E+00 -0.88817841970E-15 -0.35527136788E-14  0.91188000000E+02  0.91188000000E+02 0.  0.
    9900012    2    3    3    0    0  0.21506855079E+02 -0.78582668795E+01 -0.28835444257E+02  0.54367081771E+02  0.39999994513E+02 0.  0.
        -12    1    3    3    0    0 -0.21506855079E+02  0.78582668795E+01  0.28835444257E+02  0.36820918229E+02  0.00000000000E+00 0.  1.
         11    1    4    4    0    0 -0.23937264554E+01  0.11976347830E+01 -0.10053570915E+02  0.10403775460E+02  0.51100000000E-03 0. -1.
        -11    1    4    4    0    0  0.16146996697E+02  0.78703294241E+01 -0.64921211503E+00  0.17974678417E+02  0.51100000000E-03 0.  1.
         12    1    4    4    0    0  0.77535848374E+01 -0.16926231087E+02 -0.18132661227E+02  0.25988627894E+02  0.00000000000E+00 0. -1.
</event>
<event>
 8    1  0.1229941E-006  0.9118800E+02  0.7816164E-02  0.1184000E+00
        -11   -1    0    0    0    0  0.00000000000E+00  0.00000000000E+00  0.45593999997E+02  0.45594000000E+02  0.51100000000E-03 0.  1.
         11   -1    0    0    0    0 -0.00000000000E+00 -0.00000000000E+00 -0.45593999997E+02  0.45594000000E+02  0.51100000000E-03 0. -1.
         23    2    1    2    0    0 -0.35527136788E-14  0.35527136788E-14  0.00000000000E+00  0.91188000000E+02  0.91188000000E+02 0.  0.
    9900012    2    3    3    0    0 -0.27243541817E+02  0.23478317321E+02  0.78954418398E+01  0.54367082618E+02  0.39999996445E+02 0.  0.
         12    1    3    3    0    0  0.27243541817E+02 -0.23478317321E+02 -0.78954418398E+01  0.36820917382E+02  0.00000000000E+00 0. -1.
         11    1    4    4    0    0  0.40985148426E+01  0.13694946272E+02 -0.57190213884E+01  0.15396641946E+02  0.51100000000E-03 0. -1.
        -11    1    4    4    0    0 -0.29815960391E+01  0.44978329925E+01  0.78904518959E+01  0.95592702625E+01  0.51100000000E-03 0.  1.
        -12    1    4    4    0    0 -0.28360460621E+02  0.52855380572E+01  0.57240113323E+01  0.29411170410E+02  0.00000000000E+00 0.  1.
</event>
<event>
 8    1  0.1229941E-006  0.9118800E+02  0.7816164E-02  0.1184000E+00
        -11   -1    0    0    0    0  0.00000000000E+00  0.00000000000E+00  0.45593999997E+02  0.45594000000E+02  0.51100000000E-03 0.  1.
         11   -1    0    0    0    0 -0.00000000000E+00 -0.00000000000E+00 -0.45593999997E+02  0.45594000000E+02  0.51100000000E-03 0. -1.
         23    2    1    2    0    0  0.14432899320E-14  0.00000000000E+00 -0.71054273576E-14  0.91188000000E+02  0.91188000000E+02 0.  0.
    9900012    2    3    3    0    0  0.78641776100E+00  0.94440949969E+01  0.35580453634E+02  0.54367108321E+02  0.40000055040E+02 0.  0.
         12    1    3    3    0    0 -0.78641776100E+00 -0.94440949969E+01 -0.35580453634E+02  0.36820891679E+02  0.00000000000E+00 0. -1.
         11    1    4    4    0    0  0.13889517884E+02  0.22666238518E+01  0.77601090996E+01  0.16070954677E+02  0.51100000000E-03 0. -1.
        -11    1    4    4    0    0  0.44611638007E+01 -0.34017051837E+01  0.41398237344E+01  0.69722106556E+01  0.51100000000E-03 0.  1.
         12    1    4    4    0    0 -0.17564263924E+02  0.10579176329E+02  0.23680520800E+02  0.31323942988E+02  0.00000000000E+00 0. -1.
</event>
<event>
 8    1  0.1229941E-006  0.9118800E+02  0.7816164E-02  0.1184000E+00
        -11   -1    0    0    0    0  0.00000000000E+00  0.00000000000E+00  0.45593999997E+02  0.45594000000E+02  0.51100000000E-03 0.  1.
         11   -1    0    0    0    0 -0.00000000000E+00 -0.00000000000E+00 -0.45593999997E+02  0.45594000000E+02  0.51100000000E-03 0. -1.
         23    2    1    2    0    0  0.00000000000E+00  0.00000000000E+00  0.00000000000E+00  0.91188000000E+02  0.91188000000E+02 0.  0.
    9900012    2    3    3    0    0  0.19720289524E+02  0.29684396640E+02  0.92589579090E+01  0.54367061333E+02  0.39999947920E+02 0.  0.
         12    1    3    3    0    0 -0.19720289524E+02 -0.29684396640E+02 -0.92589579090E+01  0.36820938667E+02  0.00000000000E+00 0. -1.
         11    1    4    4    0    0 -0.47482540825E+00  0.21895791036E+01 -0.91547226774E-01  0.22423418506E+01  0.51100000000E-03 0. -1.
        -11    1    4    4    0    0  0.74725993956E+01  0.35272403488E+02  0.39743320245E+01  0.36273647526E+02  0.51100000000E-03 0.  1.
        -12    1    4    4    0    0  0.12722515537E+02 -0.77775859520E+01  0.53761731113E+01  0.15851071956E+02  0.00000000000E+00 0.  1.
</event>
<event>
 8    1  0.1229941E-006  0.9118800E+02  0.7816164E-02  0.1184000E+00
        -11   -1    0    0    0    0  0.00000000000E+00  0.00000000000E+00  0.45593999997E+02  0.45594000000E+02  0.51100000000E-03 0. -1.
         11   -1    0    0    0    0 -0.00000000000E+00 -0.00000000000E+00 -0.45593999997E+02  0.45594000000E+02  0.51100000000E-03 0.  1.
         23    2    1    2    0    0  0.35527136788E-14  0.00000000000E+00  0.00000000000E+00  0.91188000000E+02  0.91188000000E+02 0.  0.
    9900012    2    3    3    0    0  0.21829853716E+02 -0.26751219948E+02  0.12790979837E+02  0.54367089539E+02  0.40000012222E+02 0.  0.
         12    1    3    3    0    0 -0.21829853716E+02  0.26751219948E+02 -0.12790979837E+02  0.36820910461E+02  0.00000000000E+00 0. -1.
         11    1    4    4    0    0  0.61668446300E+01  0.26094988328E+01 -0.61260389382E+01  0.90756713351E+01  0.51100000000E-03 0.  1.
        -11    1    4    4    0    0 -0.40940016162E+01 -0.63019124681E+01 -0.27350134554E+01  0.79972025641E+01  0.51100000000E-03 0. -1.
        -12    1    4    4    0    0  0.19757010702E+02 -0.23058806313E+02  0.21652032231E+02  0.37294215640E+02  0.00000000000E+00 0.  1.
</event>
<event>
 8    1  0.1229941E-006  0.9118800E+02  0.7816164E-02  0.1184000E+00
        -11   -1    0    0    0    0  0.00000000000E+00  0.00000000000E+00  0.45593999997E+02  0.45594000000E+02  0.51100000000E-03 0. -1.
         11   -1    0    0    0    0 -0.00000000000E+00 -0.00000000000E+00 -0.45593999997E+02  0.45594000000E+02  0.51100000000E-03 0.  1.
         23    2    1    2    0    0  0.00000000000E+00  0.88817841970E-15  0.00000000000E+00  0.91188000000E+02  0.91188000000E+02 0.  0.
    9900012    2    3    3    0    0  0.81981957954E+01  0.72548439359E+01  0.35155879184E+02  0.54367095394E+02  0.40000025569E+02 0.  0.
        -12    1    3    3    0    0 -0.81981957954E+01 -0.72548439359E+01 -0.35155879184E+02  0.36820904606E+02  0.00000000000E+00 0.  1.
         11    1    4    4    0    0  0.24346859238E+01 -0.53660451041E+01  0.15242357589E+02  0.16341713519E+02  0.51100000000E-03 0. -1.
        -11    1    4    4    0    0 -0.51368257035E+01 -0.77350193781E+01  0.62910803201E+01  0.11215845708E+02  0.51100000000E-03 0.  1.
         12    1    4    4    0    0  0.10900335575E+02  0.20355908418E+02  0.13622441275E+02  0.26809536166E+02  0.00000000000E+00 0. -1.
</event>
<event>
 8    1  0.1229941E-006  0.9118800E+02  0.7816164E-02  0.1184000E+00
        -11   -1    0    0    0    0  0.00000000000E+00  0.00000000000E+00  0.45593999997E+02  0.45594000000E+02  0.51100000000E-03 0.  1.
         11   -1    0    0    0    0 -0.00000000000E+00 -0.00000000000E+00 -0.45593999997E+02  0.45594000000E+02  0.51100000000E-03 0. -1.
         23    2    1    2    0    0  0.00000000000E+00  0.17763568394E-14  0.00000000000E+00  0.91188000000E+02  0.91188000000E+02 0.  0.
    9900012    2    3    3    0    0 -0.16271035840E+02  0.13854051376E+02  0.29985030015E+02  0.54367036245E+02  0.39999890728E+02 0.  0.
         12    1    3    3    0    0  0.16271035840E+02 -0.13854051376E+02 -0.29985030015E+02  0.36820963755E+02  0.00000000000E+00 0. -1.
         11    1    4    4    0    0 -0.74962491853E+00 -0.12509612244E+02  0.87090805469E+01  0.15261075331E+02  0.51100000000E-03 0. -1.
        -11    1    4    4    0    0 -0.10961534881E+02  0.78383886878E+01  0.11246094856E+02  0.17551929636E+02  0.51100000000E-03 0.  1.
         12    1    4    4    0    0 -0.45598760409E+01  0.18525274933E+02  0.10029854611E+02  0.21554031279E+02  0.00000000000E+00 0. -1.
</event>
<event>
 8    1  0.1229941E-006  0.9118800E+02  0.7816164E-02  0.1184000E+00
        -11   -1    0    0    0    0  0.00000000000E+00  0.00000000000E+00  0.45593999997E+02  0.45594000000E+02  0.51100000000E-03 0. -1.
         11   -1    0    0    0    0 -0.00000000000E+00 -0.00000000000E+00 -0.45593999997E+02  0.45594000000E+02  0.51100000000E-03 0.  1.
         23    2    1    2    0    0  0.71054273576E-14 -0.88817841970E-15 -0.11102230246E-14  0.91188000000E+02  0.91188000000E+02 0.  0.
    9900012    2    3    3    0    0  0.36508961521E+02 -0.46410592879E+01  0.11558787582E+01  0.54367085313E+02  0.40000002589E+02 0.  0.
        -12    1    3    3    0    0 -0.36508961521E+02  0.46410592879E+01 -0.11558787582E+01  0.36820914687E+02  0.00000000000E+00 0.  1.
         11    1    4    4    0    0  0.17814993602E+02  0.73612824232E+01  0.66432716779E+01  0.20388612871E+02  0.51100000000E-03 0.  1.
        -11    1    4    4    0    0  0.10190893896E+02  0.32326470669E+01  0.67712576179E+01  0.12655206654E+02  0.51100000000E-03 0. -1.
        -12    1    4    4    0    0  0.85030740233E+01 -0.15234988778E+02 -0.12258650538E+02  0.21323265789E+02  0.00000000000E+00 0.  1.
</event>
<event>
 8    1  0.1229941E-006  0.9118800E+02  0.7816164E-02  0.1184000E+00
        -11   -1    0    0    0    0  0.00000000000E+00  0.00000000000E+00  0.45593999997E+02  0.45594000000E+02  0.51100000000E-03 0.  1.
         11   -1    0    0    0    0 -0.00000000000E+00 -0.00000000000E+00 -0.45593999997E+02  0.45594000000E+02  0.51100000000E-03 0. -1.
         23    2    1    2    0    0  0.00000000000E+00 -0.44408920985E-15  0.00000000000E+00  0.91188000000E+02  0.91188000000E+02 0.  0.
    9900012    2    3    3    0    0  0.22151138177E+02 -0.34993203929E+01  0.29203797602E+02  0.54367082573E+02  0.39999996342E+02 0.  0.
         12    1    3    3    0    0 -0.22151138177E+02  0.34993203929E+01 -0.29203797602E+02  0.36820917427E+02  0.00000000000E+00 0. -1.
         11    1    4    4    0    0  0.16020700279E+02  0.81500158121E+01  0.32303502362E+02  0.36967578502E+02  0.51100000000E-03 0.  1.
        -11    1    4    4    0    0  0.16183509480E+01 -0.76865039182E+00 -0.51414938493E+01  0.54447077497E+01  0.51100000000E-03 0. -1.
         12    1    4    4    0    0  0.45120869503E+01 -0.10880685813E+02  0.20417890895E+01  0.11954796322E+02  0.00000000000E+00 0. -1.
</event>
<event>
 8    1  0.1229941E-006  0.9118800E+02  0.7816164E-02  0.1184000E+00
        -11   -1    0    0    0    0  0.00000000000E+00  0.00000000000E+00  0.45593999997E+02  0.45594000000E+02  0.51100000000E-03 0.  1.
         11   -1    0    0    0    0 -0.00000000000E+00 -0.00000000000E+00 -0.45593999997E+02  0.45594000000E+02  0.51100000000E-03 0. -1.
         23    2    1    2    0    0 -0.88817841970E-15  0.88817841970E-15  0.00000000000E+00  0.91188000000E+02  0.91188000000E+02 0.  0.
    9900012    2    3    3    0    0 -0.21634646680E+01  0.45210269733E+01 -0.36478190770E+02  0.54367100145E+02  0.40000036400E+02 0.  0.
        -12    1    3    3    0    0  0.21634646680E+01 -0.45210269733E+01  0.36478190770E+02  0.36820899855E+02  0.00000000000E+00 0.  1.
         11    1    4    4    0    0  0.57244483534E+01 -0.83485570726E+01 -0.33988602750E+02  0.35463965250E+02  0.51100000000E-03 0. -1.
        -11    1    4    4    0    0 -0.19715836864E+01  0.12611370174E+02 -0.23528947937E+01  0.12979596067E+02  0.51100000000E-03 0.  1.
         12    1    4    4    0    0 -0.59163293350E+01  0.25821387235E+00 -0.13669322678E+00  0.59235388276E+01  0.00000000000E+00 0. -1.
</event>
<event>
 8    1  0.1229941E-006  0.9118800E+02  0.7816164E-02  0.1184000E+00
        -11   -1    0    0    0    0  0.00000000000E+00  0.00000000000E+00  0.45593999997E+02  0.45594000000E+02  0.51100000000E-03 0. -1.
         11   -1    0    0    0    0 -0.00000000000E+00 -0.00000000000E+00 -0.45593999997E+02  0.45594000000E+02  0.51100000000E-03 0.  1.
         23    2    1    2    0    0  0.00000000000E+00 -0.71054273576E-14  0.17763568394E-14  0.91188000000E+02  0.91188000000E+02 0.  0.
    9900012    2    3    3    0    0  0.90012385925E+01  0.33748317322E+02 -0.11653680933E+02  0.54367088855E+02  0.40000010663E+02 0.  0.
         12    1    3    3    0    0 -0.90012385925E+01 -0.33748317322E+02  0.11653680933E+02  0.36820911145E+02  0.00000000000E+00 0. -1.
         11    1    4    4    0    0  0.10542160681E+01  0.99373923670E+00  0.11151100466E+02  0.11244817965E+02  0.51100000000E-03 0. -1.
        -11    1    4    4    0    0 -0.36174587707E+01  0.13416014018E+02 -0.10747331546E+02  0.17566461673E+02  0.51100000000E-03 0.  1.
         12    1    4    4    0    0  0.11564481295E+02  0.19338564067E+02 -0.12057449853E+02  0.25555809218E+02  0.00000000000E+00 0. -1.
</event>
<event>
 8    1  0.1229941E-006  0.9118800E+02  0.7816164E-02  0.1184000E+00
        -11   -1    0    0    0    0  0.00000000000E+00  0.00000000000E+00  0.45593999997E+02  0.45594000000E+02  0.51100000000E-03 0.  1.
         11   -1    0    0    0    0 -0.00000000000E+00 -0.00000000000E+00 -0.45593999997E+02  0.45594000000E+02  0.51100000000E-03 0. -1.
         23    2    1    2    0    0  0.00000000000E+00  0.00000000000E+00  0.17763568394E-14  0.91188000000E+02  0.91188000000E+02 0.  0.
    9900012    2    3    3    0    0 -0.34032395925E+02  0.51140968327E+01 -0.13092697509E+02  0.54367127021E+02  0.40000097671E+02 0.  0.
        -12    1    3    3    0    0  0.34032395925E+02 -0.51140968327E+01  0.13092697509E+02  0.36820872979E+02  0.00000000000E+00 0.  1.
         11    1    4    4    0    0 -0.16425174302E+02 -0.68424289507E+01  0.26864738852E+01  0.17995063962E+02  0.51100000000E-03 0. -1.
        -11    1    4    4    0    0 -0.17023154644E+02 -0.23435650690E+00 -0.79087608119E+00  0.17043127713E+02  0.51100000000E-03 0.  1.
        -12    1    4    4    0    0 -0.58406697988E+00  0.12190882290E+02 -0.14988295313E+02  0.19328935347E+02  0.00000000000E+00 0.  1.
</event>
<event>
 8    1  0.1229941E-006  0.9118800E+02  0.7816164E-02  0.1184000E+00
        -11   -1    0    0    0    0  0.00000000000E+00  0.00000000000E+00  0.45593999997E+02  0.45594000000E+02  0.51100000000E-03 0.  1.
         11   -1    0    0    0    0 -0.00000000000E+00 -0.00000000000E+00 -0.45593999997E+02  0.45594000000E+02  0.51100000000E-03 0. -1.
         23    2    1    2    0    0  0.00000000000E+00  0.15543122345E-14  0.17763568394E-14  0.91188000000E+02  0.91188000000E+02 0.  0.
    9900012    2    3    3    0    0 -0.36331955772E+02 -0.14555174596E+01 -0.58008670056E+01  0.54367087473E+02  0.40000007511E+02 0.  0.
        -12    1    3    3    0    0  0.36331955772E+02  0.14555174596E+01  0.58008670056E+01  0.36820912527E+02  0.00000000000E+00 0.  1.
         11    1    4    4    0    0 -0.10696009031E+02  0.22202680642E+01 -0.57686987263E+01  0.12353626379E+02  0.51100000000E-03 0. -1.
        -11    1    4    4    0    0 -0.58202676935E+00  0.94937470090E+01  0.81763972380E+01  0.12542864884E+02  0.51100000000E-03 0.  1.
        -12    1    4    4    0    0 -0.25053919972E+02 -0.13169532533E+02 -0.82085655173E+01  0.29470596210E+02  0.00000000000E+00 0.  1.
</event>
<event>
 8    1  0.1229941E-006  0.9118800E+02  0.7816164E-02  0.1184000E+00
        -11   -1    0    0    0    0  0.00000000000E+00  0.00000000000E+00  0.45593999997E+02  0.45594000000E+02  0.51100000000E-03 0. -1.
         11   -1    0    0    0    0 -0.00000000000E+00 -0.00000000000E+00 -0.45593999997E+02  0.45594000000E+02  0.51100000000E-03 0.  1.
         23    2    1    2    0    0  0.00000000000E+00  0.00000000000E+00  0.00000000000E+00  0.91188000000E+02  0.91188000000E+02 0.  0.
    9900012    2    3    3    0    0 -0.62364139063E+01 -0.33636154824E+02 -0.13619698251E+02  0.54367082708E+02  0.39999996650E+02 0.  0.
        -12    1    3    3    0    0  0.62364139063E+01  0.33636154824E+02  0.13619698251E+02  0.36820917292E+02  0.00000000000E+00 0.  1.
         11    1    4    4    0    0 -0.10875578499E+01 -0.11006368643E+02 -0.28655829658E+01  0.11425169530E+02  0.51100000000E-03 0. -1.
        -11    1    4    4    0    0 -0.11487340195E+02 -0.27650819015E+02 -0.15343104118E+02  0.33644280662E+02  0.51100000000E-03 0.  1.
         12    1    4    4    0    0  0.63384841389E+01  0.50210328348E+01  0.45889888335E+01  0.92976325170E+01  0.00000000000E+00 0. -1.
</event>
<event>
 8    1  0.1229941E-006  0.9118800E+02  0.7816164E-02  0.1184000E+00
        -11   -1    0    0    0    0  0.00000000000E+00  0.00000000000E+00  0.45593999997E+02  0.45594000000E+02  0.51100000000E-03 0.  1.
         11   -1    0    0    0    0 -0.00000000000E+00 -0.00000000000E+00 -0.45593999997E+02  0.45594000000E+02  0.51100000000E-03 0. -1.
         23    2    1    2    0    0 -0.71054273576E-14  0.00000000000E+00 -0.17763568394E-14  0.91188000000E+02  0.91188000000E+02 0.  0.
    9900012    2    3    3    0    0 -0.34983135890E+02 -0.41451858228E+01 -0.10713657336E+02  0.54367016639E+02  0.39999846031E+02 0.  0.
        -12    1    3    3    0    0  0.34983135890E+02  0.41451858228E+01  0.10713657336E+02  0.36820983361E+02  0.00000000000E+00 0.  1.
         11    1    4    4    0    0 -0.12130679876E+02 -0.15613969006E+02  0.52838232320E+01  0.20466270070E+02  0.51100000000E-03 0. -1.
        -11    1    4    4    0    0  0.21471750448E+01  0.23381466103E+01 -0.26039745879E+01  0.41058463390E+01  0.51100000000E-03 0.  1.
         12    1    4    4    0    0 -0.24999631058E+02  0.91306365725E+01 -0.13393505980E+02  0.29794900230E+02  0.00000000000E+00 0. -1.
</event>
<event>
 8    1  0.1229941E-006  0.9118800E+02  0.7816164E-02  0.1184000E+00
        -11   -1    0    0    0    0  0.00000000000E+00  0.00000000000E+00  0.45593999997E+02  0.45594000000E+02  0.51100000000E-03 0.  1.
         11   -1    0    0    0    0 -0.00000000000E+00 -0.00000000000E+00 -0.45593999997E+02  0.45594000000E+02  0.51100000000E-03 0. -1.
         23    2    1    2    0    0  0.00000000000E+00  0.00000000000E+00 -0.35527136788E-14  0.91188000000E+02  0.91188000000E+02 0.  0.
    9900012    2    3    3    0    0 -0.25167738921E+02 -0.17795216085E+02 -0.20141908900E+02  0.54367064487E+02  0.39999955111E+02 0.  0.
        -12    1    3    3    0    0  0.25167738921E+02  0.17795216085E+02  0.20141908900E+02  0.36820935513E+02  0.00000000000E+00 0.  1.
         11    1    4    4    0    0  0.50977251844E+01 -0.35851938239E+01  0.63325925163E+01  0.88849392260E+01  0.51100000000E-03 0.  1.
        -11    1    4    4    0    0 -0.29585805429E+02 -0.78876785151E+01 -0.21643440849E+02  0.37496318317E+02  0.51100000000E-03 0. -1.
        -12    1    4    4    0    0 -0.67965867662E+00 -0.63223437457E+01 -0.48310605669E+01  0.79858069446E+01  0.00000000000E+00 0.  1.
</event>
<event>
 8    1  0.1229941E-006  0.9118800E+02  0.7816164E-02  0.1184000E+00
        -11   -1    0    0    0    0  0.00000000000E+00  0.00000000000E+00  0.45593999997E+02  0.45594000000E+02  0.51100000000E-03 0.  1.
         11   -1    0    0    0    0 -0.00000000000E+00 -0.00000000000E+00 -0.45593999997E+02  0.45594000000E+02  0.51100000000E-03 0. -1.
         23    2    1    2    0    0  0.00000000000E+00  0.00000000000E+00  0.00000000000E+00  0.91188000000E+02  0.91188000000E+02 0.  0.
    9900012    2    3    3    0    0  0.30841492086E+02 -0.99517101170E+00  0.20089390194E+02  0.54367196128E+02  0.40000255211E+02 0.  0.
         12    1    3    3    0    0 -0.30841492086E+02  0.99517101170E+00 -0.20089390194E+02  0.36820803872E+02  0.00000000000E+00 0. -1.
         11    1    4    4    0    0  0.11747642650E+02 -0.56133391832E+00 -0.25409961754E+01  0.12032408962E+02  0.51100000000E-03 0. -1.
        -11    1    4    4    0    0  0.19516383086E+02 -0.23212392199E+01  0.32182725671E-01  0.19653966426E+02  0.51100000000E-03 0.  1.
         12    1    4    4    0    0 -0.42253365076E+00  0.18874021265E+01  0.22598203644E+02  0.22680820739E+02  0.00000000000E+00 0. -1.
</event>
<event>
 8    1  0.1229941E-006  0.9118800E+02  0.7816164E-02  0.1184000E+00
        -11   -1    0    0    0    0  0.00000000000E+00  0.00000000000E+00  0.45593999997E+02  0.45594000000E+02  0.51100000000E-03 0.  1.
         11   -1    0    0    0    0 -0.00000000000E+00 -0.00000000000E+00 -0.45593999997E+02  0.45594000000E+02  0.51100000000E-03 0. -1.
         23    2    1    2    0    0 -0.44408920985E-15 -0.71054273576E-14  0.00000000000E+00  0.91188000000E+02  0.91188000000E+02 0.  0.
    9900012    2    3    3    0    0 -0.25528268741E+01 -0.17861293064E+02 -0.32097307163E+02  0.54367084176E+02  0.39999999997E+02 0.  0.
        -12    1    3    3    0    0  0.25528268741E+01  0.17861293064E+02  0.32097307163E+02  0.36820915824E+02  0.00000000000E+00 0.  1.
         11    1    4    4    0    0  0.71133925287E+01  0.71709461347E+01 -0.10149671586E+02  0.14319170901E+02  0.51100000000E-03 0.  1.
        -11    1    4    4    0    0 -0.60616384659E+01 -0.25682971182E+02 -0.24152273526E+02  0.35772765987E+02  0.51100000000E-03 0. -1.
         12    1    4    4    0    0 -0.36045809369E+01  0.65073198239E+00  0.22046379498E+01  0.42751472879E+01  0.00000000000E+00 0. -1.
</event>
<event>
 8    1  0.1229941E-006  0.9118800E+02  0.7816164E-02  0.1184000E+00
        -11   -1    0    0    0    0  0.00000000000E+00  0.00000000000E+00  0.45593999997E+02  0.45594000000E+02  0.51100000000E-03 0.  1.
         11   -1    0    0    0    0 -0.00000000000E+00 -0.00000000000E+00 -0.45593999997E+02  0.45594000000E+02  0.51100000000E-03 0. -1.
         23    2    1    2    0    0  0.35527136788E-14 -0.35527136788E-14  0.00000000000E+00  0.91188000000E+02  0.91188000000E+02 0.  0.
    9900012    2    3    3    0    0 -0.21308114689E+02  0.29172440100E+02  0.71212572313E+01  0.54367091300E+02  0.40000016236E+02 0.  0.
        -12    1    3    3    0    0  0.21308114689E+02 -0.29172440100E+02 -0.71212572313E+01  0.36820908700E+02  0.00000000000E+00 0.  1.
         11    1    4    4    0    0  0.99975206393E+00  0.72152331215E+01  0.34278037915E+01  0.80503995106E+01  0.51100000000E-03 0. -1.
        -11    1    4    4    0    0 -0.26422587360E+02  0.24169664023E+02  0.11160636182E+02  0.37508473470E+02  0.51100000000E-03 0.  1.
         12    1    4    4    0    0  0.41147206071E+01 -0.22124570450E+01 -0.74671827424E+01  0.88082183192E+01  0.00000000000E+00 0. -1.
</event>
<event>
 8    1  0.1229941E-006  0.9118800E+02  0.7816164E-02  0.1184000E+00
        -11   -1    0    0    0    0  0.00000000000E+00  0.00000000000E+00  0.45593999997E+02  0.45594000000E+02  0.51100000000E-03 0. -1.
         11   -1    0    0    0    0 -0.00000000000E+00 -0.00000000000E+00 -0.45593999997E+02  0.45594000000E+02  0.51100000000E-03 0.  1.
         23    2    1    2    0    0 -0.35527136788E-14  0.00000000000E+00  0.00000000000E+00  0.91188000000E+02  0.91188000000E+02 0.  0.
    9900012    2    3    3    0    0 -0.30510196172E+02 -0.10964536207E+02  0.17455416769E+02  0.54367018220E+02  0.39999849636E+02 0.  0.
         12    1    3    3    0    0  0.30510196172E+02  0.10964536207E+02 -0.17455416769E+02  0.36820981780E+02  0.00000000000E+00 0. -1.
         11    1    4    4    0    0 -0.29090808049E+02 -0.12812949349E+02  0.94767199839E+01  0.33170092039E+02  0.51100000000E-03 0. -1.
        -11    1    4    4    0    0  0.19200542872E+01 -0.84438345731E+01  0.48880176251E+01  0.99437250227E+01  0.51100000000E-03 0.  1.
         12    1    4    4    0    0 -0.33394424101E+01  0.10292247715E+02  0.30906791597E+01  0.11253201158E+02  0.00000000000E+00 0. -1.
</event>
<event>
 8    1  0.1229941E-006  0.9118800E+02  0.7816164E-02  0.1184000E+00
        -11   -1    0    0    0    0  0.00000000000E+00  0.00000000000E+00  0.45593999997E+02  0.45594000000E+02  0.51100000000E-03 0.  1.
         11   -1    0    0    0    0 -0.00000000000E+00 -0.00000000000E+00 -0.45593999997E+02  0.45594000000E+02  0.51100000000E-03 0. -1.
         23    2    1    2    0    0  0.71054273576E-14 -0.88817841970E-15  0.00000000000E+00  0.91188000000E+02  0.91188000000E+02 0.  0.
    9900012    2    3    3    0    0  0.36676577553E+02  0.14053334495E+01 -0.29381564661E+01  0.54367094708E+02  0.40000024005E+02 0.  0.
        -12    1    3    3    0    0 -0.36676577553E+02 -0.14053334495E+01  0.29381564661E+01  0.36820905292E+02  0.00000000000E+00 0.  1.
         11    1    4    4    0    0  0.10698980551E+02  0.12912930733E+02 -0.11996505210E+02  0.20618634835E+02  0.51100000000E-03 0. -1.
        -11    1    4    4    0    0  0.45671635767E+01 -0.96219287006E+01  0.65556992082E+00  0.10671001229E+02  0.51100000000E-03 0.  1.
        -12    1    4    4    0    0  0.21410433426E+02 -0.18856685831E+01  0.84027788230E+01  0.23077458643E+02  0.00000000000E+00 0.  1.
</event>
<event>
 8    1  0.1229941E-006  0.9118800E+02  0.7816164E-02  0.1184000E+00
        -11   -1    0    0    0    0  0.00000000000E+00  0.00000000000E+00  0.45593999997E+02  0.45594000000E+02  0.51100000000E-03 0. -1.
         11   -1    0    0    0    0 -0.00000000000E+00 -0.00000000000E+00 -0.45593999997E+02  0.45594000000E+02  0.51100000000E-03 0.  1.
         23    2    1    2    0    0  0.00000000000E+00  0.00000000000E+00  0.00000000000E+00  0.91188000000E+02  0.91188000000E+02 0.  0.
    9900012    2    3    3    0    0 -0.14675154775E+02  0.17165412759E+02  0.29082091532E+02  0.54367087318E+02  0.40000007158E+02 0.  0.
        -12    1    3    3    0    0  0.14675154775E+02 -0.17165412759E+02 -0.29082091532E+02  0.36820912682E+02  0.00000000000E+00 0.  1.
         11    1    4    4    0    0  0.20959330176E+01  0.16615577937E+01  0.60038100318E+01  0.65726284450E+01  0.51100000000E-03 0. -1.
        -11    1    4    4    0    0 -0.25349798609E+02  0.21143084116E+01  0.17769757182E+02  0.31029773769E+02  0.51100000000E-03 0.  1.
        -12    1    4    4    0    0  0.85787108165E+01  0.13389546554E+02  0.53085243183E+01  0.16764685104E+02  0.00000000000E+00 0.  1.
</event>
<event>
 8    1  0.1229941E-006  0.9118800E+02  0.7816164E-02  0.1184000E+00
        -11   -1    0    0    0    0  0.00000000000E+00  0.00000000000E+00  0.45593999997E+02  0.45594000000E+02  0.51100000000E-03 0.  1.
         11   -1    0    0    0    0 -0.00000000000E+00 -0.00000000000E+00 -0.45593999997E+02  0.45594000000E+02  0.51100000000E-03 0. -1.
         23    2    1    2    0    0 -0.35527136788E-14 -0.35527136788E-14 -0.17763568394E-14  0.91188000000E+02  0.91188000000E+02 0.  0.
    9900012    2    3    3    0    0  0.16599392041E+02  0.31786230303E+02  0.83591093540E+01  0.54367096125E+02  0.40000027235E+02 0.  0.
         12    1    3    3    0    0 -0.16599392041E+02 -0.31786230303E+02 -0.83591093540E+01  0.36820903875E+02  0.00000000000E+00 0. -1.
         11    1    4    4    0    0 -0.16415603443E+01  0.43112131034E+01  0.90118584170E+01  0.10123975068E+02  0.51100000000E-03 0. -1.
        -11    1    4    4    0    0  0.17637167587E+01  0.27633747714E+02 -0.16151469737E+01  0.27737040389E+02  0.51100000000E-03 0.  1.
         12    1    4    4    0    0  0.16477235627E+02 -0.15873051409E+00  0.96239791072E+00  0.16506080668E+02  0.00000000000E+00 0. -1.
</event>
<event>
 8    1  0.1229941E-006  0.9118800E+02  0.7816164E-02  0.1184000E+00
        -11   -1    0    0    0    0  0.00000000000E+00  0.00000000000E+00  0.45593999997E+02  0.45594000000E+02  0.51100000000E-03 0.  1.
         11   -1    0    0    0    0 -0.00000000000E+00 -0.00000000000E+00 -0.45593999997E+02  0.45594000000E+02  0.51100000000E-03 0. -1.
         23    2    1    2    0    0  0.35527136788E-14  0.00000000000E+00  0.35527136788E-14  0.91188000000E+02  0.91188000000E+02 0.  0.
    9900012    2    3    3    0    0 -0.17691022409E+02 -0.19646003095E+02 -0.25628934309E+02  0.54367082231E+02  0.39999995563E+02 0.  0.
        -12    1    3    3    0    0  0.17691022409E+02  0.19646003095E+02  0.25628934309E+02  0.36820917769E+02  0.00000000000E+00 0.  1.
         11    1    4    4    0    0  0.80239868967E+01 -0.34525915627E+01 -0.16983087673E+02  0.19097906204E+02  0.51100000000E-03 0. -1.
        -11    1    4    4    0    0 -0.92308622344E+01 -0.33538686646E+01  0.42652657911E+01  0.10707462124E+02  0.51100000000E-03 0.  1.
         12    1    4    4    0    0 -0.16484147072E+02 -0.12839542868E+02 -0.12911112427E+02  0.24561713903E+02  0.00000000000E+00 0. -1.
</event>
<event>
 8    1  0.1229941E-006  0.9118800E+02  0.7816164E-02  0.1184000E+00
        -11   -1    0    0    0    0  0.00000000000E+00  0.00000000000E+00  0.45593999997E+02  0.45594000000E+02  0.51100000000E-03 0. -1.
         11   -1    0    0    0    0 -0.00000000000E+00 -0.00000000000E+00 -0.45593999997E+02  0.45594000000E+02  0.51100000000E-03 0.  1.
         23    2    1    2    0    0  0.35527136788E-14  0.00000000000E+00  0.35527136788E-14  0.91188000000E+02  0.91188000000E+02 0.  0.
    9900012    2    3    3    0    0  0.30418764734E+02 -0.17396896581E+02  0.11306072713E+02  0.54367074716E+02  0.39999978431E+02 0.  0.
         12    1    3    3    0    0 -0.30418764734E+02  0.17396896581E+02 -0.11306072713E+02  0.36820925284E+02  0.00000000000E+00 0. -1.
         11    1    4    4    0    0  0.31888513381E+01 -0.12328761797E+02 -0.71848285149E+01  0.14621521855E+02  0.51100000000E-03 0. -1.
        -11    1    4    4    0    0  0.64665571917E+01 -0.12798834509E+01 -0.49196203702E+01  0.82253953345E+01  0.51100000000E-03 0.  1.
         12    1    4    4    0    0  0.20763356204E+02 -0.37882513327E+01  0.23410521598E+02  0.31520157527E+02  0.00000000000E+00 0. -1.
</event>
<event>
 8    1  0.1229941E-006  0.9118800E+02  0.7816164E-02  0.1184000E+00
        -11   -1    0    0    0    0  0.00000000000E+00  0.00000000000E+00  0.45593999997E+02  0.45594000000E+02  0.51100000000E-03 0. -1.
         11   -1    0    0    0    0 -0.00000000000E+00 -0.00000000000E+00 -0.45593999997E+02  0.45594000000E+02  0.51100000000E-03 0.  1.
         23    2    1    2    0    0 -0.55511151231E-15 -0.71054273576E-14  0.71054273576E-14  0.91188000000E+02  0.91188000000E+02 0.  0.
    9900012    2    3    3    0    0 -0.46408106716E+00 -0.16627896308E+02  0.32849320480E+02  0.54367079820E+02  0.39999990066E+02 0.  0.
        -12    1    3    3    0    0  0.46408106716E+00  0.16627896308E+02 -0.32849320480E+02  0.36820920180E+02  0.00000000000E+00 0.  1.
         11    1    4    4    0    0  0.72014296603E+01  0.37656839341E+01  0.88426751528E+01  0.12009740578E+02  0.51100000000E-03 0. -1.
        -11    1    4    4    0    0  0.58464999129E+01 -0.19109628630E+02  0.84092147820E+01  0.21681198332E+02  0.51100000000E-03 0.  1.
         12    1    4    4    0    0 -0.13512010640E+02 -0.12839516117E+01  0.15597430545E+02  0.20676140909E+02  0.00000000000E+00 0. -1.
</event>
<event>
 8    1  0.1229941E-006  0.9118800E+02  0.7816164E-02  0.1184000E+00
        -11   -1    0    0    0    0  0.00000000000E+00  0.00000000000E+00  0.45593999997E+02  0.45594000000E+02  0.51100000000E-03 0.  1.
         11   -1    0    0    0    0 -0.00000000000E+00 -0.00000000000E+00 -0.45593999997E+02  0.45594000000E+02  0.51100000000E-03 0. -1.
         23    2    1    2    0    0  0.00000000000E+00  0.17763568394E-14 -0.35527136788E-14  0.91188000000E+02  0.91188000000E+02 0.  0.
    9900012    2    3    3    0    0 -0.22442237145E+02 -0.98623491067E+01  0.27474676161E+02  0.54367112339E+02  0.40000064199E+02 0.  0.
         12    1    3    3    0    0  0.22442237145E+02  0.98623491067E+01 -0.27474676161E+02  0.36820887661E+02  0.00000000000E+00 0. -1.
         11    1    4    4    0    0 -0.24565033296E+01 -0.93641939407E+01  0.17074931969E+01  0.98304664205E+01  0.51100000000E-03 0. -1.
        -11    1    4    4    0    0  0.64084012483E+01  0.23031397061E+01  0.13866654851E+02  0.15448500771E+02  0.51100000000E-03 0.  1.
         12    1    4    4    0    0 -0.26394135064E+02 -0.28012948721E+01  0.11900528113E+02  0.29088145147E+02  0.00000000000E+00 0. -1.
</event>
<event>
 8    1  0.1229941E-006  0.9118800E+02  0.7816164E-02  0.1184000E+00
        -11   -1    0    0    0    0  0.00000000000E+00  0.00000000000E+00  0.45593999997E+02  0.45594000000E+02  0.51100000000E-03 0. -1.
         11   -1    0    0    0    0 -0.00000000000E+00 -0.00000000000E+00 -0.45593999997E+02  0.45594000000E+02  0.51100000000E-03 0.  1.
         23    2    1    2    0    0 -0.88817841970E-15 -0.17763568394E-14 -0.71054273576E-14  0.91188000000E+02  0.91188000000E+02 0.  0.
    9900012    2    3    3    0    0  0.51146810719E+01  0.15304170018E+02 -0.33096873025E+02  0.54367074069E+02  0.39999976954E+02 0.  0.
         12    1    3    3    0    0 -0.51146810719E+01 -0.15304170018E+02  0.33096873025E+02  0.36820925931E+02  0.00000000000E+00 0. -1.
         11    1    4    4    0    0  0.63815880010E+01  0.13128113217E+02 -0.10516039440E+02  0.17990528281E+02  0.51100000000E-03 0. -1.
        -11    1    4    4    0    0  0.36619255505E+01  0.85643953774E+01  0.28143760427E+01  0.97303278305E+01  0.51100000000E-03 0.  1.
        -12    1    4    4    0    0 -0.49288324796E+01 -0.63883385770E+01 -0.25395209628E+02  0.26646217958E+02  0.00000000000E+00 0.  1.
</event>
<event>
 8    1  0.1229941E-006  0.9118800E+02  0.7816164E-02  0.1184000E+00
        -11   -1    0    0    0    0  0.00000000000E+00  0.00000000000E+00  0.45593999997E+02  0.45594000000E+02  0.51100000000E-03 0. -1.
         11   -1    0    0    0    0 -0.00000000000E+00 -0.00000000000E+00 -0.45593999997E+02  0.45594000000E+02  0.51100000000E-03 0.  1.
         23    2    1    2    0    0  0.35527136788E-14  0.88817841970E-15 -0.10658141036E-13  0.91188000000E+02  0.91188000000E+02 0.  0.
    9900012    2    3    3    0    0  0.22620457573E+02  0.48462448783E+01 -0.28646283718E+02  0.54367071698E+02  0.39999971549E+02 0.  0.
         12    1    3    3    0    0 -0.22620457573E+02 -0.48462448783E+01  0.28646283718E+02  0.36820928302E+02  0.00000000000E+00 0. -1.
         11    1    4    4    0    0  0.29628235457E+00  0.14489394159E+01  0.39128097183E+01  0.41829760718E+01  0.51100000000E-03 0. -1.
        -11    1    4    4    0    0  0.58563300592E+01  0.11519028183E+02 -0.13627596444E+00  0.12922971154E+02  0.51100000000E-03 0.  1.
         12    1    4    4    0    0  0.16467845159E+02 -0.81217227204E+01 -0.32422817472E+02  0.37261124472E+02  0.00000000000E+00 0. -1.
</event>
<event>
 8    1  0.1229941E-006  0.9118800E+02  0.7816164E-02  0.1184000E+00
        -11   -1    0    0    0    0  0.00000000000E+00  0.00000000000E+00  0.45593999997E+02  0.45594000000E+02  0.51100000000E-03 0. -1.
         11   -1    0    0    0    0 -0.00000000000E+00 -0.00000000000E+00 -0.45593999997E+02  0.45594000000E+02  0.51100000000E-03 0.  1.
         23    2    1    2    0    0 -0.35527136788E-14 -0.88817841970E-15  0.00000000000E+00  0.91188000000E+02  0.91188000000E+02 0.  0.
    9900012    2    3    3    0    0 -0.24728833236E+02 -0.23578234886E+01 -0.27179153461E+02  0.54367069707E+02  0.39999967011E+02 0.  0.
         12    1    3    3    0    0  0.24728833236E+02  0.23578234886E+01  0.27179153461E+02  0.36820930293E+02  0.00000000000E+00 0. -1.
         11    1    4    4    0    0 -0.48623088627E+01 -0.23557225603E+01  0.47714430652E+01  0.72081998753E+01  0.51100000000E-03 0. -1.
        -11    1    4    4    0    0 -0.44888527450E+01  0.76544004567E+01  0.20122089479E+01  0.90988257719E+01  0.51100000000E-03 0.  1.
        -12    1    4    4    0    0 -0.15377671628E+02 -0.76565013850E+01 -0.33962805474E+02  0.38060044060E+02  0.00000000000E+00 0.  1.
</event>
<event>
 8    1  0.1229941E-006  0.9118800E+02  0.7816164E-02  0.1184000E+00
        -11   -1    0    0    0    0  0.00000000000E+00  0.00000000000E+00  0.45593999997E+02  0.45594000000E+02  0.51100000000E-03 0.  1.
         11   -1    0    0    0    0 -0.00000000000E+00 -0.00000000000E+00 -0.45593999997E+02  0.45594000000E+02  0.51100000000E-03 0. -1.
         23    2    1    2    0    0  0.00000000000E+00  0.35527136788E-14  0.00000000000E+00  0.91188000000E+02  0.91188000000E+02 0.  0.
    9900012    2    3    3    0    0 -0.24261608390E+02 -0.93425730414E+01 -0.26074378678E+02  0.54367047594E+02  0.39999916599E+02 0.  0.
        -12    1    3    3    0    0  0.24261608390E+02  0.93425730414E+01  0.26074378678E+02  0.36820952406E+02  0.00000000000E+00 0.  1.
         11    1    4    4    0    0 -0.17992288250E-03 -0.41852961582E+00 -0.49806132375E+01  0.49981672195E+01  0.51100000000E-03 0. -1.
        -11    1    4    4    0    0  0.80054071839E+01 -0.66940874442E+01 -0.11723395655E+02  0.15695074285E+02  0.51100000000E-03 0.  1.
         12    1    4    4    0    0 -0.32266835651E+02 -0.22299559813E+01 -0.93703697857E+01  0.33673806089E+02  0.00000000000E+00 0. -1.
</event>
<event>
 8    1  0.1229941E-006  0.9118800E+02  0.7816164E-02  0.1184000E+00
        -11   -1    0    0    0    0  0.00000000000E+00  0.00000000000E+00  0.45593999997E+02  0.45594000000E+02  0.51100000000E-03 0. -1.
         11   -1    0    0    0    0 -0.00000000000E+00 -0.00000000000E+00 -0.45593999997E+02  0.45594000000E+02  0.51100000000E-03 0.  1.
         23    2    1    2    0    0  0.00000000000E+00  0.00000000000E+00  0.71054273576E-14  0.91188000000E+02  0.91188000000E+02 0.  0.
    9900012    2    3    3    0    0 -0.55911876071E+01 -0.11082378364E+02 -0.34665546104E+02  0.54367074214E+02  0.39999977285E+02 0.  0.
         12    1    3    3    0    0  0.55911876071E+01  0.11082378364E+02  0.34665546104E+02  0.36820925786E+02  0.00000000000E+00 0. -1.
         11    1    4    4    0    0 -0.43590821366E+01 -0.55845043308E+01 -0.76147947798E+01  0.10400643513E+02  0.51100000000E-03 0. -1.
        -11    1    4    4    0    0 -0.56887612411E+01 -0.19315275470E+02 -0.15316857002E+02  0.25299169544E+02  0.51100000000E-03 0.  1.
         12    1    4    4    0    0  0.44566557705E+01  0.13817401437E+02 -0.11733894323E+02  0.18667261157E+02  0.00000000000E+00 0. -1.
</event>
<event>
 8    1  0.1229941E-006  0.9118800E+02  0.7816164E-02  0.1184000E+00
        -11   -1    0    0    0    0  0.00000000000E+00  0.00000000000E+00  0.45593999997E+02  0.45594000000E+02  0.51100000000E-03 0.  1.
         11   -1    0    0    0    0 -0.00000000000E+00 -0.00000000000E+00 -0.45593999997E+02  0.45594000000E+02  0.51100000000E-03 0. -1.
         23    2    1    2    0    0  0.00000000000E+00  0.00000000000E+00  0.44408920985E-14  0.91188000000E+02  0.91188000000E+02 0.  0.
    9900012    2    3    3    0    0  0.14029515901E+02 -0.33497457414E+02 -0.60722942168E+01  0.54367085744E+02  0.40000003570E+02 0.  0.
        -12    1    3    3    0    0 -0.14029515901E+02  0.33497457414E+02  0.60722942168E+01  0.36820914256E+02  0.00000000000E+00 0.  1.
         11    1    4    4    0    0  0.10858702192E+02 -0.29474185742E+01  0.10586577696E+02  0.15449087906E+02  0.51100000000E-03 0. -1.
        -11    1    4    4    0    0 -0.31181177679E+01 -0.52098751364E+01  0.24665442395E+01  0.65535714002E+01  0.51100000000E-03 0.  1.
         12    1    4    4    0    0  0.62889314766E+01 -0.25340163704E+02 -0.19125416152E+02  0.32364426438E+02  0.00000000000E+00 0. -1.
</event>
<event>
 8    1  0.1229941E-006  0.9118800E+02  0.7816164E-02  0.1184000E+00
        -11   -1    0    0    0    0  0.00000000000E+00  0.00000000000E+00  0.45593999997E+02  0.45594000000E+02  0.51100000000E-03 0.  1.
         11   -1    0    0    0    0 -0.00000000000E+00 -0.00000000000E+00 -0.45593999997E+02  0.45594000000E+02  0.51100000000E-03 0. -1.
         23    2    1    2    0    0 -0.17763568394E-14  0.71054273576E-14  0.00000000000E+00  0.91188000000E+02  0.91188000000E+02 0.  0.
    9900012    2    3    3    0    0  0.12134521077E+02 -0.34700184010E+02 -0.21050528385E+01  0.54367073619E+02  0.39999975930E+02 0.  0.
        -12    1    3    3    0    0 -0.12134521077E+02  0.34700184010E+02  0.21050528385E+01  0.36820926381E+02  0.00000000000E+00 0.  1.
         11    1    4    4    0    0  0.15929731121E+02 -0.16528249569E+02 -0.12131491671E+01  0.22987194230E+02  0.51100000000E-03 0. -1.
        -11    1    4    4    0    0 -0.11974786704E+02 -0.12491642876E+01  0.24571706019E+01  0.12287945949E+02  0.51100000000E-03 0.  1.
        -12    1    4    4    0    0  0.81795766605E+01 -0.16922770153E+02 -0.33490742733E+01  0.19091933440E+02  0.00000000000E+00 0.  1.
</event>
<event>
 8    1  0.1229941E-006  0.9118800E+02  0.7816164E-02  0.1184000E+00
        -11   -1    0    0    0    0  0.00000000000E+00  0.00000000000E+00  0.45593999997E+02  0.45594000000E+02  0.51100000000E-03 0.  1.
         11   -1    0    0    0    0 -0.00000000000E+00 -0.00000000000E+00 -0.45593999997E+02  0.45594000000E+02  0.51100000000E-03 0. -1.
         23    2    1    2    0    0  0.00000000000E+00  0.00000000000E+00  0.00000000000E+00  0.91188000000E+02  0.91188000000E+02 0.  0.
    9900012    2    3    3    0    0 -0.13946468707E+02  0.33522392917E+01  0.33912274997E+02  0.54367029166E+02  0.39999874590E+02 0.  0.
         12    1    3    3    0    0  0.13946468707E+02 -0.33522392917E+01 -0.33912274997E+02  0.36820970834E+02  0.00000000000E+00 0. -1.
         11    1    4    4    0    0 -0.14753322135E+02 -0.78575669024E+01 -0.14659183677E+01  0.16779475217E+02  0.51100000000E-03 0. -1.
        -11    1    4    4    0    0  0.17800928997E+00  0.29201367223E+00  0.93376149877E+01  0.93438757061E+01  0.51100000000E-03 0.  1.
        -12    1    4    4    0    0  0.62884413750E+00  0.10917792522E+02  0.26040578377E+02  0.28243678243E+02  0.00000000000E+00 0.  1.
</event>
<event>
 8    1  0.1229941E-006  0.9118800E+02  0.7816164E-02  0.1184000E+00
        -11   -1    0    0    0    0  0.00000000000E+00  0.00000000000E+00  0.45593999997E+02  0.45594000000E+02  0.51100000000E-03 0.  1.
         11   -1    0    0    0    0 -0.00000000000E+00 -0.00000000000E+00 -0.45593999997E+02  0.45594000000E+02  0.51100000000E-03 0. -1.
         23    2    1    2    0    0  0.00000000000E+00  0.00000000000E+00  0.00000000000E+00  0.91188000000E+02  0.91188000000E+02 0.  0.
    9900012    2    3    3    0    0  0.29585386184E+02 -0.80031799637E+01 -0.20406708139E+02  0.54367086075E+02  0.40000004325E+02 0.  0.
        -12    1    3    3    0    0 -0.29585386184E+02  0.80031799637E+01  0.20406708139E+02  0.36820913925E+02  0.00000000000E+00 0.  1.
         11    1    4    4    0    0  0.27647512166E+02 -0.39627408810E+01 -0.17644300599E+02  0.33036488738E+02  0.51100000000E-03 0. -1.
        -11    1    4    4    0    0  0.89741919021E+01 -0.42706813292E+01  0.47669467960E+01  0.11022641305E+02  0.51100000000E-03 0.  1.
        -12    1    4    4    0    0 -0.70363178836E+01  0.23024224650E+00 -0.75293543359E+01  0.10307956032E+02  0.00000000000E+00 0.  1.
</event>
<event>
 8    1  0.1229941E-006  0.9118800E+02  0.7816164E-02  0.1184000E+00
        -11   -1    0    0    0    0  0.00000000000E+00  0.00000000000E+00  0.45593999997E+02  0.45594000000E+02  0.51100000000E-03 0.  1.
         11   -1    0    0    0    0 -0.00000000000E+00 -0.00000000000E+00 -0.45593999997E+02  0.45594000000E+02  0.51100000000E-03 0. -1.
         23    2    1    2    0    0  0.00000000000E+00  0.00000000000E+00 -0.35527136788E-14  0.91188000000E+02  0.91188000000E+02 0.  0.
    9900012    2    3    3    0    0  0.12664914324E+02  0.28137483313E+02  0.20091347631E+02  0.54367078343E+02  0.39999986699E+02 0.  0.
         12    1    3    3    0    0 -0.12664914324E+02 -0.28137483313E+02 -0.20091347631E+02  0.36820921657E+02  0.00000000000E+00 0. -1.
         11    1    4    4    0    0  0.11888705128E+02  0.16425762693E+01  0.68262530355E+00  0.12021037559E+02  0.51100000000E-03 0. -1.
        -11    1    4    4    0    0 -0.15261764105E+01  0.25064767667E+02  0.25156140216E+01  0.25236879895E+02  0.51100000000E-03 0.  1.
        -12    1    4    4    0    0  0.23023856070E+01  0.14301393767E+01  0.16893108306E+02  0.17109160890E+02  0.00000000000E+00 0.  1.
</event>
<event>
 8    1  0.1229941E-006  0.9118800E+02  0.7816164E-02  0.1184000E+00
        -11   -1    0    0    0    0  0.00000000000E+00  0.00000000000E+00  0.45593999997E+02  0.45594000000E+02  0.51100000000E-03 0. -1.
         11   -1    0    0    0    0 -0.00000000000E+00 -0.00000000000E+00 -0.45593999997E+02  0.45594000000E+02  0.51100000000E-03 0.  1.
         23    2    1    2    0    0  0.00000000000E+00 -0.35527136788E-14  0.00000000000E+00  0.91188000000E+02  0.91188000000E+02 0.  0.
    9900012    2    3    3    0    0  0.61496872641E+01 -0.16992191014E+02  0.32081612600E+02  0.54367040264E+02  0.39999899889E+02 0.  0.
        -12    1    3    3    0    0 -0.61496872641E+01  0.16992191014E+02 -0.32081612600E+02  0.36820959736E+02  0.00000000000E+00 0.  1.
         11    1    4    4    0    0  0.40929668752E+01 -0.17255742562E+01  0.26841827618E+02  0.27206868517E+02  0.51100000000E-03 0. -1.
        -11    1    4    4    0    0 -0.57377502010E+01 -0.11191308334E+02  0.10948472957E+02  0.16674418129E+02  0.51100000000E-03 0.  1.
        -12    1    4    4    0    0  0.77944705899E+01 -0.40753084243E+01 -0.57086879757E+01  0.10485753618E+02  0.00000000000E+00 0.  1.
</event>
<event>
 8    1  0.1229941E-006  0.9118800E+02  0.7816164E-02  0.1184000E+00
        -11   -1    0    0    0    0  0.00000000000E+00  0.00000000000E+00  0.45593999997E+02  0.45594000000E+02  0.51100000000E-03 0. -1.
         11   -1    0    0    0    0 -0.00000000000E+00 -0.00000000000E+00 -0.45593999997E+02  0.45594000000E+02  0.51100000000E-03 0.  1.
         23    2    1    2    0    0  0.00000000000E+00 -0.35527136788E-14 -0.71054273576E-14  0.91188000000E+02  0.91188000000E+02 0.  0.
    9900012    2    3    3    0    0  0.62349815887E+01 -0.28589346642E+02 -0.22350725097E+02  0.54367073217E+02  0.39999975012E+02 0.  0.
         12    1    3    3    0    0 -0.62349815887E+01  0.28589346642E+02  0.22350725097E+02  0.36820926783E+02  0.00000000000E+00 0. -1.
         11    1    4    4    0    0  0.10331764567E+02  0.27616537161E+00 -0.53465470555E+00  0.10349274482E+02  0.51100000000E-03 0. -1.
        -11    1    4    4    0    0  0.50926096080E+01 -0.13643978369E+02  0.15615006235E+01  0.14646880309E+02  0.51100000000E-03 0.  1.
        -12    1    4    4    0    0 -0.91893925863E+01 -0.15221533645E+02 -0.23377571015E+02  0.29370918426E+02  0.00000000000E+00 0.  1.
</event>
<event>
 8    1  0.1229941E-006  0.9118800E+02  0.7816164E-02  0.1184000E+00
        -11   -1    0    0    0    0  0.00000000000E+00  0.00000000000E+00  0.45593999997E+02  0.45594000000E+02  0.51100000000E-03 0. -1.
         11   -1    0    0    0    0 -0.00000000000E+00 -0.00000000000E+00 -0.45593999997E+02  0.45594000000E+02  0.51100000000E-03 0.  1.
         23    2    1    2    0    0  0.71054273576E-14  0.16653345369E-14 -0.22204460493E-15  0.91188000000E+02  0.91188000000E+02 0.  0.
    9900012    2    3    3    0    0 -0.36810116741E+02  0.85174413313E+00  0.26687632297E+00  0.54367063218E+02  0.39999952217E+02 0.  0.
        -12    1    3    3    0    0  0.36810116741E+02 -0.85174413313E+00 -0.26687632297E+00  0.36820936782E+02  0.00000000000E+00 0.  1.
         11    1    4    4    0    0 -0.53227652725E+01 -0.12425267350E+02  0.17284739984E+01  0.13627425343E+02  0.51100000000E-03 0. -1.
        -11    1    4    4    0    0 -0.16826674002E+02 -0.45260982810E+01 -0.27527502572E+01  0.17640866131E+02  0.51100000000E-03 0.  1.
         12    1    4    4    0    0 -0.14660677467E+02  0.17803109764E+02  0.12911525818E+01  0.23098771743E+02  0.00000000000E+00 0. -1.
</event>
<event>
 8    1  0.1229941E-006  0.9118800E+02  0.7816164E-02  0.1184000E+00
        -11   -1    0    0    0    0  0.00000000000E+00  0.00000000000E+00  0.45593999997E+02  0.45594000000E+02  0.51100000000E-03 0. -1.
         11   -1    0    0    0    0 -0.00000000000E+00 -0.00000000000E+00 -0.45593999997E+02  0.45594000000E+02  0.51100000000E-03 0.  1.
         23    2    1    2    0    0  0.00000000000E+00 -0.35527136788E-14 -0.88817841970E-15  0.91188000000E+02  0.91188000000E+02 0.  0.
    9900012    2    3    3    0    0 -0.23902079185E+02 -0.27036108557E+02  0.73156353767E+01  0.54367094576E+02  0.40000023705E+02 0.  0.
         12    1    3    3    0    0  0.23902079185E+02  0.27036108557E+02 -0.73156353767E+01  0.36820905424E+02  0.00000000000E+00 0. -1.
         11    1    4    4    0    0 -0.15682214546E+01 -0.82674427026E+01  0.62208490430E+01  0.10464649562E+02  0.51100000000E-03 0. -1.
        -11    1    4    4    0    0 -0.18613619616E+02 -0.17862181901E+02 -0.13287861269E+02  0.29018815187E+02  0.51100000000E-03 0.  1.
        -12    1    4    4    0    0 -0.37202381143E+01 -0.90648395377E+00  0.14382647603E+02  0.14883629828E+02  0.00000000000E+00 0.  1.
</event>
<event>
 8    1  0.1229941E-006  0.9118800E+02  0.7816164E-02  0.1184000E+00
        -11   -1    0    0    0    0  0.00000000000E+00  0.00000000000E+00  0.45593999997E+02  0.45594000000E+02  0.51100000000E-03 0. -1.
         11   -1    0    0    0    0 -0.00000000000E+00 -0.00000000000E+00 -0.45593999997E+02  0.45594000000E+02  0.51100000000E-03 0.  1.
         23    2    1    2    0    0 -0.13322676296E-14  0.35527136788E-14 -0.35527136788E-14  0.91188000000E+02  0.91188000000E+02 0.  0.
    9900012    2    3    3    0    0 -0.24712370079E+01  0.19434889981E+02 -0.31176241850E+02  0.54367081804E+02  0.39999994589E+02 0.  0.
         12    1    3    3    0    0  0.24712370079E+01 -0.19434889981E+02  0.31176241850E+02  0.36820918196E+02  0.00000000000E+00 0. -1.
         11    1    4    4    0    0  0.76968105888E+01  0.15103547744E+01 -0.72893650815E+01  0.10707796614E+02  0.51100000000E-03 0.  1.
        -11    1    4    4    0    0  0.72439247069E+01 -0.42114460569E+01 -0.56959763161E+01  0.10131873938E+02  0.51100000000E-03 0. -1.
         12    1    4    4    0    0 -0.17411972303E+02  0.22135981263E+02 -0.18190900452E+02  0.33527411252E+02  0.00000000000E+00 0. -1.
</event>
<event>
 8    1  0.1229941E-006  0.9118800E+02  0.7816164E-02  0.1184000E+00
        -11   -1    0    0    0    0  0.00000000000E+00  0.00000000000E+00  0.45593999997E+02  0.45594000000E+02  0.51100000000E-03 0.  1.
         11   -1    0    0    0    0 -0.00000000000E+00 -0.00000000000E+00 -0.45593999997E+02  0.45594000000E+02  0.51100000000E-03 0. -1.
         23    2    1    2    0    0  0.33306690739E-15  0.71054273576E-14  0.88817841970E-15  0.91188000000E+02  0.91188000000E+02 0.  0.
    9900012    2    3    3    0    0  0.77681619375E+00  0.36477098631E+02 -0.49596778056E+01  0.54367074266E+02  0.39999977405E+02 0.  0.
         12    1    3    3    0    0 -0.77681619375E+00 -0.36477098631E+02  0.49596778056E+01  0.36820925734E+02  0.00000000000E+00 0. -1.
         11    1    4    4    0    0 -0.10264810648E+02  0.26521057598E+02 -0.68891700069E+00  0.28446571686E+02  0.51100000000E-03 0. -1.
        -11    1    4    4    0    0  0.15476832889E+02  0.11589285246E+02  0.31145558837E+00  0.19337551387E+02  0.51100000000E-03 0.  1.
         12    1    4    4    0    0 -0.44352060476E+01 -0.16332442134E+01 -0.45822163933E+01  0.65829511938E+01  0.00000000000E+00 0. -1.
</event>
<event>
 8    1  0.1229941E-006  0.9118800E+02  0.7816164E-02  0.1184000E+00
        -11   -1    0    0    0    0  0.00000000000E+00  0.00000000000E+00  0.45593999997E+02  0.45594000000E+02  0.51100000000E-03 0.  1.
         11   -1    0    0    0    0 -0.00000000000E+00 -0.00000000000E+00 -0.45593999997E+02  0.45594000000E+02  0.51100000000E-03 0. -1.
         23    2    1    2    0    0  0.00000000000E+00  0.55511151231E-16  0.00000000000E+00  0.91188000000E+02  0.91188000000E+02 0.  0.
    9900012    2    3    3    0    0  0.30381993646E+02 -0.29727790732E+00 -0.20799675800E+02  0.54367076255E+02  0.39999981938E+02 0.  0.
        -12    1    3    3    0    0 -0.30381993646E+02  0.29727790732E+00  0.20799675800E+02  0.36820923745E+02  0.00000000000E+00 0.  1.
         11    1    4    4    0    0  0.72384884709E+01 -0.11637013566E+02 -0.20235255165E+02  0.24439340251E+02  0.51100000000E-03 0. -1.
        -11    1    4    4    0    0  0.11600723255E+02  0.10143690587E+02 -0.66969675747E+01  0.16802399047E+02  0.51100000000E-03 0.  1.
        -12    1    4    4    0    0  0.11542781920E+02  0.11960450722E+01  0.61325469391E+01  0.13125336956E+02  0.00000000000E+00 0.  1.
</event>
<event>
 8    1  0.1229941E-006  0.9118800E+02  0.7816164E-02  0.1184000E+00
        -11   -1    0    0    0    0  0.00000000000E+00  0.00000000000E+00  0.45593999997E+02  0.45594000000E+02  0.51100000000E-03 0.  1.
         11   -1    0    0    0    0 -0.00000000000E+00 -0.00000000000E+00 -0.45593999997E+02  0.45594000000E+02  0.51100000000E-03 0. -1.
         23    2    1    2    0    0 -0.35527136788E-14  0.00000000000E+00 -0.71054273576E-14  0.91188000000E+02  0.91188000000E+02 0.  0.
    9900012    2    3    3    0    0  0.20454072422E+02  0.33958450445E+01  0.30428256341E+02  0.54367087108E+02  0.40000006681E+02 0.  0.
         12    1    3    3    0    0 -0.20454072422E+02 -0.33958450445E+01 -0.30428256341E+02  0.36820912892E+02  0.00000000000E+00 0. -1.
         11    1    4    4    0    0  0.16810950509E+02  0.71755892414E+01  0.16211132377E+02  0.24431495066E+02  0.51100000000E-03 0. -1.
        -11    1    4    4    0    0  0.13837681847E+02 -0.58316190580E+01  0.12189017054E+02  0.19340665882E+02  0.51100000000E-03 0.  1.
         12    1    4    4    0    0 -0.10194559934E+02  0.20518748610E+01  0.20281069107E+01  0.10594926160E+02  0.00000000000E+00 0. -1.
</event>
<event>
 8    1  0.1229941E-006  0.9118800E+02  0.7816164E-02  0.1184000E+00
        -11   -1    0    0    0    0  0.00000000000E+00  0.00000000000E+00  0.45593999997E+02  0.45594000000E+02  0.51100000000E-03 0.  1.
         11   -1    0    0    0    0 -0.00000000000E+00 -0.00000000000E+00 -0.45593999997E+02  0.45594000000E+02  0.51100000000E-03 0. -1.
         23    2    1    2    0    0  0.00000000000E+00 -0.17763568394E-14 -0.35527136788E-14  0.91188000000E+02  0.91188000000E+02 0.  0.
    9900012    2    3    3    0    0 -0.20606138709E+02 -0.13688899043E+02 -0.27272370281E+02  0.54367067227E+02  0.39999961357E+02 0.  0.
        -12    1    3    3    0    0  0.20606138709E+02  0.13688899043E+02  0.27272370281E+02  0.36820932773E+02  0.00000000000E+00 0.  1.
         11    1    4    4    0    0 -0.53351787580E-01 -0.41621676266E+01 -0.11041313151E+02  0.11799876360E+02  0.51100000000E-03 0. -1.
        -11    1    4    4    0    0 -0.22530213951E+02 -0.45941648375E+00 -0.22119082623E+02  0.31576501082E+02  0.51100000000E-03 0.  1.
        -12    1    4    4    0    0  0.19774270297E+01 -0.90673149327E+01  0.58880254927E+01  0.10990689785E+02  0.00000000000E+00 0.  1.
</event>
<event>
 8    1  0.1229941E-006  0.9118800E+02  0.7816164E-02  0.1184000E+00
        -11   -1    0    0    0    0  0.00000000000E+00  0.00000000000E+00  0.45593999997E+02  0.45594000000E+02  0.51100000000E-03 0.  1.
         11   -1    0    0    0    0 -0.00000000000E+00 -0.00000000000E+00 -0.45593999997E+02  0.45594000000E+02  0.51100000000E-03 0. -1.
         23    2    1    2    0    0 -0.35527136788E-14  0.35527136788E-14  0.35527136788E-14  0.91188000000E+02  0.91188000000E+02 0.  0.
    9900012    2    3    3    0    0 -0.15501345313E+02  0.18547377595E+02  0.27775621627E+02  0.54367053802E+02  0.39999930752E+02 0.  0.
         12    1    3    3    0    0  0.15501345313E+02 -0.18547377595E+02 -0.27775621627E+02  0.36820946198E+02  0.00000000000E+00 0. -1.
         11    1    4    4    0    0 -0.10915593413E+01 -0.48095824209E+01  0.30879066796E+01  0.58188274405E+01  0.51100000000E-03 0. -1.
        -11    1    4    4    0    0 -0.20908712780E+02  0.18188928358E+02  0.28195164730E+02  0.39534525409E+02  0.51100000000E-03 0.  1.
         12    1    4    4    0    0  0.64989268081E+01  0.51680316576E+01 -0.35074497826E+01  0.90137009518E+01  0.00000000000E+00 0. -1.
</event>
<event>
 8    1  0.1229941E-006  0.9118800E+02  0.7816164E-02  0.1184000E+00
        -11   -1    0    0    0    0  0.00000000000E+00  0.00000000000E+00  0.45593999997E+02  0.45594000000E+02  0.51100000000E-03 0. -1.
         11   -1    0    0    0    0 -0.00000000000E+00 -0.00000000000E+00 -0.45593999997E+02  0.45594000000E+02  0.51100000000E-03 0.  1.
         23    2    1    2    0    0  0.35527136788E-14  0.00000000000E+00  0.00000000000E+00  0.91188000000E+02  0.91188000000E+02 0.  0.
    9900012    2    3    3    0    0 -0.30083621171E+02  0.20560370397E+02 -0.52940629527E+01  0.54367079368E+02  0.39999989036E+02 0.  0.
        -12    1    3    3    0    0  0.30083621171E+02 -0.20560370397E+02  0.52940629527E+01  0.36820920632E+02  0.00000000000E+00 0.  1.
         11    1    4    4    0    0 -0.59805252796E+01  0.32218832758E+01  0.10061880835E+02  0.12140373168E+02  0.51100000000E-03 0. -1.
        -11    1    4    4    0    0  0.43702420990E+01  0.83555461659E+01 -0.46001471654E+01  0.10491688231E+02  0.51100000000E-03 0.  1.
        -12    1    4    4    0    0 -0.28473337990E+02  0.89829409551E+01 -0.10755796622E+02  0.31735017969E+02  0.00000000000E+00 0.  1.
</event>
<event>
 8    1  0.1229941E-006  0.9118800E+02  0.7816164E-02  0.1184000E+00
        -11   -1    0    0    0    0  0.00000000000E+00  0.00000000000E+00  0.45593999997E+02  0.45594000000E+02  0.51100000000E-03 0. -1.
         11   -1    0    0    0    0 -0.00000000000E+00 -0.00000000000E+00 -0.45593999997E+02  0.45594000000E+02  0.51100000000E-03 0.  1.
         23    2    1    2    0    0  0.71054273576E-14 -0.88817841970E-15  0.17763568394E-14  0.91188000000E+02  0.91188000000E+02 0.  0.
    9900012    2    3    3    0    0  0.34079711696E+02 -0.45794749690E+01 -0.13167457153E+02  0.54367078391E+02  0.39999986808E+02 0.  0.
        -12    1    3    3    0    0 -0.34079711696E+02  0.45794749690E+01  0.13167457153E+02  0.36820921609E+02  0.00000000000E+00 0.  1.
         11    1    4    4    0    0  0.88141600651E+01  0.40970038711E+01  0.91691339263E+01  0.13362180795E+02  0.51100000000E-03 0. -1.
        -11    1    4    4    0    0  0.15118508451E+02 -0.12817744797E+02 -0.49122517713E+01  0.20420433326E+02  0.51100000000E-03 0.  1.
        -12    1    4    4    0    0  0.10147043179E+02  0.41412659570E+01 -0.17424339308E+02  0.20584464271E+02  0.00000000000E+00 0.  1.
</event>
<event>
 8    1  0.1229941E-006  0.9118800E+02  0.7816164E-02  0.1184000E+00
        -11   -1    0    0    0    0  0.00000000000E+00  0.00000000000E+00  0.45593999997E+02  0.45594000000E+02  0.51100000000E-03 0. -1.
         11   -1    0    0    0    0 -0.00000000000E+00 -0.00000000000E+00 -0.45593999997E+02  0.45594000000E+02  0.51100000000E-03 0.  1.
         23    2    1    2    0    0  0.14210854715E-13 -0.17763568394E-14 -0.44408920985E-15  0.91188000000E+02  0.91188000000E+02 0.  0.
    9900012    2    3    3    0    0  0.34498695775E+02 -0.12667952732E+02 -0.22678275884E+01  0.54367080965E+02  0.39999992676E+02 0.  0.
        -12    1    3    3    0    0 -0.34498695775E+02  0.12667952732E+02  0.22678275884E+01  0.36820919035E+02  0.00000000000E+00 0.  1.
         11    1    4    4    0    0 -0.50864955146E+01 -0.58372767608E+01 -0.38417941359E-01  0.77425908326E+01  0.51100000000E-03 0. -1.
        -11    1    4    4    0    0  0.65834133970E+01  0.72229569769E+01 -0.43390794922E+01  0.10692990720E+02  0.51100000000E-03 0.  1.
         12    1    4    4    0    0  0.33001777893E+02 -0.14053632948E+02  0.21096698452E+01  0.35931499412E+02  0.00000000000E+00 0. -1.
</event>
<event>
 8    1  0.1229941E-006  0.9118800E+02  0.7816164E-02  0.1184000E+00
        -11   -1    0    0    0    0  0.00000000000E+00  0.00000000000E+00  0.45593999997E+02  0.45594000000E+02  0.51100000000E-03 0. -1.
         11   -1    0    0    0    0 -0.00000000000E+00 -0.00000000000E+00 -0.45593999997E+02  0.45594000000E+02  0.51100000000E-03 0.  1.
         23    2    1    2    0    0  0.00000000000E+00  0.35527136788E-14  0.00000000000E+00  0.91188000000E+02  0.91188000000E+02 0.  0.
    9900012    2    3    3    0    0 -0.20546611158E+02 -0.12782315167E+02 -0.27753003641E+02  0.54367081731E+02  0.39999994422E+02 0.  0.
         12    1    3    3    0    0  0.20546611158E+02  0.12782315167E+02  0.27753003641E+02  0.36820918269E+02  0.00000000000E+00 0. -1.
         11    1    4    4    0    0 -0.17562443224E+01  0.10124036472E+02 -0.63859191514E+01  0.12097953226E+02  0.51100000000E-03 0. -1.
        -11    1    4    4    0    0 -0.15072020674E+02 -0.22149808214E+02 -0.25267846856E+02  0.36827216785E+02  0.51100000000E-03 0.  1.
        -12    1    4    4    0    0 -0.37183461612E+01 -0.75654342403E+00  0.39007623666E+01  0.54419117199E+01  0.00000000000E+00 0.  1.
</event>
<event>
 8    1  0.1229941E-006  0.9118800E+02  0.7816164E-02  0.1184000E+00
        -11   -1    0    0    0    0  0.00000000000E+00  0.00000000000E+00  0.45593999997E+02  0.45594000000E+02  0.51100000000E-03 0.  1.
         11   -1    0    0    0    0 -0.00000000000E+00 -0.00000000000E+00 -0.45593999997E+02  0.45594000000E+02  0.51100000000E-03 0. -1.
         23    2    1    2    0    0  0.00000000000E+00  0.17763568394E-14  0.00000000000E+00  0.91188000000E+02  0.91188000000E+02 0.  0.
    9900012    2    3    3    0    0 -0.26281711232E+02  0.14303438949E+02 -0.21458356424E+02  0.54367112293E+02  0.40000064095E+02 0.  0.
        -12    1    3    3    0    0  0.26281711232E+02 -0.14303438949E+02  0.21458356424E+02  0.36820887707E+02  0.00000000000E+00 0.  1.
         11    1    4    4    0    0 -0.14837936974E+02 -0.18866940459E-01 -0.23899530509E+02  0.28130984491E+02  0.51100000000E-03 0. -1.
        -11    1    4    4    0    0 -0.12761591897E+02  0.29120064159E+01 -0.31472173300E+01  0.13462651533E+02  0.51100000000E-03 0.  1.
        -12    1    4    4    0    0  0.13178176390E+01  0.11410299474E+02  0.55883914145E+01  0.12773476270E+02  0.00000000000E+00 0.  1.
</event>
<event>
 8    1  0.1229941E-006  0.9118800E+02  0.7816164E-02  0.1184000E+00
        -11   -1    0    0    0    0  0.00000000000E+00  0.00000000000E+00  0.45593999997E+02  0.45594000000E+02  0.51100000000E-03 0. -1.
         11   -1    0    0    0    0 -0.00000000000E+00 -0.00000000000E+00 -0.45593999997E+02  0.45594000000E+02  0.51100000000E-03 0.  1.
         23    2    1    2    0    0  0.00000000000E+00  0.00000000000E+00  0.00000000000E+00  0.91188000000E+02  0.91188000000E+02 0.  0.
    9900012    2    3    3    0    0 -0.42164551170E+01 -0.15185948734E+02  0.33277415783E+02  0.54367110088E+02  0.40000059068E+02 0.  0.
        -12    1    3    3    0    0  0.42164551170E+01  0.15185948734E+02 -0.33277415783E+02  0.36820889912E+02  0.00000000000E+00 0.  1.
         11    1    4    4    0    0 -0.69359555769E+01 -0.81550923937E+01  0.17862627364E+02  0.20825140295E+02  0.51100000000E-03 0. -1.
        -11    1    4    4    0    0 -0.74891828643E+01 -0.13791898998E+02  0.27633676705E+01  0.15935511887E+02  0.51100000000E-03 0.  1.
         12    1    4    4    0    0  0.10208683324E+02  0.67610426584E+01  0.12651420749E+02  0.17606457906E+02  0.00000000000E+00 0. -1.
</event>
<event>
 8    1  0.1229941E-006  0.9118800E+02  0.7816164E-02  0.1184000E+00
        -11   -1    0    0    0    0  0.00000000000E+00  0.00000000000E+00  0.45593999997E+02  0.45594000000E+02  0.51100000000E-03 0.  1.
         11   -1    0    0    0    0 -0.00000000000E+00 -0.00000000000E+00 -0.45593999997E+02  0.45594000000E+02  0.51100000000E-03 0. -1.
         23    2    1    2    0    0  0.00000000000E+00  0.00000000000E+00 -0.35527136788E-14  0.91188000000E+02  0.91188000000E+02 0.  0.
    9900012    2    3    3    0    0  0.27163307612E+02  0.11593681844E+02 -0.21989117512E+02  0.54367081651E+02  0.39999994240E+02 0.  0.
        -12    1    3    3    0    0 -0.27163307612E+02 -0.11593681844E+02  0.21989117512E+02  0.36820918349E+02  0.00000000000E+00 0.  1.
         11    1    4    4    0    0  0.22182219723E+02  0.34180785125E+00 -0.14435051957E+00  0.22185322665E+02  0.51100000000E-03 0. -1.
        -11    1    4    4    0    0  0.51341616785E+00 -0.52784713558E+01 -0.13451095224E+01  0.54713047716E+01  0.51100000000E-03 0.  1.
        -12    1    4    4    0    0  0.44676717212E+01  0.16530345349E+02 -0.20499657470E+02  0.26710454214E+02  0.00000000000E+00 0.  1.
</event>
<event>
 8    1  0.1229941E-006  0.9118800E+02  0.7816164E-02  0.1184000E+00
        -11   -1    0    0    0    0  0.00000000000E+00  0.00000000000E+00  0.45593999997E+02  0.45594000000E+02  0.51100000000E-03 0.  1.
         11   -1    0    0    0    0 -0.00000000000E+00 -0.00000000000E+00 -0.45593999997E+02  0.45594000000E+02  0.51100000000E-03 0. -1.
         23    2    1    2    0    0  0.35527136788E-14 -0.35527136788E-14 -0.88817841970E-15  0.91188000000E+02  0.91188000000E+02 0.  0.
    9900012    2    3    3    0    0  0.19615706759E+02 -0.30859556034E+02 -0.43234218307E+01  0.54367080313E+02  0.39999991190E+02 0.  0.
         12    1    3    3    0    0 -0.19615706759E+02  0.30859556034E+02  0.43234218307E+01  0.36820919687E+02  0.00000000000E+00 0. -1.
         11    1    4    4    0    0  0.26996836013E+01  0.32810071726E+00 -0.15265308465E+02  0.15505662979E+02  0.51100000000E-03 0. -1.
        -11    1    4    4    0    0 -0.10654483087E+01 -0.52640371586E+01 -0.27367384521E+00  0.53777471993E+01  0.51100000000E-03 0.  1.
         12    1    4    4    0    0  0.17981471467E+02 -0.25923619592E+02  0.11215560479E+02  0.33483670135E+02  0.00000000000E+00 0. -1.
</event>
<event>
 8    1  0.1229941E-006  0.9118800E+02  0.7816164E-02  0.1184000E+00
        -11   -1    0    0    0    0  0.00000000000E+00  0.00000000000E+00  0.45593999997E+02  0.45594000000E+02  0.51100000000E-03 0.  1.
         11   -1    0    0    0    0 -0.00000000000E+00 -0.00000000000E+00 -0.45593999997E+02  0.45594000000E+02  0.51100000000E-03 0. -1.
         23    2    1    2    0    0  0.71054273576E-14  0.26645352591E-14  0.00000000000E+00  0.91188000000E+02  0.91188000000E+02 0.  0.
    9900012    2    3    3    0    0 -0.35648881945E+02  0.48501173313E+01  0.78366848536E+01  0.54367081332E+02  0.39999993513E+02 0.  0.
        -12    1    3    3    0    0  0.35648881945E+02 -0.48501173313E+01 -0.78366848536E+01  0.36820918668E+02  0.00000000000E+00 0.  1.
         11    1    4    4    0    0 -0.27512592717E+02  0.16301368246E+02  0.36755237273E+00  0.31981439301E+02  0.51100000000E-03 0.  1.
        -11    1    4    4    0    0 -0.47234063586E+01 -0.11814959695E+01 -0.42292552450E+01  0.64492713188E+01  0.51100000000E-03 0. -1.
        -12    1    4    4    0    0 -0.34128828689E+01 -0.10269754946E+02  0.11698387726E+02  0.15936370713E+02  0.00000000000E+00 0.  1.
</event>
<event>
 8    1  0.1229941E-006  0.9118800E+02  0.7816164E-02  0.1184000E+00
        -11   -1    0    0    0    0  0.00000000000E+00  0.00000000000E+00  0.45593999997E+02  0.45594000000E+02  0.51100000000E-03 0.  1.
         11   -1    0    0    0    0 -0.00000000000E+00 -0.00000000000E+00 -0.45593999997E+02  0.45594000000E+02  0.51100000000E-03 0. -1.
         23    2    1    2    0    0  0.00000000000E+00  0.00000000000E+00  0.88817841970E-15  0.91188000000E+02  0.91188000000E+02 0.  0.
    9900012    2    3    3    0    0 -0.35421487904E+02 -0.76716015959E+01  0.65002083693E+01  0.54366973599E+02  0.39999747912E+02 0.  0.
        -12    1    3    3    0    0  0.35421487904E+02  0.76716015959E+01 -0.65002083693E+01  0.36821026401E+02  0.00000000000E+00 0.  1.
         11    1    4    4    0    0 -0.44626520645E+01 -0.52784664365E+00 -0.12019497899E+02  0.12832077600E+02  0.51100000000E-03 0. -1.
        -11    1    4    4    0    0 -0.23375325840E+02 -0.12642526389E+02  0.18109024155E+02  0.32158608299E+02  0.51100000000E-03 0.  1.
        -12    1    4    4    0    0 -0.75835099997E+01  0.54987714364E+01  0.41068211365E+00  0.93762876995E+01  0.00000000000E+00 0.  1.
</event>
<event>
 8    1  0.1229941E-006  0.9118800E+02  0.7816164E-02  0.1184000E+00
        -11   -1    0    0    0    0  0.00000000000E+00  0.00000000000E+00  0.45593999997E+02  0.45594000000E+02  0.51100000000E-03 0. -1.
         11   -1    0    0    0    0 -0.00000000000E+00 -0.00000000000E+00 -0.45593999997E+02  0.45594000000E+02  0.51100000000E-03 0.  1.
         23    2    1    2    0    0  0.35527136788E-14 -0.35527136788E-14  0.00000000000E+00  0.91188000000E+02  0.91188000000E+02 0.  0.
    9900012    2    3    3    0    0  0.12420153350E+02 -0.29901026652E+02 -0.17534250996E+02  0.54367060821E+02  0.39999946753E+02 0.  0.
        -12    1    3    3    0    0 -0.12420153350E+02  0.29901026652E+02  0.17534250996E+02  0.36820939179E+02  0.00000000000E+00 0.  1.
         11    1    4    4    0    0 -0.86504790470E+01 -0.16836309191E+01 -0.51494539008E+01  0.10206971958E+02  0.51100000000E-03 0. -1.
        -11    1    4    4    0    0  0.82984042766E+01 -0.16083479288E+02 -0.18142483764E+02  0.25625993384E+02  0.51100000000E-03 0.  1.
         12    1    4    4    0    0  0.12772228120E+02 -0.12133916445E+02  0.57576866685E+01  0.18534095479E+02  0.00000000000E+00 0. -1.
</event>
<event>
 8    1  0.1229941E-006  0.9118800E+02  0.7816164E-02  0.1184000E+00
        -11   -1    0    0    0    0  0.00000000000E+00  0.00000000000E+00  0.45593999997E+02  0.45594000000E+02  0.51100000000E-03 0. -1.
         11   -1    0    0    0    0 -0.00000000000E+00 -0.00000000000E+00 -0.45593999997E+02  0.45594000000E+02  0.51100000000E-03 0.  1.
         23    2    1    2    0    0  0.17763568394E-14  0.00000000000E+00  0.35527136788E-14  0.91188000000E+02  0.91188000000E+02 0.  0.
    9900012    2    3    3    0    0 -0.85590088668E+01  0.23229582598E+02  0.27256389038E+02  0.54367070030E+02  0.39999967747E+02 0.  0.
        -12    1    3    3    0    0  0.85590088668E+01 -0.23229582598E+02 -0.27256389038E+02  0.36820929970E+02  0.00000000000E+00 0.  1.
         11    1    4    4    0    0  0.10344175195E+02 -0.21182714505E+01  0.13545279123E+02  0.17174504977E+02  0.51100000000E-03 0. -1.
        -11    1    4    4    0    0 -0.23383964762E+01  0.82513271193E+01 -0.18223093747E+01  0.87677425275E+01  0.51100000000E-03 0.  1.
        -12    1    4    4    0    0 -0.16564787586E+02  0.17096526930E+02  0.15533419289E+02  0.28424822526E+02  0.00000000000E+00 0.  1.
</event>
<event>
 8    1  0.1229941E-006  0.9118800E+02  0.7816164E-02  0.1184000E+00
        -11   -1    0    0    0    0  0.00000000000E+00  0.00000000000E+00  0.45593999997E+02  0.45594000000E+02  0.51100000000E-03 0. -1.
         11   -1    0    0    0    0 -0.00000000000E+00 -0.00000000000E+00 -0.45593999997E+02  0.45594000000E+02  0.51100000000E-03 0.  1.
         23    2    1    2    0    0  0.00000000000E+00 -0.88817841970E-15  0.00000000000E+00  0.91188000000E+02  0.91188000000E+02 0.  0.
    9900012    2    3    3    0    0 -0.45701440968E+01 -0.50864983785E+01  0.36180390800E+02  0.54367090706E+02  0.40000014882E+02 0.  0.
        -12    1    3    3    0    0  0.45701440968E+01  0.50864983785E+01 -0.36180390800E+02  0.36820909294E+02  0.00000000000E+00 0.  1.
         11    1    4    4    0    0  0.94061990453E+01  0.13853645494E+01  0.32038152606E+02  0.33419141791E+02  0.51100000000E-03 0. -1.
        -11    1    4    4    0    0  0.29902152684E+00  0.28164926521E+01 -0.12324759769E+01  0.30888577222E+01  0.51100000000E-03 0.  1.
        -12    1    4    4    0    0 -0.14275364669E+02 -0.92883555800E+01  0.53747141711E+01  0.17859091193E+02  0.00000000000E+00 0.  1.
</event>
<event>
 8    1  0.1229941E-006  0.9118800E+02  0.7816164E-02  0.1184000E+00
        -11   -1    0    0    0    0  0.00000000000E+00  0.00000000000E+00  0.45593999997E+02  0.45594000000E+02  0.51100000000E-03 0. -1.
         11   -1    0    0    0    0 -0.00000000000E+00 -0.00000000000E+00 -0.45593999997E+02  0.45594000000E+02  0.51100000000E-03 0.  1.
         23    2    1    2    0    0  0.00000000000E+00  0.35527136788E-14  0.00000000000E+00  0.91188000000E+02  0.91188000000E+02 0.  0.
    9900012    2    3    3    0    0  0.45021368276E+01 -0.17575320134E+02  0.32040888246E+02  0.54367087009E+02  0.40000006455E+02 0.  0.
        -12    1    3    3    0    0 -0.45021368276E+01  0.17575320134E+02 -0.32040888246E+02  0.36820912991E+02  0.00000000000E+00 0.  1.
         11    1    4    4    0    0 -0.52747385064E+01 -0.10917649566E+01  0.23827676119E+02  0.24428937073E+02  0.51100000000E-03 0. -1.
        -11    1    4    4    0    0  0.21037572289E+01  0.46096912197E+01  0.52524805315E+01  0.72981915304E+01  0.51100000000E-03 0.  1.
        -12    1    4    4    0    0  0.76731181051E+01 -0.21093246397E+02  0.29607315958E+01  0.22639958406E+02  0.00000000000E+00 0.  1.
</event>
<event>
 8    1  0.1229941E-006  0.9118800E+02  0.7816164E-02  0.1184000E+00
        -11   -1    0    0    0    0  0.00000000000E+00  0.00000000000E+00  0.45593999997E+02  0.45594000000E+02  0.51100000000E-03 0.  1.
         11   -1    0    0    0    0 -0.00000000000E+00 -0.00000000000E+00 -0.45593999997E+02  0.45594000000E+02  0.51100000000E-03 0. -1.
         23    2    1    2    0    0  0.00000000000E+00  0.00000000000E+00 -0.88817841970E-15  0.91188000000E+02  0.91188000000E+02 0.  0.
    9900012    2    3    3    0    0  0.34962158568E+02 -0.11328058644E+02 -0.22587393417E+01  0.54367090889E+02  0.40000015299E+02 0.  0.
         12    1    3    3    0    0 -0.34962158568E+02  0.11328058644E+02  0.22587393417E+01  0.36820909111E+02  0.00000000000E+00 0. -1.
         11    1    4    4    0    0 -0.56244916478E+01 -0.56909551549E+01 -0.60074160286E+01  0.10005544686E+02  0.51100000000E-03 0. -1.
        -11    1    4    4    0    0  0.10143333670E+02 -0.36253222366E+01  0.81881103707E+01  0.13530533284E+02  0.51100000000E-03 0.  1.
        -12    1    4    4    0    0  0.30443316546E+02 -0.20117812521E+01 -0.44394336838E+01  0.30831012918E+02  0.00000000000E+00 0.  1.
</event>
<event>
 8    1  0.1229941E-006  0.9118800E+02  0.7816164E-02  0.1184000E+00
        -11   -1    0    0    0    0  0.00000000000E+00  0.00000000000E+00  0.45593999997E+02  0.45594000000E+02  0.51100000000E-03 0. -1.
         11   -1    0    0    0    0 -0.00000000000E+00 -0.00000000000E+00 -0.45593999997E+02  0.45594000000E+02  0.51100000000E-03 0.  1.
         23    2    1    2    0    0  0.17763568394E-14  0.17763568394E-14  0.00000000000E+00  0.91188000000E+02  0.91188000000E+02 0.  0.
    9900012    2    3    3    0    0 -0.65649667732E+01 -0.72552414527E+01 -0.35497080508E+02  0.54367081464E+02  0.39999993813E+02 0.  0.
         12    1    3    3    0    0  0.65649667732E+01  0.72552414527E+01  0.35497080508E+02  0.36820918536E+02  0.00000000000E+00 0. -1.
         11    1    4    4    0    0  0.50482591488E+01 -0.47645962113E+01 -0.14570085538E+02  0.16139197326E+02  0.51100000000E-03 0. -1.
        -11    1    4    4    0    0 -0.67957938800E+01  0.84694860345E+01 -0.23584558448E+02  0.25964329485E+02  0.51100000000E-03 0.  1.
         12    1    4    4    0    0 -0.48174320421E+01 -0.10960131276E+02  0.26575634787E+01  0.12263554652E+02  0.00000000000E+00 0. -1.
</event>
<event>
 8    1  0.1229941E-006  0.9118800E+02  0.7816164E-02  0.1184000E+00
        -11   -1    0    0    0    0  0.00000000000E+00  0.00000000000E+00  0.45593999997E+02  0.45594000000E+02  0.51100000000E-03 0.  1.
         11   -1    0    0    0    0 -0.00000000000E+00 -0.00000000000E+00 -0.45593999997E+02  0.45594000000E+02  0.51100000000E-03 0. -1.
         23    2    1    2    0    0  0.17763568394E-14  0.35527136788E-14  0.00000000000E+00  0.91188000000E+02  0.91188000000E+02 0.  0.
    9900012    2    3    3    0    0 -0.12607155062E+02 -0.28320034512E+02 -0.19869920971E+02  0.54367102769E+02  0.40000042382E+02 0.  0.
        -12    1    3    3    0    0  0.12607155062E+02  0.28320034512E+02  0.19869920971E+02  0.36820897231E+02  0.00000000000E+00 0.  1.
         11    1    4    4    0    0 -0.80045824085E+01 -0.34334592756E+01 -0.11823371895E+02  0.14685166168E+02  0.51100000000E-03 0. -1.
        -11    1    4    4    0    0  0.10722718481E+02 -0.33111428587E+01  0.19537763245E+01  0.11391119385E+02  0.51100000000E-03 0.  1.
        -12    1    4    4    0    0 -0.15325291134E+02 -0.21575432378E+02 -0.10000325401E+02  0.28290817216E+02  0.00000000000E+00 0.  1.
</event>
<event>
 8    1  0.1229941E-006  0.9118800E+02  0.7816164E-02  0.1184000E+00
        -11   -1    0    0    0    0  0.00000000000E+00  0.00000000000E+00  0.45593999997E+02  0.45594000000E+02  0.51100000000E-03 0.  1.
         11   -1    0    0    0    0 -0.00000000000E+00 -0.00000000000E+00 -0.45593999997E+02  0.45594000000E+02  0.51100000000E-03 0. -1.
         23    2    1    2    0    0 -0.17763568394E-14  0.35527136788E-14  0.35527136788E-14  0.91188000000E+02  0.91188000000E+02 0.  0.
    9900012    2    3    3    0    0  0.90001145303E+01 -0.18223867841E+02 -0.30702880137E+02  0.54367105533E+02  0.40000048683E+02 0.  0.
        -12    1    3    3    0    0 -0.90001145303E+01  0.18223867841E+02  0.30702880137E+02  0.36820894467E+02  0.00000000000E+00 0.  1.
         11    1    4    4    0    0 -0.36356273515E+01 -0.18127633431E+02 -0.23107801484E+02  0.29593907646E+02  0.51100000000E-03 0. -1.
        -11    1    4    4    0    0  0.14758309105E+01 -0.90461759646E+01 -0.18125612284E+01  0.93432732448E+01  0.51100000000E-03 0.  1.
        -12    1    4    4    0    0  0.11159910971E+02  0.89499415543E+01 -0.57825174244E+01  0.15429924643E+02  0.00000000000E+00 0.  1.
</event>
<event>
 8    1  0.1229941E-006  0.9118800E+02  0.7816164E-02  0.1184000E+00
        -11   -1    0    0    0    0  0.00000000000E+00  0.00000000000E+00  0.45593999997E+02  0.45594000000E+02  0.51100000000E-03 0. -1.
         11   -1    0    0    0    0 -0.00000000000E+00 -0.00000000000E+00 -0.45593999997E+02  0.45594000000E+02  0.51100000000E-03 0.  1.
         23    2    1    2    0    0  0.00000000000E+00 -0.17763568394E-14  0.00000000000E+00  0.91188000000E+02  0.91188000000E+02 0.  0.
    9900012    2    3    3    0    0  0.28481660484E+02 -0.15251666296E+02 -0.17662440596E+02  0.54367080449E+02  0.39999991501E+02 0.  0.
         12    1    3    3    0    0 -0.28481660484E+02  0.15251666296E+02  0.17662440596E+02  0.36820919551E+02  0.00000000000E+00 0. -1.
         11    1    4    4    0    0  0.17877125478E+02  0.11415401759E+01 -0.21445876551E+02  0.27943162860E+02  0.51100000000E-03 0. -1.
        -11    1    4    4    0    0  0.14514512086E+02 -0.72864090579E+01  0.23003673061E+01  0.16402881090E+02  0.51100000000E-03 0.  1.
         12    1    4    4    0    0 -0.39099770797E+01 -0.91067974139E+01  0.14830686487E+01  0.10021036499E+02  0.00000000000E+00 0. -1.
</event>
<event>
 8    1  0.1229941E-006  0.9118800E+02  0.7816164E-02  0.1184000E+00
        -11   -1    0    0    0    0  0.00000000000E+00  0.00000000000E+00  0.45593999997E+02  0.45594000000E+02  0.51100000000E-03 0.  1.
         11   -1    0    0    0    0 -0.00000000000E+00 -0.00000000000E+00 -0.45593999997E+02  0.45594000000E+02  0.51100000000E-03 0. -1.
         23    2    1    2    0    0  0.35527136788E-14  0.00000000000E+00  0.35527136788E-14  0.91188000000E+02  0.91188000000E+02 0.  0.
    9900012    2    3    3    0    0  0.26520500906E+02  0.10609396721E+02  0.23235380007E+02  0.54367093559E+02  0.40000021386E+02 0.  0.
         12    1    3    3    0    0 -0.26520500906E+02 -0.10609396721E+02 -0.23235380007E+02  0.36820906441E+02  0.00000000000E+00 0. -1.
         11    1    4    4    0    0  0.23196827758E+02  0.14799971174E+02  0.20516380572E+01  0.27592411706E+02  0.51100000000E-03 0. -1.
        -11    1    4    4    0    0  0.18085065525E+01  0.56598478744E+01  0.11138977503E+02  0.12624634410E+02  0.51100000000E-03 0.  1.
         12    1    4    4    0    0  0.15151665956E+01 -0.98504223278E+01  0.10044764447E+02  0.14150047443E+02  0.00000000000E+00 0. -1.
</event>
<event>
 8    1  0.1229941E-006  0.9118800E+02  0.7816164E-02  0.1184000E+00
        -11   -1    0    0    0    0  0.00000000000E+00  0.00000000000E+00  0.45593999997E+02  0.45594000000E+02  0.51100000000E-03 0.  1.
         11   -1    0    0    0    0 -0.00000000000E+00 -0.00000000000E+00 -0.45593999997E+02  0.45594000000E+02  0.51100000000E-03 0. -1.
         23    2    1    2    0    0  0.00000000000E+00  0.17763568394E-14  0.35527136788E-14  0.91188000000E+02  0.91188000000E+02 0.  0.
    9900012    2    3    3    0    0  0.24896970028E+02 -0.48410467731E+01  0.26692406673E+02  0.54367089848E+02  0.40000012926E+02 0.  0.
         12    1    3    3    0    0 -0.24896970028E+02  0.48410467731E+01 -0.26692406673E+02  0.36820910152E+02  0.00000000000E+00 0. -1.
         11    1    4    4    0    0 -0.31621262329E+01  0.88820051950E+01  0.96362046845E+00  0.94772160082E+01  0.51100000000E-03 0. -1.
        -11    1    4    4    0    0  0.11053473862E+02  0.31979601004E+01  0.14190371601E+02  0.18269452089E+02  0.51100000000E-03 0.  1.
         12    1    4    4    0    0  0.17005622399E+02 -0.16921012068E+02  0.11538414604E+02  0.26620421750E+02  0.00000000000E+00 0. -1.
</event>
<event>
 8    1  0.1229941E-006  0.9118800E+02  0.7816164E-02  0.1184000E+00
        -11   -1    0    0    0    0  0.00000000000E+00  0.00000000000E+00  0.45593999997E+02  0.45594000000E+02  0.51100000000E-03 0.  1.
         11   -1    0    0    0    0 -0.00000000000E+00 -0.00000000000E+00 -0.45593999997E+02  0.45594000000E+02  0.51100000000E-03 0. -1.
         23    2    1    2    0    0  0.00000000000E+00 -0.88817841970E-15 -0.35527136788E-14  0.91188000000E+02  0.91188000000E+02 0.  0.
    9900012    2    3    3    0    0  0.19258750328E+02  0.46233012066E+01  0.31040143045E+02  0.54367287643E+02  0.40000463837E+02 0.  0.
         12    1    3    3    0    0 -0.19258750328E+02 -0.46233012066E+01 -0.31040143045E+02  0.36820712357E+02  0.00000000000E+00 0. -1.
         11    1    4    4    0    0 -0.29024536784E+01 -0.21434453762E+01 -0.32036161524E+01  0.48251168016E+01  0.51100000000E-03 0. -1.
        -11    1    4    4    0    0 -0.35559750647E+01 -0.34224127489E+01 -0.68911203001E+00  0.49832462648E+01  0.51100000000E-03 0.  1.
        -12    1    4    4    0    0  0.25717179071E+02  0.10189159332E+02  0.34932871227E+02  0.44558924577E+02  0.00000000000E+00 0.  1.
</event>
<event>
 8    1  0.1229941E-006  0.9118800E+02  0.7816164E-02  0.1184000E+00
        -11   -1    0    0    0    0  0.00000000000E+00  0.00000000000E+00  0.45593999997E+02  0.45594000000E+02  0.51100000000E-03 0. -1.
         11   -1    0    0    0    0 -0.00000000000E+00 -0.00000000000E+00 -0.45593999997E+02  0.45594000000E+02  0.51100000000E-03 0.  1.
         23    2    1    2    0    0 -0.35527136788E-14  0.00000000000E+00  0.35527136788E-14  0.91188000000E+02  0.91188000000E+02 0.  0.
    9900012    2    3    3    0    0 -0.17279507850E+02  0.19939176260E+02  0.25683206056E+02  0.54367092695E+02  0.40000019417E+02 0.  0.
        -12    1    3    3    0    0  0.17279507850E+02 -0.19939176260E+02 -0.25683206056E+02  0.36820907305E+02  0.00000000000E+00 0.  1.
         11    1    4    4    0    0  0.76563245877E+00  0.12014973349E+02 -0.10507211693E+01  0.12085106242E+02  0.51100000000E-03 0. -1.
        -11    1    4    4    0    0  0.57001306736E+01 -0.14052576711E+01  0.10538150500E+02  0.12063119623E+02  0.51100000000E-03 0.  1.
         12    1    4    4    0    0 -0.23745270982E+02  0.93294605815E+01  0.16195776725E+02  0.30218866830E+02  0.00000000000E+00 0. -1.
</event>
<event>
 8    1  0.1229941E-006  0.9118800E+02  0.7816164E-02  0.1184000E+00
        -11   -1    0    0    0    0  0.00000000000E+00  0.00000000000E+00  0.45593999997E+02  0.45594000000E+02  0.51100000000E-03 0.  1.
         11   -1    0    0    0    0 -0.00000000000E+00 -0.00000000000E+00 -0.45593999997E+02  0.45594000000E+02  0.51100000000E-03 0. -1.
         23    2    1    2    0    0 -0.88817841970E-15  0.00000000000E+00 -0.35527136788E-14  0.91188000000E+02  0.91188000000E+02 0.  0.
    9900012    2    3    3    0    0  0.68788399094E+01  0.27246512983E+02  0.23792627841E+02  0.54367081383E+02  0.39999993628E+02 0.  0.
         12    1    3    3    0    0 -0.68788399094E+01 -0.27246512983E+02 -0.23792627841E+02  0.36820918617E+02  0.00000000000E+00 0. -1.
         11    1    4    4    0    0  0.37411160156E+01  0.21838835514E+02  0.24790935817E+02  0.33249378710E+02  0.51100000000E-03 0. -1.
        -11    1    4    4    0    0  0.40260871911E+01 -0.29823421449E+01  0.75796400019E+01  0.90859609045E+01  0.51100000000E-03 0.  1.
         12    1    4    4    0    0 -0.88836329726E+00  0.83900196142E+01 -0.85779479776E+01  0.12031741768E+02  0.00000000000E+00 0. -1.
</event>
<event>
 8    1  0.1229941E-006  0.9118800E+02  0.7816164E-02  0.1184000E+00
        -11   -1    0    0    0    0  0.00000000000E+00  0.00000000000E+00  0.45593999997E+02  0.45594000000E+02  0.51100000000E-03 0. -1.
         11   -1    0    0    0    0 -0.00000000000E+00 -0.00000000000E+00 -0.45593999997E+02  0.45594000000E+02  0.51100000000E-03 0.  1.
         23    2    1    2    0    0  0.00000000000E+00  0.00000000000E+00  0.88817841970E-15  0.91188000000E+02  0.91188000000E+02 0.  0.
    9900012    2    3    3    0    0 -0.34543003050E+02 -0.11537552381E+02 -0.54264234289E+01  0.54367078693E+02  0.39999987496E+02 0.  0.
        -12    1    3    3    0    0  0.34543003050E+02  0.11537552381E+02  0.54264234289E+01  0.36820921307E+02  0.00000000000E+00 0.  1.
         11    1    4    4    0    0 -0.27839087882E+02  0.11130762879E+01 -0.73156623359E+01  0.28805774917E+02  0.51100000000E-03 0. -1.
        -11    1    4    4    0    0 -0.94153432918E+01 -0.18608762461E+01 -0.65309940963E+01  0.11608851530E+02  0.51100000000E-03 0.  1.
         12    1    4    4    0    0  0.27114281234E+01 -0.10789752423E+02  0.84202330034E+01  0.13952452245E+02  0.00000000000E+00 0. -1.
</event>
<event>
 8    1  0.1229941E-006  0.9118800E+02  0.7816164E-02  0.1184000E+00
        -11   -1    0    0    0    0  0.00000000000E+00  0.00000000000E+00  0.45593999997E+02  0.45594000000E+02  0.51100000000E-03 0.  1.
         11   -1    0    0    0    0 -0.00000000000E+00 -0.00000000000E+00 -0.45593999997E+02  0.45594000000E+02  0.51100000000E-03 0. -1.
         23    2    1    2    0    0  0.00000000000E+00  0.00000000000E+00 -0.35527136788E-14  0.91188000000E+02  0.91188000000E+02 0.  0.
    9900012    2    3    3    0    0  0.27747066675E+02  0.92256834288E+01  0.22377825500E+02  0.54367081789E+02  0.39999994554E+02 0.  0.
         12    1    3    3    0    0 -0.27747066675E+02 -0.92256834288E+01 -0.22377825500E+02  0.36820918211E+02  0.00000000000E+00 0. -1.
         11    1    4    4    0    0 -0.59071141576E+01 -0.43001438054E+01 -0.68464297247E+00  0.73385264651E+01  0.51100000000E-03 0. -1.
        -11    1    4    4    0    0  0.19224216880E+02  0.46491033652E+01  0.18263517233E+01  0.19862533515E+02  0.51100000000E-03 0.  1.
         12    1    4    4    0    0  0.14429963952E+02  0.88767238689E+01  0.21236116749E+02  0.27166021809E+02  0.00000000000E+00 0. -1.
</event>
<event>
 8    1  0.1229941E-006  0.9118800E+02  0.7816164E-02  0.1184000E+00
        -11   -1    0    0    0    0  0.00000000000E+00  0.00000000000E+00  0.45593999997E+02  0.45594000000E+02  0.51100000000E-03 0. -1.
         11   -1    0    0    0    0 -0.00000000000E+00 -0.00000000000E+00 -0.45593999997E+02  0.45594000000E+02  0.51100000000E-03 0.  1.
         23    2    1    2    0    0  0.00000000000E+00 -0.17763568394E-14 -0.35527136788E-14  0.91188000000E+02  0.91188000000E+02 0.  0.
    9900012    2    3    3    0    0 -0.15859287249E+02  0.12835833793E+02  0.30651398207E+02  0.54367029980E+02  0.39999876445E+02 0.  0.
        -12    1    3    3    0    0  0.15859287249E+02 -0.12835833793E+02 -0.30651398207E+02  0.36820970020E+02  0.00000000000E+00 0.  1.
         11    1    4    4    0    0  0.60985563053E+00  0.35820785668E+01  0.31962129956E+02  0.32168011476E+02  0.51100000000E-03 0. -1.
        -11    1    4    4    0    0 -0.15087809567E+02  0.99643995733E+01  0.23395278038E+01  0.18231967722E+02  0.51100000000E-03 0.  1.
         12    1    4    4    0    0 -0.13813333120E+01 -0.71064434741E+00 -0.36502595528E+01  0.39670507824E+01  0.00000000000E+00 0. -1.
</event>
<event>
 8    1  0.1229941E-006  0.9118800E+02  0.7816164E-02  0.1184000E+00
        -11   -1    0    0    0    0  0.00000000000E+00  0.00000000000E+00  0.45593999997E+02  0.45594000000E+02  0.51100000000E-03 0. -1.
         11   -1    0    0    0    0 -0.00000000000E+00 -0.00000000000E+00 -0.45593999997E+02  0.45594000000E+02  0.51100000000E-03 0.  1.
         23    2    1    2    0    0  0.00000000000E+00  0.00000000000E+00  0.00000000000E+00  0.91188000000E+02  0.91188000000E+02 0.  0.
    9900012    2    3    3    0    0 -0.90243995617E+01  0.33241112196E+02  0.13014139951E+02  0.54367093355E+02  0.40000020922E+02 0.  0.
        -12    1    3    3    0    0  0.90243995617E+01 -0.33241112196E+02 -0.13014139951E+02  0.36820906645E+02  0.00000000000E+00 0.  1.
         11    1    4    4    0    0  0.36703523387E+01  0.26224905282E+01  0.98373563565E+01  0.10822315982E+02  0.51100000000E-03 0. -1.
        -11    1    4    4    0    0 -0.17355813469E+02  0.33464624764E+02  0.43842434978E+01  0.37951639794E+02  0.51100000000E-03 0.  1.
        -12    1    4    4    0    0  0.46610615685E+01 -0.28460030959E+01 -0.12074599033E+01  0.55931375797E+01  0.00000000000E+00 0.  1.
</event>
<event>
 8    1  0.1229941E-006  0.9118800E+02  0.7816164E-02  0.1184000E+00
        -11   -1    0    0    0    0  0.00000000000E+00  0.00000000000E+00  0.45593999997E+02  0.45594000000E+02  0.51100000000E-03 0.  1.
         11   -1    0    0    0    0 -0.00000000000E+00 -0.00000000000E+00 -0.45593999997E+02  0.45594000000E+02  0.51100000000E-03 0. -1.
         23    2    1    2    0    0 -0.88817841970E-15  0.00000000000E+00 -0.35527136788E-14  0.91188000000E+02  0.91188000000E+02 0.  0.
    9900012    2    3    3    0    0 -0.39792069152E+01  0.31262963307E+02  0.19041336131E+02  0.54367089581E+02  0.40000012319E+02 0.  0.
         12    1    3    3    0    0  0.39792069152E+01 -0.31262963307E+02 -0.19041336131E+02  0.36820910419E+02  0.00000000000E+00 0. -1.
         11    1    4    4    0    0 -0.85200490536E+01  0.10532326483E+02 -0.46612346719E+01  0.14326487565E+02  0.51100000000E-03 0. -1.
        -11    1    4    4    0    0  0.86607893050E+00  0.24998503987E+02  0.23627253990E+02  0.34408173821E+02  0.51100000000E-03 0.  1.
        -12    1    4    4    0    0  0.36747632078E+01 -0.42678671633E+01  0.75316812638E-01  0.56324281957E+01  0.00000000000E+00 0.  1.
</event>
<event>
 8    1  0.1229941E-006  0.9118800E+02  0.7816164E-02  0.1184000E+00
        -11   -1    0    0    0    0  0.00000000000E+00  0.00000000000E+00  0.45593999997E+02  0.45594000000E+02  0.51100000000E-03 0. -1.
         11   -1    0    0    0    0 -0.00000000000E+00 -0.00000000000E+00 -0.45593999997E+02  0.45594000000E+02  0.51100000000E-03 0.  1.
         23    2    1    2    0    0  0.00000000000E+00  0.00000000000E+00  0.00000000000E+00  0.91188000000E+02  0.91188000000E+02 0.  0.
    9900012    2    3    3    0    0  0.84401565471E+01 -0.34522359778E+02  0.96306807547E+01  0.54367087750E+02  0.40000008143E+02 0.  0.
        -12    1    3    3    0    0 -0.84401565471E+01  0.34522359778E+02 -0.96306807547E+01  0.36820912250E+02  0.00000000000E+00 0.  1.
         11    1    4    4    0    0  0.71383066087E+01 -0.34206623824E+02  0.16007107351E+02  0.38435348583E+02  0.51100000000E-03 0. -1.
        -11    1    4    4    0    0  0.62261949414E+01 -0.48395081090E+01 -0.39356130048E+01  0.88133644070E+01  0.51100000000E-03 0.  1.
         12    1    4    4    0    0 -0.49243450031E+01  0.45237721558E+01 -0.24408135914E+01  0.71183747593E+01  0.00000000000E+00 0. -1.
</event>
<event>
 8    1  0.1229941E-006  0.9118800E+02  0.7816164E-02  0.1184000E+00
        -11   -1    0    0    0    0  0.00000000000E+00  0.00000000000E+00  0.45593999997E+02  0.45594000000E+02  0.51100000000E-03 0. -1.
         11   -1    0    0    0    0 -0.00000000000E+00 -0.00000000000E+00 -0.45593999997E+02  0.45594000000E+02  0.51100000000E-03 0.  1.
         23    2    1    2    0    0  0.00000000000E+00  0.00000000000E+00  0.00000000000E+00  0.91188000000E+02  0.91188000000E+02 0.  0.
    9900012    2    3    3    0    0  0.12797983396E+02 -0.30932852271E+02  0.15334744367E+02  0.54367026175E+02  0.39999867770E+02 0.  0.
        -12    1    3    3    0    0 -0.12797983396E+02  0.30932852271E+02 -0.15334744367E+02  0.36820973825E+02  0.00000000000E+00 0.  1.
         11    1    4    4    0    0  0.46467378997E+01 -0.26718751596E+02  0.17214603494E+02  0.32122055253E+02  0.51100000000E-03 0. -1.
        -11    1    4    4    0    0  0.10187042002E+02 -0.83277354600E+01 -0.73761641822E+01  0.15084256725E+02  0.51100000000E-03 0.  1.
         12    1    4    4    0    0 -0.20357965053E+01  0.41136347845E+01  0.54963050549E+01  0.71607141968E+01  0.00000000000E+00 0. -1.
</event>
<event>
 8    1  0.1229941E-006  0.9118800E+02  0.7816164E-02  0.1184000E+00
        -11   -1    0    0    0    0  0.00000000000E+00  0.00000000000E+00  0.45593999997E+02  0.45594000000E+02  0.51100000000E-03 0.  1.
         11   -1    0    0    0    0 -0.00000000000E+00 -0.00000000000E+00 -0.45593999997E+02  0.45594000000E+02  0.51100000000E-03 0. -1.
         23    2    1    2    0    0  0.44408920985E-15  0.00000000000E+00  0.00000000000E+00  0.91188000000E+02  0.91188000000E+02 0.  0.
    9900012    2    3    3    0    0 -0.14139881230E+01  0.24636054744E+02  0.27328383747E+02  0.54367148380E+02  0.40000146362E+02 0.  0.
         12    1    3    3    0    0  0.14139881230E+01 -0.24636054744E+02 -0.27328383747E+02  0.36820851620E+02  0.00000000000E+00 0. -1.
         11    1    4    4    0    0 -0.63878687232E+01 -0.44192833208E+01  0.51902015064E+01  0.93420085545E+01  0.51100000000E-03 0. -1.
        -11    1    4    4    0    0  0.11159437316E+02  0.18169117101E+02  0.21385996300E+01  0.21429499903E+02  0.51100000000E-03 0.  1.
        -12    1    4    4    0    0 -0.61855567155E+01  0.10886220964E+02  0.19999582611E+02  0.23595639923E+02  0.00000000000E+00 0.  1.
</event>
<event>
 8    1  0.1229941E-006  0.9118800E+02  0.7816164E-02  0.1184000E+00
        -11   -1    0    0    0    0  0.00000000000E+00  0.00000000000E+00  0.45593999997E+02  0.45594000000E+02  0.51100000000E-03 0. -1.
         11   -1    0    0    0    0 -0.00000000000E+00 -0.00000000000E+00 -0.45593999997E+02  0.45594000000E+02  0.51100000000E-03 0.  1.
         23    2    1    2    0    0 -0.17763568394E-14 -0.35527136788E-14 -0.71054273576E-14  0.91188000000E+02  0.91188000000E+02 0.  0.
    9900012    2    3    3    0    0  0.55129905964E+01 -0.26507911546E+02 -0.24954303416E+02  0.54367086122E+02  0.40000004432E+02 0.  0.
         12    1    3    3    0    0 -0.55129905964E+01  0.26507911546E+02  0.24954303416E+02  0.36820913878E+02  0.00000000000E+00 0. -1.
         11    1    4    4    0    0 -0.35939533522E+01 -0.13174121012E+02 -0.17718225495E+02  0.22369834154E+02  0.51100000000E-03 0. -1.
        -11    1    4    4    0    0  0.13647830144E+02 -0.16998860816E+02  0.10934249960E+01  0.21827050079E+02  0.51100000000E-03 0.  1.
         12    1    4    4    0    0 -0.45408861949E+01  0.36650702820E+01 -0.83295029175E+01  0.10170201889E+02  0.00000000000E+00 0. -1.
</event>
<event>
 8    1  0.1229941E-006  0.9118800E+02  0.7816164E-02  0.1184000E+00
        -11   -1    0    0    0    0  0.00000000000E+00  0.00000000000E+00  0.45593999997E+02  0.45594000000E+02  0.51100000000E-03 0.  1.
         11   -1    0    0    0    0 -0.00000000000E+00 -0.00000000000E+00 -0.45593999997E+02  0.45594000000E+02  0.51100000000E-03 0. -1.
         23    2    1    2    0    0 -0.35527136788E-14  0.00000000000E+00  0.00000000000E+00  0.91188000000E+02  0.91188000000E+02 0.  0.
    9900012    2    3    3    0    0  0.21902634666E+02  0.55336918467E+01  0.29076310315E+02  0.54367095987E+02  0.40000026921E+02 0.  0.
         12    1    3    3    0    0 -0.21902634666E+02 -0.55336918467E+01 -0.29076310315E+02  0.36820904013E+02  0.00000000000E+00 0. -1.
         11    1    4    4    0    0  0.15952757677E+01 -0.16786496070E+01 -0.34161341378E+00  0.23408266197E+01  0.51100000000E-03 0. -1.
        -11    1    4    4    0    0 -0.15434325151E+01 -0.72636316007E+01  0.24183381232E+02  0.25297795478E+02  0.51100000000E-03 0.  1.
        -12    1    4    4    0    0  0.21850791414E+02  0.14475973054E+02  0.52345424969E+01  0.26728473889E+02  0.00000000000E+00 0.  1.
</event>
<event>
 8    1  0.1229941E-006  0.9118800E+02  0.7816164E-02  0.1184000E+00
        -11   -1    0    0    0    0  0.00000000000E+00  0.00000000000E+00  0.45593999997E+02  0.45594000000E+02  0.51100000000E-03 0.  1.
         11   -1    0    0    0    0 -0.00000000000E+00 -0.00000000000E+00 -0.45593999997E+02  0.45594000000E+02  0.51100000000E-03 0. -1.
         23    2    1    2    0    0 -0.17763568394E-14  0.00000000000E+00  0.71054273576E-14  0.91188000000E+02  0.91188000000E+02 0.  0.
    9900012    2    3    3    0    0 -0.10783363624E+02  0.13369265539E+01  0.35181120992E+02  0.54367087764E+02  0.40000008176E+02 0.  0.
         12    1    3    3    0    0  0.10783363624E+02 -0.13369265539E+01 -0.35181120992E+02  0.36820912236E+02  0.00000000000E+00 0. -1.
         11    1    4    4    0    0 -0.15337539283E+02 -0.10466296961E+02  0.21971732000E+02  0.28767003505E+02  0.51100000000E-03 0. -1.
        -11    1    4    4    0    0  0.80924893614E+01 -0.30471719853E+00  0.94335515535E+01  0.12432744339E+02  0.51100000000E-03 0.  1.
        -12    1    4    4    0    0 -0.35383137033E+01  0.12107940714E+02  0.37758374378E+01  0.13167339919E+02  0.00000000000E+00 0.  1.
</event>
<event>
 8    1  0.1229941E-006  0.9118800E+02  0.7816164E-02  0.1184000E+00
        -11   -1    0    0    0    0  0.00000000000E+00  0.00000000000E+00  0.45593999997E+02  0.45594000000E+02  0.51100000000E-03 0. -1.
         11   -1    0    0    0    0 -0.00000000000E+00 -0.00000000000E+00 -0.45593999997E+02  0.45594000000E+02  0.51100000000E-03 0.  1.
         23    2    1    2    0    0  0.00000000000E+00 -0.17763568394E-14  0.00000000000E+00  0.91188000000E+02  0.91188000000E+02 0.  0.
    9900012    2    3    3    0    0  0.25499788667E+02  0.98933301509E+01 -0.24650815647E+02  0.54367083178E+02  0.39999997720E+02 0.  0.
         12    1    3    3    0    0 -0.25499788667E+02 -0.98933301509E+01  0.24650815647E+02  0.36820916822E+02  0.00000000000E+00 0. -1.
         11    1    4    4    0    0 -0.92357831744E-01 -0.67713646584E+01  0.71330098946E+01  0.98356362135E+01  0.51100000000E-03 0. -1.
        -11    1    4    4    0    0  0.86040292476E+01  0.91024868455E+01 -0.11346337210E+02  0.16900412847E+02  0.51100000000E-03 0.  1.
         12    1    4    4    0    0  0.16988117252E+02  0.75622079637E+01 -0.20437488332E+02  0.27631034117E+02  0.00000000000E+00 0. -1.
</event>
<event>
 8    1  0.1229941E-006  0.9118800E+02  0.7816164E-02  0.1184000E+00
        -11   -1    0    0    0    0  0.00000000000E+00  0.00000000000E+00  0.45593999997E+02  0.45594000000E+02  0.51100000000E-03 0.  1.
         11   -1    0    0    0    0 -0.00000000000E+00 -0.00000000000E+00 -0.45593999997E+02  0.45594000000E+02  0.51100000000E-03 0. -1.
         23    2    1    2    0    0  0.00000000000E+00  0.00000000000E+00 -0.16653345369E-15  0.91188000000E+02  0.91188000000E+02 0.  0.
    9900012    2    3    3    0    0  0.16010941753E+02 -0.33156428124E+02 -0.28385889783E+00  0.54367088039E+02  0.40000008802E+02 0.  0.
         12    1    3    3    0    0 -0.16010941753E+02  0.33156428124E+02  0.28385889783E+00  0.36820911961E+02  0.00000000000E+00 0. -1.
         11    1    4    4    0    0  0.69820137185E+01  0.34737145906E+01  0.69705623547E+01  0.10459634240E+02  0.51100000000E-03 0. -1.
        -11    1    4    4    0    0 -0.10713456163E+01 -0.33323408173E+01  0.57742083956E+01  0.67523151296E+01  0.51100000000E-03 0.  1.
        -12    1    4    4    0    0  0.10100273651E+02 -0.33297801898E+02 -0.13028629648E+02  0.37155138670E+02  0.00000000000E+00 0.  1.
</event>
<event>
 8    1  0.1229941E-006  0.9118800E+02  0.7816164E-02  0.1184000E+00
        -11   -1    0    0    0    0  0.00000000000E+00  0.00000000000E+00  0.45593999997E+02  0.45594000000E+02  0.51100000000E-03 0. -1.
         11   -1    0    0    0    0 -0.00000000000E+00 -0.00000000000E+00 -0.45593999997E+02  0.45594000000E+02  0.51100000000E-03 0.  1.
         23    2    1    2    0    0  0.00000000000E+00  0.00000000000E+00  0.00000000000E+00  0.91188000000E+02  0.91188000000E+02 0.  0.
    9900012    2    3    3    0    0  0.26579285835E+02  0.23202197560E+02  0.10534673506E+02  0.54367085386E+02  0.40000002755E+02 0.  0.
        -12    1    3    3    0    0 -0.26579285835E+02 -0.23202197560E+02 -0.10534673506E+02  0.36820914614E+02  0.00000000000E+00 0.  1.
         11    1    4    4    0    0  0.13928221311E+02  0.12464092706E+02  0.19001841699E+01  0.18787220551E+02  0.51100000000E-03 0. -1.
        -11    1    4    4    0    0 -0.47938433770E+01 -0.44924833166E+01 -0.53971653153E+01  0.85025134151E+01  0.51100000000E-03 0.  1.
        -12    1    4    4    0    0  0.17444907901E+02  0.15230588170E+02  0.14031654651E+02  0.27077351420E+02  0.00000000000E+00 0.  1.
</event>
<event>
 8    1  0.1229941E-006  0.9118800E+02  0.7816164E-02  0.1184000E+00
        -11   -1    0    0    0    0  0.00000000000E+00  0.00000000000E+00  0.45593999997E+02  0.45594000000E+02  0.51100000000E-03 0. -1.
         11   -1    0    0    0    0 -0.00000000000E+00 -0.00000000000E+00 -0.45593999997E+02  0.45594000000E+02  0.51100000000E-03 0.  1.
         23    2    1    2    0    0 -0.35527136788E-14  0.00000000000E+00 -0.35527136788E-14  0.91188000000E+02  0.91188000000E+02 0.  0.
    9900012    2    3    3    0    0  0.24529183396E+02  0.43354907685E+01  0.27116453843E+02  0.54367090352E+02  0.40000014075E+02 0.  0.
        -12    1    3    3    0    0 -0.24529183396E+02 -0.43354907685E+01 -0.27116453843E+02  0.36820909648E+02  0.00000000000E+00 0.  1.
         11    1    4    4    0    0  0.17613115690E+02 -0.76861522724E+00  0.17163063326E+02  0.24604539351E+02  0.51100000000E-03 0. -1.
        -11    1    4    4    0    0 -0.98463106408E+01  0.47576781569E+01  0.16711077943E+01  0.11062456156E+02  0.51100000000E-03 0.  1.
        -12    1    4    4    0    0  0.16762378347E+02  0.34642783891E+00  0.82822827227E+01  0.18700094845E+02  0.00000000000E+00 0.  1.
</event>
<event>
 8    1  0.1229941E-006  0.9118800E+02  0.7816164E-02  0.1184000E+00
        -11   -1    0    0    0    0  0.00000000000E+00  0.00000000000E+00  0.45593999997E+02  0.45594000000E+02  0.51100000000E-03 0. -1.
         11   -1    0    0    0    0 -0.00000000000E+00 -0.00000000000E+00 -0.45593999997E+02  0.45594000000E+02  0.51100000000E-03 0.  1.
         23    2    1    2    0    0 -0.71054273576E-14  0.00000000000E+00 -0.35527136788E-14  0.91188000000E+02  0.91188000000E+02 0.  0.
    9900012    2    3    3    0    0 -0.28404879114E+02 -0.31316599927E+01 -0.23219284035E+02  0.54367087425E+02  0.40000007402E+02 0.  0.
         12    1    3    3    0    0  0.28404879114E+02  0.31316599927E+01  0.23219284035E+02  0.36820912575E+02  0.00000000000E+00 0. -1.
         11    1    4    4    0    0  0.14877936197E+01 -0.71259153863E+01 -0.47785641132E+01  0.87078628372E+01  0.51100000000E-03 0. -1.
        -11    1    4    4    0    0 -0.34731576990E+02  0.97273984930E+00 -0.11336176702E+02  0.36547743645E+02  0.51100000000E-03 0.  1.
         12    1    4    4    0    0  0.48389042572E+01  0.30215155443E+01 -0.71045432206E+01  0.91114809426E+01  0.00000000000E+00 0. -1.
</event>
<event>
 8    1  0.1229941E-006  0.9118800E+02  0.7816164E-02  0.1184000E+00
        -11   -1    0    0    0    0  0.00000000000E+00  0.00000000000E+00  0.45593999997E+02  0.45594000000E+02  0.51100000000E-03 0.  1.
         11   -1    0    0    0    0 -0.00000000000E+00 -0.00000000000E+00 -0.45593999997E+02  0.45594000000E+02  0.51100000000E-03 0. -1.
         23    2    1    2    0    0  0.00000000000E+00  0.00000000000E+00 -0.17763568394E-14  0.91188000000E+02  0.91188000000E+02 0.  0.
    9900012    2    3    3    0    0  0.10362050245E+02  0.34002213407E+02 -0.96050506725E+01  0.54367087460E+02  0.40000007483E+02 0.  0.
        -12    1    3    3    0    0 -0.10362050245E+02 -0.34002213407E+02  0.96050506725E+01  0.36820912540E+02  0.00000000000E+00 0.  1.
         11    1    4    4    0    0  0.11241479306E+02  0.19943024061E+02 -0.99148771666E+01  0.24947942905E+02  0.51100000000E-03 0. -1.
        -11    1    4    4    0    0 -0.61630680605E+01 -0.41187336402E+01 -0.59239004372E+01  0.94889394227E+01  0.51100000000E-03 0.  1.
         12    1    4    4    0    0  0.52836389996E+01  0.18177922986E+02  0.62337269314E+01  0.19930205132E+02  0.00000000000E+00 0. -1.
</event>
<event>
 8    1  0.1229941E-006  0.9118800E+02  0.7816164E-02  0.1184000E+00
        -11   -1    0    0    0    0  0.00000000000E+00  0.00000000000E+00  0.45593999997E+02  0.45594000000E+02  0.51100000000E-03 0.  1.
         11   -1    0    0    0    0 -0.00000000000E+00 -0.00000000000E+00 -0.45593999997E+02  0.45594000000E+02  0.51100000000E-03 0. -1.
         23    2    1    2    0    0 -0.35527136788E-14 -0.17763568394E-14  0.00000000000E+00  0.91188000000E+02  0.91188000000E+02 0.  0.
    9900012    2    3    3    0    0 -0.31945543876E+02  0.14554660782E+02 -0.11109605112E+02  0.54367092220E+02  0.40000018333E+02 0.  0.
        -12    1    3    3    0    0  0.31945543876E+02 -0.14554660782E+02  0.11109605112E+02  0.36820907780E+02  0.00000000000E+00 0.  1.
         11    1    4    4    0    0 -0.45701972518E+01  0.15279367085E+02  0.67735852999E+01  0.17327066096E+02  0.51100000000E-03 0. -1.
        -11    1    4    4    0    0 -0.62271043818E+01 -0.46401554417E+01 -0.12749122077E+02  0.14928093834E+02  0.51100000000E-03 0.  1.
        -12    1    4    4    0    0 -0.21148242243E+02  0.39154491390E+01 -0.51340683346E+01  0.22111932290E+02  0.00000000000E+00 0.  1.
</event>
<event>
 8    1  0.1229941E-006  0.9118800E+02  0.7816164E-02  0.1184000E+00
        -11   -1    0    0    0    0  0.00000000000E+00  0.00000000000E+00  0.45593999997E+02  0.45594000000E+02  0.51100000000E-03 0. -1.
         11   -1    0    0    0    0 -0.00000000000E+00 -0.00000000000E+00 -0.45593999997E+02  0.45594000000E+02  0.51100000000E-03 0.  1.
         23    2    1    2    0    0  0.00000000000E+00  0.00000000000E+00 -0.35527136788E-14  0.91188000000E+02  0.91188000000E+02 0.  0.
    9900012    2    3    3    0    0 -0.19182052105E+02  0.58985162629E+01 -0.30871330209E+02  0.54367046103E+02  0.39999913200E+02 0.  0.
         12    1    3    3    0    0  0.19182052105E+02 -0.58985162629E+01  0.30871330209E+02  0.36820953897E+02  0.00000000000E+00 0. -1.
         11    1    4    4    0    0 -0.26768217481E+02  0.60492264545E+01 -0.10090723037E+02  0.29239584461E+02  0.51100000000E-03 0. -1.
        -11    1    4    4    0    0 -0.11661734504E+00  0.22109895844E+01 -0.15119388039E+02  0.15280640349E+02  0.51100000000E-03 0.  1.
         12    1    4    4    0    0  0.77027827213E+01 -0.23616997761E+01 -0.56612191334E+01  0.98468212922E+01  0.00000000000E+00 0. -1.
</event>
<event>
 8    1  0.1229941E-006  0.9118800E+02  0.7816164E-02  0.1184000E+00
        -11   -1    0    0    0    0  0.00000000000E+00  0.00000000000E+00  0.45593999997E+02  0.45594000000E+02  0.51100000000E-03 0. -1.
         11   -1    0    0    0    0 -0.00000000000E+00 -0.00000000000E+00 -0.45593999997E+02  0.45594000000E+02  0.51100000000E-03 0.  1.
         23    2    1    2    0    0  0.35527136788E-14 -0.35527136788E-14 -0.17763568394E-14  0.91188000000E+02  0.91188000000E+02 0.  0.
    9900012    2    3    3    0    0 -0.19743129439E+02 -0.29780662154E+02 -0.88932120178E+01  0.54367242018E+02  0.40000359827E+02 0.  0.
        -12    1    3    3    0    0  0.19743129439E+02  0.29780662154E+02  0.88932120178E+01  0.36820757982E+02  0.00000000000E+00 0.  1.
         11    1    4    4    0    0 -0.57126674858E+01 -0.37223204665E+01  0.58286108124E+01  0.89701139191E+01  0.51100000000E-03 0. -1.
        -11    1    4    4    0    0 -0.17637596109E+02 -0.78794526879E+01 -0.18199465298E+02  0.26540367529E+02  0.51100000000E-03 0.  1.
        -12    1    4    4    0    0  0.36071341560E+01 -0.18178888999E+02  0.34776424678E+01  0.18856760570E+02  0.00000000000E+00 0.  1.
</event>
<event>
 8    1  0.1229941E-006  0.9118800E+02  0.7816164E-02  0.1184000E+00
        -11   -1    0    0    0    0  0.00000000000E+00  0.00000000000E+00  0.45593999997E+02  0.45594000000E+02  0.51100000000E-03 0.  1.
         11   -1    0    0    0    0 -0.00000000000E+00 -0.00000000000E+00 -0.45593999997E+02  0.45594000000E+02  0.51100000000E-03 0. -1.
         23    2    1    2    0    0 -0.88817841970E-15 -0.71054273576E-14  0.00000000000E+00  0.91188000000E+02  0.91188000000E+02 0.  0.
    9900012    2    3    3    0    0 -0.46560704332E+01 -0.36497682611E+02  0.14176429693E+01  0.54367224079E+02  0.40000318931E+02 0.  0.
        -12    1    3    3    0    0  0.46560704332E+01  0.36497682611E+02 -0.14176429693E+01  0.36820775921E+02  0.00000000000E+00 0.  1.
         11    1    4    4    0    0 -0.54961510665E+01 -0.29340333055E+02  0.51102539433E+00  0.29855049280E+02  0.51100000000E-03 0. -1.
        -11    1    4    4    0    0  0.33079619641E+01  0.75316648430E+01  0.42316107766E+01  0.92506820121E+01  0.51100000000E-03 0.  1.
        -12    1    4    4    0    0 -0.24678813307E+01 -0.14689014399E+02 -0.33249932017E+01  0.15261492787E+02  0.00000000000E+00 0.  1.
</event>
<event>
 8    1  0.1229941E-006  0.9118800E+02  0.7816164E-02  0.1184000E+00
        -11   -1    0    0    0    0  0.00000000000E+00  0.00000000000E+00  0.45593999997E+02  0.45594000000E+02  0.51100000000E-03 0.  1.
         11   -1    0    0    0    0 -0.00000000000E+00 -0.00000000000E+00 -0.45593999997E+02  0.45594000000E+02  0.51100000000E-03 0. -1.
         23    2    1    2    0    0 -0.44408920985E-15  0.00000000000E+00  0.71054273576E-14  0.91188000000E+02  0.91188000000E+02 0.  0.
    9900012    2    3    3    0    0 -0.18033998049E+01  0.70288895625E+01  0.36098590302E+02  0.54367275385E+02  0.40000435893E+02 0.  0.
         12    1    3    3    0    0  0.18033998049E+01 -0.70288895625E+01 -0.36098590302E+02  0.36820724615E+02  0.00000000000E+00 0. -1.
         11    1    4    4    0    0 -0.44356297236E-01  0.16267084057E+01 -0.71669412980E+01  0.73493670168E+01  0.51100000000E-03 0. -1.
        -11    1    4    4    0    0 -0.93809575981E+01  0.35144677149E+01  0.18510655680E+02  0.21047522959E+02  0.51100000000E-03 0.  1.
         12    1    4    4    0    0  0.76219140904E+01  0.18877134419E+01  0.24754875921E+02  0.25970385409E+02  0.00000000000E+00 0. -1.
</event>
<event>
 8    1  0.1229941E-006  0.9118800E+02  0.7816164E-02  0.1184000E+00
        -11   -1    0    0    0    0  0.00000000000E+00  0.00000000000E+00  0.45593999997E+02  0.45594000000E+02  0.51100000000E-03 0. -1.
         11   -1    0    0    0    0 -0.00000000000E+00 -0.00000000000E+00 -0.45593999997E+02  0.45594000000E+02  0.51100000000E-03 0.  1.
         23    2    1    2    0    0  0.88817841970E-15  0.00000000000E+00  0.00000000000E+00  0.91188000000E+02  0.91188000000E+02 0.  0.
    9900012    2    3    3    0    0  0.11816395652E+01 -0.33428558954E+02  0.15392061669E+02  0.54367076761E+02  0.39999983091E+02 0.  0.
        -12    1    3    3    0    0 -0.11816395652E+01  0.33428558954E+02 -0.15392061669E+02  0.36820923239E+02  0.00000000000E+00 0.  1.
         11    1    4    4    0    0  0.86949094527E+01 -0.37520090674E+02  0.84355493840E+01  0.39427365474E+02  0.51100000000E-03 0. -1.
        -11    1    4    4    0    0 -0.40794442621E+01 -0.39589754035E+00  0.81880394579E+01  0.91565599859E+01  0.51100000000E-03 0.  1.
         12    1    4    4    0    0 -0.34338256254E+01  0.44874292603E+01 -0.12315271731E+01  0.57831513009E+01  0.00000000000E+00 0. -1.
</event>
<event>
 8    1  0.1229941E-006  0.9118800E+02  0.7816164E-02  0.1184000E+00
        -11   -1    0    0    0    0  0.00000000000E+00  0.00000000000E+00  0.45593999997E+02  0.45594000000E+02  0.51100000000E-03 0. -1.
         11   -1    0    0    0    0 -0.00000000000E+00 -0.00000000000E+00 -0.45593999997E+02  0.45594000000E+02  0.51100000000E-03 0.  1.
         23    2    1    2    0    0  0.00000000000E+00  0.00000000000E+00  0.00000000000E+00  0.91188000000E+02  0.91188000000E+02 0.  0.
    9900012    2    3    3    0    0 -0.23946484976E+02  0.26315197144E+02  0.94793096717E+01  0.54367067702E+02  0.39999962439E+02 0.  0.
        -12    1    3    3    0    0  0.23946484976E+02 -0.26315197144E+02 -0.94793096717E+01  0.36820932298E+02  0.00000000000E+00 0.  1.
         11    1    4    4    0    0 -0.15924039572E+01 -0.81632652379E-01 -0.41061978460E+01  0.44049148987E+01  0.51100000000E-03 0. -1.
        -11    1    4    4    0    0  0.41235693231E+01  0.20219456273E+02  0.33250603056E+01  0.20901824376E+02  0.51100000000E-03 0.  1.
         12    1    4    4    0    0 -0.26477650342E+02  0.61773735236E+01  0.10260447212E+02  0.29060328427E+02  0.00000000000E+00 0. -1.
</event>
<event>
 8    1  0.1229941E-006  0.9118800E+02  0.7816164E-02  0.1184000E+00
        -11   -1    0    0    0    0  0.00000000000E+00  0.00000000000E+00  0.45593999997E+02  0.45594000000E+02  0.51100000000E-03 0.  1.
         11   -1    0    0    0    0 -0.00000000000E+00 -0.00000000000E+00 -0.45593999997E+02  0.45594000000E+02  0.51100000000E-03 0. -1.
         23    2    1    2    0    0  0.35527136788E-14 -0.71054273576E-14 -0.88817841970E-15  0.91188000000E+02  0.91188000000E+02 0.  0.
    9900012    2    3    3    0    0  0.30317973267E+02 -0.19763515640E+02  0.67826923529E+01  0.54367068873E+02  0.39999965110E+02 0.  0.
        -12    1    3    3    0    0 -0.30317973267E+02  0.19763515640E+02 -0.67826923529E+01  0.36820931127E+02  0.00000000000E+00 0.  1.
         11    1    4    4    0    0  0.17777458063E+02 -0.15471839027E+00 -0.13022544769E+02  0.22037436909E+02  0.51100000000E-03 0. -1.
        -11    1    4    4    0    0 -0.14207799618E+01 -0.51902477220E+00  0.49171131514E-01  0.15134135176E+01  0.51100000000E-03 0.  1.
         12    1    4    4    0    0  0.13961295166E+02 -0.19089772478E+02  0.19756065990E+02  0.30816218447E+02  0.00000000000E+00 0. -1.
</event>
<event>
 8    1  0.1229941E-006  0.9118800E+02  0.7816164E-02  0.1184000E+00
        -11   -1    0    0    0    0  0.00000000000E+00  0.00000000000E+00  0.45593999997E+02  0.45594000000E+02  0.51100000000E-03 0. -1.
         11   -1    0    0    0    0 -0.00000000000E+00 -0.00000000000E+00 -0.45593999997E+02  0.45594000000E+02  0.51100000000E-03 0.  1.
         23    2    1    2    0    0  0.00000000000E+00  0.00000000000E+00  0.00000000000E+00  0.91188000000E+02  0.91188000000E+02 0.  0.
    9900012    2    3    3    0    0  0.13880193750E+02  0.28249744914E+02 -0.19106886048E+02  0.54367068986E+02  0.39999965368E+02 0.  0.
        -12    1    3    3    0    0 -0.13880193750E+02 -0.28249744914E+02  0.19106886048E+02  0.36820931014E+02  0.00000000000E+00 0.  1.
         11    1    4    4    0    0  0.21100354444E+02  0.14029075300E+02 -0.42574672324E+01  0.25693694536E+02  0.51100000000E-03 0. -1.
        -11    1    4    4    0    0 -0.20020683930E+01  0.95992073268E+01 -0.18400750953E+02  0.20850436327E+02  0.51100000000E-03 0.  1.
         12    1    4    4    0    0 -0.52180923004E+01  0.46214622873E+01  0.35513321366E+01  0.78229381228E+01  0.00000000000E+00 0. -1.
</event>
<event>
 8    1  0.1229941E-006  0.9118800E+02  0.7816164E-02  0.1184000E+00
        -11   -1    0    0    0    0  0.00000000000E+00  0.00000000000E+00  0.45593999997E+02  0.45594000000E+02  0.51100000000E-03 0. -1.
         11   -1    0    0    0    0 -0.00000000000E+00 -0.00000000000E+00 -0.45593999997E+02  0.45594000000E+02  0.51100000000E-03 0.  1.
         23    2    1    2    0    0  0.71054273576E-14  0.00000000000E+00  0.00000000000E+00  0.91188000000E+02  0.91188000000E+02 0.  0.
    9900012    2    3    3    0    0  0.33272396789E+02  0.15252863603E+02 -0.40097572352E+01  0.54367076746E+02  0.39999983058E+02 0.  0.
         12    1    3    3    0    0 -0.33272396789E+02 -0.15252863603E+02  0.40097572352E+01  0.36820923254E+02  0.00000000000E+00 0. -1.
         11    1    4    4    0    0  0.15526697799E+02  0.57726830537E+01  0.15296008149E+02  0.22547063661E+02  0.51100000000E-03 0. -1.
        -11    1    4    4    0    0  0.12024665962E+02 -0.18603417586E+01 -0.65499151258E+01  0.13818641445E+02  0.51100000000E-03 0.  1.
         12    1    4    4    0    0  0.57210330284E+01  0.11340522308E+02 -0.12755850258E+02  0.18001371641E+02  0.00000000000E+00 0. -1.
</event>
<event>
 8    1  0.1229941E-006  0.9118800E+02  0.7816164E-02  0.1184000E+00
        -11   -1    0    0    0    0  0.00000000000E+00  0.00000000000E+00  0.45593999997E+02  0.45594000000E+02  0.51100000000E-03 0.  1.
         11   -1    0    0    0    0 -0.00000000000E+00 -0.00000000000E+00 -0.45593999997E+02  0.45594000000E+02  0.51100000000E-03 0. -1.
         23    2    1    2    0    0  0.71054273576E-14 -0.35527136788E-14 -0.10477729795E-14  0.91188000000E+02  0.91188000000E+02 0.  0.
    9900012    2    3    3    0    0 -0.31291710599E+02 -0.19406422993E+02  0.14788943544E-01  0.54367073555E+02  0.39999975782E+02 0.  0.
        -12    1    3    3    0    0  0.31291710599E+02  0.19406422993E+02 -0.14788943544E-01  0.36820926445E+02  0.00000000000E+00 0.  1.
         11    1    4    4    0    0 -0.20517587070E+01 -0.68685903114E+00 -0.11109499497E+02  0.11318236101E+02  0.51100000000E-03 0. -1.
        -11    1    4    4    0    0 -0.16367562975E+02 -0.19374254959E+02  0.15153546424E+02  0.29544692289E+02  0.51100000000E-03 0.  1.
         12    1    4    4    0    0 -0.12872388916E+02  0.65469099639E+00 -0.40292579841E+01  0.13504145164E+02  0.00000000000E+00 0. -1.
</event>
<event>
 8    1  0.1229941E-006  0.9118800E+02  0.7816164E-02  0.1184000E+00
        -11   -1    0    0    0    0  0.00000000000E+00  0.00000000000E+00  0.45593999997E+02  0.45594000000E+02  0.51100000000E-03 0. -1.
         11   -1    0    0    0    0 -0.00000000000E+00 -0.00000000000E+00 -0.45593999997E+02  0.45594000000E+02  0.51100000000E-03 0.  1.
         23    2    1    2    0    0 -0.35527136788E-14 -0.44408920985E-15  0.00000000000E+00  0.91188000000E+02  0.91188000000E+02 0.  0.
    9900012    2    3    3    0    0  0.26214357523E+02  0.29470087276E+01  0.25688577286E+02  0.54367076549E+02  0.39999982609E+02 0.  0.
        -12    1    3    3    0    0 -0.26214357523E+02 -0.29470087276E+01 -0.25688577286E+02  0.36820923451E+02  0.00000000000E+00 0.  1.
         11    1    4    4    0    0  0.73556746861E+01 -0.43872405721E+01  0.29405843447E+00  0.85697316498E+01  0.51100000000E-03 0. -1.
        -11    1    4    4    0    0  0.16429359217E+02  0.17810325802E+02  0.25315608287E+02  0.35042996057E+02  0.51100000000E-03 0.  1.
        -12    1    4    4    0    0  0.24293236196E+01 -0.10476076503E+02  0.78910564831E-01  0.10754348842E+02  0.00000000000E+00 0.  1.
</event>
<event>
 8    1  0.1229941E-006  0.9118800E+02  0.7816164E-02  0.1184000E+00
        -11   -1    0    0    0    0  0.00000000000E+00  0.00000000000E+00  0.45593999997E+02  0.45594000000E+02  0.51100000000E-03 0. -1.
         11   -1    0    0    0    0 -0.00000000000E+00 -0.00000000000E+00 -0.45593999997E+02  0.45594000000E+02  0.51100000000E-03 0.  1.
         23    2    1    2    0    0  0.00000000000E+00  0.00000000000E+00  0.00000000000E+00  0.91188000000E+02  0.91188000000E+02 0.  0.
    9900012    2    3    3    0    0  0.23124177741E+02  0.27524194921E+02  0.79668285068E+01  0.54367092098E+02  0.40000018057E+02 0.  0.
        -12    1    3    3    0    0 -0.23124177741E+02 -0.27524194921E+02 -0.79668285068E+01  0.36820907902E+02  0.00000000000E+00 0.  1.
         11    1    4    4    0    0  0.12678567614E+02  0.17716201030E+02  0.73794136174E+01  0.23001426070E+02  0.51100000000E-03 0. -1.
        -11    1    4    4    0    0 -0.81926964734E+01 -0.17659038291E+01 -0.34403571057E+01  0.90595115274E+01  0.51100000000E-03 0.  1.
        -12    1    4    4    0    0  0.18638306600E+02  0.11573897720E+02  0.40277719951E+01  0.22306154501E+02  0.00000000000E+00 0.  1.
</event>
<event>
 8    1  0.1229941E-006  0.9118800E+02  0.7816164E-02  0.1184000E+00
        -11   -1    0    0    0    0  0.00000000000E+00  0.00000000000E+00  0.45593999997E+02  0.45594000000E+02  0.51100000000E-03 0. -1.
         11   -1    0    0    0    0 -0.00000000000E+00 -0.00000000000E+00 -0.45593999997E+02  0.45594000000E+02  0.51100000000E-03 0.  1.
         23    2    1    2    0    0 -0.35527136788E-14 -0.35527136788E-14  0.35527136788E-14  0.91188000000E+02  0.91188000000E+02 0.  0.
    9900012    2    3    3    0    0  0.14059388808E+02  0.21209178666E+02 -0.26613571910E+02  0.54367110778E+02  0.40000060640E+02 0.  0.
         12    1    3    3    0    0 -0.14059388808E+02 -0.21209178666E+02  0.26613571910E+02  0.36820889222E+02  0.00000000000E+00 0. -1.
         11    1    4    4    0    0  0.16422016511E+02 -0.17321747398E+01 -0.10601949071E+02  0.19623566954E+02  0.51100000000E-03 0. -1.
        -11    1    4    4    0    0 -0.81600753134E+01  0.11337178524E+01 -0.49743405058E+01  0.96237315537E+01  0.51100000000E-03 0.  1.
        -12    1    4    4    0    0  0.57974476110E+01  0.21807635553E+02 -0.11037282333E+02  0.25119812271E+02  0.00000000000E+00 0.  1.
</event>
<event>
 8    1  0.1229941E-006  0.9118800E+02  0.7816164E-02  0.1184000E+00
        -11   -1    0    0    0    0  0.00000000000E+00  0.00000000000E+00  0.45593999997E+02  0.45594000000E+02  0.51100000000E-03 0.  1.
         11   -1    0    0    0    0 -0.00000000000E+00 -0.00000000000E+00 -0.45593999997E+02  0.45594000000E+02  0.51100000000E-03 0. -1.
         23    2    1    2    0    0  0.00000000000E+00  0.00000000000E+00  0.00000000000E+00  0.91188000000E+02  0.91188000000E+02 0.  0.
    9900012    2    3    3    0    0 -0.29303999739E+02  0.89146758491E+01  0.20434863100E+02  0.54367089146E+02  0.40000011327E+02 0.  0.
         12    1    3    3    0    0  0.29303999739E+02 -0.89146758491E+01 -0.20434863100E+02  0.36820910854E+02  0.00000000000E+00 0. -1.
         11    1    4    4    0    0 -0.17025585097E+02  0.24086780613E+02  0.11235345989E+02  0.31563848751E+02  0.51100000000E-03 0. -1.
        -11    1    4    4    0    0 -0.27515730120E+01 -0.82887925677E+01  0.60846594004E+01  0.10644168194E+02  0.51100000000E-03 0.  1.
         12    1    4    4    0    0 -0.95268416294E+01 -0.68833121967E+01  0.31148577106E+01  0.12159072201E+02  0.00000000000E+00 0. -1.
</event>
<event>
 8    1  0.1229941E-006  0.9118800E+02  0.7816164E-02  0.1184000E+00
        -11   -1    0    0    0    0  0.00000000000E+00  0.00000000000E+00  0.45593999997E+02  0.45594000000E+02  0.51100000000E-03 0.  1.
         11   -1    0    0    0    0 -0.00000000000E+00 -0.00000000000E+00 -0.45593999997E+02  0.45594000000E+02  0.51100000000E-03 0. -1.
         23    2    1    2    0    0 -0.71054273576E-14  0.17763568394E-14  0.00000000000E+00  0.91188000000E+02  0.91188000000E+02 0.  0.
    9900012    2    3    3    0    0  0.30770475017E+02 -0.10464110249E+02  0.17304870966E+02  0.54367105181E+02  0.40000047882E+02 0.  0.
         12    1    3    3    0    0 -0.30770475017E+02  0.10464110249E+02 -0.17304870966E+02  0.36820894819E+02  0.00000000000E+00 0. -1.
         11    1    4    4    0    0  0.20394982099E+01 -0.82572547359E+01 -0.36815443690E+00  0.85133628298E+01  0.51100000000E-03 0. -1.
        -11    1    4    4    0    0 -0.55300710014E+01 -0.51908240610E+00 -0.24649727706E+01  0.60767773405E+01  0.51100000000E-03 0.  1.
        -12    1    4    4    0    0  0.34261047809E+02 -0.16877731065E+01  0.20137998174E+02  0.39776965011E+02  0.00000000000E+00 0.  1.
</event>
<event>
 8    1  0.1229941E-006  0.9118800E+02  0.7816164E-02  0.1184000E+00
        -11   -1    0    0    0    0  0.00000000000E+00  0.00000000000E+00  0.45593999997E+02  0.45594000000E+02  0.51100000000E-03 0.  1.
         11   -1    0    0    0    0 -0.00000000000E+00 -0.00000000000E+00 -0.45593999997E+02  0.45594000000E+02  0.51100000000E-03 0. -1.
         23    2    1    2    0    0 -0.88817841970E-15  0.00000000000E+00 -0.17763568394E-14  0.91188000000E+02  0.91188000000E+02 0.  0.
    9900012    2    3    3    0    0  0.77006186318E+01 -0.32292882286E+02  0.15926413086E+02  0.54367076499E+02  0.39999982495E+02 0.  0.
         12    1    3    3    0    0 -0.77006186318E+01  0.32292882286E+02 -0.15926413086E+02  0.36820923501E+02  0.00000000000E+00 0. -1.
         11    1    4    4    0    0 -0.73832336006E+00 -0.22633971683E+02 -0.97626461917E+01  0.24660718896E+02  0.51100000000E-03 0. -1.
        -11    1    4    4    0    0  0.18446871349E+01 -0.20466230384E+01  0.14037671253E+02  0.14305514704E+02  0.51100000000E-03 0.  1.
        -12    1    4    4    0    0  0.65942548570E+01 -0.76122875647E+01  0.11651388025E+02  0.15400842899E+02  0.00000000000E+00 0.  1.
</event>
<event>
 8    1  0.1229941E-006  0.9118800E+02  0.7816164E-02  0.1184000E+00
        -11   -1    0    0    0    0  0.00000000000E+00  0.00000000000E+00  0.45593999997E+02  0.45594000000E+02  0.51100000000E-03 0. -1.
         11   -1    0    0    0    0 -0.00000000000E+00 -0.00000000000E+00 -0.45593999997E+02  0.45594000000E+02  0.51100000000E-03 0.  1.
         23    2    1    2    0    0  0.88817841970E-15  0.00000000000E+00  0.35527136788E-14  0.91188000000E+02  0.91188000000E+02 0.  0.
    9900012    2    3    3    0    0  0.59598566321E+01  0.19856785928E+02  0.30429707088E+02  0.54367096807E+02  0.40000028792E+02 0.  0.
        -12    1    3    3    0    0 -0.59598566321E+01 -0.19856785928E+02 -0.30429707088E+02  0.36820903193E+02  0.00000000000E+00 0.  1.
         11    1    4    4    0    0 -0.59060517280E+01  0.30510740384E+01  0.76692023755E+01  0.10149244560E+02  0.51100000000E-03 0. -1.
        -11    1    4    4    0    0 -0.19862845990E+01  0.18448931718E+02  0.23859219319E+02  0.30225332997E+02  0.51100000000E-03 0.  1.
        -12    1    4    4    0    0  0.13852192959E+02 -0.16432198281E+01 -0.10987146062E+01  0.13992519250E+02  0.00000000000E+00 0.  1.
</event>
<event>
 8    1  0.1229941E-006  0.9118800E+02  0.7816164E-02  0.1184000E+00
        -11   -1    0    0    0    0  0.00000000000E+00  0.00000000000E+00  0.45593999997E+02  0.45594000000E+02  0.51100000000E-03 0.  1.
         11   -1    0    0    0    0 -0.00000000000E+00 -0.00000000000E+00 -0.45593999997E+02  0.45594000000E+02  0.51100000000E-03 0. -1.
         23    2    1    2    0    0 -0.44408920985E-15 -0.24424906542E-14  0.71054273576E-14  0.91188000000E+02  0.91188000000E+02 0.  0.
    9900012    2    3    3    0    0  0.28004740141E+01  0.99115836619E+00 -0.36700878789E+02  0.54367088095E+02  0.40000008931E+02 0.  0.
        -12    1    3    3    0    0 -0.28004740141E+01 -0.99115836619E+00  0.36700878789E+02  0.36820911905E+02  0.00000000000E+00 0.  1.
         11    1    4    4    0    0  0.21410654936E+01  0.13863526210E+02 -0.87452168299E+01  0.16530587953E+02  0.51100000000E-03 0. -1.
        -11    1    4    4    0    0  0.34032109073E+01 -0.12712601041E+02 -0.31034404089E+02  0.33709439436E+02  0.51100000000E-03 0.  1.
        -12    1    4    4    0    0 -0.27438023868E+01 -0.15976680307E+00  0.30787421295E+01  0.41270607058E+01  0.00000000000E+00 0.  1.
</event>
<event>
 8    1  0.1229941E-006  0.9118800E+02  0.7816164E-02  0.1184000E+00
        -11   -1    0    0    0    0  0.00000000000E+00  0.00000000000E+00  0.45593999997E+02  0.45594000000E+02  0.51100000000E-03 0. -1.
         11   -1    0    0    0    0 -0.00000000000E+00 -0.00000000000E+00 -0.45593999997E+02  0.45594000000E+02  0.51100000000E-03 0.  1.
         23    2    1    2    0    0  0.00000000000E+00 -0.17763568394E-14 -0.44408920985E-15  0.91188000000E+02  0.91188000000E+02 0.  0.
    9900012    2    3    3    0    0 -0.35852630331E+02 -0.79894432361E+01 -0.25574442336E+01  0.54367043658E+02  0.39999907628E+02 0.  0.
         12    1    3    3    0    0  0.35852630331E+02  0.79894432361E+01  0.25574442336E+01  0.36820956342E+02  0.00000000000E+00 0. -1.
         11    1    4    4    0    0  0.11138239780E+01  0.46389424591E+01  0.17121510730E+01  0.50687131060E+01  0.51100000000E-03 0. -1.
        -11    1    4    4    0    0 -0.21271555053E+02 -0.10906469139E+02 -0.16736118075E+02  0.29180948784E+02  0.51100000000E-03 0.  1.
         12    1    4    4    0    0 -0.15694899256E+02 -0.17219165565E+01  0.12466522768E+02  0.20117381768E+02  0.00000000000E+00 0. -1.
</event>
<event>
 8    1  0.1229941E-006  0.9118800E+02  0.7816164E-02  0.1184000E+00
        -11   -1    0    0    0    0  0.00000000000E+00  0.00000000000E+00  0.45593999997E+02  0.45594000000E+02  0.51100000000E-03 0.  1.
         11   -1    0    0    0    0 -0.00000000000E+00 -0.00000000000E+00 -0.45593999997E+02  0.45594000000E+02  0.51100000000E-03 0. -1.
         23    2    1    2    0    0  0.00000000000E+00  0.17763568394E-14  0.00000000000E+00  0.91188000000E+02  0.91188000000E+02 0.  0.
    9900012    2    3    3    0    0  0.27662795713E+02  0.48196225243E+01 -0.23818476144E+02  0.54367097868E+02  0.40000031211E+02 0.  0.
        -12    1    3    3    0    0 -0.27662795713E+02 -0.48196225243E+01  0.23818476144E+02  0.36820902132E+02  0.00000000000E+00 0.  1.
         11    1    4    4    0    0  0.67309479277E+00  0.93807553772E+01 -0.48007976691E+01  0.10559322259E+02  0.51100000000E-03 0. -1.
        -11    1    4    4    0    0  0.24566692941E+02 -0.14558998466E+02 -0.10412166239E+02  0.30395724114E+02  0.51100000000E-03 0.  1.
        -12    1    4    4    0    0  0.24230079801E+01  0.99978656126E+01 -0.86055122361E+01  0.13412051496E+02  0.00000000000E+00 0.  1.
</event>
<event>
 8    1  0.1229941E-006  0.9118800E+02  0.7816164E-02  0.1184000E+00
        -11   -1    0    0    0    0  0.00000000000E+00  0.00000000000E+00  0.45593999997E+02  0.45594000000E+02  0.51100000000E-03 0.  1.
         11   -1    0    0    0    0 -0.00000000000E+00 -0.00000000000E+00 -0.45593999997E+02  0.45594000000E+02  0.51100000000E-03 0. -1.
         23    2    1    2    0    0 -0.88817841970E-15  0.35527136788E-14  0.00000000000E+00  0.91188000000E+02  0.91188000000E+02 0.  0.
    9900012    2    3    3    0    0 -0.40443835911E+01 -0.20462725088E+02 -0.30343062170E+02  0.54367060597E+02  0.39999946243E+02 0.  0.
         12    1    3    3    0    0  0.40443835911E+01  0.20462725088E+02  0.30343062170E+02  0.36820939403E+02  0.00000000000E+00 0. -1.
         11    1    4    4    0    0 -0.39223014588E+01  0.69145277471E+01 -0.18662967984E+01  0.81656724586E+01  0.51100000000E-03 0. -1.
        -11    1    4    4    0    0  0.57344677177E+01 -0.49278941915E+01  0.20734313000E+01  0.78401134421E+01  0.51100000000E-03 0.  1.
        -12    1    4    4    0    0 -0.58565498499E+01 -0.22449358643E+02 -0.30550196672E+02  0.38361274696E+02  0.00000000000E+00 0.  1.
</event>
<event>
 8    1  0.1229941E-006  0.9118800E+02  0.7816164E-02  0.1184000E+00
        -11   -1    0    0    0    0  0.00000000000E+00  0.00000000000E+00  0.45593999997E+02  0.45594000000E+02  0.51100000000E-03 0.  1.
         11   -1    0    0    0    0 -0.00000000000E+00 -0.00000000000E+00 -0.45593999997E+02  0.45594000000E+02  0.51100000000E-03 0. -1.
         23    2    1    2    0    0  0.35527136788E-14  0.35527136788E-14  0.00000000000E+00  0.91188000000E+02  0.91188000000E+02 0.  0.
    9900012    2    3    3    0    0 -0.27766838771E+02  0.23032991710E+02 -0.73652650983E+01  0.54367310539E+02  0.40000516031E+02 0.  0.
         12    1    3    3    0    0  0.27766838771E+02 -0.23032991710E+02  0.73652650983E+01  0.36820689461E+02  0.00000000000E+00 0. -1.
         11    1    4    4    0    0  0.36157947629E+01  0.13199481084E+02  0.10521192071E+01  0.13726151235E+02  0.51100000000E-03 0. -1.
        -11    1    4    4    0    0 -0.85504449252E+01  0.12626017102E+02  0.20191908504E+01  0.15381922774E+02  0.51100000000E-03 0.  1.
        -12    1    4    4    0    0 -0.22832188608E+02 -0.27925064752E+01 -0.10436575156E+02  0.25259236529E+02  0.00000000000E+00 0.  1.
</event>
<event>
 8    1  0.1229941E-006  0.9118800E+02  0.7816164E-02  0.1184000E+00
        -11   -1    0    0    0    0  0.00000000000E+00  0.00000000000E+00  0.45593999997E+02  0.45594000000E+02  0.51100000000E-03 0. -1.
         11   -1    0    0    0    0 -0.00000000000E+00 -0.00000000000E+00 -0.45593999997E+02  0.45594000000E+02  0.51100000000E-03 0.  1.
         23    2    1    2    0    0  0.00000000000E+00 -0.33306690739E-15  0.00000000000E+00  0.91188000000E+02  0.91188000000E+02 0.  0.
    9900012    2    3    3    0    0  0.11438588035E+02 -0.59128093329E+00 -0.34994107153E+02  0.54367103150E+02  0.40000043251E+02 0.  0.
         12    1    3    3    0    0 -0.11438588035E+02  0.59128093329E+00  0.34994107153E+02  0.36820896850E+02  0.00000000000E+00 0. -1.
         11    1    4    4    0    0  0.87077156128E+01 -0.71932861310E+01  0.31912242375E+01  0.11736762286E+02  0.51100000000E-03 0. -1.
        -11    1    4    4    0    0 -0.39859948567E+01 -0.12558334789E+00 -0.29453128525E+02  0.29721889346E+02  0.51100000000E-03 0.  1.
        -12    1    4    4    0    0  0.67168672793E+01  0.67275885456E+01 -0.87322028663E+01  0.12908451518E+02  0.00000000000E+00 0.  1.
</event>
<event>
 8    1  0.1229941E-006  0.9118800E+02  0.7816164E-02  0.1184000E+00
        -11   -1    0    0    0    0  0.00000000000E+00  0.00000000000E+00  0.45593999997E+02  0.45594000000E+02  0.51100000000E-03 0. -1.
         11   -1    0    0    0    0 -0.00000000000E+00 -0.00000000000E+00 -0.45593999997E+02  0.45594000000E+02  0.51100000000E-03 0.  1.
         23    2    1    2    0    0  0.35527136788E-14  0.00000000000E+00  0.35527136788E-14  0.91188000000E+02  0.91188000000E+02 0.  0.
    9900012    2    3    3    0    0  0.22786860135E+02 -0.12722432759E+02  0.25974574781E+02  0.54367084406E+02  0.40000000519E+02 0.  0.
        -12    1    3    3    0    0 -0.22786860135E+02  0.12722432759E+02 -0.25974574781E+02  0.36820915594E+02  0.00000000000E+00 0.  1.
         11    1    4    4    0    0  0.19297319915E+02 -0.10540646226E+02  0.28714456406E+02  0.36166445578E+02  0.51100000000E-03 0. -1.
        -11    1    4    4    0    0  0.10582923011E+02 -0.71167985086E+00 -0.50188930251E+00  0.10618692989E+02  0.51100000000E-03 0.  1.
        -12    1    4    4    0    0 -0.70933827905E+01 -0.14701066826E+01 -0.22379923221E+01  0.75819458390E+01  0.00000000000E+00 0.  1.
</event>
<event>
 8    1  0.1229941E-006  0.9118800E+02  0.7816164E-02  0.1184000E+00
        -11   -1    0    0    0    0  0.00000000000E+00  0.00000000000E+00  0.45593999997E+02  0.45594000000E+02  0.51100000000E-03 0.  1.
         11   -1    0    0    0    0 -0.00000000000E+00 -0.00000000000E+00 -0.45593999997E+02  0.45594000000E+02  0.51100000000E-03 0. -1.
         23    2    1    2    0    0  0.66613381478E-15  0.35527136788E-14  0.35527136788E-14  0.91188000000E+02  0.91188000000E+02 0.  0.
    9900012    2    3    3    0    0  0.14645543145E+01  0.25554997782E+02 -0.26468416186E+02  0.54367083575E+02  0.39999998625E+02 0.  0.
        -12    1    3    3    0    0 -0.14645543145E+01 -0.25554997782E+02  0.26468416186E+02  0.36820916425E+02  0.00000000000E+00 0.  1.
         11    1    4    4    0    0  0.10206857573E+02  0.53801602066E+01  0.33420354067E+01  0.12012296462E+02  0.51100000000E-03 0. -1.
        -11    1    4    4    0    0  0.61419495283E+01  0.64616839572E+01 -0.14321280118E+02  0.16869379599E+02  0.51100000000E-03 0.  1.
        -12    1    4    4    0    0 -0.14884252787E+02  0.13713153618E+02 -0.15489171475E+02  0.25485407514E+02  0.00000000000E+00 0.  1.
</event>
<event>
 8    1  0.1229941E-006  0.9118800E+02  0.7816164E-02  0.1184000E+00
        -11   -1    0    0    0    0  0.00000000000E+00  0.00000000000E+00  0.45593999997E+02  0.45594000000E+02  0.51100000000E-03 0.  1.
         11   -1    0    0    0    0 -0.00000000000E+00 -0.00000000000E+00 -0.45593999997E+02  0.45594000000E+02  0.51100000000E-03 0. -1.
         23    2    1    2    0    0  0.00000000000E+00 -0.71054273576E-14 -0.17763568394E-14  0.91188000000E+02  0.91188000000E+02 0.  0.
    9900012    2    3    3    0    0  0.53802980837E+01 -0.35163708550E+02  0.95050661294E+01  0.54367078114E+02  0.39999986175E+02 0.  0.
        -12    1    3    3    0    0 -0.53802980837E+01  0.35163708550E+02 -0.95050661294E+01  0.36820921886E+02  0.00000000000E+00 0.  1.
         11    1    4    4    0    0 -0.92322947885E+01 -0.19154458867E+02 -0.72185408403E+01  0.22455197476E+02  0.51100000000E-03 0. -1.
        -11    1    4    4    0    0 -0.83971127608E+00  0.34794852731E+00 -0.22828941654E+01  0.24571913308E+01  0.51100000000E-03 0.  1.
        -12    1    4    4    0    0  0.15452304148E+02 -0.16357198210E+02  0.19006501135E+02  0.29454689307E+02  0.00000000000E+00 0.  1.
</event>
<event>
 8    1  0.1229941E-006  0.9118800E+02  0.7816164E-02  0.1184000E+00
        -11   -1    0    0    0    0  0.00000000000E+00  0.00000000000E+00  0.45593999997E+02  0.45594000000E+02  0.51100000000E-03 0. -1.
         11   -1    0    0    0    0 -0.00000000000E+00 -0.00000000000E+00 -0.45593999997E+02  0.45594000000E+02  0.51100000000E-03 0.  1.
         23    2    1    2    0    0  0.17763568394E-14 -0.35527136788E-14  0.71054273576E-14  0.91188000000E+02  0.91188000000E+02 0.  0.
    9900012    2    3    3    0    0 -0.14719701437E+02  0.18648775207E+02 -0.28130651514E+02  0.54367082281E+02  0.39999995675E+02 0.  0.
         12    1    3    3    0    0  0.14719701437E+02 -0.18648775207E+02  0.28130651514E+02  0.36820917719E+02  0.00000000000E+00 0. -1.
         11    1    4    4    0    0 -0.13367979555E+02 -0.35424449423E+01 -0.85483071186E+01  0.16258085631E+02  0.51100000000E-03 0. -1.
        -11    1    4    4    0    0  0.91526538724E+01  0.19413563949E+01 -0.89237521619E+01  0.12929551054E+02  0.51100000000E-03 0.  1.
        -12    1    4    4    0    0 -0.10504375755E+02  0.20249863754E+02 -0.10658592233E+02  0.25179445595E+02  0.00000000000E+00 0.  1.
</event>
<event>
 8    1  0.1229941E-006  0.9118800E+02  0.7816164E-02  0.1184000E+00
        -11   -1    0    0    0    0  0.00000000000E+00  0.00000000000E+00  0.45593999997E+02  0.45594000000E+02  0.51100000000E-03 0.  1.
         11   -1    0    0    0    0 -0.00000000000E+00 -0.00000000000E+00 -0.45593999997E+02  0.45594000000E+02  0.51100000000E-03 0. -1.
         23    2    1    2    0    0  0.00000000000E+00  0.17763568394E-14  0.00000000000E+00  0.91188000000E+02  0.91188000000E+02 0.  0.
    9900012    2    3    3    0    0 -0.16638009539E+02  0.15830202344E+02 -0.28781260765E+02  0.54367086935E+02  0.40000006287E+02 0.  0.
        -12    1    3    3    0    0  0.16638009539E+02 -0.15830202344E+02  0.28781260765E+02  0.36820913065E+02  0.00000000000E+00 0.  1.
         11    1    4    4    0    0 -0.47090042504E+00  0.87544701388E+01 -0.82645164361E+01  0.12048432546E+02  0.51100000000E-03 0.  1.
        -11    1    4    4    0    0 -0.19246368157E+02 -0.76005944690E+01 -0.62390929332E+01  0.21612912909E+02  0.51100000000E-03 0. -1.
         12    1    4    4    0    0  0.30792590425E+01  0.14676326674E+02 -0.14277651396E+02  0.20705741481E+02  0.00000000000E+00 0. -1.
</event>
<event>
 8    1  0.1229941E-006  0.9118800E+02  0.7816164E-02  0.1184000E+00
        -11   -1    0    0    0    0  0.00000000000E+00  0.00000000000E+00  0.45593999997E+02  0.45594000000E+02  0.51100000000E-03 0.  1.
         11   -1    0    0    0    0 -0.00000000000E+00 -0.00000000000E+00 -0.45593999997E+02  0.45594000000E+02  0.51100000000E-03 0. -1.
         23    2    1    2    0    0  0.35527136788E-14  0.00000000000E+00  0.00000000000E+00  0.91188000000E+02  0.91188000000E+02 0.  0.
    9900012    2    3    3    0    0  0.17356318518E+02 -0.19345020111E+02 -0.26082672241E+02  0.54367117517E+02  0.40000076004E+02 0.  0.
        -12    1    3    3    0    0 -0.17356318518E+02  0.19345020111E+02  0.26082672241E+02  0.36820882483E+02  0.00000000000E+00 0.  1.
         11    1    4    4    0    0  0.23041804693E+02 -0.11064193714E+02 -0.29163895158E+02  0.38779813397E+02  0.51100000000E-03 0. -1.
        -11    1    4    4    0    0 -0.76732157035E+01 -0.94346136763E+01  0.55736091651E+00  0.12173776156E+02  0.51100000000E-03 0.  1.
         12    1    4    4    0    0  0.19877295282E+01  0.11537872793E+01  0.25238620003E+01  0.34135279638E+01  0.00000000000E+00 0. -1.
</event>
<event>
 8    1  0.1229941E-006  0.9118800E+02  0.7816164E-02  0.1184000E+00
        -11   -1    0    0    0    0  0.00000000000E+00  0.00000000000E+00  0.45593999997E+02  0.45594000000E+02  0.51100000000E-03 0. -1.
         11   -1    0    0    0    0 -0.00000000000E+00 -0.00000000000E+00 -0.45593999997E+02  0.45594000000E+02  0.51100000000E-03 0.  1.
         23    2    1    2    0    0  0.00000000000E+00  0.00000000000E+00 -0.35527136788E-14  0.91188000000E+02  0.91188000000E+02 0.  0.
    9900012    2    3    3    0    0  0.17494069047E+02 -0.19962443446E+02  0.25519300038E+02  0.54367132620E+02  0.40000110434E+02 0.  0.
        -12    1    3    3    0    0 -0.17494069047E+02  0.19962443446E+02 -0.25519300038E+02  0.36820867380E+02  0.00000000000E+00 0.  1.
         11    1    4    4    0    0  0.12391457109E+02  0.34123310234E+01  0.20601206349E+02  0.24281719782E+02  0.51100000000E-03 0. -1.
        -11    1    4    4    0    0  0.18259894247E+01 -0.46810186101E+01  0.93333148352E+01  0.10599855597E+02  0.51100000000E-03 0.  1.
        -12    1    4    4    0    0  0.32766225134E+01 -0.18693755859E+02 -0.44152211457E+01  0.19485557241E+02  0.00000000000E+00 0.  1.
</event>
<event>
 8    1  0.1229941E-006  0.9118800E+02  0.7816164E-02  0.1184000E+00
        -11   -1    0    0    0    0  0.00000000000E+00  0.00000000000E+00  0.45593999997E+02  0.45594000000E+02  0.51100000000E-03 0. -1.
         11   -1    0    0    0    0 -0.00000000000E+00 -0.00000000000E+00 -0.45593999997E+02  0.45594000000E+02  0.51100000000E-03 0.  1.
         23    2    1    2    0    0  0.00000000000E+00  0.71054273576E-14  0.00000000000E+00  0.91188000000E+02  0.91188000000E+02 0.  0.
    9900012    2    3    3    0    0  0.16988405415E+02 -0.30827642012E+02  0.10808795124E+02  0.54367089058E+02  0.40000011125E+02 0.  0.
        -12    1    3    3    0    0 -0.16988405415E+02  0.30827642012E+02 -0.10808795124E+02  0.36820910942E+02  0.00000000000E+00 0.  1.
         11    1    4    4    0    0 -0.93073906852E+01 -0.24783383847E+00  0.22339703848E+01  0.95749447476E+01  0.51100000000E-03 0. -1.
        -11    1    4    4    0    0  0.43133756432E+01 -0.94359860957E+00  0.64702376231E+01  0.78332345130E+01  0.51100000000E-03 0.  1.
         12    1    4    4    0    0  0.21982420457E+02 -0.29636209564E+02  0.21045871163E+01  0.36958909797E+02  0.00000000000E+00 0. -1.
</event>
<event>
 8    1  0.1229941E-006  0.9118800E+02  0.7816164E-02  0.1184000E+00
        -11   -1    0    0    0    0  0.00000000000E+00  0.00000000000E+00  0.45593999997E+02  0.45594000000E+02  0.51100000000E-03 0. -1.
         11   -1    0    0    0    0 -0.00000000000E+00 -0.00000000000E+00 -0.45593999997E+02  0.45594000000E+02  0.51100000000E-03 0.  1.
         23    2    1    2    0    0  0.00000000000E+00  0.35527136788E-14 -0.35527136788E-14  0.91188000000E+02  0.91188000000E+02 0.  0.
    9900012    2    3    3    0    0 -0.15764483293E+02 -0.26452064144E+02  0.20187856029E+02  0.54367079832E+02  0.39999990092E+02 0.  0.
         12    1    3    3    0    0  0.15764483293E+02  0.26452064144E+02 -0.20187856029E+02  0.36820920168E+02  0.00000000000E+00 0. -1.
         11    1    4    4    0    0 -0.90469130516E+01  0.70729817546E+01  0.13395544485E+02  0.17644101535E+02  0.51100000000E-03 0. -1.
        -11    1    4    4    0    0 -0.22320684419E+01 -0.73908798967E+01  0.66756070502E+01  0.10206417830E+02  0.51100000000E-03 0.  1.
         12    1    4    4    0    0 -0.44855017997E+01 -0.26134166002E+02  0.11670449410E+00  0.26516560466E+02  0.00000000000E+00 0. -1.
</event>
<event>
 8    1  0.1229941E-006  0.9118800E+02  0.7816164E-02  0.1184000E+00
        -11   -1    0    0    0    0  0.00000000000E+00  0.00000000000E+00  0.45593999997E+02  0.45594000000E+02  0.51100000000E-03 0.  1.
         11   -1    0    0    0    0 -0.00000000000E+00 -0.00000000000E+00 -0.45593999997E+02  0.45594000000E+02  0.51100000000E-03 0. -1.
         23    2    1    2    0    0  0.00000000000E+00 -0.35527136788E-14  0.00000000000E+00  0.91188000000E+02  0.91188000000E+02 0.  0.
    9900012    2    3    3    0    0 -0.28680124879E+02  0.21233785417E+02 -0.90750966904E+01  0.54367074073E+02  0.39999976963E+02 0.  0.
         12    1    3    3    0    0  0.28680124879E+02 -0.21233785417E+02  0.90750966904E+01  0.36820925927E+02  0.00000000000E+00 0. -1.
         11    1    4    4    0    0  0.35326604829E+00 -0.46644444857E+01 -0.51192805033E+01  0.69346140768E+01  0.51100000000E-03 0.  1.
        -11    1    4    4    0    0 -0.30705058654E+00  0.14219670596E+02 -0.77404337566E+01  0.16192826403E+02  0.51100000000E-03 0. -1.
         12    1    4    4    0    0 -0.28726340341E+02  0.11678559307E+02  0.37846175695E+01  0.31239633593E+02  0.00000000000E+00 0. -1.
</event>
<event>
 8    1  0.1229941E-006  0.9118800E+02  0.7816164E-02  0.1184000E+00
        -11   -1    0    0    0    0  0.00000000000E+00  0.00000000000E+00  0.45593999997E+02  0.45594000000E+02  0.51100000000E-03 0. -1.
         11   -1    0    0    0    0 -0.00000000000E+00 -0.00000000000E+00 -0.45593999997E+02  0.45594000000E+02  0.51100000000E-03 0.  1.
         23    2    1    2    0    0 -0.38857805862E-15  0.35527136788E-14  0.00000000000E+00  0.91188000000E+02  0.91188000000E+02 0.  0.
    9900012    2    3    3    0    0 -0.10504279721E+00  0.17576475246E+02  0.32355033731E+02  0.54366922832E+02  0.39999632179E+02 0.  0.
        -12    1    3    3    0    0  0.10504279721E+00 -0.17576475246E+02 -0.32355033731E+02  0.36821077168E+02  0.00000000000E+00 0.  1.
         11    1    4    4    0    0 -0.61034096989E+01  0.56903345203E+01  0.51048578368E+01  0.97821823077E+01  0.51100000000E-03 0. -1.
        -11    1    4    4    0    0  0.13520206761E+01  0.51692032734E+01  0.33735301700E+02  0.34155807755E+02  0.51100000000E-03 0.  1.
        -12    1    4    4    0    0  0.46463462256E+01  0.67169374525E+01 -0.64851258059E+01  0.10428932769E+02  0.00000000000E+00 0.  1.
</event>
<event>
 8    1  0.1229941E-006  0.9118800E+02  0.7816164E-02  0.1184000E+00
        -11   -1    0    0    0    0  0.00000000000E+00  0.00000000000E+00  0.45593999997E+02  0.45594000000E+02  0.51100000000E-03 0. -1.
         11   -1    0    0    0    0 -0.00000000000E+00 -0.00000000000E+00 -0.45593999997E+02  0.45594000000E+02  0.51100000000E-03 0.  1.
         23    2    1    2    0    0  0.00000000000E+00 -0.35527136788E-14 -0.88817841970E-15  0.91188000000E+02  0.91188000000E+02 0.  0.
    9900012    2    3    3    0    0 -0.24408761744E+02 -0.27221502862E+02  0.43565445261E+01  0.54367118042E+02  0.40000077201E+02 0.  0.
        -12    1    3    3    0    0  0.24408761744E+02  0.27221502862E+02 -0.43565445261E+01  0.36820881958E+02  0.00000000000E+00 0.  1.
         11    1    4    4    0    0 -0.12428787056E+02 -0.92915506814E+01 -0.68174724387E+00  0.15532946961E+02  0.51100000000E-03 0. -1.
        -11    1    4    4    0    0 -0.16120571142E+02 -0.99945054580E+01 -0.99181215547E+01  0.21404020387E+02  0.51100000000E-03 0.  1.
        -12    1    4    4    0    0  0.41405964536E+01 -0.79354467224E+01  0.14956413325E+02  0.17430150694E+02  0.00000000000E+00 0.  1.
</event>
<event>
 8    1  0.1229941E-006  0.9118800E+02  0.7816164E-02  0.1184000E+00
        -11   -1    0    0    0    0  0.00000000000E+00  0.00000000000E+00  0.45593999997E+02  0.45594000000E+02  0.51100000000E-03 0.  1.
         11   -1    0    0    0    0 -0.00000000000E+00 -0.00000000000E+00 -0.45593999997E+02  0.45594000000E+02  0.51100000000E-03 0. -1.
         23    2    1    2    0    0  0.00000000000E+00  0.00000000000E+00 -0.17763568394E-14  0.91188000000E+02  0.91188000000E+02 0.  0.
    9900012    2    3    3    0    0  0.14168883584E+02  0.33553500263E+02 -0.54023287075E+01  0.54367084784E+02  0.40000001382E+02 0.  0.
        -12    1    3    3    0    0 -0.14168883584E+02 -0.33553500263E+02  0.54023287075E+01  0.36820915216E+02  0.00000000000E+00 0.  1.
         11    1    4    4    0    0  0.22431783113E+01  0.24097701289E+02 -0.16250202177E+02  0.29151331485E+02  0.51100000000E-03 0. -1.
        -11    1    4    4    0    0  0.12519692616E+02  0.49244285277E+01  0.14190163115E+02  0.19553859696E+02  0.51100000000E-03 0.  1.
         12    1    4    4    0    0 -0.59398734304E+00  0.45313704464E+01 -0.33422896460E+01  0.56618936023E+01  0.00000000000E+00 0. -1.
</event>
<event>
 8    1  0.1229941E-006  0.9118800E+02  0.7816164E-02  0.1184000E+00
        -11   -1    0    0    0    0  0.00000000000E+00  0.00000000000E+00  0.45593999997E+02  0.45594000000E+02  0.51100000000E-03 0.  1.
         11   -1    0    0    0    0 -0.00000000000E+00 -0.00000000000E+00 -0.45593999997E+02  0.45594000000E+02  0.51100000000E-03 0. -1.
         23    2    1    2    0    0  0.17763568394E-14  0.00000000000E+00  0.00000000000E+00  0.91188000000E+02  0.91188000000E+02 0.  0.
    9900012    2    3    3    0    0  0.13200825979E+02 -0.34285971707E+02  0.24480723242E+01  0.54367045090E+02  0.39999910891E+02 0.  0.
         12    1    3    3    0    0 -0.13200825979E+02  0.34285971707E+02 -0.24480723242E+01  0.36820954910E+02  0.00000000000E+00 0. -1.
         11    1    4    4    0    0  0.26485680259E+01 -0.35606537989E+02  0.21938444210E+01  0.35772243622E+02  0.51100000000E-03 0. -1.
        -11    1    4    4    0    0  0.12516506436E+02 -0.37840829570E+01  0.78514896753E+00  0.13099567793E+02  0.51100000000E-03 0.  1.
        -12    1    4    4    0    0 -0.19642484835E+01  0.51046492393E+01 -0.53092106436E+00  0.54952336746E+01  0.00000000000E+00 0.  1.
</event>
<event>
 8    1  0.1229941E-006  0.9118800E+02  0.7816164E-02  0.1184000E+00
        -11   -1    0    0    0    0  0.00000000000E+00  0.00000000000E+00  0.45593999997E+02  0.45594000000E+02  0.51100000000E-03 0. -1.
         11   -1    0    0    0    0 -0.00000000000E+00 -0.00000000000E+00 -0.45593999997E+02  0.45594000000E+02  0.51100000000E-03 0.  1.
         23    2    1    2    0    0  0.00000000000E+00  0.00000000000E+00  0.17763568394E-14  0.91188000000E+02  0.91188000000E+02 0.  0.
    9900012    2    3    3    0    0 -0.61355584255E+01 -0.34995230367E+02  0.96679255291E+01  0.54367081900E+02  0.39999994808E+02 0.  0.
        -12    1    3    3    0    0  0.61355584255E+01  0.34995230367E+02 -0.96679255291E+01  0.36820918100E+02  0.00000000000E+00 0.  1.
         11    1    4    4    0    0 -0.85964224513E+01 -0.21687406748E+02  0.80565251997E+00  0.23342903990E+02  0.51100000000E-03 0. -1.
        -11    1    4    4    0    0  0.72832334083E+01 -0.10793584719E+02 -0.66252022416E+01  0.14609594963E+02  0.51100000000E-03 0.  1.
        -12    1    4    4    0    0 -0.48223693825E+01 -0.25142388998E+01  0.15487475251E+02  0.16414582948E+02  0.00000000000E+00 0.  1.
</event>
<event>
 8    1  0.1229941E-006  0.9118800E+02  0.7816164E-02  0.1184000E+00
        -11   -1    0    0    0    0  0.00000000000E+00  0.00000000000E+00  0.45593999997E+02  0.45594000000E+02  0.51100000000E-03 0.  1.
         11   -1    0    0    0    0 -0.00000000000E+00 -0.00000000000E+00 -0.45593999997E+02  0.45594000000E+02  0.51100000000E-03 0. -1.
         23    2    1    2    0    0  0.00000000000E+00  0.35527136788E-14  0.35527136788E-14  0.91188000000E+02  0.91188000000E+02 0.  0.
    9900012    2    3    3    0    0  0.37471791329E+01  0.28121005083E+02  0.23472276813E+02  0.54367081257E+02  0.39999993340E+02 0.  0.
        -12    1    3    3    0    0 -0.37471791329E+01 -0.28121005083E+02 -0.23472276813E+02  0.36820918743E+02  0.00000000000E+00 0.  1.
         11    1    4    4    0    0  0.52466315520E+01  0.17925725938E+02  0.22177087230E+02  0.28994516574E+02  0.51100000000E-03 0. -1.
        -11    1    4    4    0    0 -0.96690647282E+01  0.60129709762E+01  0.80776347235E+01  0.13960473332E+02  0.51100000000E-03 0.  1.
         12    1    4    4    0    0  0.81696123092E+01  0.41823081685E+01 -0.67824451409E+01  0.11412091350E+02  0.00000000000E+00 0. -1.
</event>
<event>
 8    1  0.1229941E-006  0.9118800E+02  0.7816164E-02  0.1184000E+00
        -11   -1    0    0    0    0  0.00000000000E+00  0.00000000000E+00  0.45593999997E+02  0.45594000000E+02  0.51100000000E-03 0.  1.
         11   -1    0    0    0    0 -0.00000000000E+00 -0.00000000000E+00 -0.45593999997E+02  0.45594000000E+02  0.51100000000E-03 0. -1.
         23    2    1    2    0    0  0.00000000000E+00  0.35527136788E-14  0.17763568394E-14  0.91188000000E+02  0.91188000000E+02 0.  0.
    9900012    2    3    3    0    0 -0.29847055063E+02 -0.17768798605E+02  0.12214887806E+02  0.54367076819E+02  0.39999983224E+02 0.  0.
         12    1    3    3    0    0  0.29847055063E+02  0.17768798605E+02 -0.12214887806E+02  0.36820923181E+02  0.00000000000E+00 0. -1.
         11    1    4    4    0    0 -0.63019070413E+01  0.10043342825E+02  0.68174883648E+01  0.13677021434E+02  0.51100000000E-03 0. -1.
        -11    1    4    4    0    0 -0.25805922229E+02 -0.24443932778E+02  0.23618398907E+01  0.35623443962E+02  0.51100000000E-03 0.  1.
         12    1    4    4    0    0  0.22607742069E+01 -0.33682086507E+01  0.30355595501E+01  0.50666114230E+01  0.00000000000E+00 0. -1.
</event>
<event>
 8    1  0.1229941E-006  0.9118800E+02  0.7816164E-02  0.1184000E+00
        -11   -1    0    0    0    0  0.00000000000E+00  0.00000000000E+00  0.45593999997E+02  0.45594000000E+02  0.51100000000E-03 0.  1.
         11   -1    0    0    0    0 -0.00000000000E+00 -0.00000000000E+00 -0.45593999997E+02  0.45594000000E+02  0.51100000000E-03 0. -1.
         23    2    1    2    0    0  0.88817841970E-15  0.00000000000E+00  0.00000000000E+00  0.91188000000E+02  0.91188000000E+02 0.  0.
    9900012    2    3    3    0    0 -0.30138528802E+01  0.36608680275E+02  0.25493622731E+01  0.54367108801E+02  0.40000056134E+02 0.  0.
         12    1    3    3    0    0  0.30138528802E+01 -0.36608680275E+02 -0.25493622731E+01  0.36820891199E+02  0.00000000000E+00 0. -1.
         11    1    4    4    0    0  0.35161311270E+01  0.36430451322E+02 -0.80024334970E+01  0.37464381802E+02  0.51100000000E-03 0.  1.
        -11    1    4    4    0    0 -0.72018875199E+01  0.44432523715E+00  0.95470604724E+00  0.72784663675E+01  0.51100000000E-03 0. -1.
        -12    1    4    4    0    0  0.67190351265E+00 -0.26609628456E+00  0.95970897229E+01  0.96242606319E+01  0.00000000000E+00 0.  1.
</event>
<event>
 8    1  0.1229941E-006  0.9118800E+02  0.7816164E-02  0.1184000E+00
        -11   -1    0    0    0    0  0.00000000000E+00  0.00000000000E+00  0.45593999997E+02  0.45594000000E+02  0.51100000000E-03 0. -1.
         11   -1    0    0    0    0 -0.00000000000E+00 -0.00000000000E+00 -0.45593999997E+02  0.45594000000E+02  0.51100000000E-03 0.  1.
         23    2    1    2    0    0  0.00000000000E+00  0.00000000000E+00  0.00000000000E+00  0.91188000000E+02  0.91188000000E+02 0.  0.
    9900012    2    3    3    0    0 -0.55355601628E+01 -0.34121128552E+02 -0.12684039578E+02  0.54367099685E+02  0.40000035352E+02 0.  0.
         12    1    3    3    0    0  0.55355601628E+01  0.34121128552E+02  0.12684039578E+02  0.36820900315E+02  0.00000000000E+00 0. -1.
         11    1    4    4    0    0 -0.21473145612E+01 -0.14715850724E+02 -0.24317934454E+02  0.28504897100E+02  0.51100000000E-03 0. -1.
        -11    1    4    4    0    0 -0.51587668361E+01 -0.19866544665E+02  0.12284047490E+02  0.23920499477E+02  0.51100000000E-03 0.  1.
         12    1    4    4    0    0  0.17705212346E+01  0.46126683741E+00 -0.65015261485E+00  0.19417031081E+01  0.00000000000E+00 0. -1.
</event>
<event>
 8    1  0.1229941E-006  0.9118800E+02  0.7816164E-02  0.1184000E+00
        -11   -1    0    0    0    0  0.00000000000E+00  0.00000000000E+00  0.45593999997E+02  0.45594000000E+02  0.51100000000E-03 0.  1.
         11   -1    0    0    0    0 -0.00000000000E+00 -0.00000000000E+00 -0.45593999997E+02  0.45594000000E+02  0.51100000000E-03 0. -1.
         23    2    1    2    0    0 -0.35527136788E-14  0.00000000000E+00  0.00000000000E+00  0.91188000000E+02  0.91188000000E+02 0.  0.
    9900012    2    3    3    0    0  0.17397492535E+02 -0.14376194385E+02  0.29093507362E+02  0.54367083632E+02  0.39999998757E+02 0.  0.
         12    1    3    3    0    0 -0.17397492535E+02  0.14376194385E+02 -0.29093507362E+02  0.36820916368E+02  0.00000000000E+00 0. -1.
         11    1    4    4    0    0  0.75975475758E+01  0.66337490551E-01  0.45670109091E+01  0.88648022388E+01  0.51100000000E-03 0.  1.
        -11    1    4    4    0    0 -0.15290318111E+00  0.10828660729E+02  0.43638547016E+01  0.11675893999E+02  0.51100000000E-03 0. -1.
        -12    1    4    4    0    0  0.99528481402E+01 -0.25271192605E+02  0.20162641752E+02  0.33826387395E+02  0.00000000000E+00 0.  1.
</event>
<event>
 8    1  0.1229941E-006  0.9118800E+02  0.7816164E-02  0.1184000E+00
        -11   -1    0    0    0    0  0.00000000000E+00  0.00000000000E+00  0.45593999997E+02  0.45594000000E+02  0.51100000000E-03 0.  1.
         11   -1    0    0    0    0 -0.00000000000E+00 -0.00000000000E+00 -0.45593999997E+02  0.45594000000E+02  0.51100000000E-03 0. -1.
         23    2    1    2    0    0  0.00000000000E+00 -0.17763568394E-14  0.00000000000E+00  0.91188000000E+02  0.91188000000E+02 0.  0.
    9900012    2    3    3    0    0  0.17702407868E+02 -0.11395936390E+02  0.30208217392E+02  0.54367095495E+02  0.40000025800E+02 0.  0.
         12    1    3    3    0    0 -0.17702407868E+02  0.11395936390E+02 -0.30208217392E+02  0.36820904505E+02  0.00000000000E+00 0. -1.
         11    1    4    4    0    0  0.49929775806E+01  0.79352999779E+01  0.12944437411E+02  0.15983030721E+02  0.51100000000E-03 0. -1.
        -11    1    4    4    0    0  0.97752178265E+01  0.40638135201E+01  0.38996132465E+01  0.11281686382E+02  0.51100000000E-03 0.  1.
         12    1    4    4    0    0  0.29342124612E+01 -0.23395049888E+02  0.13364166734E+02  0.27102378393E+02  0.00000000000E+00 0. -1.
</event>
<event>
 8    1  0.1229941E-006  0.9118800E+02  0.7816164E-02  0.1184000E+00
        -11   -1    0    0    0    0  0.00000000000E+00  0.00000000000E+00  0.45593999997E+02  0.45594000000E+02  0.51100000000E-03 0. -1.
         11   -1    0    0    0    0 -0.00000000000E+00 -0.00000000000E+00 -0.45593999997E+02  0.45594000000E+02  0.51100000000E-03 0.  1.
         23    2    1    2    0    0  0.00000000000E+00 -0.17763568394E-14  0.00000000000E+00  0.91188000000E+02  0.91188000000E+02 0.  0.
    9900012    2    3    3    0    0 -0.15646892583E+01  0.12608188757E+02  0.34559581873E+02  0.54367090513E+02  0.40000014442E+02 0.  0.
        -12    1    3    3    0    0  0.15646892583E+01 -0.12608188757E+02 -0.34559581873E+02  0.36820909487E+02  0.00000000000E+00 0.  1.
         11    1    4    4    0    0  0.57617058469E+00 -0.57420551287E+01  0.67371477288E+01  0.88708697107E+01  0.51100000000E-03 0. -1.
        -11    1    4    4    0    0 -0.70225962641E+00 -0.87885431716E+01  0.71094459423E+01  0.11325894293E+02  0.51100000000E-03 0.  1.
        -12    1    4    4    0    0 -0.14386002166E+01  0.27138787057E+02  0.20712988202E+02  0.34170326510E+02  0.00000000000E+00 0.  1.
</event>
<event>
 8    1  0.1229941E-006  0.9118800E+02  0.7816164E-02  0.1184000E+00
        -11   -1    0    0    0    0  0.00000000000E+00  0.00000000000E+00  0.45593999997E+02  0.45594000000E+02  0.51100000000E-03 0. -1.
         11   -1    0    0    0    0 -0.00000000000E+00 -0.00000000000E+00 -0.45593999997E+02  0.45594000000E+02  0.51100000000E-03 0.  1.
         23    2    1    2    0    0  0.00000000000E+00  0.00000000000E+00 -0.17763568394E-14  0.91188000000E+02  0.91188000000E+02 0.  0.
    9900012    2    3    3    0    0  0.19823765919E+02  0.29483174707E+02 -0.96716378526E+01  0.54367083869E+02  0.39999999295E+02 0.  0.
         12    1    3    3    0    0 -0.19823765919E+02 -0.29483174707E+02  0.96716378526E+01  0.36820916131E+02  0.00000000000E+00 0. -1.
         11    1    4    4    0    0  0.46411664109E+01  0.37832385115E+01 -0.13049958022E+02  0.14358089146E+02  0.51100000000E-03 0. -1.
        -11    1    4    4    0    0  0.18523879124E+02  0.16892114586E+02 -0.69647707950E+01  0.26018948201E+02  0.51100000000E-03 0.  1.
        -12    1    4    4    0    0 -0.33412796163E+01  0.88078216097E+01  0.10343090964E+02  0.13990046522E+02  0.00000000000E+00 0.  1.
</event>
<event>
 8    1  0.1229941E-006  0.9118800E+02  0.7816164E-02  0.1184000E+00
        -11   -1    0    0    0    0  0.00000000000E+00  0.00000000000E+00  0.45593999997E+02  0.45594000000E+02  0.51100000000E-03 0. -1.
         11   -1    0    0    0    0 -0.00000000000E+00 -0.00000000000E+00 -0.45593999997E+02  0.45594000000E+02  0.51100000000E-03 0.  1.
         23    2    1    2    0    0  0.00000000000E+00 -0.71054273576E-14 -0.71054273576E-14  0.91188000000E+02  0.91188000000E+02 0.  0.
    9900012    2    3    3    0    0  0.82585493536E+01 -0.21128588490E+02 -0.29002765708E+02  0.54367064274E+02  0.39999954625E+02 0.  0.
         12    1    3    3    0    0 -0.82585493536E+01  0.21128588490E+02  0.29002765708E+02  0.36820935726E+02  0.00000000000E+00 0. -1.
         11    1    4    4    0    0  0.40973445555E+01  0.80739598677E+00  0.20187007080E+01  0.46384559387E+01  0.51100000000E-03 0. -1.
        -11    1    4    4    0    0 -0.26486292699E+01  0.20495138531E+01 -0.23425603406E+02  0.23663783283E+02  0.51100000000E-03 0.  1.
         12    1    4    4    0    0  0.68098340680E+01 -0.23985498330E+02 -0.75958630102E+01  0.26064825053E+02  0.00000000000E+00 0. -1.
</event>
<event>
 8    1  0.1229941E-006  0.9118800E+02  0.7816164E-02  0.1184000E+00
        -11   -1    0    0    0    0  0.00000000000E+00  0.00000000000E+00  0.45593999997E+02  0.45594000000E+02  0.51100000000E-03 0. -1.
         11   -1    0    0    0    0 -0.00000000000E+00 -0.00000000000E+00 -0.45593999997E+02  0.45594000000E+02  0.51100000000E-03 0.  1.
         23    2    1    2    0    0  0.35527136788E-14 -0.35527136788E-14  0.13322676296E-14  0.91188000000E+02  0.91188000000E+02 0.  0.
    9900012    2    3    3    0    0  0.26376335551E+02 -0.25523036541E+02  0.29399432321E+01  0.54367085596E+02  0.40000003232E+02 0.  0.
        -12    1    3    3    0    0 -0.26376335551E+02  0.25523036541E+02 -0.29399432321E+01  0.36820914404E+02  0.00000000000E+00 0.  1.
         11    1    4    4    0    0  0.10047358073E+02 -0.23587057182E+02  0.98624239287E+01  0.27469366152E+02  0.51100000000E-03 0. -1.
        -11    1    4    4    0    0  0.12407744543E+02 -0.74788014963E+01  0.30774394621E+01  0.14810645845E+02  0.51100000000E-03 0.  1.
        -12    1    4    4    0    0  0.39212329360E+01  0.55428221380E+01 -0.99999201587E+01  0.12087073598E+02  0.00000000000E+00 0.  1.
</event>
<event>
 8    1  0.1229941E-006  0.9118800E+02  0.7816164E-02  0.1184000E+00
        -11   -1    0    0    0    0  0.00000000000E+00  0.00000000000E+00  0.45593999997E+02  0.45594000000E+02  0.51100000000E-03 0. -1.
         11   -1    0    0    0    0 -0.00000000000E+00 -0.00000000000E+00 -0.45593999997E+02  0.45594000000E+02  0.51100000000E-03 0.  1.
         23    2    1    2    0    0  0.00000000000E+00  0.00000000000E+00  0.11102230246E-14  0.91188000000E+02  0.91188000000E+02 0.  0.
    9900012    2    3    3    0    0 -0.36405769732E+02  0.54130028585E+01 -0.10482532231E+01  0.54367088760E+02  0.40000010445E+02 0.  0.
        -12    1    3    3    0    0  0.36405769732E+02 -0.54130028585E+01  0.10482532231E+01  0.36820911240E+02  0.00000000000E+00 0.  1.
         11    1    4    4    0    0 -0.12246345522E+02 -0.55609176951E+01  0.11231597159E+02  0.17522715522E+02  0.51100000000E-03 0. -1.
        -11    1    4    4    0    0 -0.17513887384E+02 -0.42403511558E+00  0.17246714194E+01  0.17603708383E+02  0.51100000000E-03 0.  1.
        -12    1    4    4    0    0 -0.66455368271E+01  0.11397955669E+02 -0.14004521802E+02  0.19240664855E+02  0.00000000000E+00 0.  1.
</event>
<event>
 8    1  0.1229941E-006  0.9118800E+02  0.7816164E-02  0.1184000E+00
        -11   -1    0    0    0    0  0.00000000000E+00  0.00000000000E+00  0.45593999997E+02  0.45594000000E+02  0.51100000000E-03 0.  1.
         11   -1    0    0    0    0 -0.00000000000E+00 -0.00000000000E+00 -0.45593999997E+02  0.45594000000E+02  0.51100000000E-03 0. -1.
         23    2    1    2    0    0  0.35527136788E-14  0.00000000000E+00  0.17763568394E-14  0.91188000000E+02  0.91188000000E+02 0.  0.
    9900012    2    3    3    0    0 -0.30925947079E+02 -0.17879379783E+02 -0.89271042939E+01  0.54367087257E+02  0.40000007020E+02 0.  0.
        -12    1    3    3    0    0  0.30925947079E+02  0.17879379783E+02  0.89271042939E+01  0.36820912743E+02  0.00000000000E+00 0.  1.
         11    1    4    4    0    0 -0.48023156762E+00 -0.19923802522E+01  0.51694122751E+01  0.55608475037E+01  0.51100000000E-03 0. -1.
        -11    1    4    4    0    0 -0.36088557325E+01 -0.18363546136E+02 -0.10922794458E+02  0.21669127934E+02  0.51100000000E-03 0.  1.
         12    1    4    4    0    0 -0.26836859778E+02  0.24765466053E+01 -0.31737221115E+01  0.27137111819E+02  0.00000000000E+00 0. -1.
</event>
<event>
 8    1  0.1229941E-006  0.9118800E+02  0.7816164E-02  0.1184000E+00
        -11   -1    0    0    0    0  0.00000000000E+00  0.00000000000E+00  0.45593999997E+02  0.45594000000E+02  0.51100000000E-03 0.  1.
         11   -1    0    0    0    0 -0.00000000000E+00 -0.00000000000E+00 -0.45593999997E+02  0.45594000000E+02  0.51100000000E-03 0. -1.
         23    2    1    2    0    0  0.00000000000E+00  0.00000000000E+00 -0.35527136788E-14  0.91188000000E+02  0.91188000000E+02 0.  0.
    9900012    2    3    3    0    0 -0.51228920116E+01  0.22187615257E+02 -0.28935193126E+02  0.54367086179E+02  0.40000004562E+02 0.  0.
        -12    1    3    3    0    0  0.51228920116E+01 -0.22187615257E+02  0.28935193126E+02  0.36820913821E+02  0.00000000000E+00 0.  1.
         11    1    4    4    0    0  0.10930578524E+01 -0.54615664451E+00 -0.27473689318E+02  0.27500848488E+02  0.51100000000E-03 0. -1.
        -11    1    4    4    0    0 -0.95074508020E+01  0.13436545249E+02 -0.34185388939E+01  0.16811269358E+02  0.51100000000E-03 0.  1.
         12    1    4    4    0    0  0.32915009380E+01  0.92972266523E+01  0.19570350856E+01  0.10054968333E+02  0.00000000000E+00 0. -1.
</event>
<event>
 8    1  0.1229941E-006  0.9118800E+02  0.7816164E-02  0.1184000E+00
        -11   -1    0    0    0    0  0.00000000000E+00  0.00000000000E+00  0.45593999997E+02  0.45594000000E+02  0.51100000000E-03 0. -1.
         11   -1    0    0    0    0 -0.00000000000E+00 -0.00000000000E+00 -0.45593999997E+02  0.45594000000E+02  0.51100000000E-03 0.  1.
         23    2    1    2    0    0 -0.35527136788E-14  0.00000000000E+00  0.00000000000E+00  0.91188000000E+02  0.91188000000E+02 0.  0.
    9900012    2    3    3    0    0  0.30379065225E+02 -0.71441382116E+01  0.19541075930E+02  0.54367082531E+02  0.39999996247E+02 0.  0.
        -12    1    3    3    0    0 -0.30379065225E+02  0.71441382116E+01 -0.19541075930E+02  0.36820917469E+02  0.00000000000E+00 0.  1.
         11    1    4    4    0    0 -0.40414684329E+01  0.23545692634E+01  0.11398126924E+02  0.12320501660E+02  0.51100000000E-03 0. -1.
        -11    1    4    4    0    0  0.54938985565E+01 -0.10985390574E+02  0.26627110584E+01  0.12567885974E+02  0.51100000000E-03 0.  1.
         12    1    4    4    0    0  0.28926635102E+02  0.14866830987E+01  0.54802379470E+01  0.29478694898E+02  0.00000000000E+00 0. -1.
</event>
<event>
 8    1  0.1229941E-006  0.9118800E+02  0.7816164E-02  0.1184000E+00
        -11   -1    0    0    0    0  0.00000000000E+00  0.00000000000E+00  0.45593999997E+02  0.45594000000E+02  0.51100000000E-03 0.  1.
         11   -1    0    0    0    0 -0.00000000000E+00 -0.00000000000E+00 -0.45593999997E+02  0.45594000000E+02  0.51100000000E-03 0. -1.
         23    2    1    2    0    0  0.00000000000E+00  0.88817841970E-15  0.17763568394E-14  0.91188000000E+02  0.91188000000E+02 0.  0.
    9900012    2    3    3    0    0 -0.32601815091E+02  0.68560404701E+01  0.15681060771E+02  0.54367091468E+02  0.40000016621E+02 0.  0.
         12    1    3    3    0    0  0.32601815091E+02 -0.68560404701E+01 -0.15681060771E+02  0.36820908532E+02  0.00000000000E+00 0. -1.
         11    1    4    4    0    0 -0.13393423928E+02  0.15504415045E+02 -0.60543270771E+01  0.21364118681E+02  0.51100000000E-03 0. -1.
        -11    1    4    4    0    0 -0.94416725238E+01  0.82351824901E+00  0.15192079999E+02  0.17905939163E+02  0.51100000000E-03 0.  1.
         12    1    4    4    0    0 -0.97667186395E+01 -0.94718928238E+01  0.65433078500E+01  0.15097033625E+02  0.00000000000E+00 0. -1.
</event>
<event>
 8    1  0.1229941E-006  0.9118800E+02  0.7816164E-02  0.1184000E+00
        -11   -1    0    0    0    0  0.00000000000E+00  0.00000000000E+00  0.45593999997E+02  0.45594000000E+02  0.51100000000E-03 0. -1.
         11   -1    0    0    0    0 -0.00000000000E+00 -0.00000000000E+00 -0.45593999997E+02  0.45594000000E+02  0.51100000000E-03 0.  1.
         23    2    1    2    0    0  0.62450045135E-15  0.00000000000E+00  0.17763568394E-14  0.91188000000E+02  0.91188000000E+02 0.  0.
    9900012    2    3    3    0    0  0.10393200686E+00  0.35424718039E+02 -0.10042793088E+02  0.54367093669E+02  0.40000021638E+02 0.  0.
         12    1    3    3    0    0 -0.10393200686E+00 -0.35424718039E+02  0.10042793088E+02  0.36820906331E+02  0.00000000000E+00 0. -1.
         11    1    4    4    0    0 -0.78430707736E+01  0.49019932664E+01  0.10021703795E+02  0.13637369408E+02  0.51100000000E-03 0. -1.
        -11    1    4    4    0    0 -0.18676056646E+01  0.14724952558E+01  0.18727727412E+01  0.30271225938E+01  0.51100000000E-03 0.  1.
        -12    1    4    4    0    0  0.98146084451E+01  0.29050229517E+02 -0.21937269624E+02  0.37702601667E+02  0.00000000000E+00 0.  1.
</event>
<event>
 8    1  0.1229941E-006  0.9118800E+02  0.7816164E-02  0.1184000E+00
        -11   -1    0    0    0    0  0.00000000000E+00  0.00000000000E+00  0.45593999997E+02  0.45594000000E+02  0.51100000000E-03 0.  1.
         11   -1    0    0    0    0 -0.00000000000E+00 -0.00000000000E+00 -0.45593999997E+02  0.45594000000E+02  0.51100000000E-03 0. -1.
         23    2    1    2    0    0 -0.88817841970E-15  0.00000000000E+00  0.88817841970E-15  0.91188000000E+02  0.91188000000E+02 0.  0.
    9900012    2    3    3    0    0  0.72102588732E+01 -0.35746803225E+02 -0.50945926064E+01  0.54367127555E+02  0.40000098886E+02 0.  0.
        -12    1    3    3    0    0 -0.72102588732E+01  0.35746803225E+02  0.50945926064E+01  0.36820872445E+02  0.00000000000E+00 0.  1.
         11    1    4    4    0    0  0.69458770867E+00  0.27965854339E+01 -0.81583615406E+01  0.86522948090E+01  0.51100000000E-03 0.  1.
        -11    1    4    4    0    0  0.13773365265E+02 -0.34815775456E+02  0.29145369301E+01  0.37554471599E+02  0.51100000000E-03 0. -1.
         12    1    4    4    0    0 -0.72576941006E+01 -0.37276132029E+01  0.14923200415E+00  0.81603611463E+01  0.00000000000E+00 0. -1.
</event>
<event>
 8    1  0.1229941E-006  0.9118800E+02  0.7816164E-02  0.1184000E+00
        -11   -1    0    0    0    0  0.00000000000E+00  0.00000000000E+00  0.45593999997E+02  0.45594000000E+02  0.51100000000E-03 0.  1.
         11   -1    0    0    0    0 -0.00000000000E+00 -0.00000000000E+00 -0.45593999997E+02  0.45594000000E+02  0.51100000000E-03 0. -1.
         23    2    1    2    0    0  0.00000000000E+00  0.00000000000E+00 -0.13322676296E-14  0.91188000000E+02  0.91188000000E+02 0.  0.
    9900012    2    3    3    0    0  0.17033091043E+02  0.32597787529E+02 -0.17427453647E+01  0.54367094204E+02  0.40000022857E+02 0.  0.
         12    1    3    3    0    0 -0.17033091043E+02 -0.32597787529E+02  0.17427453647E+01  0.36820905796E+02  0.00000000000E+00 0. -1.
         11    1    4    4    0    0  0.85244351222E+00  0.12513502847E+02  0.99185138587E+01  0.15990351180E+02  0.51100000000E-03 0. -1.
        -11    1    4    4    0    0 -0.52784066354E+01  0.23948818634E+01  0.34306373697E+01  0.67354516383E+01  0.51100000000E-03 0.  1.
        -12    1    4    4    0    0  0.21459054166E+02  0.17689402818E+02 -0.15091896593E+02  0.31641291385E+02  0.00000000000E+00 0.  1.
</event>
<event>
 8    1  0.1229941E-006  0.9118800E+02  0.7816164E-02  0.1184000E+00
        -11   -1    0    0    0    0  0.00000000000E+00  0.00000000000E+00  0.45593999997E+02  0.45594000000E+02  0.51100000000E-03 0.  1.
         11   -1    0    0    0    0 -0.00000000000E+00 -0.00000000000E+00 -0.45593999997E+02  0.45594000000E+02  0.51100000000E-03 0. -1.
         23    2    1    2    0    0 -0.88817841970E-15  0.17763568394E-14  0.00000000000E+00  0.91188000000E+02  0.91188000000E+02 0.  0.
    9900012    2    3    3    0    0  0.79163659035E+01  0.83669655091E+01 -0.34972910829E+02  0.54367089463E+02  0.40000012048E+02 0.  0.
        -12    1    3    3    0    0 -0.79163659035E+01 -0.83669655091E+01  0.34972910829E+02  0.36820910537E+02  0.00000000000E+00 0.  1.
         11    1    4    4    0    0  0.11540935061E+02 -0.86156721035E+01 -0.87062034823E+01  0.16829170128E+02  0.51100000000E-03 0. -1.
        -11    1    4    4    0    0 -0.87129507802E+01 -0.18423808124E-01 -0.58909096840E+01  0.10517540963E+02  0.51100000000E-03 0.  1.
        -12    1    4    4    0    0  0.50883816231E+01  0.17001061421E+02 -0.20375797663E+02  0.27020378372E+02  0.00000000000E+00 0.  1.
</event>
<event>
 8    1  0.1229941E-006  0.9118800E+02  0.7816164E-02  0.1184000E+00
        -11   -1    0    0    0    0  0.00000000000E+00  0.00000000000E+00  0.45593999997E+02  0.45594000000E+02  0.51100000000E-03 0. -1.
         11   -1    0    0    0    0 -0.00000000000E+00 -0.00000000000E+00 -0.45593999997E+02  0.45594000000E+02  0.51100000000E-03 0.  1.
         23    2    1    2    0    0  0.00000000000E+00  0.00000000000E+00  0.35527136788E-14  0.91188000000E+02  0.91188000000E+02 0.  0.
    9900012    2    3    3    0    0  0.19751038940E+02  0.21683210616E+02  0.22260201407E+02  0.54367058560E+02  0.39999941600E+02 0.  0.
        -12    1    3    3    0    0 -0.19751038940E+02 -0.21683210616E+02 -0.22260201407E+02  0.36820941440E+02  0.00000000000E+00 0.  1.
         11    1    4    4    0    0 -0.52815438487E+01 -0.86469712810E+01  0.40908043395E+01  0.10927007741E+02  0.51100000000E-03 0. -1.
        -11    1    4    4    0    0  0.24813968893E+02  0.29301688717E+02  0.17528488102E+02  0.42208647329E+02  0.51100000000E-03 0.  1.
         12    1    4    4    0    0  0.21861389561E+00  0.10284931796E+01  0.64090896541E+00  0.12314034911E+01  0.00000000000E+00 0. -1.
</event>
<event>
 8    1  0.1229941E-006  0.9118800E+02  0.7816164E-02  0.1184000E+00
        -11   -1    0    0    0    0  0.00000000000E+00  0.00000000000E+00  0.45593999997E+02  0.45594000000E+02  0.51100000000E-03 0.  1.
         11   -1    0    0    0    0 -0.00000000000E+00 -0.00000000000E+00 -0.45593999997E+02  0.45594000000E+02  0.51100000000E-03 0. -1.
         23    2    1    2    0    0  0.88817841970E-15  0.00000000000E+00  0.00000000000E+00  0.91188000000E+02  0.91188000000E+02 0.  0.
    9900012    2    3    3    0    0  0.43882875247E+01  0.13636335629E+02 -0.33920138769E+02  0.54367047664E+02  0.39999916760E+02 0.  0.
        -12    1    3    3    0    0 -0.43882875247E+01 -0.13636335629E+02  0.33920138769E+02  0.36820952336E+02  0.00000000000E+00 0.  1.
         11    1    4    4    0    0  0.48268522698E+01  0.10354130166E+02 -0.84292444213E+01  0.14197136194E+02  0.51100000000E-03 0. -1.
        -11    1    4    4    0    0  0.44942141451E+01  0.16380676021E+02 -0.15245146229E+02  0.22824087966E+02  0.51100000000E-03 0.  1.
        -12    1    4    4    0    0 -0.49327788901E+01 -0.13098470558E+02 -0.10245748119E+02  0.17345823505E+02  0.00000000000E+00 0.  1.
</event>
<event>
 8    1  0.1229941E-006  0.9118800E+02  0.7816164E-02  0.1184000E+00
        -11   -1    0    0    0    0  0.00000000000E+00  0.00000000000E+00  0.45593999997E+02  0.45594000000E+02  0.51100000000E-03 0.  1.
         11   -1    0    0    0    0 -0.00000000000E+00 -0.00000000000E+00 -0.45593999997E+02  0.45594000000E+02  0.51100000000E-03 0. -1.
         23    2    1    2    0    0  0.00000000000E+00  0.00000000000E+00  0.00000000000E+00  0.91188000000E+02  0.91188000000E+02 0.  0.
    9900012    2    3    3    0    0  0.31507668654E+02  0.77286353941E+01  0.17415926055E+02  0.54367089237E+02  0.40000011534E+02 0.  0.
         12    1    3    3    0    0 -0.31507668654E+02 -0.77286353941E+01 -0.17415926055E+02  0.36820910763E+02  0.00000000000E+00 0. -1.
         11    1    4    4    0    0  0.78835965454E+01  0.69390180125E+01 -0.54769692962E+01  0.11844756578E+02  0.51100000000E-03 0. -1.
        -11    1    4    4    0    0  0.23761788248E+02  0.23852087975E+01  0.28214804211E+02  0.36964672035E+02  0.51100000000E-03 0.  1.
        -12    1    4    4    0    0 -0.13771613963E+00 -0.15955914159E+01 -0.53219088592E+01  0.55576606236E+01  0.00000000000E+00 0.  1.
</event>
<event>
 8    1  0.1229941E-006  0.9118800E+02  0.7816164E-02  0.1184000E+00
        -11   -1    0    0    0    0  0.00000000000E+00  0.00000000000E+00  0.45593999997E+02  0.45594000000E+02  0.51100000000E-03 0. -1.
         11   -1    0    0    0    0 -0.00000000000E+00 -0.00000000000E+00 -0.45593999997E+02  0.45594000000E+02  0.51100000000E-03 0.  1.
         23    2    1    2    0    0 -0.35527136788E-14  0.88817841970E-15 -0.35527136788E-14  0.91188000000E+02  0.91188000000E+02 0.  0.
    9900012    2    3    3    0    0 -0.30558227198E+02  0.32236480722E+01  0.20287550213E+02  0.54367056910E+02  0.39999937837E+02 0.  0.
        -12    1    3    3    0    0  0.30558227198E+02 -0.32236480722E+01 -0.20287550213E+02  0.36820943090E+02  0.00000000000E+00 0.  1.
         11    1    4    4    0    0 -0.20482550480E+02  0.29696758059E+01  0.16640520009E+02  0.26556745941E+02  0.51100000000E-03 0. -1.
        -11    1    4    4    0    0 -0.91250834877E+01  0.71795161496E+01  0.12147929824E+02  0.16804308973E+02  0.51100000000E-03 0.  1.
        -12    1    4    4    0    0 -0.95059323105E+00 -0.69255438833E+01 -0.85008996200E+01  0.11006001995E+02  0.00000000000E+00 0.  1.
</event>
<event>
 8    1  0.1229941E-006  0.9118800E+02  0.7816164E-02  0.1184000E+00
        -11   -1    0    0    0    0  0.00000000000E+00  0.00000000000E+00  0.45593999997E+02  0.45594000000E+02  0.51100000000E-03 0. -1.
         11   -1    0    0    0    0 -0.00000000000E+00 -0.00000000000E+00 -0.45593999997E+02  0.45594000000E+02  0.51100000000E-03 0.  1.
         23    2    1    2    0    0  0.71054273576E-14  0.11102230246E-14 -0.26645352591E-14  0.91188000000E+02  0.91188000000E+02 0.  0.
    9900012    2    3    3    0    0 -0.36575703290E+02 -0.13728925361E+01  0.40140987379E+01  0.54367083475E+02  0.39999998397E+02 0.  0.
         12    1    3    3    0    0  0.36575703290E+02  0.13728925361E+01 -0.40140987379E+01  0.36820916525E+02  0.00000000000E+00 0. -1.
         11    1    4    4    0    0 -0.59765155404E+01  0.30395162983E+01 -0.70646812068E+01  0.97399752642E+01  0.51100000000E-03 0. -1.
        -11    1    4    4    0    0 -0.18992357006E+02  0.60432660929E+01 -0.66377203435E+01  0.21006904135E+02  0.51100000000E-03 0.  1.
         12    1    4    4    0    0 -0.11606830744E+02 -0.10455674927E+02  0.17716500288E+02  0.23620204075E+02  0.00000000000E+00 0. -1.
</event>
<event>
 8    1  0.1229941E-006  0.9118800E+02  0.7816164E-02  0.1184000E+00
        -11   -1    0    0    0    0  0.00000000000E+00  0.00000000000E+00  0.45593999997E+02  0.45594000000E+02  0.51100000000E-03 0.  1.
         11   -1    0    0    0    0 -0.00000000000E+00 -0.00000000000E+00 -0.45593999997E+02  0.45594000000E+02  0.51100000000E-03 0. -1.
         23    2    1    2    0    0  0.00000000000E+00 -0.71054273576E-14  0.88817841970E-15  0.91188000000E+02  0.91188000000E+02 0.  0.
    9900012    2    3    3    0    0  0.11521944102E+02  0.34368178672E+02  0.64691996145E+01  0.54367116730E+02  0.40000074209E+02 0.  0.
        -12    1    3    3    0    0 -0.11521944102E+02 -0.34368178672E+02 -0.64691996145E+01  0.36820883270E+02  0.00000000000E+00 0.  1.
         11    1    4    4    0    0  0.49349716111E+01  0.24963161978E+02  0.26864406088E+01  0.25587699470E+02  0.51100000000E-03 0. -1.
        -11    1    4    4    0    0 -0.36464033448E+01  0.56039730446E+01  0.12917495265E+02  0.14545186675E+02  0.51100000000E-03 0.  1.
        -12    1    4    4    0    0  0.10233375836E+02  0.38010436494E+01 -0.91347362589E+01  0.14234230585E+02  0.00000000000E+00 0.  1.
</event>
<event>
 8    1  0.1229941E-006  0.9118800E+02  0.7816164E-02  0.1184000E+00
        -11   -1    0    0    0    0  0.00000000000E+00  0.00000000000E+00  0.45593999997E+02  0.45594000000E+02  0.51100000000E-03 0.  1.
         11   -1    0    0    0    0 -0.00000000000E+00 -0.00000000000E+00 -0.45593999997E+02  0.45594000000E+02  0.51100000000E-03 0. -1.
         23    2    1    2    0    0  0.00000000000E+00 -0.17763568394E-14  0.00000000000E+00  0.91188000000E+02  0.91188000000E+02 0.  0.
    9900012    2    3    3    0    0 -0.34959902277E+02  0.97553581630E+01  0.61985301057E+01  0.54367033750E+02  0.39999885039E+02 0.  0.
         12    1    3    3    0    0  0.34959902277E+02 -0.97553581630E+01 -0.61985301057E+01  0.36820966250E+02  0.00000000000E+00 0. -1.
         11    1    4    4    0    0 -0.79386770472E+01  0.16199690489E+02 -0.38697832385E+00  0.18044453931E+02  0.51100000000E-03 0. -1.
        -11    1    4    4    0    0 -0.25915448203E+02  0.28420464031E+01  0.68891023208E+01  0.26965671035E+02  0.51100000000E-03 0.  1.
        -12    1    4    4    0    0 -0.11057770273E+01 -0.92863787289E+01 -0.30359389124E+00  0.93569087835E+01  0.00000000000E+00 0.  1.
</event>
<event>
 8    1  0.1229941E-006  0.9118800E+02  0.7816164E-02  0.1184000E+00
        -11   -1    0    0    0    0  0.00000000000E+00  0.00000000000E+00  0.45593999997E+02  0.45594000000E+02  0.51100000000E-03 0. -1.
         11   -1    0    0    0    0 -0.00000000000E+00 -0.00000000000E+00 -0.45593999997E+02  0.45594000000E+02  0.51100000000E-03 0.  1.
         23    2    1    2    0    0 -0.88817841970E-15 -0.71054273576E-14 -0.17763568394E-14  0.91188000000E+02  0.91188000000E+02 0.  0.
    9900012    2    3    3    0    0 -0.62117942645E+01 -0.34592749565E+02 -0.10978819276E+02  0.54367093124E+02  0.40000020396E+02 0.  0.
         12    1    3    3    0    0  0.62117942645E+01  0.34592749565E+02  0.10978819276E+02  0.36820906876E+02  0.00000000000E+00 0. -1.
         11    1    4    4    0    0 -0.81291828101E+01 -0.58690097252E+01  0.46782933334E+01  0.11064145565E+02  0.51100000000E-03 0. -1.
        -11    1    4    4    0    0 -0.80818858679E+01  0.28085943600E+00  0.13896659910E+01  0.82052990824E+01  0.51100000000E-03 0.  1.
        -12    1    4    4    0    0  0.99992744134E+01 -0.29004599276E+02 -0.17046778601E+02  0.35097648477E+02  0.00000000000E+00 0.  1.
</event>
<event>
 8    1  0.1229941E-006  0.9118800E+02  0.7816164E-02  0.1184000E+00
        -11   -1    0    0    0    0  0.00000000000E+00  0.00000000000E+00  0.45593999997E+02  0.45594000000E+02  0.51100000000E-03 0. -1.
         11   -1    0    0    0    0 -0.00000000000E+00 -0.00000000000E+00 -0.45593999997E+02  0.45594000000E+02  0.51100000000E-03 0.  1.
         23    2    1    2    0    0  0.11102230246E-15 -0.35527136788E-14 -0.35527136788E-14  0.91188000000E+02  0.91188000000E+02 0.  0.
    9900012    2    3    3    0    0 -0.78669255312E+00 -0.29568507511E+02 -0.21928663921E+02  0.54367057278E+02  0.39999938677E+02 0.  0.
         12    1    3    3    0    0  0.78669255312E+00  0.29568507511E+02  0.21928663921E+02  0.36820942722E+02  0.00000000000E+00 0. -1.
         11    1    4    4    0    0  0.34975880250E+01 -0.70244308181E+00  0.80426778463E+01  0.87983643637E+01  0.51100000000E-03 0. -1.
        -11    1    4    4    0    0  0.22436123212E+00  0.13716550026E+01 -0.74969790160E+01  0.76247275385E+01  0.51100000000E-03 0.  1.
        -12    1    4    4    0    0 -0.45086418102E+01 -0.30237719432E+02 -0.22474362751E+02  0.37943965376E+02  0.00000000000E+00 0.  1.
</event>
<event>
 8    1  0.1229941E-006  0.9118800E+02  0.7816164E-02  0.1184000E+00
        -11   -1    0    0    0    0  0.00000000000E+00  0.00000000000E+00  0.45593999997E+02  0.45594000000E+02  0.51100000000E-03 0. -1.
         11   -1    0    0    0    0 -0.00000000000E+00 -0.00000000000E+00 -0.45593999997E+02  0.45594000000E+02  0.51100000000E-03 0.  1.
         23    2    1    2    0    0  0.00000000000E+00  0.88817841970E-15  0.53290705182E-14  0.91188000000E+02  0.91188000000E+02 0.  0.
    9900012    2    3    3    0    0  0.35304573501E+02  0.32262923387E+01  0.99478090827E+01  0.54367071469E+02  0.39999971028E+02 0.  0.
        -12    1    3    3    0    0 -0.35304573501E+02 -0.32262923387E+01 -0.99478090827E+01  0.36820928531E+02  0.00000000000E+00 0.  1.
         11    1    4    4    0    0  0.44707128217E+01  0.11912294135E+00  0.52976822170E+01  0.69330296799E+01  0.51100000000E-03 0. -1.
        -11    1    4    4    0    0  0.31696286852E+02 -0.52128711151E+01 -0.72096638328E+01  0.32921237496E+02  0.51100000000E-03 0.  1.
        -12    1    4    4    0    0 -0.86242617240E+00  0.83200405124E+01  0.11859790698E+02  0.14512804293E+02  0.00000000000E+00 0.  1.
</event>
<event>
 8    1  0.1229941E-006  0.9118800E+02  0.7816164E-02  0.1184000E+00
        -11   -1    0    0    0    0  0.00000000000E+00  0.00000000000E+00  0.45593999997E+02  0.45594000000E+02  0.51100000000E-03 0. -1.
         11   -1    0    0    0    0 -0.00000000000E+00 -0.00000000000E+00 -0.45593999997E+02  0.45594000000E+02  0.51100000000E-03 0.  1.
         23    2    1    2    0    0  0.35527136788E-14  0.00000000000E+00 -0.38857805862E-15  0.91188000000E+02  0.91188000000E+02 0.  0.
    9900012    2    3    3    0    0 -0.31607764983E+02  0.18882284189E+02 -0.43793293164E+00  0.54367037918E+02  0.39999894541E+02 0.  0.
         12    1    3    3    0    0  0.31607764983E+02 -0.18882284189E+02  0.43793293164E+00  0.36820962082E+02  0.00000000000E+00 0. -1.
         11    1    4    4    0    0 -0.25364971779E+02  0.20225913729E+02 -0.64199695253E+01  0.33070914540E+02  0.51100000000E-03 0. -1.
        -11    1    4    4    0    0 -0.87513510425E+01 -0.54507955425E+01 -0.33128178892E+01  0.10829223414E+02  0.51100000000E-03 0.  1.
         12    1    4    4    0    0  0.25085578392E+01  0.41071660023E+01  0.92948544829E+01  0.10466899964E+02  0.00000000000E+00 0. -1.
</event>
<event>
 8    1  0.1229941E-006  0.9118800E+02  0.7816164E-02  0.1184000E+00
        -11   -1    0    0    0    0  0.00000000000E+00  0.00000000000E+00  0.45593999997E+02  0.45594000000E+02  0.51100000000E-03 0.  1.
         11   -1    0    0    0    0 -0.00000000000E+00 -0.00000000000E+00 -0.45593999997E+02  0.45594000000E+02  0.51100000000E-03 0. -1.
         23    2    1    2    0    0  0.00000000000E+00  0.00000000000E+00 -0.44408920985E-15  0.91188000000E+02  0.91188000000E+02 0.  0.
    9900012    2    3    3    0    0 -0.90447013391E+01  0.35625543687E+02 -0.21896101686E+01  0.54367076899E+02  0.39999983407E+02 0.  0.
         12    1    3    3    0    0  0.90447013391E+01 -0.35625543687E+02  0.21896101686E+01  0.36820923101E+02  0.00000000000E+00 0. -1.
         11    1    4    4    0    0 -0.68010998742E+00  0.35469792777E+00 -0.67027659266E+01  0.67465125467E+01  0.51100000000E-03 0. -1.
        -11    1    4    4    0    0 -0.52456206691E+01  0.22589361297E+02 -0.12364227771E+02  0.26280599473E+02  0.51100000000E-03 0.  1.
        -12    1    4    4    0    0 -0.31189706825E+01  0.12681484462E+02  0.16877383529E+02  0.21339964880E+02  0.00000000000E+00 0.  1.
</event>
<event>
 8    1  0.1229941E-006  0.9118800E+02  0.7816164E-02  0.1184000E+00
        -11   -1    0    0    0    0  0.00000000000E+00  0.00000000000E+00  0.45593999997E+02  0.45594000000E+02  0.51100000000E-03 0. -1.
         11   -1    0    0    0    0 -0.00000000000E+00 -0.00000000000E+00 -0.45593999997E+02  0.45594000000E+02  0.51100000000E-03 0.  1.
         23    2    1    2    0    0  0.00000000000E+00  0.00000000000E+00  0.00000000000E+00  0.91188000000E+02  0.91188000000E+02 0.  0.
    9900012    2    3    3    0    0  0.27350777138E+02  0.16051064237E+02 -0.18710380763E+02  0.54367081740E+02  0.39999994442E+02 0.  0.
         12    1    3    3    0    0 -0.27350777138E+02 -0.16051064237E+02  0.18710380763E+02  0.36820918260E+02  0.00000000000E+00 0. -1.
         11    1    4    4    0    0  0.17582662021E+02  0.58153636476E+01  0.21120338063E+01  0.18639451310E+02  0.51100000000E-03 0. -1.
        -11    1    4    4    0    0 -0.83474366641E+01  0.32381736406E+01 -0.10273100097E+02  0.13627254061E+02  0.51100000000E-03 0.  1.
        -12    1    4    4    0    0  0.18115551782E+02  0.69975269491E+01 -0.10549314472E+02  0.22100376368E+02  0.00000000000E+00 0.  1.
</event>
<event>
 8    1  0.1229941E-006  0.9118800E+02  0.7816164E-02  0.1184000E+00
        -11   -1    0    0    0    0  0.00000000000E+00  0.00000000000E+00  0.45593999997E+02  0.45594000000E+02  0.51100000000E-03 0. -1.
         11   -1    0    0    0    0 -0.00000000000E+00 -0.00000000000E+00 -0.45593999997E+02  0.45594000000E+02  0.51100000000E-03 0.  1.
         23    2    1    2    0    0 -0.17763568394E-14  0.35527136788E-14  0.17763568394E-14  0.91188000000E+02  0.91188000000E+02 0.  0.
    9900012    2    3    3    0    0 -0.13242192450E+02  0.30455779397E+02  0.15901856999E+02  0.54367092684E+02  0.40000019392E+02 0.  0.
         12    1    3    3    0    0  0.13242192450E+02 -0.30455779397E+02 -0.15901856999E+02  0.36820907316E+02  0.00000000000E+00 0. -1.
         11    1    4    4    0    0  0.76076330178E+01 -0.37693458391E+01  0.46160045672E+01  0.96639301847E+01  0.51100000000E-03 0. -1.
        -11    1    4    4    0    0 -0.79695622159E+01  0.65813367032E+01  0.96844739916E+01  0.14163931356E+02  0.51100000000E-03 0.  1.
        -12    1    4    4    0    0 -0.12880263252E+02  0.27643788533E+02  0.16013784404E+01  0.30539231143E+02  0.00000000000E+00 0.  1.
</event>
<event>
 8    1  0.1229941E-006  0.9118800E+02  0.7816164E-02  0.1184000E+00
        -11   -1    0    0    0    0  0.00000000000E+00  0.00000000000E+00  0.45593999997E+02  0.45594000000E+02  0.51100000000E-03 0. -1.
         11   -1    0    0    0    0 -0.00000000000E+00 -0.00000000000E+00 -0.45593999997E+02  0.45594000000E+02  0.51100000000E-03 0.  1.
         23    2    1    2    0    0 -0.35527136788E-14  0.00000000000E+00 -0.35527136788E-14  0.91188000000E+02  0.91188000000E+02 0.  0.
    9900012    2    3    3    0    0 -0.26108673202E+02 -0.22458169460E+02 -0.13028644739E+02  0.54367112238E+02  0.40000063968E+02 0.  0.
         12    1    3    3    0    0  0.26108673202E+02  0.22458169460E+02  0.13028644739E+02  0.36820887762E+02  0.00000000000E+00 0. -1.
         11    1    4    4    0    0 -0.27258150000E+00  0.23997870029E+00  0.82554528428E+01  0.82634370786E+01  0.51100000000E-03 0. -1.
        -11    1    4    4    0    0  0.66679395479E+00  0.35398978600E+01 -0.18066158229E+01  0.40298079396E+01  0.51100000000E-03 0.  1.
        -12    1    4    4    0    0 -0.26502885657E+02 -0.26238046021E+02 -0.19477481759E+02  0.42073867219E+02  0.00000000000E+00 0.  1.
</event>
<event>
 8    1  0.1229941E-006  0.9118800E+02  0.7816164E-02  0.1184000E+00
        -11   -1    0    0    0    0  0.00000000000E+00  0.00000000000E+00  0.45593999997E+02  0.45594000000E+02  0.51100000000E-03 0. -1.
         11   -1    0    0    0    0 -0.00000000000E+00 -0.00000000000E+00 -0.45593999997E+02  0.45594000000E+02  0.51100000000E-03 0.  1.
         23    2    1    2    0    0  0.00000000000E+00 -0.35527136788E-14  0.00000000000E+00  0.91188000000E+02  0.91188000000E+02 0.  0.
    9900012    2    3    3    0    0  0.19079872476E+02  0.26864794099E+02  0.16432455106E+02  0.54367023960E+02  0.39999862722E+02 0.  0.
        -12    1    3    3    0    0 -0.19079872476E+02 -0.26864794099E+02 -0.16432455106E+02  0.36820976040E+02  0.00000000000E+00 0.  1.
         11    1    4    4    0    0  0.20168967121E+02  0.36160354011E+01  0.61632776813E+01  0.21397404954E+02  0.51100000000E-03 0. -1.
        -11    1    4    4    0    0 -0.51204736966E+01  0.19323777176E+02 -0.13743804431E+01  0.20037877560E+02  0.51100000000E-03 0.  1.
        -12    1    4    4    0    0  0.40313790521E+01  0.39249815222E+01  0.11643557868E+02  0.12931741446E+02  0.00000000000E+00 0.  1.
</event>
<event>
 8    1  0.1229941E-006  0.9118800E+02  0.7816164E-02  0.1184000E+00
        -11   -1    0    0    0    0  0.00000000000E+00  0.00000000000E+00  0.45593999997E+02  0.45594000000E+02  0.51100000000E-03 0. -1.
         11   -1    0    0    0    0 -0.00000000000E+00 -0.00000000000E+00 -0.45593999997E+02  0.45594000000E+02  0.51100000000E-03 0.  1.
         23    2    1    2    0    0 -0.83266726847E-16  0.00000000000E+00  0.00000000000E+00  0.91188000000E+02  0.91188000000E+02 0.  0.
    9900012    2    3    3    0    0  0.15017663187E+00 -0.12192317983E+02  0.34743417826E+02  0.54367078595E+02  0.39999987274E+02 0.  0.
        -12    1    3    3    0    0 -0.15017663187E+00  0.12192317983E+02 -0.34743417826E+02  0.36820921405E+02  0.00000000000E+00 0.  1.
         11    1    4    4    0    0 -0.32440366281E+00 -0.23508520897E+02  0.18055168740E+02  0.29643631879E+02  0.51100000000E-03 0. -1.
        -11    1    4    4    0    0 -0.24630852343E+01  0.24107541109E+01 -0.18768432521E+01  0.39244190791E+01  0.51100000000E-03 0.  1.
         12    1    4    4    0    0  0.29376655290E+01  0.89054488025E+01  0.18565092338E+02  0.20799027637E+02  0.00000000000E+00 0. -1.
</event>
<event>
 8    1  0.1229941E-006  0.9118800E+02  0.7816164E-02  0.1184000E+00
        -11   -1    0    0    0    0  0.00000000000E+00  0.00000000000E+00  0.45593999997E+02  0.45594000000E+02  0.51100000000E-03 0.  1.
         11   -1    0    0    0    0 -0.00000000000E+00 -0.00000000000E+00 -0.45593999997E+02  0.45594000000E+02  0.51100000000E-03 0. -1.
         23    2    1    2    0    0  0.00000000000E+00 -0.35527136788E-14  0.00000000000E+00  0.91188000000E+02  0.91188000000E+02 0.  0.
    9900012    2    3    3    0    0  0.27126477606E+02  0.68674592297E+01  0.23932678590E+02  0.54367069973E+02  0.39999967617E+02 0.  0.
         12    1    3    3    0    0 -0.27126477606E+02 -0.68674592297E+01 -0.23932678590E+02  0.36820930027E+02  0.00000000000E+00 0. -1.
         11    1    4    4    0    0  0.22132836137E+01 -0.83479572058E+01  0.19634014062E+02  0.21449511004E+02  0.51100000000E-03 0.  1.
        -11    1    4    4    0    0  0.10019865985E+01 -0.80274542609E+00  0.39301274282E+01  0.41345228534E+01  0.51100000000E-03 0. -1.
         12    1    4    4    0    0  0.23911207394E+02  0.16018161862E+02  0.36853709996E+00  0.28783036116E+02  0.00000000000E+00 0. -1.
</event>
<event>
 8    1  0.1229941E-006  0.9118800E+02  0.7816164E-02  0.1184000E+00
        -11   -1    0    0    0    0  0.00000000000E+00  0.00000000000E+00  0.45593999997E+02  0.45594000000E+02  0.51100000000E-03 0. -1.
         11   -1    0    0    0    0 -0.00000000000E+00 -0.00000000000E+00 -0.45593999997E+02  0.45594000000E+02  0.51100000000E-03 0.  1.
         23    2    1    2    0    0  0.00000000000E+00 -0.88817841970E-15  0.00000000000E+00  0.91188000000E+02  0.91188000000E+02 0.  0.
    9900012    2    3    3    0    0  0.12645346931E+02  0.65416776427E+01  0.33957058935E+02  0.54367079358E+02  0.39999989013E+02 0.  0.
        -12    1    3    3    0    0 -0.12645346931E+02 -0.65416776427E+01 -0.33957058935E+02  0.36820920642E+02  0.00000000000E+00 0.  1.
         11    1    4    4    0    0  0.48854418002E+00 -0.67537526220E+01 -0.15650675983E+01  0.69499127148E+01  0.51100000000E-03 0. -1.
        -11    1    4    4    0    0  0.13263696512E+02 -0.24850343888E+01  0.25026336466E+02  0.28432702268E+02  0.51100000000E-03 0.  1.
        -12    1    4    4    0    0 -0.11068937612E+01  0.15780464654E+02  0.10495790067E+02  0.18984464375E+02  0.00000000000E+00 0.  1.
</event>
<event>
 8    1  0.1229941E-006  0.9118800E+02  0.7816164E-02  0.1184000E+00
        -11   -1    0    0    0    0  0.00000000000E+00  0.00000000000E+00  0.45593999997E+02  0.45594000000E+02  0.51100000000E-03 0.  1.
         11   -1    0    0    0    0 -0.00000000000E+00 -0.00000000000E+00 -0.45593999997E+02  0.45594000000E+02  0.51100000000E-03 0. -1.
         23    2    1    2    0    0 -0.71054273576E-14  0.00000000000E+00  0.00000000000E+00  0.91188000000E+02  0.91188000000E+02 0.  0.
    9900012    2    3    3    0    0 -0.23923502391E+02  0.19372850786E+02 -0.20202438753E+02  0.54367084126E+02  0.39999999882E+02 0.  0.
        -12    1    3    3    0    0  0.23923502391E+02 -0.19372850786E+02  0.20202438753E+02  0.36820915874E+02  0.00000000000E+00 0.  1.
         11    1    4    4    0    0 -0.24592977298E+02  0.92008538907E+01 -0.12410797823E+02  0.29043039571E+02  0.51100000000E-03 0. -1.
        -11    1    4    4    0    0  0.11031006938E+02  0.38832363619E+01 -0.57534926165E+01  0.13033238901E+02  0.51100000000E-03 0.  1.
        -12    1    4    4    0    0 -0.10361532031E+02  0.62887605331E+01 -0.20381483133E+01  0.12290805654E+02  0.00000000000E+00 0.  1.
</event>
<event>
 8    1  0.1229941E-006  0.9118800E+02  0.7816164E-02  0.1184000E+00
        -11   -1    0    0    0    0  0.00000000000E+00  0.00000000000E+00  0.45593999997E+02  0.45594000000E+02  0.51100000000E-03 0.  1.
         11   -1    0    0    0    0 -0.00000000000E+00 -0.00000000000E+00 -0.45593999997E+02  0.45594000000E+02  0.51100000000E-03 0. -1.
         23    2    1    2    0    0 -0.35527136788E-14  0.00000000000E+00  0.00000000000E+00  0.91188000000E+02  0.91188000000E+02 0.  0.
    9900012    2    3    3    0    0 -0.30563004305E+02 -0.11676636221E+02 -0.16891961034E+02  0.54367090001E+02  0.40000013275E+02 0.  0.
        -12    1    3    3    0    0  0.30563004305E+02  0.11676636221E+02  0.16891961034E+02  0.36820909999E+02  0.00000000000E+00 0.  1.
         11    1    4    4    0    0 -0.51528053784E+01 -0.53845780501E+00  0.18484494837E+01  0.55007368443E+01  0.51100000000E-03 0. -1.
        -11    1    4    4    0    0 -0.14306328041E+02 -0.15780129102E+02  0.53284699775E+01  0.21956231212E+02  0.51100000000E-03 0.  1.
        -12    1    4    4    0    0 -0.11103870886E+02  0.46419506853E+01 -0.24068880495E+02  0.26910121945E+02  0.00000000000E+00 0.  1.
</event>
<event>
 8    1  0.1229941E-006  0.9118800E+02  0.7816164E-02  0.1184000E+00
        -11   -1    0    0    0    0  0.00000000000E+00  0.00000000000E+00  0.45593999997E+02  0.45594000000E+02  0.51100000000E-03 0.  1.
         11   -1    0    0    0    0 -0.00000000000E+00 -0.00000000000E+00 -0.45593999997E+02  0.45594000000E+02  0.51100000000E-03 0. -1.
         23    2    1    2    0    0  0.17763568394E-14  0.00000000000E+00  0.00000000000E+00  0.91188000000E+02  0.91188000000E+02 0.  0.
    9900012    2    3    3    0    0 -0.92836403368E+01  0.13837467565E+02  0.32834782563E+02  0.54367021843E+02  0.39999857895E+02 0.  0.
         12    1    3    3    0    0  0.92836403368E+01 -0.13837467565E+02 -0.32834782563E+02  0.36820978157E+02  0.00000000000E+00 0. -1.
         11    1    4    4    0    0 -0.85388395911E+01  0.13829314501E+02  0.22386211434E+02  0.27664131719E+02  0.51100000000E-03 0. -1.
        -11    1    4    4    0    0  0.45668004299E+01  0.92962501414E+00  0.17338859848E+02  0.17954273306E+02  0.51100000000E-03 0.  1.
        -12    1    4    4    0    0 -0.53116011756E+01 -0.92147195007E+00 -0.68902887196E+01  0.87486168189E+01  0.00000000000E+00 0.  1.
</event>
<event>
 8    1  0.1229941E-006  0.9118800E+02  0.7816164E-02  0.1184000E+00
        -11   -1    0    0    0    0  0.00000000000E+00  0.00000000000E+00  0.45593999997E+02  0.45594000000E+02  0.51100000000E-03 0.  1.
         11   -1    0    0    0    0 -0.00000000000E+00 -0.00000000000E+00 -0.45593999997E+02  0.45594000000E+02  0.51100000000E-03 0. -1.
         23    2    1    2    0    0  0.35527136788E-14  0.00000000000E+00  0.00000000000E+00  0.91188000000E+02  0.91188000000E+02 0.  0.
    9900012    2    3    3    0    0  0.24916581225E+02 -0.22079050100E+02 -0.15730819234E+02  0.54367093615E+02  0.40000021513E+02 0.  0.
        -12    1    3    3    0    0 -0.24916581225E+02  0.22079050100E+02  0.15730819234E+02  0.36820906385E+02  0.00000000000E+00 0.  1.
         11    1    4    4    0    0  0.18953163103E+02 -0.69557469022E+01 -0.17230437086E+02  0.26542282664E+02  0.51100000000E-03 0. -1.
        -11    1    4    4    0    0  0.48343005336E+00  0.59451270532E+01  0.10113679357E+01  0.60498847640E+01  0.51100000000E-03 0.  1.
        -12    1    4    4    0    0  0.54799880688E+01 -0.21068430251E+02  0.48824991598E+00  0.21774926187E+02  0.00000000000E+00 0.  1.
</event>
<event>
 8    1  0.1229941E-006  0.9118800E+02  0.7816164E-02  0.1184000E+00
        -11   -1    0    0    0    0  0.00000000000E+00  0.00000000000E+00  0.45593999997E+02  0.45594000000E+02  0.51100000000E-03 0.  1.
         11   -1    0    0    0    0 -0.00000000000E+00 -0.00000000000E+00 -0.45593999997E+02  0.45594000000E+02  0.51100000000E-03 0. -1.
         23    2    1    2    0    0 -0.35527136788E-14  0.00000000000E+00 -0.88817841970E-15  0.91188000000E+02  0.91188000000E+02 0.  0.
    9900012    2    3    3    0    0 -0.26679403416E+02  0.24936511096E+02  0.47075098211E+01  0.54367071155E+02  0.39999970312E+02 0.  0.
         12    1    3    3    0    0  0.26679403416E+02 -0.24936511096E+02 -0.47075098211E+01  0.36820928845E+02  0.00000000000E+00 0. -1.
         11    1    4    4    0    0 -0.21394945041E+02  0.17760402410E+02  0.11504180250E+02  0.30091888119E+02  0.51100000000E-03 0. -1.
        -11    1    4    4    0    0 -0.42546635791E+00  0.76137033586E+01  0.65577561492E+01  0.10057517906E+02  0.51100000000E-03 0.  1.
         12    1    4    4    0    0 -0.48589920168E+01 -0.43759467194E+00 -0.13354426578E+02  0.14217665130E+02  0.00000000000E+00 0. -1.
</event>
<event>
 8    1  0.1229941E-006  0.9118800E+02  0.7816164E-02  0.1184000E+00
        -11   -1    0    0    0    0  0.00000000000E+00  0.00000000000E+00  0.45593999997E+02  0.45594000000E+02  0.51100000000E-03 0.  1.
         11   -1    0    0    0    0 -0.00000000000E+00 -0.00000000000E+00 -0.45593999997E+02  0.45594000000E+02  0.51100000000E-03 0. -1.
         23    2    1    2    0    0  0.17763568394E-14  0.00000000000E+00  0.00000000000E+00  0.91188000000E+02  0.91188000000E+02 0.  0.
    9900012    2    3    3    0    0 -0.15287090213E+02 -0.22599976364E+02  0.24724995510E+02  0.54367089340E+02  0.40000011769E+02 0.  0.
        -12    1    3    3    0    0  0.15287090213E+02  0.22599976364E+02 -0.24724995510E+02  0.36820910660E+02  0.00000000000E+00 0.  1.
         11    1    4    4    0    0 -0.63229672485E+01 -0.14399265835E+02 -0.22081440812E+01  0.15880638273E+02  0.51100000000E-03 0. -1.
        -11    1    4    4    0    0 -0.11756704310E+02 -0.15129808240E+02  0.14689465046E+02  0.24143561817E+02  0.51100000000E-03 0.  1.
        -12    1    4    4    0    0  0.27925813454E+01  0.69290977117E+01  0.12243674545E+02  0.14342889250E+02  0.00000000000E+00 0.  1.
</event>
<event>
 8    1  0.1229941E-006  0.9118800E+02  0.7816164E-02  0.1184000E+00
        -11   -1    0    0    0    0  0.00000000000E+00  0.00000000000E+00  0.45593999997E+02  0.45594000000E+02  0.51100000000E-03 0.  1.
         11   -1    0    0    0    0 -0.00000000000E+00 -0.00000000000E+00 -0.45593999997E+02  0.45594000000E+02  0.51100000000E-03 0. -1.
         23    2    1    2    0    0  0.00000000000E+00 -0.17763568394E-14  0.44408920985E-15  0.91188000000E+02  0.91188000000E+02 0.  0.
    9900012    2    3    3    0    0 -0.35823189456E+02 -0.83610755004E+01  0.16037910888E+01  0.54367073447E+02  0.39999975538E+02 0.  0.
         12    1    3    3    0    0  0.35823189456E+02  0.83610755004E+01 -0.16037910888E+01  0.36820926553E+02  0.00000000000E+00 0. -1.
         11    1    4    4    0    0 -0.26939476804E+02  0.11775688242E+02  0.34634799713E+01  0.29604018947E+02  0.51100000000E-03 0. -1.
        -11    1    4    4    0    0 -0.52331228760E+01 -0.47645961722E+01  0.37346730948E+01  0.80021706496E+01  0.51100000000E-03 0.  1.
         12    1    4    4    0    0 -0.36505897765E+01 -0.15372167570E+02 -0.55943619772E+01  0.16760883851E+02  0.00000000000E+00 0. -1.
</event>
<event>
 8    1  0.1229941E-006  0.9118800E+02  0.7816164E-02  0.1184000E+00
        -11   -1    0    0    0    0  0.00000000000E+00  0.00000000000E+00  0.45593999997E+02  0.45594000000E+02  0.51100000000E-03 0.  1.
         11   -1    0    0    0    0 -0.00000000000E+00 -0.00000000000E+00 -0.45593999997E+02  0.45594000000E+02  0.51100000000E-03 0. -1.
         23    2    1    2    0    0  0.00000000000E+00  0.71054273576E-14  0.53290705182E-14  0.91188000000E+02  0.91188000000E+02 0.  0.
    9900012    2    3    3    0    0  0.25359170650E+02 -0.23194102007E+02 -0.13218450126E+02  0.54367064003E+02  0.39999954008E+02 0.  0.
        -12    1    3    3    0    0 -0.25359170650E+02  0.23194102007E+02  0.13218450126E+02  0.36820935997E+02  0.00000000000E+00 0.  1.
         11    1    4    4    0    0  0.31393816229E+01  0.15302811092E+01 -0.81279927413E+00  0.35858221050E+01  0.51100000000E-03 0. -1.
        -11    1    4    4    0    0 -0.93954765390E+01 -0.40525554303E+01  0.18668598030E+01  0.10401122569E+02  0.51100000000E-03 0.  1.
         12    1    4    4    0    0  0.31615265566E+02 -0.20671827686E+02 -0.14272510655E+02  0.40380119329E+02  0.00000000000E+00 0. -1.
</event>
<event>
 8    1  0.1229941E-006  0.9118800E+02  0.7816164E-02  0.1184000E+00
        -11   -1    0    0    0    0  0.00000000000E+00  0.00000000000E+00  0.45593999997E+02  0.45594000000E+02  0.51100000000E-03 0.  1.
         11   -1    0    0    0    0 -0.00000000000E+00 -0.00000000000E+00 -0.45593999997E+02  0.45594000000E+02  0.51100000000E-03 0. -1.
         23    2    1    2    0    0 -0.17763568394E-14 -0.71054273576E-14  0.00000000000E+00  0.91188000000E+02  0.91188000000E+02 0.  0.
    9900012    2    3    3    0    0 -0.62193664366E+01  0.35388258542E+02  0.80480012253E+01  0.54367086307E+02  0.40000004854E+02 0.  0.
         12    1    3    3    0    0  0.62193664366E+01 -0.35388258542E+02 -0.80480012253E+01  0.36820913693E+02  0.00000000000E+00 0. -1.
         11    1    4    4    0    0 -0.65927873671E+01  0.85585104348E+01 -0.38788423047E+01  0.11478604620E+02  0.51100000000E-03 0. -1.
        -11    1    4    4    0    0 -0.15102336719E+02  0.14726499157E+02  0.93515862598E+01  0.23073849216E+02  0.51100000000E-03 0.  1.
        -12    1    4    4    0    0  0.15475757650E+02  0.12103248949E+02  0.25752572702E+01  0.19814632471E+02  0.00000000000E+00 0.  1.
</event>
<event>
 8    1  0.1229941E-006  0.9118800E+02  0.7816164E-02  0.1184000E+00
        -11   -1    0    0    0    0  0.00000000000E+00  0.00000000000E+00  0.45593999997E+02  0.45594000000E+02  0.51100000000E-03 0. -1.
         11   -1    0    0    0    0 -0.00000000000E+00 -0.00000000000E+00 -0.45593999997E+02  0.45594000000E+02  0.51100000000E-03 0.  1.
         23    2    1    2    0    0  0.00000000000E+00  0.00000000000E+00  0.35527136788E-14  0.91188000000E+02  0.91188000000E+02 0.  0.
    9900012    2    3    3    0    0  0.18593240156E+02  0.24760230696E+02  0.19924928119E+02  0.54367077087E+02  0.39999983836E+02 0.  0.
        -12    1    3    3    0    0 -0.18593240156E+02 -0.24760230696E+02 -0.19924928119E+02  0.36820922913E+02  0.00000000000E+00 0.  1.
         11    1    4    4    0    0  0.85591199481E+01 -0.10675448811E+01  0.60556459866E+01  0.10538929497E+02  0.51100000000E-03 0. -1.
        -11    1    4    4    0    0 -0.71224544362E+01  0.19022667244E+02 -0.68387604080E+00  0.20323850840E+02  0.51100000000E-03 0.  1.
        -12    1    4    4    0    0  0.17156574644E+02  0.68051083331E+01  0.14553158173E+02  0.23504296751E+02  0.00000000000E+00 0.  1.
</event>
<event>
 8    1  0.1229941E-006  0.9118800E+02  0.7816164E-02  0.1184000E+00
        -11   -1    0    0    0    0  0.00000000000E+00  0.00000000000E+00  0.45593999997E+02  0.45594000000E+02  0.51100000000E-03 0. -1.
         11   -1    0    0    0    0 -0.00000000000E+00 -0.00000000000E+00 -0.45593999997E+02  0.45594000000E+02  0.51100000000E-03 0.  1.
         23    2    1    2    0    0  0.71054273576E-14  0.88817841970E-15 -0.12212453271E-14  0.91188000000E+02  0.91188000000E+02 0.  0.
    9900012    2    3    3    0    0 -0.36179243328E+02 -0.68175583243E+01  0.60180598648E+00  0.54367096702E+02  0.40000028551E+02 0.  0.
        -12    1    3    3    0    0  0.36179243328E+02  0.68175583243E+01 -0.60180598648E+00  0.36820903298E+02  0.00000000000E+00 0.  1.
         11    1    4    4    0    0 -0.13914926331E+02 -0.97939221977E+01 -0.14797212979E+02  0.22550024369E+02  0.51100000000E-03 0.  1.
        -11    1    4    4    0    0 -0.10737049640E+02  0.77795866632E+01  0.13948906283E+02  0.19245212142E+02  0.51100000000E-03 0. -1.
         12    1    4    4    0    0 -0.11527267356E+02 -0.48032227899E+01  0.14501126826E+01  0.12571860191E+02  0.00000000000E+00 0. -1.
</event>
<event>
 8    1  0.1229941E-006  0.9118800E+02  0.7816164E-02  0.1184000E+00
        -11   -1    0    0    0    0  0.00000000000E+00  0.00000000000E+00  0.45593999997E+02  0.45594000000E+02  0.51100000000E-03 0. -1.
         11   -1    0    0    0    0 -0.00000000000E+00 -0.00000000000E+00 -0.45593999997E+02  0.45594000000E+02  0.51100000000E-03 0.  1.
         23    2    1    2    0    0  0.17763568394E-14  0.00000000000E+00 -0.35527136788E-14  0.91188000000E+02  0.91188000000E+02 0.  0.
    9900012    2    3    3    0    0 -0.12190597085E+02  0.28004959077E+02  0.20564321110E+02  0.54367086202E+02  0.40000004616E+02 0.  0.
        -12    1    3    3    0    0  0.12190597085E+02 -0.28004959077E+02 -0.20564321110E+02  0.36820913798E+02  0.00000000000E+00 0.  1.
         11    1    4    4    0    0 -0.19356074025E+02  0.25731600078E+02  0.16405430755E+02  0.36137390647E+02  0.51100000000E-03 0. -1.
        -11    1    4    4    0    0  0.29083190237E+01 -0.69791380073E+01  0.16010370175E+01  0.77285190471E+01  0.51100000000E-03 0.  1.
        -12    1    4    4    0    0  0.42571579164E+01  0.92524970055E+01  0.25578533379E+01  0.10501176508E+02  0.00000000000E+00 0.  1.
</event>
<event>
 8    1  0.1229941E-006  0.9118800E+02  0.7816164E-02  0.1184000E+00
        -11   -1    0    0    0    0  0.00000000000E+00  0.00000000000E+00  0.45593999997E+02  0.45594000000E+02  0.51100000000E-03 0.  1.
         11   -1    0    0    0    0 -0.00000000000E+00 -0.00000000000E+00 -0.45593999997E+02  0.45594000000E+02  0.51100000000E-03 0. -1.
         23    2    1    2    0    0 -0.17763568394E-14  0.00000000000E+00 -0.22204460493E-15  0.91188000000E+02  0.91188000000E+02 0.  0.
    9900012    2    3    3    0    0 -0.10974139664E+02  0.35100166563E+02 -0.18235471060E+01  0.54367098896E+02  0.40000033553E+02 0.  0.
         12    1    3    3    0    0  0.10974139664E+02 -0.35100166563E+02  0.18235471060E+01  0.36820901104E+02  0.00000000000E+00 0. -1.
         11    1    4    4    0    0  0.45362909188E+01  0.14075244536E+01 -0.57926421652E+00  0.47848309982E+01  0.51100000000E-03 0. -1.
        -11    1    4    4    0    0 -0.13213188990E+01  0.35203382336E+02  0.30161928040E+00  0.35229461903E+02  0.51100000000E-03 0.  1.
        -12    1    4    4    0    0 -0.14189111683E+02 -0.15107402270E+01 -0.15459021698E+01  0.14352805995E+02  0.00000000000E+00 0.  1.
</event>
<event>
 8    1  0.1229941E-006  0.9118800E+02  0.7816164E-02  0.1184000E+00
        -11   -1    0    0    0    0  0.00000000000E+00  0.00000000000E+00  0.45593999997E+02  0.45594000000E+02  0.51100000000E-03 0.  1.
         11   -1    0    0    0    0 -0.00000000000E+00 -0.00000000000E+00 -0.45593999997E+02  0.45594000000E+02  0.51100000000E-03 0. -1.
         23    2    1    2    0    0  0.00000000000E+00 -0.17763568394E-14 -0.11102230246E-14  0.91188000000E+02  0.91188000000E+02 0.  0.
    9900012    2    3    3    0    0  0.34503010822E+02 -0.12793917386E+02  0.12793649180E+01  0.54367097615E+02  0.40000030632E+02 0.  0.
         12    1    3    3    0    0 -0.34503010822E+02  0.12793917386E+02 -0.12793649180E+01  0.36820902385E+02  0.00000000000E+00 0. -1.
         11    1    4    4    0    0  0.10687470143E+02 -0.10921259195E+02 -0.76001219653E+01  0.17066275944E+02  0.51100000000E-03 0. -1.
        -11    1    4    4    0    0  0.19569094582E+02  0.87101820113E+01 -0.20346496292E+01  0.21516424722E+02  0.51100000000E-03 0.  1.
        -12    1    4    4    0    0  0.42464460970E+01 -0.10582840203E+02  0.10914136512E+02  0.15784396949E+02  0.00000000000E+00 0.  1.
</event>
<event>
 8    1  0.1229941E-006  0.9118800E+02  0.7816164E-02  0.1184000E+00
        -11   -1    0    0    0    0  0.00000000000E+00  0.00000000000E+00  0.45593999997E+02  0.45594000000E+02  0.51100000000E-03 0.  1.
         11   -1    0    0    0    0 -0.00000000000E+00 -0.00000000000E+00 -0.45593999997E+02  0.45594000000E+02  0.51100000000E-03 0. -1.
         23    2    1    2    0    0  0.35527136788E-14  0.00000000000E+00  0.00000000000E+00  0.91188000000E+02  0.91188000000E+02 0.  0.
    9900012    2    3    3    0    0  0.24157412529E+02 -0.20958214895E+02  0.18247014321E+02  0.54367070037E+02  0.39999967764E+02 0.  0.
         12    1    3    3    0    0 -0.24157412529E+02  0.20958214895E+02 -0.18247014321E+02  0.36820929963E+02  0.00000000000E+00 0. -1.
         11    1    4    4    0    0  0.10664555719E+02 -0.95647378472E+01  0.55473872449E+01  0.15361981131E+02  0.51100000000E-03 0. -1.
        -11    1    4    4    0    0  0.18093566526E+02 -0.16223291080E+02  0.18198421199E+02  0.30360415964E+02  0.51100000000E-03 0.  1.
         12    1    4    4    0    0 -0.46007097154E+01  0.48298140315E+01 -0.54987941235E+01  0.86446729422E+01  0.00000000000E+00 0. -1.
</event>
<event>
 8    1  0.1229941E-006  0.9118800E+02  0.7816164E-02  0.1184000E+00
        -11   -1    0    0    0    0  0.00000000000E+00  0.00000000000E+00  0.45593999997E+02  0.45594000000E+02  0.51100000000E-03 0. -1.
         11   -1    0    0    0    0 -0.00000000000E+00 -0.00000000000E+00 -0.45593999997E+02  0.45594000000E+02  0.51100000000E-03 0.  1.
         23    2    1    2    0    0 -0.35527136788E-14  0.00000000000E+00  0.35527136788E-14  0.91188000000E+02  0.91188000000E+02 0.  0.
    9900012    2    3    3    0    0  0.22263461162E+02 -0.92616608001E+01 -0.27826936512E+02  0.54367102953E+02  0.40000042801E+02 0.  0.
         12    1    3    3    0    0 -0.22263461162E+02  0.92616608001E+01  0.27826936512E+02  0.36820897047E+02  0.00000000000E+00 0. -1.
         11    1    4    4    0    0  0.23885809614E+02 -0.66635308976E+01 -0.49562118571E+01  0.25288309180E+02  0.51100000000E-03 0. -1.
        -11    1    4    4    0    0  0.76885321877E+01 -0.37458296534E+01 -0.11668800922E+02  0.14467400673E+02  0.51100000000E-03 0.  1.
        -12    1    4    4    0    0 -0.93108806397E+01  0.11476997510E+01 -0.11201923733E+02  0.14611393100E+02  0.00000000000E+00 0.  1.
</event>
<event>
 8    1  0.1229941E-006  0.9118800E+02  0.7816164E-02  0.1184000E+00
        -11   -1    0    0    0    0  0.00000000000E+00  0.00000000000E+00  0.45593999997E+02  0.45594000000E+02  0.51100000000E-03 0.  1.
         11   -1    0    0    0    0 -0.00000000000E+00 -0.00000000000E+00 -0.45593999997E+02  0.45594000000E+02  0.51100000000E-03 0. -1.
         23    2    1    2    0    0 -0.35527136788E-14 -0.17763568394E-14  0.00000000000E+00  0.91188000000E+02  0.91188000000E+02 0.  0.
    9900012    2    3    3    0    0  0.31855117603E+02  0.15874694168E+02 -0.94355030191E+01  0.54367039263E+02  0.39999897607E+02 0.  0.
         12    1    3    3    0    0 -0.31855117603E+02 -0.15874694168E+02  0.94355030191E+01  0.36820960737E+02  0.00000000000E+00 0. -1.
         11    1    4    4    0    0  0.95284890393E+01  0.10173631792E+02 -0.19543643625E+02  0.24005184724E+02  0.51100000000E-03 0. -1.
        -11    1    4    4    0    0  0.18071585818E+02  0.10319364126E+02  0.32493032654E+01  0.21062513191E+02  0.51100000000E-03 0.  1.
        -12    1    4    4    0    0  0.42550427453E+01 -0.46183017509E+01  0.68588373409E+01  0.92993413474E+01  0.00000000000E+00 0.  1.
</event>
<event>
 8    1  0.1229941E-006  0.9118800E+02  0.7816164E-02  0.1184000E+00
        -11   -1    0    0    0    0  0.00000000000E+00  0.00000000000E+00  0.45593999997E+02  0.45594000000E+02  0.51100000000E-03 0. -1.
         11   -1    0    0    0    0 -0.00000000000E+00 -0.00000000000E+00 -0.45593999997E+02  0.45594000000E+02  0.51100000000E-03 0.  1.
         23    2    1    2    0    0  0.00000000000E+00  0.00000000000E+00  0.00000000000E+00  0.91188000000E+02  0.91188000000E+02 0.  0.
    9900012    2    3    3    0    0 -0.10886722476E+02  0.13463442651E+02 -0.32496075188E+02  0.54367083161E+02  0.39999997681E+02 0.  0.
        -12    1    3    3    0    0  0.10886722476E+02 -0.13463442651E+02  0.32496075188E+02  0.36820916839E+02  0.00000000000E+00 0.  1.
         11    1    4    4    0    0  0.46893291524E+01  0.10731447639E+02 -0.92712196353E+01  0.14936843379E+02  0.51100000000E-03 0. -1.
        -11    1    4    4    0    0  0.23171851174E+01 -0.89883079381E+01 -0.12307013830E+02  0.15414980251E+02  0.51100000000E-03 0.  1.
         12    1    4    4    0    0 -0.17893236745E+02  0.11720302950E+02 -0.10917841722E+02  0.24015259531E+02  0.00000000000E+00 0. -1.
</event>
<event>
 8    1  0.1229941E-006  0.9118800E+02  0.7816164E-02  0.1184000E+00
        -11   -1    0    0    0    0  0.00000000000E+00  0.00000000000E+00  0.45593999997E+02  0.45594000000E+02  0.51100000000E-03 0. -1.
         11   -1    0    0    0    0 -0.00000000000E+00 -0.00000000000E+00 -0.45593999997E+02  0.45594000000E+02  0.51100000000E-03 0.  1.
         23    2    1    2    0    0  0.00000000000E+00  0.17763568394E-14  0.35527136788E-14  0.91188000000E+02  0.91188000000E+02 0.  0.
    9900012    2    3    3    0    0  0.19891915086E+02 -0.14236109109E+02 -0.27521348862E+02  0.54367085678E+02  0.40000003420E+02 0.  0.
        -12    1    3    3    0    0 -0.19891915086E+02  0.14236109109E+02  0.27521348862E+02  0.36820914322E+02  0.00000000000E+00 0.  1.
         11    1    4    4    0    0  0.18460126369E+02 -0.11556844710E+02 -0.96897531886E+01  0.23837538512E+02  0.51100000000E-03 0. -1.
        -11    1    4    4    0    0  0.34622999787E+01 -0.10382239387E+02  0.60172004593E-01  0.10944498014E+02  0.51100000000E-03 0.  1.
        -12    1    4    4    0    0 -0.20305112618E+01  0.77029749890E+01 -0.17891767678E+02  0.19585049152E+02  0.00000000000E+00 0.  1.
</event>
<event>
 8    1  0.1229941E-006  0.9118800E+02  0.7816164E-02  0.1184000E+00
        -11   -1    0    0    0    0  0.00000000000E+00  0.00000000000E+00  0.45593999997E+02  0.45594000000E+02  0.51100000000E-03 0. -1.
         11   -1    0    0    0    0 -0.00000000000E+00 -0.00000000000E+00 -0.45593999997E+02  0.45594000000E+02  0.51100000000E-03 0.  1.
         23    2    1    2    0    0 -0.17763568394E-14  0.00000000000E+00  0.88817841970E-15  0.91188000000E+02  0.91188000000E+02 0.  0.
    9900012    2    3    3    0    0  0.10058103225E+02  0.35341236976E+02  0.23688630988E+01  0.54367082251E+02  0.39999995608E+02 0.  0.
         12    1    3    3    0    0 -0.10058103225E+02 -0.35341236976E+02 -0.23688630988E+01  0.36820917749E+02  0.00000000000E+00 0. -1.
         11    1    4    4    0    0 -0.47077642647E+01  0.14029336996E+02 -0.10520297003E+01  0.14835501599E+02  0.51100000000E-03 0. -1.
        -11    1    4    4    0    0  0.14885860423E+02  0.37765483303E+00 -0.66410500584E+01  0.16304447548E+02  0.51100000000E-03 0.  1.
        -12    1    4    4    0    0 -0.11999293379E+00  0.20934245147E+02  0.10061942858E+02  0.23227133104E+02  0.00000000000E+00 0.  1.
</event>
<event>
 8    1  0.1229941E-006  0.9118800E+02  0.7816164E-02  0.1184000E+00
        -11   -1    0    0    0    0  0.00000000000E+00  0.00000000000E+00  0.45593999997E+02  0.45594000000E+02  0.51100000000E-03 0.  1.
         11   -1    0    0    0    0 -0.00000000000E+00 -0.00000000000E+00 -0.45593999997E+02  0.45594000000E+02  0.51100000000E-03 0. -1.
         23    2    1    2    0    0  0.71054273576E-14  0.00000000000E+00  0.00000000000E+00  0.91188000000E+02  0.91188000000E+02 0.  0.
    9900012    2    3    3    0    0 -0.31218145646E+02  0.81490385003E+01  0.17742585005E+02  0.54367098752E+02  0.40000033224E+02 0.  0.
         12    1    3    3    0    0  0.31218145646E+02 -0.81490385003E+01 -0.17742585005E+02  0.36820901248E+02  0.00000000000E+00 0. -1.
         11    1    4    4    0    0  0.10927305366E+01  0.30025570243E+01  0.16677811711E+02  0.16981131070E+02  0.51100000000E-03 0. -1.
        -11    1    4    4    0    0 -0.49596855090E+01  0.41005758707E+01  0.68621464016E+01  0.94075637823E+01  0.51100000000E-03 0.  1.
         12    1    4    4    0    0 -0.27351190674E+02  0.10459056052E+01 -0.57973731070E+01  0.27978403899E+02  0.00000000000E+00 0. -1.
</event>
<event>
 8    1  0.1229941E-006  0.9118800E+02  0.7816164E-02  0.1184000E+00
        -11   -1    0    0    0    0  0.00000000000E+00  0.00000000000E+00  0.45593999997E+02  0.45594000000E+02  0.51100000000E-03 0. -1.
         11   -1    0    0    0    0 -0.00000000000E+00 -0.00000000000E+00 -0.45593999997E+02  0.45594000000E+02  0.51100000000E-03 0.  1.
         23    2    1    2    0    0  0.00000000000E+00  0.00000000000E+00  0.53290705182E-14  0.91188000000E+02  0.91188000000E+02 0.  0.
    9900012    2    3    3    0    0  0.11342273744E+02 -0.31322626157E+02  0.15685184488E+02  0.54367094314E+02  0.40000023109E+02 0.  0.
         12    1    3    3    0    0 -0.11342273744E+02  0.31322626157E+02 -0.15685184488E+02  0.36820905686E+02  0.00000000000E+00 0. -1.
         11    1    4    4    0    0  0.62914932373E+01 -0.63244303555E+01  0.19933652942E+02  0.21838768884E+02  0.51100000000E-03 0. -1.
        -11    1    4    4    0    0  0.34956046229E+01 -0.27439674264E+02 -0.70012198845E+01  0.28533700348E+02  0.51100000000E-03 0.  1.
        -12    1    4    4    0    0  0.15551758841E+01  0.24414784626E+01  0.27527514304E+01  0.39946250827E+01  0.00000000000E+00 0.  1.
</event>
<event>
 8    1  0.1229941E-006  0.9118800E+02  0.7816164E-02  0.1184000E+00
        -11   -1    0    0    0    0  0.00000000000E+00  0.00000000000E+00  0.45593999997E+02  0.45594000000E+02  0.51100000000E-03 0.  1.
         11   -1    0    0    0    0 -0.00000000000E+00 -0.00000000000E+00 -0.45593999997E+02  0.45594000000E+02  0.51100000000E-03 0. -1.
         23    2    1    2    0    0  0.00000000000E+00  0.00000000000E+00 -0.88817841970E-15  0.91188000000E+02  0.91188000000E+02 0.  0.
    9900012    2    3    3    0    0 -0.41976302040E+01  0.36112421049E+02 -0.58355008403E+01  0.54367080357E+02  0.39999991289E+02 0.  0.
        -12    1    3    3    0    0  0.41976302040E+01 -0.36112421049E+02  0.58355008403E+01  0.36820919643E+02  0.00000000000E+00 0.  1.
         11    1    4    4    0    0 -0.58739097081E+01  0.22753443949E+02 -0.82768608633E+01  0.24914422586E+02  0.51100000000E-03 0. -1.
        -11    1    4    4    0    0  0.11747338505E+02  0.23602537073E+01 -0.47587206017E+01  0.12892485468E+02  0.51100000000E-03 0.  1.
         12    1    4    4    0    0 -0.10071059001E+02  0.10998723392E+02  0.72000806248E+01  0.16560172302E+02  0.00000000000E+00 0. -1.
</event>
<event>
 8    1  0.1229941E-006  0.9118800E+02  0.7816164E-02  0.1184000E+00
        -11   -1    0    0    0    0  0.00000000000E+00  0.00000000000E+00  0.45593999997E+02  0.45594000000E+02  0.51100000000E-03 0.  1.
         11   -1    0    0    0    0 -0.00000000000E+00 -0.00000000000E+00 -0.45593999997E+02  0.45594000000E+02  0.51100000000E-03 0. -1.
         23    2    1    2    0    0  0.00000000000E+00  0.00000000000E+00  0.00000000000E+00  0.91188000000E+02  0.91188000000E+02 0.  0.
    9900012    2    3    3    0    0  0.12374200543E+02  0.90370939184E+01 -0.33481184918E+02  0.54367086798E+02  0.40000005972E+02 0.  0.
        -12    1    3    3    0    0 -0.12374200543E+02 -0.90370939184E+01  0.33481184918E+02  0.36820913202E+02  0.00000000000E+00 0.  1.
         11    1    4    4    0    0 -0.12616443744E+01 -0.10287073715E+02 -0.12349691245E+02  0.16122360443E+02  0.51100000000E-03 0. -1.
        -11    1    4    4    0    0  0.21530223628E+01  0.20049052429E+02 -0.15509087526E+02  0.25438785442E+02  0.51100000000E-03 0.  1.
         12    1    4    4    0    0  0.11482822554E+02 -0.72488479521E+00 -0.56224061468E+01  0.12805940913E+02  0.00000000000E+00 0. -1.
</event>
<event>
 8    1  0.1229941E-006  0.9118800E+02  0.7816164E-02  0.1184000E+00
        -11   -1    0    0    0    0  0.00000000000E+00  0.00000000000E+00  0.45593999997E+02  0.45594000000E+02  0.51100000000E-03 0. -1.
         11   -1    0    0    0    0 -0.00000000000E+00 -0.00000000000E+00 -0.45593999997E+02  0.45594000000E+02  0.51100000000E-03 0.  1.
         23    2    1    2    0    0  0.00000000000E+00  0.00000000000E+00 -0.44408920985E-15  0.91188000000E+02  0.91188000000E+02 0.  0.
    9900012    2    3    3    0    0 -0.37678541970E+01  0.36495077285E+02  0.31132665990E+01  0.54367084473E+02  0.40000000674E+02 0.  0.
         12    1    3    3    0    0  0.37678541970E+01 -0.36495077285E+02 -0.31132665990E+01  0.36820915527E+02  0.00000000000E+00 0. -1.
         11    1    4    4    0    0  0.51134700561E+01  0.14243340798E+02 -0.95766215402E+01  0.17908992531E+02  0.51100000000E-03 0.  1.
        -11    1    4    4    0    0 -0.17062952151E+01  0.17449162825E+02 -0.37133488400E+01  0.17921319330E+02  0.51100000000E-03 0. -1.
         12    1    4    4    0    0 -0.71750290380E+01  0.48025736624E+01  0.16403236979E+02  0.18536772612E+02  0.00000000000E+00 0. -1.
</event>
<event>
 8    1  0.1229941E-006  0.9118800E+02  0.7816164E-02  0.1184000E+00
        -11   -1    0    0    0    0  0.00000000000E+00  0.00000000000E+00  0.45593999997E+02  0.45594000000E+02  0.51100000000E-03 0. -1.
         11   -1    0    0    0    0 -0.00000000000E+00 -0.00000000000E+00 -0.45593999997E+02  0.45594000000E+02  0.51100000000E-03 0.  1.
         23    2    1    2    0    0  0.00000000000E+00  0.35527136788E-14 -0.35527136788E-14  0.91188000000E+02  0.91188000000E+02 0.  0.
    9900012    2    3    3    0    0  0.16680528750E+02  0.22036353126E+02 -0.24329789934E+02  0.54367087780E+02  0.40000008212E+02 0.  0.
         12    1    3    3    0    0 -0.16680528750E+02 -0.22036353126E+02  0.24329789934E+02  0.36820912220E+02  0.00000000000E+00 0. -1.
         11    1    4    4    0    0 -0.13104747079E+01  0.65055461259E+01 -0.27173130333E+01  0.71710016552E+01  0.51100000000E-03 0. -1.
        -11    1    4    4    0    0  0.19762179065E+02  0.44967544273E+01  0.26921464467E+01  0.20445346036E+02  0.51100000000E-03 0.  1.
         12    1    4    4    0    0 -0.17711756077E+01  0.11034052573E+02 -0.24304623348E+02  0.26750740089E+02  0.00000000000E+00 0. -1.
</event>
<event>
 8    1  0.1229941E-006  0.9118800E+02  0.7816164E-02  0.1184000E+00
        -11   -1    0    0    0    0  0.00000000000E+00  0.00000000000E+00  0.45593999997E+02  0.45594000000E+02  0.51100000000E-03 0.  1.
         11   -1    0    0    0    0 -0.00000000000E+00 -0.00000000000E+00 -0.45593999997E+02  0.45594000000E+02  0.51100000000E-03 0. -1.
         23    2    1    2    0    0  0.00000000000E+00 -0.44408920985E-15  0.00000000000E+00  0.91188000000E+02  0.91188000000E+02 0.  0.
    9900012    2    3    3    0    0 -0.27457534285E+02 -0.23698655440E+01 -0.24418083640E+02  0.54367146393E+02  0.40000141832E+02 0.  0.
        -12    1    3    3    0    0  0.27457534285E+02  0.23698655440E+01  0.24418083640E+02  0.36820853607E+02  0.00000000000E+00 0.  1.
         11    1    4    4    0    0 -0.24776811517E+02 -0.16874480020E+01 -0.29335324348E+02  0.38435649137E+02  0.51100000000E-03 0. -1.
        -11    1    4    4    0    0 -0.13510893250E+00  0.27902120202E+01 -0.46587194860E+01  0.54320534839E+01  0.51100000000E-03 0.  1.
        -12    1    4    4    0    0 -0.25456138358E+01 -0.34726295622E+01  0.95759601947E+01  0.10499443772E+02  0.00000000000E+00 0.  1.
</event>
<event>
 8    1  0.1229941E-006  0.9118800E+02  0.7816164E-02  0.1184000E+00
        -11   -1    0    0    0    0  0.00000000000E+00  0.00000000000E+00  0.45593999997E+02  0.45594000000E+02  0.51100000000E-03 0. -1.
         11   -1    0    0    0    0 -0.00000000000E+00 -0.00000000000E+00 -0.45593999997E+02  0.45594000000E+02  0.51100000000E-03 0.  1.
         23    2    1    2    0    0 -0.35527136788E-14 -0.35527136788E-14  0.44408920985E-15  0.91188000000E+02  0.91188000000E+02 0.  0.
    9900012    2    3    3    0    0 -0.20967026277E+02 -0.30142802442E+02 -0.27524041116E+01  0.54367075808E+02  0.39999980920E+02 0.  0.
        -12    1    3    3    0    0  0.20967026277E+02  0.30142802442E+02  0.27524041116E+01  0.36820924192E+02  0.00000000000E+00 0.  1.
         11    1    4    4    0    0 -0.14463749551E+02 -0.26196396729E+02 -0.14473787939E+02  0.33240664708E+02  0.51100000000E-03 0.  1.
        -11    1    4    4    0    0  0.51240083725E+01  0.30487121840E+00  0.42692883595E+01  0.66764684991E+01  0.51100000000E-03 0. -1.
         12    1    4    4    0    0 -0.11627285099E+02 -0.42512769310E+01  0.74520954681E+01  0.14449942601E+02  0.00000000000E+00 0. -1.
</event>
<event>
 8    1  0.1229941E-006  0.9118800E+02  0.7816164E-02  0.1184000E+00
        -11   -1    0    0    0    0  0.00000000000E+00  0.00000000000E+00  0.45593999997E+02  0.45594000000E+02  0.51100000000E-03 0.  1.
         11   -1    0    0    0    0 -0.00000000000E+00 -0.00000000000E+00 -0.45593999997E+02  0.45594000000E+02  0.51100000000E-03 0. -1.
         23    2    1    2    0    0  0.66613381478E-15  0.00000000000E+00  0.00000000000E+00  0.91188000000E+02  0.91188000000E+02 0.  0.
    9900012    2    3    3    0    0 -0.30024400101E+00  0.36451219314E+02 -0.51954810327E+01  0.54367155916E+02  0.40000163540E+02 0.  0.
        -12    1    3    3    0    0  0.30024400101E+00 -0.36451219314E+02  0.51954810327E+01  0.36820844084E+02  0.00000000000E+00 0.  1.
         11    1    4    4    0    0  0.13120082338E+02  0.13600821883E+02 -0.13270088171E+01  0.18944124923E+02  0.51100000000E-03 0. -1.
        -11    1    4    4    0    0 -0.14248467471E+01 -0.25630504255E+01 -0.65665440924E+01  0.71915865645E+01  0.51100000000E-03 0.  1.
        -12    1    4    4    0    0 -0.11995479592E+02  0.25413447857E+02  0.26980718768E+01  0.28231444428E+02  0.00000000000E+00 0.  1.
</event>
<event>
 8    1  0.1229941E-006  0.9118800E+02  0.7816164E-02  0.1184000E+00
        -11   -1    0    0    0    0  0.00000000000E+00  0.00000000000E+00  0.45593999997E+02  0.45594000000E+02  0.51100000000E-03 0. -1.
         11   -1    0    0    0    0 -0.00000000000E+00 -0.00000000000E+00 -0.45593999997E+02  0.45594000000E+02  0.51100000000E-03 0.  1.
         23    2    1    2    0    0  0.00000000000E+00  0.00000000000E+00  0.17763568394E-14  0.91188000000E+02  0.91188000000E+02 0.  0.
    9900012    2    3    3    0    0 -0.12968359650E+01 -0.34267021705E+02  0.13411531547E+02  0.54367085583E+02  0.40000003204E+02 0.  0.
        -12    1    3    3    0    0  0.12968359650E+01  0.34267021705E+02 -0.13411531547E+02  0.36820914417E+02  0.00000000000E+00 0.  1.
         11    1    4    4    0    0 -0.22855562008E+01 -0.83279840584E+01  0.10917202899E+02  0.13919928341E+02  0.51100000000E-03 0. -1.
        -11    1    4    4    0    0 -0.30949920878E+01 -0.26426852782E+01 -0.12024678930E+02  0.12694710124E+02  0.51100000000E-03 0.  1.
        -12    1    4    4    0    0  0.40837123236E+01 -0.23296352368E+02  0.14519007578E+02  0.27752447119E+02  0.00000000000E+00 0.  1.
</event>
<event>
 8    1  0.1229941E-006  0.9118800E+02  0.7816164E-02  0.1184000E+00
        -11   -1    0    0    0    0  0.00000000000E+00  0.00000000000E+00  0.45593999997E+02  0.45594000000E+02  0.51100000000E-03 0. -1.
         11   -1    0    0    0    0 -0.00000000000E+00 -0.00000000000E+00 -0.45593999997E+02  0.45594000000E+02  0.51100000000E-03 0.  1.
         23    2    1    2    0    0 -0.71054273576E-14 -0.17763568394E-14  0.00000000000E+00  0.91188000000E+02  0.91188000000E+02 0.  0.
    9900012    2    3    3    0    0  0.32897717849E+02  0.11290650323E+02 -0.12084782170E+02  0.54367074095E+02  0.39999977014E+02 0.  0.
         12    1    3    3    0    0 -0.32897717849E+02 -0.11290650323E+02  0.12084782170E+02  0.36820925905E+02  0.00000000000E+00 0. -1.
         11    1    4    4    0    0 -0.69422264213E+01  0.56652523652E+00 -0.69727394593E+01  0.98556863971E+01  0.51100000000E-03 0. -1.
        -11    1    4    4    0    0  0.33775942691E+02  0.23245629897E+01 -0.40561483325E+01  0.34097950632E+02  0.51100000000E-03 0.  1.
         12    1    4    4    0    0  0.60640015794E+01  0.83995620971E+01 -0.10558943778E+01  0.10413437065E+02  0.00000000000E+00 0. -1.
</event>
<event>
 8    1  0.1229941E-006  0.9118800E+02  0.7816164E-02  0.1184000E+00
        -11   -1    0    0    0    0  0.00000000000E+00  0.00000000000E+00  0.45593999997E+02  0.45594000000E+02  0.51100000000E-03 0.  1.
         11   -1    0    0    0    0 -0.00000000000E+00 -0.00000000000E+00 -0.45593999997E+02  0.45594000000E+02  0.51100000000E-03 0. -1.
         23    2    1    2    0    0 -0.44408920985E-15 -0.35527136788E-14  0.00000000000E+00  0.91188000000E+02  0.91188000000E+02 0.  0.
    9900012    2    3    3    0    0 -0.15083149967E+01 -0.30054729420E+02  0.21218339940E+02  0.54367085773E+02  0.40000003638E+02 0.  0.
         12    1    3    3    0    0  0.15083149967E+01  0.30054729420E+02 -0.21218339940E+02  0.36820914227E+02  0.00000000000E+00 0. -1.
         11    1    4    4    0    0 -0.60744650094E+01 -0.22003462439E+02 -0.20531239389E+00  0.22827475504E+02  0.51100000000E-03 0. -1.
        -11    1    4    4    0    0  0.14662174285E+01 -0.10338837896E+02  0.70527327832E+00  0.10466077261E+02  0.51100000000E-03 0.  1.
        -12    1    4    4    0    0  0.30999325842E+01  0.22875709148E+01  0.20718379056E+02  0.21073533008E+02  0.00000000000E+00 0.  1.
</event>
<event>
 8    1  0.1229941E-006  0.9118800E+02  0.7816164E-02  0.1184000E+00
        -11   -1    0    0    0    0  0.00000000000E+00  0.00000000000E+00  0.45593999997E+02  0.45594000000E+02  0.51100000000E-03 0.  1.
         11   -1    0    0    0    0 -0.00000000000E+00 -0.00000000000E+00 -0.45593999997E+02  0.45594000000E+02  0.51100000000E-03 0. -1.
         23    2    1    2    0    0  0.00000000000E+00  0.00000000000E+00  0.55511151231E-15  0.91188000000E+02  0.91188000000E+02 0.  0.
    9900012    2    3    3    0    0 -0.36604572446E+02 -0.39462161058E+01  0.55886383630E+00  0.54367086455E+02  0.40000005192E+02 0.  0.
        -12    1    3    3    0    0  0.36604572446E+02  0.39462161058E+01 -0.55886383630E+00  0.36820913545E+02  0.00000000000E+00 0.  1.
         11    1    4    4    0    0 -0.26212600496E+02  0.12092238876E+01 -0.12510188755E+02  0.29070044206E+02  0.51100000000E-03 0. -1.
        -11    1    4    4    0    0 -0.12227548748E+02 -0.65557947902E+01  0.20332471296E+01  0.14022321058E+02  0.51100000000E-03 0.  1.
        -12    1    4    4    0    0  0.18355767977E+01  0.14003547967E+01  0.11035805462E+02  0.11274721191E+02  0.00000000000E+00 0.  1.
</event>
<event>
 8    1  0.1229941E-006  0.9118800E+02  0.7816164E-02  0.1184000E+00
        -11   -1    0    0    0    0  0.00000000000E+00  0.00000000000E+00  0.45593999997E+02  0.45594000000E+02  0.51100000000E-03 0.  1.
         11   -1    0    0    0    0 -0.00000000000E+00 -0.00000000000E+00 -0.45593999997E+02  0.45594000000E+02  0.51100000000E-03 0. -1.
         23    2    1    2    0    0  0.35527136788E-14  0.17763568394E-14  0.00000000000E+00  0.91188000000E+02  0.91188000000E+02 0.  0.
    9900012    2    3    3    0    0 -0.27294039499E+02  0.95258687291E+01 -0.22805145482E+02  0.54367062645E+02  0.39999950913E+02 0.  0.
        -12    1    3    3    0    0  0.27294039499E+02 -0.95258687291E+01  0.22805145482E+02  0.36820937355E+02  0.00000000000E+00 0.  1.
         11    1    4    4    0    0 -0.66746805817E+01  0.13021867771E+02 -0.57585954966E+01  0.15725197088E+02  0.51100000000E-03 0. -1.
        -11    1    4    4    0    0 -0.14118505325E+02  0.39642320683E+01  0.41575904907E+01  0.15242469861E+02  0.51100000000E-03 0.  1.
         12    1    4    4    0    0 -0.65008535925E+01 -0.74602311098E+01 -0.21204140476E+02  0.23399395697E+02  0.00000000000E+00 0. -1.
</event>
<event>
 8    1  0.1229941E-006  0.9118800E+02  0.7816164E-02  0.1184000E+00
        -11   -1    0    0    0    0  0.00000000000E+00  0.00000000000E+00  0.45593999997E+02  0.45594000000E+02  0.51100000000E-03 0.  1.
         11   -1    0    0    0    0 -0.00000000000E+00 -0.00000000000E+00 -0.45593999997E+02  0.45594000000E+02  0.51100000000E-03 0. -1.
         23    2    1    2    0    0  0.11102230246E-15  0.00000000000E+00  0.00000000000E+00  0.91188000000E+02  0.91188000000E+02 0.  0.
    9900012    2    3    3    0    0 -0.39039047402E+00 -0.15544469686E+01 -0.36786013753E+02  0.54367088578E+02  0.40000010032E+02 0.  0.
        -12    1    3    3    0    0  0.39039047402E+00  0.15544469686E+01  0.36786013753E+02  0.36820911422E+02  0.00000000000E+00 0.  1.
         11    1    4    4    0    0  0.13361866263E+01  0.28486955854E+01 -0.26452003878E+02  0.26638486643E+02  0.51100000000E-03 0. -1.
        -11    1    4    4    0    0  0.30520670153E+01 -0.24074688751E+01 -0.18034531021E+02  0.18448721605E+02  0.51100000000E-03 0.  1.
        -12    1    4    4    0    0 -0.47786441157E+01 -0.19956736789E+01  0.77005211461E+01  0.92798803300E+01  0.00000000000E+00 0.  1.
</event>
<event>
 8    1  0.1229941E-006  0.9118800E+02  0.7816164E-02  0.1184000E+00
        -11   -1    0    0    0    0  0.00000000000E+00  0.00000000000E+00  0.45593999997E+02  0.45594000000E+02  0.51100000000E-03 0.  1.
         11   -1    0    0    0    0 -0.00000000000E+00 -0.00000000000E+00 -0.45593999997E+02  0.45594000000E+02  0.51100000000E-03 0. -1.
         23    2    1    2    0    0  0.00000000000E+00  0.00000000000E+00  0.00000000000E+00  0.91188000000E+02  0.91188000000E+02 0.  0.
    9900012    2    3    3    0    0  0.18292208293E+02  0.20557794345E+02  0.24465308389E+02  0.54367094157E+02  0.40000022749E+02 0.  0.
         12    1    3    3    0    0 -0.18292208293E+02 -0.20557794345E+02 -0.24465308389E+02  0.36820905843E+02  0.00000000000E+00 0. -1.
         11    1    4    4    0    0 -0.74280051114E+01 -0.17373119402E+01  0.10233984591E+02  0.12764323468E+02  0.51100000000E-03 0. -1.
        -11    1    4    4    0    0  0.15771740250E+02  0.96029219130E+01  0.17165558181E+02  0.25211511016E+02  0.51100000000E-03 0.  1.
        -12    1    4    4    0    0  0.99484731551E+01  0.12692184372E+02 -0.29342343838E+01  0.16391259673E+02  0.00000000000E+00 0.  1.
</event>
<event>
 8    1  0.1229941E-006  0.9118800E+02  0.7816164E-02  0.1184000E+00
        -11   -1    0    0    0    0  0.00000000000E+00  0.00000000000E+00  0.45593999997E+02  0.45594000000E+02  0.51100000000E-03 0.  1.
         11   -1    0    0    0    0 -0.00000000000E+00 -0.00000000000E+00 -0.45593999997E+02  0.45594000000E+02  0.51100000000E-03 0. -1.
         23    2    1    2    0    0  0.00000000000E+00  0.00000000000E+00 -0.17763568394E-14  0.91188000000E+02  0.91188000000E+02 0.  0.
    9900012    2    3    3    0    0 -0.10936070041E+02  0.33609707632E+02 -0.10323192206E+02  0.54367104134E+02  0.40000045494E+02 0.  0.
        -12    1    3    3    0    0  0.10936070041E+02 -0.33609707632E+02  0.10323192206E+02  0.36820895866E+02  0.00000000000E+00 0.  1.
         11    1    4    4    0    0  0.56968805954E+01  0.23985940629E+02 -0.16618928517E+02  0.29731609134E+02  0.51100000000E-03 0.  1.
        -11    1    4    4    0    0 -0.59368296958E+01  0.28926271561E+01 -0.45188513336E+01  0.80020782511E+01  0.51100000000E-03 0. -1.
        -12    1    4    4    0    0 -0.10696120940E+02  0.67311398475E+01  0.10814587645E+02  0.16633416749E+02  0.00000000000E+00 0.  1.
</event>
<event>
 8    1  0.1229941E-006  0.9118800E+02  0.7816164E-02  0.1184000E+00
        -11   -1    0    0    0    0  0.00000000000E+00  0.00000000000E+00  0.45593999997E+02  0.45594000000E+02  0.51100000000E-03 0. -1.
         11   -1    0    0    0    0 -0.00000000000E+00 -0.00000000000E+00 -0.45593999997E+02  0.45594000000E+02  0.51100000000E-03 0.  1.
         23    2    1    2    0    0  0.35527136788E-14  0.00000000000E+00  0.17763568394E-14  0.91188000000E+02  0.91188000000E+02 0.  0.
    9900012    2    3    3    0    0  0.24331605651E+02 -0.24310124078E+02  0.13144201845E+02  0.54367092781E+02  0.40000019613E+02 0.  0.
        -12    1    3    3    0    0 -0.24331605651E+02  0.24310124078E+02 -0.13144201845E+02  0.36820907219E+02  0.00000000000E+00 0.  1.
         11    1    4    4    0    0 -0.38773298509E+01  0.37610059163E+01  0.62340338676E+01  0.82487593491E+01  0.51100000000E-03 0. -1.
        -11    1    4    4    0    0  0.83955830172E+01 -0.14218600495E+02 -0.73238498311E+01  0.18063587430E+02  0.51100000000E-03 0.  1.
         12    1    4    4    0    0  0.19813352485E+02 -0.13852529500E+02  0.14234017809E+02  0.28054746002E+02  0.00000000000E+00 0. -1.
</event>
<event>
 8    1  0.1229941E-006  0.9118800E+02  0.7816164E-02  0.1184000E+00
        -11   -1    0    0    0    0  0.00000000000E+00  0.00000000000E+00  0.45593999997E+02  0.45594000000E+02  0.51100000000E-03 0.  1.
         11   -1    0    0    0    0 -0.00000000000E+00 -0.00000000000E+00 -0.45593999997E+02  0.45594000000E+02  0.51100000000E-03 0. -1.
         23    2    1    2    0    0 -0.17763568394E-14  0.17763568394E-14  0.71054273576E-14  0.91188000000E+02  0.91188000000E+02 0.  0.
    9900012    2    3    3    0    0 -0.76807716978E+01  0.15783001864E+02  0.32367925286E+02  0.54367082181E+02  0.39999995449E+02 0.  0.
         12    1    3    3    0    0  0.76807716978E+01 -0.15783001864E+02 -0.32367925286E+02  0.36820917819E+02  0.00000000000E+00 0. -1.
         11    1    4    4    0    0 -0.24200637175E+01 -0.79308858670E+01 -0.52897570081E+00  0.83087589076E+01  0.51100000000E-03 0. -1.
        -11    1    4    4    0    0  0.27196286515E+01  0.37810160280E+01 -0.20131489323E+01  0.50739758662E+01  0.51100000000E-03 0.  1.
        -12    1    4    4    0    0 -0.79803366318E+01  0.19932871703E+02  0.34910049919E+02  0.40984347407E+02  0.00000000000E+00 0.  1.
</event>
<event>
 8    1  0.1229941E-006  0.9118800E+02  0.7816164E-02  0.1184000E+00
        -11   -1    0    0    0    0  0.00000000000E+00  0.00000000000E+00  0.45593999997E+02  0.45594000000E+02  0.51100000000E-03 0. -1.
         11   -1    0    0    0    0 -0.00000000000E+00 -0.00000000000E+00 -0.45593999997E+02  0.45594000000E+02  0.51100000000E-03 0.  1.
         23    2    1    2    0    0  0.00000000000E+00  0.00000000000E+00 -0.88817841970E-15  0.91188000000E+02  0.91188000000E+02 0.  0.
    9900012    2    3    3    0    0  0.28921269022E+02 -0.22568662095E+02  0.31618827701E+01  0.54367057409E+02  0.39999938975E+02 0.  0.
        -12    1    3    3    0    0 -0.28921269022E+02  0.22568662095E+02 -0.31618827701E+01  0.36820942591E+02  0.00000000000E+00 0.  1.
         11    1    4    4    0    0 -0.40634514004E+01 -0.17865553212E+02 -0.13459055936E+01  0.18371202764E+02  0.51100000000E-03 0. -1.
        -11    1    4    4    0    0  0.21925292865E+02  0.29896386649E+01  0.41834076762E+01  0.22520153344E+02  0.51100000000E-03 0.  1.
         12    1    4    4    0    0  0.11059427557E+02 -0.76927475483E+01  0.32438068755E+00  0.13475701301E+02  0.00000000000E+00 0. -1.
</event>
<event>
 8    1  0.1229941E-006  0.9118800E+02  0.7816164E-02  0.1184000E+00
        -11   -1    0    0    0    0  0.00000000000E+00  0.00000000000E+00  0.45593999997E+02  0.45594000000E+02  0.51100000000E-03 0. -1.
         11   -1    0    0    0    0 -0.00000000000E+00 -0.00000000000E+00 -0.45593999997E+02  0.45594000000E+02  0.51100000000E-03 0.  1.
         23    2    1    2    0    0  0.17763568394E-14  0.00000000000E+00  0.00000000000E+00  0.91188000000E+02  0.91188000000E+02 0.  0.
    9900012    2    3    3    0    0 -0.78416075513E+01 -0.34829275384E+02  0.90117088469E+01  0.54367080279E+02  0.39999991112E+02 0.  0.
         12    1    3    3    0    0  0.78416075513E+01  0.34829275384E+02 -0.90117088469E+01  0.36820919721E+02  0.00000000000E+00 0. -1.
         11    1    4    4    0    0 -0.19015221044E+02 -0.31510420390E+02  0.44439782286E+01  0.37070664511E+02  0.51100000000E-03 0. -1.
        -11    1    4    4    0    0  0.78156338057E+01 -0.40150604071E+01 -0.27566768356E+01  0.92089146643E+01  0.51100000000E-03 0.  1.
         12    1    4    4    0    0  0.33579796875E+01  0.69620541298E+00  0.73244074538E+01  0.80875011041E+01  0.00000000000E+00 0. -1.
</event>
<event>
 8    1  0.1229941E-006  0.9118800E+02  0.7816164E-02  0.1184000E+00
        -11   -1    0    0    0    0  0.00000000000E+00  0.00000000000E+00  0.45593999997E+02  0.45594000000E+02  0.51100000000E-03 0.  1.
         11   -1    0    0    0    0 -0.00000000000E+00 -0.00000000000E+00 -0.45593999997E+02  0.45594000000E+02  0.51100000000E-03 0. -1.
         23    2    1    2    0    0  0.00000000000E+00 -0.88817841970E-15  0.00000000000E+00  0.91188000000E+02  0.91188000000E+02 0.  0.
    9900012    2    3    3    0    0  0.33615985081E+02  0.79201944844E+01 -0.12767556213E+02  0.54367157733E+02  0.40000167683E+02 0.  0.
         12    1    3    3    0    0 -0.33615985081E+02 -0.79201944844E+01  0.12767556213E+02  0.36820842267E+02  0.00000000000E+00 0. -1.
         11    1    4    4    0    0  0.48994089894E+00  0.15183642434E+01 -0.14154730373E+02  0.14244362543E+02  0.51100000000E-03 0.  1.
        -11    1    4    4    0    0  0.29865185302E+02  0.33596047705E+01 -0.67877622504E+01  0.30810549394E+02  0.51100000000E-03 0. -1.
        -12    1    4    4    0    0  0.32608588795E+01  0.30422254705E+01  0.81749364101E+01  0.93122457954E+01  0.00000000000E+00 0.  1.
</event>
<event>
 8    1  0.1229941E-006  0.9118800E+02  0.7816164E-02  0.1184000E+00
        -11   -1    0    0    0    0  0.00000000000E+00  0.00000000000E+00  0.45593999997E+02  0.45594000000E+02  0.51100000000E-03 0.  1.
         11   -1    0    0    0    0 -0.00000000000E+00 -0.00000000000E+00 -0.45593999997E+02  0.45594000000E+02  0.51100000000E-03 0. -1.
         23    2    1    2    0    0  0.00000000000E+00  0.35527136788E-14 -0.17763568394E-14  0.91188000000E+02  0.91188000000E+02 0.  0.
    9900012    2    3    3    0    0 -0.25926229298E+02 -0.22290185930E+02  0.13665928128E+02  0.54367090913E+02  0.40000015355E+02 0.  0.
         12    1    3    3    0    0  0.25926229298E+02  0.22290185930E+02 -0.13665928128E+02  0.36820909087E+02  0.00000000000E+00 0. -1.
         11    1    4    4    0    0 -0.48839123341E+01 -0.20726402282E+02  0.10882109133E+02  0.23913524430E+02  0.51100000000E-03 0. -1.
        -11    1    4    4    0    0 -0.23294167543E+02 -0.67076837453E+01  0.12577717888E+00  0.24241020666E+02  0.51100000000E-03 0.  1.
        -12    1    4    4    0    0  0.22518505798E+01  0.51439000968E+01  0.26580418161E+01  0.62125458175E+01  0.00000000000E+00 0.  1.
</event>
<event>
 8    1  0.1229941E-006  0.9118800E+02  0.7816164E-02  0.1184000E+00
        -11   -1    0    0    0    0  0.00000000000E+00  0.00000000000E+00  0.45593999997E+02  0.45594000000E+02  0.51100000000E-03 0.  1.
         11   -1    0    0    0    0 -0.00000000000E+00 -0.00000000000E+00 -0.45593999997E+02  0.45594000000E+02  0.51100000000E-03 0. -1.
         23    2    1    2    0    0 -0.19081958236E-15  0.17763568394E-14  0.00000000000E+00  0.91188000000E+02  0.91188000000E+02 0.  0.
    9900012    2    3    3    0    0 -0.27822867757E-01  0.38684605338E+01 -0.36617131199E+02  0.54367081240E+02  0.39999993304E+02 0.  0.
        -12    1    3    3    0    0  0.27822867757E-01 -0.38684605338E+01  0.36617131199E+02  0.36820918760E+02  0.00000000000E+00 0.  1.
         11    1    4    4    0    0 -0.11696707269E+00  0.17395266858E+02 -0.32927792427E+02  0.37240414938E+02  0.51100000000E-03 0. -1.
        -11    1    4    4    0    0 -0.35178746506E+01 -0.16594762624E+01 -0.25934340634E+01  0.46749549758E+01  0.51100000000E-03 0.  1.
        -12    1    4    4    0    0  0.36070188556E+01 -0.11867330062E+02 -0.10959047088E+01  0.12451711327E+02  0.00000000000E+00 0.  1.
</event>
<event>
 8    1  0.1229941E-006  0.9118800E+02  0.7816164E-02  0.1184000E+00
        -11   -1    0    0    0    0  0.00000000000E+00  0.00000000000E+00  0.45593999997E+02  0.45594000000E+02  0.51100000000E-03 0.  1.
         11   -1    0    0    0    0 -0.00000000000E+00 -0.00000000000E+00 -0.45593999997E+02  0.45594000000E+02  0.51100000000E-03 0. -1.
         23    2    1    2    0    0  0.00000000000E+00  0.00000000000E+00 -0.71054273576E-14  0.91188000000E+02  0.91188000000E+02 0.  0.
    9900012    2    3    3    0    0 -0.20970791401E+01 -0.17048950459E+02 -0.32568579365E+02  0.54367125288E+02  0.40000093720E+02 0.  0.
        -12    1    3    3    0    0  0.20970791401E+01  0.17048950459E+02  0.32568579365E+02  0.36820874712E+02  0.00000000000E+00 0.  1.
         11    1    4    4    0    0 -0.21257300130E+01 -0.55547205157E+01 -0.21894346640E+02  0.22687795467E+02  0.51100000000E-03 0. -1.
        -11    1    4    4    0    0  0.27292791554E+01  0.24595206426E+01 -0.16064160120E+02  0.16478939502E+02  0.51100000000E-03 0.  1.
        -12    1    4    4    0    0 -0.27006282825E+01 -0.13953750586E+02  0.53899273948E+01  0.15200390319E+02  0.00000000000E+00 0.  1.
</event>
<event>
 8    1  0.1229941E-006  0.9118800E+02  0.7816164E-02  0.1184000E+00
        -11   -1    0    0    0    0  0.00000000000E+00  0.00000000000E+00  0.45593999997E+02  0.45594000000E+02  0.51100000000E-03 0.  1.
         11   -1    0    0    0    0 -0.00000000000E+00 -0.00000000000E+00 -0.45593999997E+02  0.45594000000E+02  0.51100000000E-03 0. -1.
         23    2    1    2    0    0  0.35527136788E-14  0.00000000000E+00  0.00000000000E+00  0.91188000000E+02  0.91188000000E+02 0.  0.
    9900012    2    3    3    0    0  0.18033741452E+02  0.22387637887E+02  0.23007754187E+02  0.54367096784E+02  0.40000028738E+02 0.  0.
        -12    1    3    3    0    0 -0.18033741452E+02 -0.22387637887E+02 -0.23007754187E+02  0.36820903216E+02  0.00000000000E+00 0.  1.
         11    1    4    4    0    0  0.18624233740E+02  0.19264111483E+02  0.72010398398E+01  0.27745685226E+02  0.51100000000E-03 0. -1.
        -11    1    4    4    0    0 -0.57720571961E+01  0.77765960233E+01  0.16991008354E+02  0.19557260932E+02  0.51100000000E-03 0.  1.
        -12    1    4    4    0    0  0.51815649083E+01 -0.46530696191E+01 -0.11842940071E+01  0.70641506265E+01  0.00000000000E+00 0.  1.
</event>
<event>
 8    1  0.1229941E-006  0.9118800E+02  0.7816164E-02  0.1184000E+00
        -11   -1    0    0    0    0  0.00000000000E+00  0.00000000000E+00  0.45593999997E+02  0.45594000000E+02  0.51100000000E-03 0. -1.
         11   -1    0    0    0    0 -0.00000000000E+00 -0.00000000000E+00 -0.45593999997E+02  0.45594000000E+02  0.51100000000E-03 0.  1.
         23    2    1    2    0    0 -0.35527136788E-14 -0.35527136788E-14 -0.35527136788E-14  0.91188000000E+02  0.91188000000E+02 0.  0.
    9900012    2    3    3    0    0  0.16198786261E+02  0.26049900134E+02  0.20366067304E+02  0.54367154399E+02  0.40000160084E+02 0.  0.
        -12    1    3    3    0    0 -0.16198786261E+02 -0.26049900134E+02 -0.20366067304E+02  0.36820845601E+02  0.00000000000E+00 0.  1.
         11    1    4    4    0    0 -0.69483107436E+01  0.17415602452E+02  0.87666906839E+01  0.20698722104E+02  0.51100000000E-03 0.  1.
        -11    1    4    4    0    0  0.24722768706E+02  0.61211947601E+01  0.14675780167E+02  0.29394945851E+02  0.51100000000E-03 0. -1.
        -12    1    4    4    0    0 -0.15756717018E+01  0.25131029220E+01 -0.30764035466E+01  0.42734864444E+01  0.00000000000E+00 0.  1.
</event>
<event>
 8    1  0.1229941E-006  0.9118800E+02  0.7816164E-02  0.1184000E+00
        -11   -1    0    0    0    0  0.00000000000E+00  0.00000000000E+00  0.45593999997E+02  0.45594000000E+02  0.51100000000E-03 0. -1.
         11   -1    0    0    0    0 -0.00000000000E+00 -0.00000000000E+00 -0.45593999997E+02  0.45594000000E+02  0.51100000000E-03 0.  1.
         23    2    1    2    0    0  0.71054273576E-14  0.17763568394E-14 -0.35527136788E-14  0.91188000000E+02  0.91188000000E+02 0.  0.
    9900012    2    3    3    0    0 -0.32770394222E+02 -0.12943757994E+02  0.10692878236E+02  0.54367119328E+02  0.40000080133E+02 0.  0.
         12    1    3    3    0    0  0.32770394222E+02  0.12943757994E+02 -0.10692878236E+02  0.36820880672E+02  0.00000000000E+00 0. -1.
         11    1    4    4    0    0  0.70582077818E+00  0.29435973385E+01 -0.14835133279E+01  0.33710176976E+01  0.51100000000E-03 0. -1.
        -11    1    4    4    0    0 -0.11187087943E+02  0.10081208631E+02  0.14344301000E+01  0.15127435146E+02  0.51100000000E-03 0.  1.
        -12    1    4    4    0    0 -0.22289127057E+02 -0.25968563964E+02  0.10741961464E+02  0.35868666485E+02  0.00000000000E+00 0.  1.
</event>
<event>
 8    1  0.1229941E-006  0.9118800E+02  0.7816164E-02  0.1184000E+00
        -11   -1    0    0    0    0  0.00000000000E+00  0.00000000000E+00  0.45593999997E+02  0.45594000000E+02  0.51100000000E-03 0.  1.
         11   -1    0    0    0    0 -0.00000000000E+00 -0.00000000000E+00 -0.45593999997E+02  0.45594000000E+02  0.51100000000E-03 0. -1.
         23    2    1    2    0    0  0.00000000000E+00  0.00000000000E+00  0.00000000000E+00  0.91188000000E+02  0.91188000000E+02 0.  0.
    9900012    2    3    3    0    0 -0.31184113484E+02 -0.18857554657E+02 -0.52653257789E+01  0.54367082616E+02  0.39999996440E+02 0.  0.
        -12    1    3    3    0    0  0.31184113484E+02  0.18857554657E+02  0.52653257789E+01  0.36820917384E+02  0.00000000000E+00 0.  1.
         11    1    4    4    0    0 -0.73622204545E+01 -0.24307799050E+02 -0.34448477684E+01  0.25630808826E+02  0.51100000000E-03 0. -1.
        -11    1    4    4    0    0 -0.19960898975E+02 -0.19983025737E+01  0.37435447425E+00  0.20064168126E+02  0.51100000000E-03 0.  1.
         12    1    4    4    0    0 -0.38609940551E+01  0.74485469668E+01 -0.21948324848E+01  0.86721056639E+01  0.00000000000E+00 0. -1.
</event>
<event>
 8    1  0.1229941E-006  0.9118800E+02  0.7816164E-02  0.1184000E+00
        -11   -1    0    0    0    0  0.00000000000E+00  0.00000000000E+00  0.45593999997E+02  0.45594000000E+02  0.51100000000E-03 0.  1.
         11   -1    0    0    0    0 -0.00000000000E+00 -0.00000000000E+00 -0.45593999997E+02  0.45594000000E+02  0.51100000000E-03 0. -1.
         23    2    1    2    0    0  0.88817841970E-15 -0.35527136788E-14  0.00000000000E+00  0.91188000000E+02  0.91188000000E+02 0.  0.
    9900012    2    3    3    0    0 -0.60941977566E+01  0.31071568398E+02 -0.18793485339E+02  0.54367126841E+02  0.40000097260E+02 0.  0.
        -12    1    3    3    0    0  0.60941977566E+01 -0.31071568398E+02  0.18793485339E+02  0.36820873159E+02  0.00000000000E+00 0.  1.
         11    1    4    4    0    0 -0.73363033937E+00 -0.79131028542E+00 -0.45525269100E+00  0.11711706607E+01  0.51100000000E-03 0. -1.
        -11    1    4    4    0    0  0.38451653643E+00 -0.87031644211E+01 -0.12358849931E+01  0.87988826498E+01  0.51100000000E-03 0.  1.
        -12    1    4    4    0    0 -0.57450839536E+01  0.40566043104E+02 -0.17102347655E+02  0.44397073531E+02  0.00000000000E+00 0.  1.
</event>
<event>
 8    1  0.1229941E-006  0.9118800E+02  0.7816164E-02  0.1184000E+00
        -11   -1    0    0    0    0  0.00000000000E+00  0.00000000000E+00  0.45593999997E+02  0.45594000000E+02  0.51100000000E-03 0.  1.
         11   -1    0    0    0    0 -0.00000000000E+00 -0.00000000000E+00 -0.45593999997E+02  0.45594000000E+02  0.51100000000E-03 0. -1.
         23    2    1    2    0    0  0.00000000000E+00  0.00000000000E+00  0.22204460493E-15  0.91188000000E+02  0.91188000000E+02 0.  0.
    9900012    2    3    3    0    0 -0.11812934675E+02 -0.34837985281E+02 -0.15968480865E+01  0.54367074321E+02  0.39999977529E+02 0.  0.
        -12    1    3    3    0    0  0.11812934675E+02  0.34837985281E+02  0.15968480865E+01  0.36820925679E+02  0.00000000000E+00 0.  1.
         11    1    4    4    0    0 -0.11481393589E+02 -0.18083836538E+02 -0.44915431741E+00  0.21425435410E+02  0.51100000000E-03 0. -1.
        -11    1    4    4    0    0 -0.10892667668E+02 -0.18965903113E+02  0.11801320079E+01  0.21903159626E+02  0.51100000000E-03 0.  1.
        -12    1    4    4    0    0  0.10561126581E+02  0.22117543693E+01 -0.23278257770E+01  0.11038479284E+02  0.00000000000E+00 0.  1.
</event>
<event>
 8    1  0.1229941E-006  0.9118800E+02  0.7816164E-02  0.1184000E+00
        -11   -1    0    0    0    0  0.00000000000E+00  0.00000000000E+00  0.45593999997E+02  0.45594000000E+02  0.51100000000E-03 0.  1.
         11   -1    0    0    0    0 -0.00000000000E+00 -0.00000000000E+00 -0.45593999997E+02  0.45594000000E+02  0.51100000000E-03 0. -1.
         23    2    1    2    0    0  0.00000000000E+00  0.00000000000E+00 -0.35527136788E-14  0.91188000000E+02  0.91188000000E+02 0.  0.
    9900012    2    3    3    0    0  0.10406539205E+02 -0.18764243662E+02 -0.29922895286E+02  0.54367183052E+02  0.40000225403E+02 0.  0.
        -12    1    3    3    0    0 -0.10406539205E+02  0.18764243662E+02  0.29922895286E+02  0.36820816948E+02  0.00000000000E+00 0.  1.
         11    1    4    4    0    0  0.12708998259E+02 -0.17363314586E+01 -0.20079440627E+02  0.23826821438E+02  0.51100000000E-03 0. -1.
        -11    1    4    4    0    0 -0.74261692144E+01 -0.83940837094E+00  0.41400565166E+01  0.85435744180E+01  0.51100000000E-03 0.  1.
        -12    1    4    4    0    0  0.51237101602E+01 -0.16188503833E+02 -0.13983511176E+02  0.21996787196E+02  0.00000000000E+00 0.  1.
</event>
<event>
 8    1  0.1229941E-006  0.9118800E+02  0.7816164E-02  0.1184000E+00
        -11   -1    0    0    0    0  0.00000000000E+00  0.00000000000E+00  0.45593999997E+02  0.45594000000E+02  0.51100000000E-03 0. -1.
         11   -1    0    0    0    0 -0.00000000000E+00 -0.00000000000E+00 -0.45593999997E+02  0.45594000000E+02  0.51100000000E-03 0.  1.
         23    2    1    2    0    0 -0.55511151231E-16  0.00000000000E+00  0.00000000000E+00  0.91188000000E+02  0.91188000000E+02 0.  0.
    9900012    2    3    3    0    0 -0.46235510962E+00  0.65349012893E+01  0.36233405207E+02  0.54367104302E+02  0.40000045877E+02 0.  0.
        -12    1    3    3    0    0  0.46235510962E+00 -0.65349012893E+01 -0.36233405207E+02  0.36820895698E+02  0.00000000000E+00 0.  1.
         11    1    4    4    0    0  0.11122115001E+02  0.71373629317E+01  0.21489674534E+02  0.25227950839E+02  0.51100000000E-03 0. -1.
        -11    1    4    4    0    0 -0.14689496999E+00 -0.10248744439E+01 -0.56549381456E+01  0.57489365495E+01  0.51100000000E-03 0.  1.
        -12    1    4    4    0    0 -0.11437575140E+02  0.42241280161E+00  0.20398668819E+02  0.23390216913E+02  0.00000000000E+00 0.  1.
</event>
<event>
 8    1  0.1229941E-006  0.9118800E+02  0.7816164E-02  0.1184000E+00
        -11   -1    0    0    0    0  0.00000000000E+00  0.00000000000E+00  0.45593999997E+02  0.45594000000E+02  0.51100000000E-03 0.  1.
         11   -1    0    0    0    0 -0.00000000000E+00 -0.00000000000E+00 -0.45593999997E+02  0.45594000000E+02  0.51100000000E-03 0. -1.
         23    2    1    2    0    0  0.00000000000E+00  0.00000000000E+00  0.35527136788E-14  0.91188000000E+02  0.91188000000E+02 0.  0.
    9900012    2    3    3    0    0 -0.24199504060E+02  0.15967937234E+02  0.22697914506E+02  0.54366995951E+02  0.39999798869E+02 0.  0.
        -12    1    3    3    0    0  0.24199504060E+02 -0.15967937234E+02 -0.22697914506E+02  0.36821004049E+02  0.00000000000E+00 0.  1.
         11    1    4    4    0    0 -0.19848660818E+02 -0.16867570848E+00  0.15675158377E+01  0.19911175101E+02  0.51100000000E-03 0. -1.
        -11    1    4    4    0    0 -0.12856133509E+02  0.11667391762E+02  0.15766839979E+02  0.23452109554E+02  0.51100000000E-03 0.  1.
        -12    1    4    4    0    0  0.85052902666E+01  0.44692211801E+01  0.53635586893E+01  0.11003711296E+02  0.00000000000E+00 0.  1.
</event>
<event>
 8    1  0.1229941E-006  0.9118800E+02  0.7816164E-02  0.1184000E+00
        -11   -1    0    0    0    0  0.00000000000E+00  0.00000000000E+00  0.45593999997E+02  0.45594000000E+02  0.51100000000E-03 0. -1.
         11   -1    0    0    0    0 -0.00000000000E+00 -0.00000000000E+00 -0.45593999997E+02  0.45594000000E+02  0.51100000000E-03 0.  1.
         23    2    1    2    0    0 -0.35527136788E-14 -0.88817841970E-15  0.00000000000E+00  0.91188000000E+02  0.91188000000E+02 0.  0.
    9900012    2    3    3    0    0  0.31594258598E+02 -0.56149478564E+01  0.18057002321E+02  0.54367080014E+02  0.39999990508E+02 0.  0.
        -12    1    3    3    0    0 -0.31594258598E+02  0.56149478564E+01 -0.18057002321E+02  0.36820919986E+02  0.00000000000E+00 0.  1.
         11    1    4    4    0    0 -0.22890351732E+01 -0.67127092922E+01 -0.71837184593E+00  0.71285486908E+01  0.51100000000E-03 0. -1.
        -11    1    4    4    0    0  0.70579457924E+01  0.10868137349E+02 -0.19662688642E+00  0.12960311363E+02  0.51100000000E-03 0.  1.
         12    1    4    4    0    0  0.26825347979E+02 -0.97703759127E+01  0.18972001053E+02  0.34278219960E+02  0.00000000000E+00 0. -1.
</event>
<event>
 8    1  0.1229941E-006  0.9118800E+02  0.7816164E-02  0.1184000E+00
        -11   -1    0    0    0    0  0.00000000000E+00  0.00000000000E+00  0.45593999997E+02  0.45594000000E+02  0.51100000000E-03 0.  1.
         11   -1    0    0    0    0 -0.00000000000E+00 -0.00000000000E+00 -0.45593999997E+02  0.45594000000E+02  0.51100000000E-03 0. -1.
         23    2    1    2    0    0  0.00000000000E+00  0.35527136788E-14 -0.88817841970E-15  0.91188000000E+02  0.91188000000E+02 0.  0.
    9900012    2    3    3    0    0 -0.17387669533E+02  0.31518693352E+02 -0.77472239600E+01  0.54367101566E+02  0.40000039639E+02 0.  0.
         12    1    3    3    0    0  0.17387669533E+02 -0.31518693352E+02  0.77472239600E+01  0.36820898434E+02  0.00000000000E+00 0. -1.
         11    1    4    4    0    0 -0.34698792131E+01 -0.44174243080E+01 -0.25660793032E+01  0.61756345846E+01  0.51100000000E-03 0. -1.
        -11    1    4    4    0    0 -0.48069492340E+01 -0.32073678755E+01  0.39215254723E+01  0.69837190606E+01  0.51100000000E-03 0.  1.
        -12    1    4    4    0    0 -0.91108410858E+01  0.39143485536E+02 -0.91026701291E+01  0.41207747920E+02  0.00000000000E+00 0.  1.
</event>
<event>
 8    1  0.1229941E-006  0.9118800E+02  0.7816164E-02  0.1184000E+00
        -11   -1    0    0    0    0  0.00000000000E+00  0.00000000000E+00  0.45593999997E+02  0.45594000000E+02  0.51100000000E-03 0.  1.
         11   -1    0    0    0    0 -0.00000000000E+00 -0.00000000000E+00 -0.45593999997E+02  0.45594000000E+02  0.51100000000E-03 0. -1.
         23    2    1    2    0    0  0.35527136788E-14 -0.88817841970E-15 -0.35527136788E-14  0.91188000000E+02  0.91188000000E+02 0.  0.
    9900012    2    3    3    0    0  0.31421967085E+02  0.52359482639E+01 -0.18466835699E+02  0.54367093025E+02  0.40000020170E+02 0.  0.
        -12    1    3    3    0    0 -0.31421967085E+02 -0.52359482639E+01  0.18466835699E+02  0.36820906975E+02  0.00000000000E+00 0.  1.
         11    1    4    4    0    0 -0.29504968232E+01  0.56305237995E+01 -0.54449832183E+01  0.83699505536E+01  0.51100000000E-03 0. -1.
        -11    1    4    4    0    0  0.16493214186E+02  0.34075552647E+01  0.75682943348E+01  0.18463927709E+02  0.51100000000E-03 0.  1.
         12    1    4    4    0    0  0.17879249722E+02 -0.38021308003E+01 -0.20590146816E+02  0.27533214762E+02  0.00000000000E+00 0. -1.
</event>
<event>
 8    1  0.1229941E-006  0.9118800E+02  0.7816164E-02  0.1184000E+00
        -11   -1    0    0    0    0  0.00000000000E+00  0.00000000000E+00  0.45593999997E+02  0.45594000000E+02  0.51100000000E-03 0. -1.
         11   -1    0    0    0    0 -0.00000000000E+00 -0.00000000000E+00 -0.45593999997E+02  0.45594000000E+02  0.51100000000E-03 0.  1.
         23    2    1    2    0    0 -0.35527136788E-14  0.00000000000E+00  0.00000000000E+00  0.91188000000E+02  0.91188000000E+02 0.  0.
    9900012    2    3    3    0    0  0.25691425947E+02  0.25982472295E+02  0.45430484379E+01  0.54367115670E+02  0.40000071792E+02 0.  0.
        -12    1    3    3    0    0 -0.25691425947E+02 -0.25982472295E+02 -0.45430484379E+01  0.36820884330E+02  0.00000000000E+00 0.  1.
         11    1    4    4    0    0 -0.22876484495E+00 -0.49048075071E+01  0.91137323277E+01  0.10352274496E+02  0.51100000000E-03 0. -1.
        -11    1    4    4    0    0  0.15480969218E+02  0.11757232872E+02 -0.95524056179E+01  0.21659671883E+02  0.51100000000E-03 0.  1.
        -12    1    4    4    0    0  0.10439221574E+02  0.19130046930E+02  0.49817217281E+01  0.22355169290E+02  0.00000000000E+00 0.  1.
</event>
<event>
 8    1  0.1229941E-006  0.9118800E+02  0.7816164E-02  0.1184000E+00
        -11   -1    0    0    0    0  0.00000000000E+00  0.00000000000E+00  0.45593999997E+02  0.45594000000E+02  0.51100000000E-03 0.  1.
         11   -1    0    0    0    0 -0.00000000000E+00 -0.00000000000E+00 -0.45593999997E+02  0.45594000000E+02  0.51100000000E-03 0. -1.
         23    2    1    2    0    0  0.00000000000E+00  0.00000000000E+00 -0.17763568394E-14  0.91188000000E+02  0.91188000000E+02 0.  0.
    9900012    2    3    3    0    0  0.32230449841E+02 -0.12596078807E+02 -0.12582336632E+02  0.54367105207E+02  0.40000047939E+02 0.  0.
        -12    1    3    3    0    0 -0.32230449841E+02  0.12596078807E+02  0.12582336632E+02  0.36820894793E+02  0.00000000000E+00 0.  1.
         11    1    4    4    0    0  0.35808443452E+02 -0.61823742791E+01 -0.58678399379E+01  0.36808938044E+02  0.51100000000E-03 0. -1.
        -11    1    4    4    0    0 -0.56743449024E+01  0.14738366694E+01  0.14232773479E+01  0.60329183046E+01  0.51100000000E-03 0.  1.
        -12    1    4    4    0    0  0.20963512921E+01 -0.78875411973E+01 -0.81377740416E+01  0.11525248858E+02  0.00000000000E+00 0.  1.
</event>
<event>
 8    1  0.1229941E-006  0.9118800E+02  0.7816164E-02  0.1184000E+00
        -11   -1    0    0    0    0  0.00000000000E+00  0.00000000000E+00  0.45593999997E+02  0.45594000000E+02  0.51100000000E-03 0. -1.
         11   -1    0    0    0    0 -0.00000000000E+00 -0.00000000000E+00 -0.45593999997E+02  0.45594000000E+02  0.51100000000E-03 0.  1.
         23    2    1    2    0    0  0.00000000000E+00  0.00000000000E+00  0.00000000000E+00  0.91188000000E+02  0.91188000000E+02 0.  0.
    9900012    2    3    3    0    0 -0.25748377773E+02 -0.24843522847E+02  0.86949095106E+01  0.54367067953E+02  0.39999963013E+02 0.  0.
        -12    1    3    3    0    0  0.25748377773E+02  0.24843522847E+02 -0.86949095106E+01  0.36820932047E+02  0.00000000000E+00 0.  1.
         11    1    4    4    0    0 -0.84769037842E+01  0.75979896743E+01  0.45251718918E+01  0.12250082684E+02  0.51100000000E-03 0. -1.
        -11    1    4    4    0    0 -0.88641547746E+01 -0.10714793215E+02  0.11120242332E+02  0.17805612129E+02  0.51100000000E-03 0.  1.
        -12    1    4    4    0    0 -0.84073192142E+01 -0.21726719306E+02 -0.69505047135E+01  0.24311373140E+02  0.00000000000E+00 0.  1.
</event>
<event>
 8    1  0.1229941E-006  0.9118800E+02  0.7816164E-02  0.1184000E+00
        -11   -1    0    0    0    0  0.00000000000E+00  0.00000000000E+00  0.45593999997E+02  0.45594000000E+02  0.51100000000E-03 0.  1.
         11   -1    0    0    0    0 -0.00000000000E+00 -0.00000000000E+00 -0.45593999997E+02  0.45594000000E+02  0.51100000000E-03 0. -1.
         23    2    1    2    0    0  0.00000000000E+00  0.71054273576E-14  0.00000000000E+00  0.91188000000E+02  0.91188000000E+02 0.  0.
    9900012    2    3    3    0    0  0.10058317500E+02 -0.33431754922E+02 -0.11701648562E+02  0.54367074330E+02  0.39999977550E+02 0.  0.
        -12    1    3    3    0    0 -0.10058317500E+02  0.33431754922E+02  0.11701648562E+02  0.36820925670E+02  0.00000000000E+00 0.  1.
         11    1    4    4    0    0 -0.31895958973E+01 -0.17007247325E+02  0.80148185056E+00  0.17322308073E+02  0.51100000000E-03 0. -1.
        -11    1    4    4    0    0 -0.65765159215E+01 -0.29732140267E+01  0.37119589497E+01  0.81159844024E+01  0.51100000000E-03 0.  1.
        -12    1    4    4    0    0  0.19824429319E+02 -0.13451293571E+02 -0.16215089363E+02  0.28928781855E+02  0.00000000000E+00 0.  1.
</event>
<event>
 8    1  0.1229941E-006  0.9118800E+02  0.7816164E-02  0.1184000E+00
        -11   -1    0    0    0    0  0.00000000000E+00  0.00000000000E+00  0.45593999997E+02  0.45594000000E+02  0.51100000000E-03 0. -1.
         11   -1    0    0    0    0 -0.00000000000E+00 -0.00000000000E+00 -0.45593999997E+02  0.45594000000E+02  0.51100000000E-03 0.  1.
         23    2    1    2    0    0 -0.17763568394E-14 -0.35527136788E-14  0.35527136788E-14  0.91188000000E+02  0.91188000000E+02 0.  0.
    9900012    2    3    3    0    0  0.15225809982E+02 -0.22026151053E+02  0.25274559103E+02  0.54367082607E+02  0.39999996420E+02 0.  0.
        -12    1    3    3    0    0 -0.15225809982E+02  0.22026151053E+02 -0.25274559103E+02  0.36820917393E+02  0.00000000000E+00 0.  1.
         11    1    4    4    0    0  0.23047122261E+02 -0.15710896388E+02  0.17904020479E+02  0.33144472532E+02  0.51100000000E-03 0. -1.
        -11    1    4    4    0    0 -0.35054776862E+01  0.10540489581E+01  0.11258879738E+02  0.11838993463E+02  0.51100000000E-03 0.  1.
        -12    1    4    4    0    0 -0.43158345923E+01 -0.73693036225E+01 -0.38883411141E+01  0.93836166124E+01  0.00000000000E+00 0.  1.
</event>
<event>
 8    1  0.1229941E-006  0.9118800E+02  0.7816164E-02  0.1184000E+00
        -11   -1    0    0    0    0  0.00000000000E+00  0.00000000000E+00  0.45593999997E+02  0.45594000000E+02  0.51100000000E-03 0.  1.
         11   -1    0    0    0    0 -0.00000000000E+00 -0.00000000000E+00 -0.45593999997E+02  0.45594000000E+02  0.51100000000E-03 0. -1.
         23    2    1    2    0    0  0.00000000000E+00  0.00000000000E+00  0.00000000000E+00  0.91188000000E+02  0.91188000000E+02 0.  0.
    9900012    2    3    3    0    0 -0.98388814362E+01 -0.27231952840E+02 -0.22746363689E+02  0.54367083329E+02  0.39999998066E+02 0.  0.
        -12    1    3    3    0    0  0.98388814362E+01  0.27231952840E+02  0.22746363689E+02  0.36820916671E+02  0.00000000000E+00 0.  1.
         11    1    4    4    0    0 -0.16552598730E+02 -0.81376989692E+01 -0.24784600367E+02  0.30894774394E+02  0.51100000000E-03 0. -1.
        -11    1    4    4    0    0  0.76836944908E+01 -0.88375966114E+01 -0.28746603114E+01  0.12058438832E+02  0.51100000000E-03 0.  1.
         12    1    4    4    0    0 -0.96997719675E+00 -0.10256657260E+02  0.49128969897E+01  0.11413870103E+02  0.00000000000E+00 0. -1.
</event>
<event>
 8    1  0.1229941E-006  0.9118800E+02  0.7816164E-02  0.1184000E+00
        -11   -1    0    0    0    0  0.00000000000E+00  0.00000000000E+00  0.45593999997E+02  0.45594000000E+02  0.51100000000E-03 0. -1.
         11   -1    0    0    0    0 -0.00000000000E+00 -0.00000000000E+00 -0.45593999997E+02  0.45594000000E+02  0.51100000000E-03 0.  1.
         23    2    1    2    0    0  0.00000000000E+00  0.00000000000E+00  0.00000000000E+00  0.91188000000E+02  0.91188000000E+02 0.  0.
    9900012    2    3    3    0    0  0.21115448421E+02  0.22349075350E+02  0.20259249160E+02  0.54367075140E+02  0.39999979397E+02 0.  0.
        -12    1    3    3    0    0 -0.21115448421E+02 -0.22349075350E+02 -0.20259249160E+02  0.36820924860E+02  0.00000000000E+00 0.  1.
         11    1    4    4    0    0  0.10124937521E+02  0.25165276344E+02  0.21245920374E+02  0.34455690765E+02  0.51100000000E-03 0. -1.
        -11    1    4    4    0    0  0.12859252127E+01  0.23039127865E+01 -0.69423323063E+01  0.74268159997E+01  0.51100000000E-03 0.  1.
         12    1    4    4    0    0  0.97045856867E+01 -0.51201137805E+01  0.59556610928E+01  0.12484568376E+02  0.00000000000E+00 0. -1.
</event>
<event>
 8    1  0.1229941E-006  0.9118800E+02  0.7816164E-02  0.1184000E+00
        -11   -1    0    0    0    0  0.00000000000E+00  0.00000000000E+00  0.45593999997E+02  0.45594000000E+02  0.51100000000E-03 0. -1.
         11   -1    0    0    0    0 -0.00000000000E+00 -0.00000000000E+00 -0.45593999997E+02  0.45594000000E+02  0.51100000000E-03 0.  1.
         23    2    1    2    0    0 -0.17763568394E-14  0.00000000000E+00 -0.27755575616E-15  0.91188000000E+02  0.91188000000E+02 0.  0.
    9900012    2    3    3    0    0  0.13999793313E+02 -0.34053911472E+02 -0.34104673122E+00  0.54367090014E+02  0.40000013305E+02 0.  0.
        -12    1    3    3    0    0 -0.13999793313E+02  0.34053911472E+02  0.34104673122E+00  0.36820909986E+02  0.00000000000E+00 0.  1.
         11    1    4    4    0    0 -0.91057088073E+01 -0.26563751988E+02  0.16751901475E+01  0.28130999180E+02  0.51100000000E-03 0. -1.
        -11    1    4    4    0    0  0.92162003404E+01 -0.19354738893E+01  0.38422967642E+01  0.10170921914E+02  0.51100000000E-03 0.  1.
         12    1    4    4    0    0  0.13889301780E+02 -0.55546855942E+01 -0.58585336430E+01  0.16065168920E+02  0.00000000000E+00 0. -1.
</event>
<event>
 8    1  0.1229941E-006  0.9118800E+02  0.7816164E-02  0.1184000E+00
        -11   -1    0    0    0    0  0.00000000000E+00  0.00000000000E+00  0.45593999997E+02  0.45594000000E+02  0.51100000000E-03 0.  1.
         11   -1    0    0    0    0 -0.00000000000E+00 -0.00000000000E+00 -0.45593999997E+02  0.45594000000E+02  0.51100000000E-03 0. -1.
         23    2    1    2    0    0  0.00000000000E+00 -0.88817841970E-15 -0.88817841970E-15  0.91188000000E+02  0.91188000000E+02 0.  0.
    9900012    2    3    3    0    0  0.36180676883E+02  0.53625027380E+01 -0.42405220037E+01  0.54367084175E+02  0.39999999995E+02 0.  0.
        -12    1    3    3    0    0 -0.36180676883E+02 -0.53625027380E+01  0.42405220037E+01  0.36820915825E+02  0.00000000000E+00 0.  1.
         11    1    4    4    0    0  0.88799954806E+01  0.14201139887E+01 -0.10258385673E+02  0.13642049712E+02  0.51100000000E-03 0. -1.
        -11    1    4    4    0    0  0.23762111684E+02 -0.90906327781E+01  0.88301838548E+01  0.26930460508E+02  0.51100000000E-03 0.  1.
        -12    1    4    4    0    0  0.35385697182E+01  0.13033021527E+02 -0.28123201855E+01  0.13794573955E+02  0.00000000000E+00 0.  1.
</event>
<event>
 8    1  0.1229941E-006  0.9118800E+02  0.7816164E-02  0.1184000E+00
        -11   -1    0    0    0    0  0.00000000000E+00  0.00000000000E+00  0.45593999997E+02  0.45594000000E+02  0.51100000000E-03 0. -1.
         11   -1    0    0    0    0 -0.00000000000E+00 -0.00000000000E+00 -0.45593999997E+02  0.45594000000E+02  0.51100000000E-03 0.  1.
         23    2    1    2    0    0  0.00000000000E+00  0.35527136788E-14 -0.88817841970E-15  0.91188000000E+02  0.91188000000E+02 0.  0.
    9900012    2    3    3    0    0 -0.32950831299E+02 -0.14361489388E+02  0.79855764518E+01  0.54367094362E+02  0.40000023217E+02 0.  0.
        -12    1    3    3    0    0  0.32950831299E+02  0.14361489388E+02 -0.79855764518E+01  0.36820905638E+02  0.00000000000E+00 0.  1.
         11    1    4    4    0    0 -0.21340339707E+02 -0.55182432887E+01  0.11543219159E+02  0.24881861197E+02  0.51100000000E-03 0. -1.
        -11    1    4    4    0    0 -0.11185795184E+00  0.74596065605E+01  0.36084007406E+01  0.82872672459E+01  0.51100000000E-03 0.  1.
         12    1    4    4    0    0 -0.11498633640E+02 -0.16302852660E+02 -0.71660434474E+01  0.21197965919E+02  0.00000000000E+00 0. -1.
</event>
<event>
 8    1  0.1229941E-006  0.9118800E+02  0.7816164E-02  0.1184000E+00
        -11   -1    0    0    0    0  0.00000000000E+00  0.00000000000E+00  0.45593999997E+02  0.45594000000E+02  0.51100000000E-03 0.  1.
         11   -1    0    0    0    0 -0.00000000000E+00 -0.00000000000E+00 -0.45593999997E+02  0.45594000000E+02  0.51100000000E-03 0. -1.
         23    2    1    2    0    0  0.00000000000E+00  0.00000000000E+00  0.00000000000E+00  0.91188000000E+02  0.91188000000E+02 0.  0.
    9900012    2    3    3    0    0 -0.16993543316E+02  0.46976944453E+01 -0.32325387273E+02  0.54367088688E+02  0.40000010281E+02 0.  0.
        -12    1    3    3    0    0  0.16993543316E+02 -0.46976944453E+01  0.32325387273E+02  0.36820911312E+02  0.00000000000E+00 0.  1.
         11    1    4    4    0    0 -0.77170289759E+01 -0.19482649936E+01 -0.11382596449E+02  0.13889268335E+02  0.51100000000E-03 0. -1.
        -11    1    4    4    0    0 -0.11251298502E+02  0.11057471287E+02  0.29948970684E+01  0.16057048233E+02  0.51100000000E-03 0.  1.
        -12    1    4    4    0    0  0.19747841622E+01 -0.44115118482E+01 -0.23937687892E+02  0.24420772119E+02  0.00000000000E+00 0.  1.
</event>
<event>
 8    1  0.1229941E-006  0.9118800E+02  0.7816164E-02  0.1184000E+00
        -11   -1    0    0    0    0  0.00000000000E+00  0.00000000000E+00  0.45593999997E+02  0.45594000000E+02  0.51100000000E-03 0.  1.
         11   -1    0    0    0    0 -0.00000000000E+00 -0.00000000000E+00 -0.45593999997E+02  0.45594000000E+02  0.51100000000E-03 0. -1.
         23    2    1    2    0    0  0.88817841970E-15  0.00000000000E+00  0.00000000000E+00  0.91188000000E+02  0.91188000000E+02 0.  0.
    9900012    2    3    3    0    0 -0.48875166312E+01 -0.27011305979E+02  0.24541509398E+02  0.54367025637E+02  0.39999866544E+02 0.  0.
         12    1    3    3    0    0  0.48875166312E+01  0.27011305979E+02 -0.24541509398E+02  0.36820974363E+02  0.00000000000E+00 0. -1.
         11    1    4    4    0    0  0.13183840932E+02 -0.54144645882E+01  0.99312688749E+00  0.14286930733E+02  0.51100000000E-03 0. -1.
        -11    1    4    4    0    0 -0.83902481093E+01 -0.21135659298E+02  0.16624908627E+02  0.28169131056E+02  0.51100000000E-03 0.  1.
        -12    1    4    4    0    0 -0.96811094537E+01 -0.46118209240E+00  0.69234738837E+01  0.11910963848E+02  0.00000000000E+00 0.  1.
</event>
<event>
 8    1  0.1229941E-006  0.9118800E+02  0.7816164E-02  0.1184000E+00
        -11   -1    0    0    0    0  0.00000000000E+00  0.00000000000E+00  0.45593999997E+02  0.45594000000E+02  0.51100000000E-03 0. -1.
         11   -1    0    0    0    0 -0.00000000000E+00 -0.00000000000E+00 -0.45593999997E+02  0.45594000000E+02  0.51100000000E-03 0.  1.
         23    2    1    2    0    0  0.88817841970E-15  0.00000000000E+00  0.00000000000E+00  0.91188000000E+02  0.91188000000E+02 0.  0.
    9900012    2    3    3    0    0  0.48120281818E+01  0.12713189017E+02  0.34219866843E+02  0.54367080987E+02  0.39999992726E+02 0.  0.
        -12    1    3    3    0    0 -0.48120281818E+01 -0.12713189017E+02 -0.34219866843E+02  0.36820919013E+02  0.00000000000E+00 0.  1.
         11    1    4    4    0    0 -0.10596030341E+01  0.87649274075E+01  0.12464694687E+02  0.15274662843E+02  0.51100000000E-03 0. -1.
        -11    1    4    4    0    0  0.53627406293E+01  0.50556533491E+01  0.29931617680E+02  0.30825644439E+02  0.51100000000E-03 0.  1.
        -12    1    4    4    0    0  0.50889058659E+00 -0.11073917395E+01 -0.81764455241E+01  0.82667737058E+01  0.00000000000E+00 0.  1.
</event>
<event>
 8    1  0.1229941E-006  0.9118800E+02  0.7816164E-02  0.1184000E+00
        -11   -1    0    0    0    0  0.00000000000E+00  0.00000000000E+00  0.45593999997E+02  0.45594000000E+02  0.51100000000E-03 0.  1.
         11   -1    0    0    0    0 -0.00000000000E+00 -0.00000000000E+00 -0.45593999997E+02  0.45594000000E+02  0.51100000000E-03 0. -1.
         23    2    1    2    0    0 -0.35527136788E-14  0.35527136788E-14  0.00000000000E+00  0.91188000000E+02  0.91188000000E+02 0.  0.
    9900012    2    3    3    0    0  0.27802648162E+02  0.12783014416E+02  0.20478947118E+02  0.54367082338E+02  0.39999995807E+02 0.  0.
         12    1    3    3    0    0 -0.27802648162E+02 -0.12783014416E+02 -0.20478947118E+02  0.36820917662E+02  0.00000000000E+00 0. -1.
         11    1    4    4    0    0 -0.45027367178E+01  0.20029564766E+01 -0.58213126119E+00  0.49623935418E+01  0.51100000000E-03 0. -1.
        -11    1    4    4    0    0  0.66565275779E+01  0.16620200890E+02  0.12124631221E+02  0.21622837915E+02  0.51100000000E-03 0.  1.
        -12    1    4    4    0    0  0.25648857302E+02 -0.58401429506E+01  0.89364471583E+01  0.27781850881E+02  0.00000000000E+00 0.  1.
</event>
<event>
 8    1  0.1229941E-006  0.9118800E+02  0.7816164E-02  0.1184000E+00
        -11   -1    0    0    0    0  0.00000000000E+00  0.00000000000E+00  0.45593999997E+02  0.45594000000E+02  0.51100000000E-03 0.  1.
         11   -1    0    0    0    0 -0.00000000000E+00 -0.00000000000E+00 -0.45593999997E+02  0.45594000000E+02  0.51100000000E-03 0. -1.
         23    2    1    2    0    0 -0.17763568394E-14 -0.88817841970E-15  0.00000000000E+00  0.91188000000E+02  0.91188000000E+02 0.  0.
    9900012    2    3    3    0    0  0.67146357110E+01 -0.15745257482E+01  0.36169259340E+02  0.54367071369E+02  0.39999970800E+02 0.  0.
         12    1    3    3    0    0 -0.67146357110E+01  0.15745257482E+01 -0.36169259340E+02  0.36820928631E+02  0.00000000000E+00 0. -1.
         11    1    4    4    0    0 -0.10987331338E+01 -0.16321705762E+02  0.10900723789E+02  0.19657850159E+02  0.51100000000E-03 0. -1.
        -11    1    4    4    0    0 -0.40355362596E+01 -0.27843749891E+00  0.78602060943E+01  0.88400181250E+01  0.51100000000E-03 0.  1.
        -12    1    4    4    0    0  0.11848905104E+02  0.15025617513E+02  0.17408329456E+02  0.25869203085E+02  0.00000000000E+00 0.  1.
</event>
<event>
 8    1  0.1229941E-006  0.9118800E+02  0.7816164E-02  0.1184000E+00
        -11   -1    0    0    0    0  0.00000000000E+00  0.00000000000E+00  0.45593999997E+02  0.45594000000E+02  0.51100000000E-03 0.  1.
         11   -1    0    0    0    0 -0.00000000000E+00 -0.00000000000E+00 -0.45593999997E+02  0.45594000000E+02  0.51100000000E-03 0. -1.
         23    2    1    2    0    0  0.00000000000E+00  0.00000000000E+00 -0.17763568394E-14  0.91188000000E+02  0.91188000000E+02 0.  0.
    9900012    2    3    3    0    0  0.18925511469E+02  0.29538915269E+02 -0.11182831938E+02  0.54367106070E+02  0.40000049907E+02 0.  0.
        -12    1    3    3    0    0 -0.18925511469E+02 -0.29538915269E+02  0.11182831938E+02  0.36820893930E+02  0.00000000000E+00 0.  1.
         11    1    4    4    0    0  0.79787489428E+01  0.13871313398E+02 -0.19477948438E+02  0.25208416168E+02  0.51100000000E-03 0. -1.
        -11    1    4    4    0    0  0.97476603341E+01  0.11766686316E+02 -0.43372716815E+01  0.15883441527E+02  0.51100000000E-03 0.  1.
        -12    1    4    4    0    0  0.11991021922E+01  0.39009155554E+01  0.12632388181E+02  0.13275248374E+02  0.00000000000E+00 0.  1.
</event>
<event>
 8    1  0.1229941E-006  0.9118800E+02  0.7816164E-02  0.1184000E+00
        -11   -1    0    0    0    0  0.00000000000E+00  0.00000000000E+00  0.45593999997E+02  0.45594000000E+02  0.51100000000E-03 0.  1.
         11   -1    0    0    0    0 -0.00000000000E+00 -0.00000000000E+00 -0.45593999997E+02  0.45594000000E+02  0.51100000000E-03 0. -1.
         23    2    1    2    0    0  0.00000000000E+00  0.13322676296E-14  0.71054273576E-14  0.91188000000E+02  0.91188000000E+02 0.  0.
    9900012    2    3    3    0    0 -0.13972833019E+02 -0.30956578721E+01  0.33925744714E+02  0.54367091339E+02  0.40000016326E+02 0.  0.
         12    1    3    3    0    0  0.13972833019E+02  0.30956578721E+01 -0.33925744714E+02  0.36820908661E+02  0.00000000000E+00 0. -1.
         11    1    4    4    0    0 -0.34892910075E+01 -0.10214064752E+02  0.19950768099E+02  0.22683373172E+02  0.51100000000E-03 0. -1.
        -11    1    4    4    0    0 -0.12539499134E+02  0.41662228039E+01  0.20408522399E+02  0.24312635352E+02  0.51100000000E-03 0.  1.
         12    1    4    4    0    0  0.20559571228E+01  0.29521840757E+01 -0.64335457841E+01  0.73710828149E+01  0.00000000000E+00 0. -1.
</event>
<event>
 8    1  0.1229941E-006  0.9118800E+02  0.7816164E-02  0.1184000E+00
        -11   -1    0    0    0    0  0.00000000000E+00  0.00000000000E+00  0.45593999997E+02  0.45594000000E+02  0.51100000000E-03 0.  1.
         11   -1    0    0    0    0 -0.00000000000E+00 -0.00000000000E+00 -0.45593999997E+02  0.45594000000E+02  0.51100000000E-03 0. -1.
         23    2    1    2    0    0  0.00000000000E+00  0.00000000000E+00  0.00000000000E+00  0.91188000000E+02  0.91188000000E+02 0.  0.
    9900012    2    3    3    0    0 -0.23748928010E+02 -0.19224290924E+02 -0.20547414203E+02  0.54367066095E+02  0.39999958778E+02 0.  0.
         12    1    3    3    0    0  0.23748928010E+02  0.19224290924E+02  0.20547414203E+02  0.36820933905E+02  0.00000000000E+00 0. -1.
         11    1    4    4    0    0 -0.48586306272E+00 -0.18219364299E+02 -0.14829538052E+02  0.23496733761E+02  0.51100000000E-03 0. -1.
        -11    1    4    4    0    0 -0.23747268049E+02 -0.49264457699E+01 -0.41400541407E+00  0.24256422005E+02  0.51100000000E-03 0.  1.
         12    1    4    4    0    0  0.48420310180E+00  0.39215191444E+01 -0.53038707371E+01  0.66139103290E+01  0.00000000000E+00 0. -1.
</event>
<event>
 8    1  0.1229941E-006  0.9118800E+02  0.7816164E-02  0.1184000E+00
        -11   -1    0    0    0    0  0.00000000000E+00  0.00000000000E+00  0.45593999997E+02  0.45594000000E+02  0.51100000000E-03 0. -1.
         11   -1    0    0    0    0 -0.00000000000E+00 -0.00000000000E+00 -0.45593999997E+02  0.45594000000E+02  0.51100000000E-03 0.  1.
         23    2    1    2    0    0  0.00000000000E+00 -0.35527136788E-14  0.00000000000E+00  0.91188000000E+02  0.91188000000E+02 0.  0.
    9900012    2    3    3    0    0 -0.23882998369E+02  0.24976779331E+02  0.12709986575E+02  0.54367070142E+02  0.39999968003E+02 0.  0.
        -12    1    3    3    0    0  0.23882998369E+02 -0.24976779331E+02 -0.12709986575E+02  0.36820929858E+02  0.00000000000E+00 0.  1.
         11    1    4    4    0    0 -0.10690008029E+02 -0.15080403144E+01  0.24703910162E+01  0.11074894549E+02  0.51100000000E-03 0. -1.
        -11    1    4    4    0    0  0.77452107444E+01  0.17700434569E+02  0.56096961706E+01  0.20118706837E+02  0.51100000000E-03 0.  1.
        -12    1    4    4    0    0 -0.20938201084E+02  0.87843850767E+01  0.46298993887E+01  0.23173468756E+02  0.00000000000E+00 0.  1.
</event>
<event>
 8    1  0.1229941E-006  0.9118800E+02  0.7816164E-02  0.1184000E+00
        -11   -1    0    0    0    0  0.00000000000E+00  0.00000000000E+00  0.45593999997E+02  0.45594000000E+02  0.51100000000E-03 0.  1.
         11   -1    0    0    0    0 -0.00000000000E+00 -0.00000000000E+00 -0.45593999997E+02  0.45594000000E+02  0.51100000000E-03 0. -1.
         23    2    1    2    0    0  0.00000000000E+00  0.00000000000E+00  0.44408920985E-14  0.91188000000E+02  0.91188000000E+02 0.  0.
    9900012    2    3    3    0    0  0.98428386640E+01  0.34918307485E+02  0.62937178022E+01  0.54367074505E+02  0.39999977948E+02 0.  0.
        -12    1    3    3    0    0 -0.98428386640E+01 -0.34918307485E+02 -0.62937178022E+01  0.36820925495E+02  0.00000000000E+00 0.  1.
         11    1    4    4    0    0 -0.38921230953E+00  0.50502436611E+00 -0.10009739470E+02  0.10030025939E+02  0.51100000000E-03 0. -1.
        -11    1    4    4    0    0  0.13571647015E+02  0.14794828864E+02  0.13609667655E+02  0.24254888533E+02  0.51100000000E-03 0.  1.
         12    1    4    4    0    0 -0.33395960414E+01  0.19618454255E+02  0.26937896171E+01  0.20082160032E+02  0.00000000000E+00 0. -1.
</event>
<event>
 8    1  0.1229941E-006  0.9118800E+02  0.7816164E-02  0.1184000E+00
        -11   -1    0    0    0    0  0.00000000000E+00  0.00000000000E+00  0.45593999997E+02  0.45594000000E+02  0.51100000000E-03 0.  1.
         11   -1    0    0    0    0 -0.00000000000E+00 -0.00000000000E+00 -0.45593999997E+02  0.45594000000E+02  0.51100000000E-03 0. -1.
         23    2    1    2    0    0  0.00000000000E+00  0.00000000000E+00  0.00000000000E+00  0.91188000000E+02  0.91188000000E+02 0.  0.
    9900012    2    3    3    0    0 -0.16004681558E+02  0.23598047255E+02 -0.23297181705E+02  0.54367131713E+02  0.40000108366E+02 0.  0.
        -12    1    3    3    0    0  0.16004681558E+02 -0.23598047255E+02  0.23297181705E+02  0.36820868287E+02  0.00000000000E+00 0.  1.
         11    1    4    4    0    0 -0.70779807625E+01  0.18685407611E+02 -0.25907171486E+01  0.20148302283E+02  0.51100000000E-03 0. -1.
        -11    1    4    4    0    0  0.88839932545E+01  0.27563913918E+01 -0.69951962940E+01  0.11638548067E+02  0.51100000000E-03 0.  1.
         12    1    4    4    0    0 -0.17810694050E+02  0.21562482517E+01 -0.13711268263E+02  0.22580281363E+02  0.00000000000E+00 0. -1.
</event>
<event>
 8    1  0.1229941E-006  0.9118800E+02  0.7816164E-02  0.1184000E+00
        -11   -1    0    0    0    0  0.00000000000E+00  0.00000000000E+00  0.45593999997E+02  0.45594000000E+02  0.51100000000E-03 0.  1.
         11   -1    0    0    0    0 -0.00000000000E+00 -0.00000000000E+00 -0.45593999997E+02  0.45594000000E+02  0.51100000000E-03 0. -1.
         23    2    1    2    0    0 -0.35527136788E-14  0.35527136788E-14  0.00000000000E+00  0.91188000000E+02  0.91188000000E+02 0.  0.
    9900012    2    3    3    0    0  0.22107147100E+02  0.18210212891E+02  0.23139616620E+02  0.54367086598E+02  0.40000005516E+02 0.  0.
         12    1    3    3    0    0 -0.22107147100E+02 -0.18210212891E+02 -0.23139616620E+02  0.36820913402E+02  0.00000000000E+00 0. -1.
         11    1    4    4    0    0  0.14968644636E+02  0.32815145785E+01  0.17758401570E+02  0.23456118322E+02  0.51100000000E-03 0. -1.
        -11    1    4    4    0    0  0.14001462412E+02  0.18002483483E+02  0.28876375882E+01  0.22988449542E+02  0.51100000000E-03 0.  1.
         12    1    4    4    0    0 -0.68629599478E+01 -0.30737851706E+01  0.24935774624E+01  0.79225187334E+01  0.00000000000E+00 0. -1.
</event>
<event>
 8    1  0.1229941E-006  0.9118800E+02  0.7816164E-02  0.1184000E+00
        -11   -1    0    0    0    0  0.00000000000E+00  0.00000000000E+00  0.45593999997E+02  0.45594000000E+02  0.51100000000E-03 0.  1.
         11   -1    0    0    0    0 -0.00000000000E+00 -0.00000000000E+00 -0.45593999997E+02  0.45594000000E+02  0.51100000000E-03 0. -1.
         23    2    1    2    0    0  0.00000000000E+00  0.00000000000E+00  0.88817841970E-15  0.91188000000E+02  0.91188000000E+02 0.  0.
    9900012    2    3    3    0    0 -0.16326846228E+02  0.32738095956E+02  0.41744747496E+01  0.54367148923E+02  0.40000147600E+02 0.  0.
        -12    1    3    3    0    0  0.16326846228E+02 -0.32738095956E+02 -0.41744747496E+01  0.36820851077E+02  0.00000000000E+00 0.  1.
         11    1    4    4    0    0 -0.14532659548E+02  0.85750293574E+01  0.16643151747E+02  0.23700713540E+02  0.51100000000E-03 0.  1.
        -11    1    4    4    0    0 -0.60917220061E+01  0.38876419418E+01 -0.41505372803E+01  0.83336544711E+01  0.51100000000E-03 0. -1.
         12    1    4    4    0    0  0.42975353254E+01  0.20275424657E+02 -0.83181397168E+01  0.22332780911E+02  0.00000000000E+00 0. -1.
</event>
<event>
 8    1  0.1229941E-006  0.9118800E+02  0.7816164E-02  0.1184000E+00
        -11   -1    0    0    0    0  0.00000000000E+00  0.00000000000E+00  0.45593999997E+02  0.45594000000E+02  0.51100000000E-03 0. -1.
         11   -1    0    0    0    0 -0.00000000000E+00 -0.00000000000E+00 -0.45593999997E+02  0.45594000000E+02  0.51100000000E-03 0.  1.
         23    2    1    2    0    0  0.35527136788E-14  0.88817841970E-15  0.00000000000E+00  0.91188000000E+02  0.91188000000E+02 0.  0.
    9900012    2    3    3    0    0 -0.10964942035E+02  0.68193889024E+01 -0.34482544161E+02  0.54367083788E+02  0.39999999112E+02 0.  0.
         12    1    3    3    0    0  0.10964942035E+02 -0.68193889024E+01  0.34482544161E+02  0.36820916212E+02  0.00000000000E+00 0. -1.
         11    1    4    4    0    0  0.92925621221E+01 -0.83103959396E+01 -0.59297101805E+01  0.13804921389E+02  0.51100000000E-03 0. -1.
        -11    1    4    4    0    0 -0.17566763325E+02  0.10183227875E+02 -0.28421608318E+02  0.34929602393E+02  0.51100000000E-03 0.  1.
        -12    1    4    4    0    0 -0.26907408320E+01  0.49465569669E+01 -0.13122566248E+00  0.56325600065E+01  0.00000000000E+00 0.  1.
</event>
<event>
 8    1  0.1229941E-006  0.9118800E+02  0.7816164E-02  0.1184000E+00
        -11   -1    0    0    0    0  0.00000000000E+00  0.00000000000E+00  0.45593999997E+02  0.45594000000E+02  0.51100000000E-03 0. -1.
         11   -1    0    0    0    0 -0.00000000000E+00 -0.00000000000E+00 -0.45593999997E+02  0.45594000000E+02  0.51100000000E-03 0.  1.
         23    2    1    2    0    0  0.71054273576E-14  0.00000000000E+00  0.00000000000E+00  0.91188000000E+02  0.91188000000E+02 0.  0.
    9900012    2    3    3    0    0  0.29590090651E+02  0.38114252802E+01  0.21579602082E+02  0.54367086739E+02  0.40000005838E+02 0.  0.
         12    1    3    3    0    0 -0.29590090651E+02 -0.38114252802E+01 -0.21579602082E+02  0.36820913261E+02  0.00000000000E+00 0. -1.
         11    1    4    4    0    0 -0.12864023067E+01  0.10505199337E+00  0.21368044548E+02  0.21406989394E+02  0.51100000000E-03 0. -1.
        -11    1    4    4    0    0  0.17164841773E+01  0.13273451809E+01 -0.28070244399E+01  0.35478936889E+01  0.51100000000E-03 0.  1.
         12    1    4    4    0    0  0.29160008780E+02  0.23790281059E+01  0.30185819734E+01  0.29412203656E+02  0.00000000000E+00 0. -1.
</event>
<event>
 8    1  0.1229941E-006  0.9118800E+02  0.7816164E-02  0.1184000E+00
        -11   -1    0    0    0    0  0.00000000000E+00  0.00000000000E+00  0.45593999997E+02  0.45594000000E+02  0.51100000000E-03 0.  1.
         11   -1    0    0    0    0 -0.00000000000E+00 -0.00000000000E+00 -0.45593999997E+02  0.45594000000E+02  0.51100000000E-03 0. -1.
         23    2    1    2    0    0  0.00000000000E+00  0.00000000000E+00  0.00000000000E+00  0.91188000000E+02  0.91188000000E+02 0.  0.
    9900012    2    3    3    0    0 -0.13501749850E+02 -0.16780409032E+02 -0.29864707855E+02  0.54367079974E+02  0.39999990418E+02 0.  0.
        -12    1    3    3    0    0  0.13501749850E+02  0.16780409032E+02  0.29864707855E+02  0.36820920026E+02  0.00000000000E+00 0.  1.
         11    1    4    4    0    0  0.43750899611E+01 -0.49821439114E+01 -0.15587899328E+02  0.16939473895E+02  0.51100000000E-03 0. -1.
        -11    1    4    4    0    0 -0.10078254462E+02  0.64345766013E+01  0.15476998175E+01  0.12056963300E+02  0.51100000000E-03 0.  1.
        -12    1    4    4    0    0 -0.77985853496E+01 -0.18232841722E+02 -0.15824508344E+02  0.25370642779E+02  0.00000000000E+00 0.  1.
</event>
<event>
 8    1  0.1229941E-006  0.9118800E+02  0.7816164E-02  0.1184000E+00
        -11   -1    0    0    0    0  0.00000000000E+00  0.00000000000E+00  0.45593999997E+02  0.45594000000E+02  0.51100000000E-03 0. -1.
         11   -1    0    0    0    0 -0.00000000000E+00 -0.00000000000E+00 -0.45593999997E+02  0.45594000000E+02  0.51100000000E-03 0.  1.
         23    2    1    2    0    0  0.00000000000E+00  0.71054273576E-14  0.00000000000E+00  0.91188000000E+02  0.91188000000E+02 0.  0.
    9900012    2    3    3    0    0 -0.13269312046E+02  0.30161680370E+02  0.16431026300E+02  0.54367078907E+02  0.39999987984E+02 0.  0.
        -12    1    3    3    0    0  0.13269312046E+02 -0.30161680370E+02 -0.16431026300E+02  0.36820921093E+02  0.00000000000E+00 0.  1.
         11    1    4    4    0    0 -0.13552917733E+02  0.32411532010E+02  0.17599353989E+02  0.39292826921E+02  0.51100000000E-03 0. -1.
        -11    1    4    4    0    0 -0.23430718275E+01 -0.66949660221E+01 -0.49712172370E+01  0.86617294292E+01  0.51100000000E-03 0.  1.
         12    1    4    4    0    0  0.26266775147E+01  0.44451143813E+01  0.38028895480E+01  0.64125225570E+01  0.00000000000E+00 0. -1.
</event>
<event>
 8    1  0.1229941E-006  0.9118800E+02  0.7816164E-02  0.1184000E+00
        -11   -1    0    0    0    0  0.00000000000E+00  0.00000000000E+00  0.45593999997E+02  0.45594000000E+02  0.51100000000E-03 0.  1.
         11   -1    0    0    0    0 -0.00000000000E+00 -0.00000000000E+00 -0.45593999997E+02  0.45594000000E+02  0.51100000000E-03 0. -1.
         23    2    1    2    0    0 -0.35527136788E-14  0.00000000000E+00  0.00000000000E+00  0.91188000000E+02  0.91188000000E+02 0.  0.
    9900012    2    3    3    0    0 -0.21947445126E+02 -0.13401669308E+02  0.26353074665E+02  0.54367087028E+02  0.40000006498E+02 0.  0.
         12    1    3    3    0    0  0.21947445126E+02  0.13401669308E+02 -0.26353074665E+02  0.36820912972E+02  0.00000000000E+00 0. -1.
         11    1    4    4    0    0  0.30299785885E+01 -0.42851963027E+01 -0.47834563933E+00  0.52699613292E+01  0.51100000000E-03 0. -1.
        -11    1    4    4    0    0  0.19713299374E+01 -0.12394829548E+02  0.14794266281E+02  0.19400728242E+02  0.51100000000E-03 0.  1.
         12    1    4    4    0    0 -0.26948753651E+02  0.32783565424E+01  0.12037154023E+02  0.29696397457E+02  0.00000000000E+00 0. -1.
</event>
<event>
 8    1  0.1229941E-006  0.9118800E+02  0.7816164E-02  0.1184000E+00
        -11   -1    0    0    0    0  0.00000000000E+00  0.00000000000E+00  0.45593999997E+02  0.45594000000E+02  0.51100000000E-03 0.  1.
         11   -1    0    0    0    0 -0.00000000000E+00 -0.00000000000E+00 -0.45593999997E+02  0.45594000000E+02  0.51100000000E-03 0. -1.
         23    2    1    2    0    0  0.00000000000E+00  0.00000000000E+00  0.44408920985E-15  0.91188000000E+02  0.91188000000E+02 0.  0.
    9900012    2    3    3    0    0 -0.29885647528E+02 -0.21231035878E+02 -0.34458835040E+01  0.54367042303E+02  0.39999904538E+02 0.  0.
        -12    1    3    3    0    0  0.29885647528E+02  0.21231035878E+02  0.34458835040E+01  0.36820957697E+02  0.00000000000E+00 0.  1.
         11    1    4    4    0    0 -0.22104110195E+02 -0.67276684313E+01 -0.17263372862E+02  0.28842282380E+02  0.51100000000E-03 0. -1.
        -11    1    4    4    0    0 -0.44251410730E+01 -0.41536212799E+01  0.13314790434E+02  0.14632774440E+02  0.51100000000E-03 0.  1.
         12    1    4    4    0    0 -0.33563962597E+01 -0.10349746166E+02  0.50269892370E+00  0.10891985483E+02  0.00000000000E+00 0. -1.
</event>
<event>
 8    1  0.1229941E-006  0.9118800E+02  0.7816164E-02  0.1184000E+00
        -11   -1    0    0    0    0  0.00000000000E+00  0.00000000000E+00  0.45593999997E+02  0.45594000000E+02  0.51100000000E-03 0.  1.
         11   -1    0    0    0    0 -0.00000000000E+00 -0.00000000000E+00 -0.45593999997E+02  0.45594000000E+02  0.51100000000E-03 0. -1.
         23    2    1    2    0    0  0.35527136788E-14 -0.24424906542E-14  0.35527136788E-14  0.91188000000E+02  0.91188000000E+02 0.  0.
    9900012    2    3    3    0    0  0.31709184707E+02 -0.27013379445E+00  0.18714549760E+02  0.54367085566E+02  0.40000003165E+02 0.  0.
         12    1    3    3    0    0 -0.31709184707E+02  0.27013379445E+00 -0.18714549760E+02  0.36820914434E+02  0.00000000000E+00 0. -1.
         11    1    4    4    0    0  0.20348165973E+02  0.90099858652E+01  0.13862653337E+02  0.26218330640E+02  0.51100000000E-03 0.  1.
        -11    1    4    4    0    0  0.18175450487E+01  0.78520618698E+01  0.59865526815E+00  0.80818768861E+01  0.51100000000E-03 0. -1.
        -12    1    4    4    0    0  0.95434736856E+01 -0.17132181529E+02  0.42532411548E+01  0.20066878040E+02  0.00000000000E+00 0.  1.
</event>
<event>
 8    1  0.1229941E-006  0.9118800E+02  0.7816164E-02  0.1184000E+00
        -11   -1    0    0    0    0  0.00000000000E+00  0.00000000000E+00  0.45593999997E+02  0.45594000000E+02  0.51100000000E-03 0.  1.
         11   -1    0    0    0    0 -0.00000000000E+00 -0.00000000000E+00 -0.45593999997E+02  0.45594000000E+02  0.51100000000E-03 0. -1.
         23    2    1    2    0    0  0.00000000000E+00  0.35527136788E-14 -0.35527136788E-14  0.91188000000E+02  0.91188000000E+02 0.  0.
    9900012    2    3    3    0    0  0.31315315628E+02  0.10393120974E+02  0.16343600327E+02  0.54367092514E+02  0.40000019004E+02 0.  0.
         12    1    3    3    0    0 -0.31315315628E+02 -0.10393120974E+02 -0.16343600327E+02  0.36820907486E+02  0.00000000000E+00 0. -1.
         11    1    4    4    0    0  0.97041938172E+01 -0.41494061896E+01 -0.61638185366E+01  0.12222176917E+02  0.51100000000E-03 0. -1.
        -11    1    4    4    0    0  0.23958677961E+02  0.18515982458E+02  0.16234642453E+02  0.34357291392E+02  0.51100000000E-03 0.  1.
         12    1    4    4    0    0 -0.23475561497E+01 -0.39734552944E+01  0.62727764109E+01  0.77876242047E+01  0.00000000000E+00 0. -1.
</event>
<event>
 8    1  0.1229941E-006  0.9118800E+02  0.7816164E-02  0.1184000E+00
        -11   -1    0    0    0    0  0.00000000000E+00  0.00000000000E+00  0.45593999997E+02  0.45594000000E+02  0.51100000000E-03 0.  1.
         11   -1    0    0    0    0 -0.00000000000E+00 -0.00000000000E+00 -0.45593999997E+02  0.45594000000E+02  0.51100000000E-03 0. -1.
         23    2    1    2    0    0  0.00000000000E+00 -0.35527136788E-14 -0.17763568394E-14  0.91188000000E+02  0.91188000000E+02 0.  0.
    9900012    2    3    3    0    0  0.20221668711E+02 -0.30011820757E+02  0.67936658880E+01  0.54367093346E+02  0.40000020901E+02 0.  0.
         12    1    3    3    0    0 -0.20221668711E+02  0.30011820757E+02 -0.67936658880E+01  0.36820906654E+02  0.00000000000E+00 0. -1.
         11    1    4    4    0    0 -0.46957281048E+00 -0.76979787676E+01 -0.87271807276E+01  0.11646590035E+02  0.51100000000E-03 0. -1.
        -11    1    4    4    0    0  0.21643675743E+02 -0.79955215268E+01  0.16455573114E+02  0.28340129691E+02  0.51100000000E-03 0.  1.
        -12    1    4    4    0    0 -0.95243422176E+00 -0.14318320463E+02 -0.93472649809E+00  0.14380373620E+02  0.00000000000E+00 0.  1.
</event>
<event>
 8    1  0.1229941E-006  0.9118800E+02  0.7816164E-02  0.1184000E+00
        -11   -1    0    0    0    0  0.00000000000E+00  0.00000000000E+00  0.45593999997E+02  0.45594000000E+02  0.51100000000E-03 0.  1.
         11   -1    0    0    0    0 -0.00000000000E+00 -0.00000000000E+00 -0.45593999997E+02  0.45594000000E+02  0.51100000000E-03 0. -1.
         23    2    1    2    0    0  0.17763568394E-14  0.71054273576E-14 -0.22204460493E-14  0.91188000000E+02  0.91188000000E+02 0.  0.
    9900012    2    3    3    0    0 -0.55204370648E+01 -0.36362826695E+02  0.17459290210E+01  0.54367100245E+02  0.40000036628E+02 0.  0.
         12    1    3    3    0    0  0.55204370648E+01  0.36362826695E+02 -0.17459290210E+01  0.36820899755E+02  0.00000000000E+00 0. -1.
         11    1    4    4    0    0  0.17871502465E+01 -0.86907527316E+01 -0.10130184705E+02  0.13466392667E+02  0.51100000000E-03 0. -1.
        -11    1    4    4    0    0  0.58018114746E+01 -0.23458394021E+02  0.26153212308E+01  0.24306319587E+02  0.51100000000E-03 0.  1.
         12    1    4    4    0    0 -0.13109398786E+02 -0.42136799419E+01  0.92607924948E+01  0.16594387991E+02  0.00000000000E+00 0. -1.
</event>
<event>
 8    1  0.1229941E-006  0.9118800E+02  0.7816164E-02  0.1184000E+00
        -11   -1    0    0    0    0  0.00000000000E+00  0.00000000000E+00  0.45593999997E+02  0.45594000000E+02  0.51100000000E-03 0.  1.
         11   -1    0    0    0    0 -0.00000000000E+00 -0.00000000000E+00 -0.45593999997E+02  0.45594000000E+02  0.51100000000E-03 0. -1.
         23    2    1    2    0    0  0.71054273576E-14 -0.13322676296E-14 -0.35527136788E-14  0.91188000000E+02  0.91188000000E+02 0.  0.
    9900012    2    3    3    0    0 -0.29425033775E+02  0.21215280063E+01  0.22032797790E+02  0.54367113641E+02  0.40000067168E+02 0.  0.
         12    1    3    3    0    0  0.29425033775E+02 -0.21215280063E+01 -0.22032797790E+02  0.36820886359E+02  0.00000000000E+00 0. -1.
         11    1    4    4    0    0  0.28906623060E+01 -0.43053626269E+01  0.57254579682E+01  0.77248265433E+01  0.51100000000E-03 0.  1.
        -11    1    4    4    0    0  0.44625251781E+01 -0.33870273041E+01  0.15104491973E+01  0.58023738213E+01  0.51100000000E-03 0. -1.
         12    1    4    4    0    0 -0.36778221259E+02  0.98139179373E+01  0.14796890625E+02  0.40839913277E+02  0.00000000000E+00 0. -1.
</event>
<event>
 8    1  0.1229941E-006  0.9118800E+02  0.7816164E-02  0.1184000E+00
        -11   -1    0    0    0    0  0.00000000000E+00  0.00000000000E+00  0.45593999997E+02  0.45594000000E+02  0.51100000000E-03 0.  1.
         11   -1    0    0    0    0 -0.00000000000E+00 -0.00000000000E+00 -0.45593999997E+02  0.45594000000E+02  0.51100000000E-03 0. -1.
         23    2    1    2    0    0  0.00000000000E+00  0.00000000000E+00 -0.35527136788E-14  0.91188000000E+02  0.91188000000E+02 0.  0.
    9900012    2    3    3    0    0  0.12164811535E+02 -0.19546208142E+02 -0.28735735770E+02  0.54367090144E+02  0.40000013601E+02 0.  0.
        -12    1    3    3    0    0 -0.12164811535E+02  0.19546208142E+02  0.28735735770E+02  0.36820909856E+02  0.00000000000E+00 0.  1.
         11    1    4    4    0    0  0.41633683591E+01 -0.24846319172E+02 -0.16429772587E+02  0.30076745834E+02  0.51100000000E-03 0. -1.
        -11    1    4    4    0    0  0.12260973911E+01  0.92537742356E+01 -0.13440626423E+02  0.16364170963E+02  0.51100000000E-03 0.  1.
        -12    1    4    4    0    0  0.67753457844E+01 -0.39536632062E+01  0.11346632396E+01  0.79261733462E+01  0.00000000000E+00 0.  1.
</event>
<event>
 8    1  0.1229941E-006  0.9118800E+02  0.7816164E-02  0.1184000E+00
        -11   -1    0    0    0    0  0.00000000000E+00  0.00000000000E+00  0.45593999997E+02  0.45594000000E+02  0.51100000000E-03 0.  1.
         11   -1    0    0    0    0 -0.00000000000E+00 -0.00000000000E+00 -0.45593999997E+02  0.45594000000E+02  0.51100000000E-03 0. -1.
         23    2    1    2    0    0  0.00000000000E+00  0.00000000000E+00  0.00000000000E+00  0.91188000000E+02  0.91188000000E+02 0.  0.
    9900012    2    3    3    0    0 -0.28898271156E+02 -0.22695127956E+02  0.23665956614E+01  0.54367086326E+02  0.40000004898E+02 0.  0.
         12    1    3    3    0    0  0.28898271156E+02  0.22695127956E+02 -0.23665956614E+01  0.36820913674E+02  0.00000000000E+00 0. -1.
         11    1    4    4    0    0 -0.96206449863E+01  0.20410705971E+01  0.51693978176E+01  0.11110600938E+02  0.51100000000E-03 0. -1.
        -11    1    4    4    0    0 -0.23277458880E+02 -0.10485583068E+02  0.57390704772E+01  0.26167240481E+02  0.51100000000E-03 0.  1.
        -12    1    4    4    0    0  0.39998327103E+01 -0.14250615485E+02 -0.85418726334E+01  0.17089244907E+02  0.00000000000E+00 0.  1.
</event>
<event>
 8    1  0.1229941E-006  0.9118800E+02  0.7816164E-02  0.1184000E+00
        -11   -1    0    0    0    0  0.00000000000E+00  0.00000000000E+00  0.45593999997E+02  0.45594000000E+02  0.51100000000E-03 0. -1.
         11   -1    0    0    0    0 -0.00000000000E+00 -0.00000000000E+00 -0.45593999997E+02  0.45594000000E+02  0.51100000000E-03 0.  1.
         23    2    1    2    0    0  0.17763568394E-14  0.00000000000E+00  0.35527136788E-14  0.91188000000E+02  0.91188000000E+02 0.  0.
    9900012    2    3    3    0    0 -0.43364311430E+01 -0.17813772170E+02  0.31931857660E+02  0.54367100396E+02  0.40000036974E+02 0.  0.
        -12    1    3    3    0    0  0.43364311430E+01  0.17813772170E+02 -0.31931857660E+02  0.36820899604E+02  0.00000000000E+00 0.  1.
         11    1    4    4    0    0 -0.90325161717E+01 -0.11673831982E+02  0.12866431146E+02  0.19580851672E+02  0.51100000000E-03 0. -1.
        -11    1    4    4    0    0  0.75075599635E+01  0.39066688199E+01 -0.40821956527E+01  0.93962673165E+01  0.51100000000E-03 0.  1.
         12    1    4    4    0    0 -0.28114749348E+01 -0.10046609008E+02  0.23147622167E+02  0.25389981407E+02  0.00000000000E+00 0. -1.
</event>
<event>
 8    1  0.1229941E-006  0.9118800E+02  0.7816164E-02  0.1184000E+00
        -11   -1    0    0    0    0  0.00000000000E+00  0.00000000000E+00  0.45593999997E+02  0.45594000000E+02  0.51100000000E-03 0.  1.
         11   -1    0    0    0    0 -0.00000000000E+00 -0.00000000000E+00 -0.45593999997E+02  0.45594000000E+02  0.51100000000E-03 0. -1.
         23    2    1    2    0    0  0.88817841970E-15  0.00000000000E+00  0.71054273576E-14  0.91188000000E+02  0.91188000000E+02 0.  0.
    9900012    2    3    3    0    0 -0.23229911604E+01  0.12328029968E+02 -0.34617954043E+02  0.54367090819E+02  0.40000015139E+02 0.  0.
        -12    1    3    3    0    0  0.23229911604E+01 -0.12328029968E+02  0.34617954043E+02  0.36820909181E+02  0.00000000000E+00 0.  1.
         11    1    4    4    0    0 -0.93695835294E+01  0.93145924523E+01 -0.29891773195E+01  0.13545697080E+02  0.51100000000E-03 0. -1.
        -11    1    4    4    0    0 -0.36049925094E+01  0.10541403189E+02 -0.76171341352E+01  0.13495846949E+02  0.51100000000E-03 0.  1.
        -12    1    4    4    0    0  0.10651584878E+02 -0.75279656729E+01 -0.24011642588E+02  0.27325546790E+02  0.00000000000E+00 0.  1.
</event>
<event>
 8    1  0.1229941E-006  0.9118800E+02  0.7816164E-02  0.1184000E+00
        -11   -1    0    0    0    0  0.00000000000E+00  0.00000000000E+00  0.45593999997E+02  0.45594000000E+02  0.51100000000E-03 0. -1.
         11   -1    0    0    0    0 -0.00000000000E+00 -0.00000000000E+00 -0.45593999997E+02  0.45594000000E+02  0.51100000000E-03 0.  1.
         23    2    1    2    0    0  0.00000000000E+00  0.00000000000E+00  0.00000000000E+00  0.91188000000E+02  0.91188000000E+02 0.  0.
    9900012    2    3    3    0    0 -0.19182987694E+02 -0.27270090448E+02 -0.15624828484E+02  0.54367080470E+02  0.39999991547E+02 0.  0.
         12    1    3    3    0    0  0.19182987694E+02  0.27270090448E+02  0.15624828484E+02  0.36820919530E+02  0.00000000000E+00 0. -1.
         11    1    4    4    0    0 -0.26062665588E+02 -0.14932313155E+02  0.14081689265E+01  0.30070241996E+02  0.51100000000E-03 0. -1.
        -11    1    4    4    0    0  0.76925558594E+00  0.17444676055E+01 -0.26195945246E+01  0.32399378262E+01  0.51100000000E-03 0.  1.
         12    1    4    4    0    0  0.61104223075E+01 -0.14082244898E+02 -0.14413402886E+02  0.21056900648E+02  0.00000000000E+00 0. -1.
</event>
<event>
 8    1  0.1229941E-006  0.9118800E+02  0.7816164E-02  0.1184000E+00
        -11   -1    0    0    0    0  0.00000000000E+00  0.00000000000E+00  0.45593999997E+02  0.45594000000E+02  0.51100000000E-03 0. -1.
         11   -1    0    0    0    0 -0.00000000000E+00 -0.00000000000E+00 -0.45593999997E+02  0.45594000000E+02  0.51100000000E-03 0.  1.
         23    2    1    2    0    0 -0.17763568394E-14 -0.35527136788E-14  0.71054273576E-14  0.91188000000E+02  0.91188000000E+02 0.  0.
    9900012    2    3    3    0    0 -0.14881220103E+02 -0.22276615021E+02  0.25260411718E+02  0.54366991204E+02  0.39999788048E+02 0.  0.
        -12    1    3    3    0    0  0.14881220103E+02  0.22276615021E+02 -0.25260411718E+02  0.36821008796E+02  0.00000000000E+00 0.  1.
         11    1    4    4    0    0 -0.25634601509E+01  0.95678545844E+01  0.93047237451E+01  0.13590182248E+02  0.51100000000E-03 0. -1.
        -11    1    4    4    0    0 -0.34777531539E+01 -0.95760432685E+01  0.13178673443E+02  0.16657514991E+02  0.51100000000E-03 0.  1.
        -12    1    4    4    0    0 -0.88400067983E+01 -0.22268426337E+02  0.27770145300E+01  0.24119293966E+02  0.00000000000E+00 0.  1.
</event>
<event>
 8    1  0.1229941E-006  0.9118800E+02  0.7816164E-02  0.1184000E+00
        -11   -1    0    0    0    0  0.00000000000E+00  0.00000000000E+00  0.45593999997E+02  0.45594000000E+02  0.51100000000E-03 0.  1.
         11   -1    0    0    0    0 -0.00000000000E+00 -0.00000000000E+00 -0.45593999997E+02  0.45594000000E+02  0.51100000000E-03 0. -1.
         23    2    1    2    0    0 -0.88817841970E-15  0.35527136788E-14  0.00000000000E+00  0.91188000000E+02  0.91188000000E+02 0.  0.
    9900012    2    3    3    0    0  0.56429368365E+01  0.27535584297E+02  0.23785057320E+02  0.54367080804E+02  0.39999992308E+02 0.  0.
         12    1    3    3    0    0 -0.56429368365E+01 -0.27535584297E+02 -0.23785057320E+02  0.36820919196E+02  0.00000000000E+00 0. -1.
         11    1    4    4    0    0  0.12879628967E+02  0.97323645455E+01 -0.32500683180E+00  0.16146497814E+02  0.51100000000E-03 0. -1.
        -11    1    4    4    0    0 -0.77033700043E+01  0.19170912177E+02  0.81736538874E+01  0.22218784874E+02  0.51100000000E-03 0.  1.
        -12    1    4    4    0    0  0.46667787408E+00 -0.13676924253E+01  0.15936410265E+02  0.16001798116E+02  0.00000000000E+00 0.  1.
</event>
<event>
 8    1  0.1229941E-006  0.9118800E+02  0.7816164E-02  0.1184000E+00
        -11   -1    0    0    0    0  0.00000000000E+00  0.00000000000E+00  0.45593999997E+02  0.45594000000E+02  0.51100000000E-03 0. -1.
         11   -1    0    0    0    0 -0.00000000000E+00 -0.00000000000E+00 -0.45593999997E+02  0.45594000000E+02  0.51100000000E-03 0.  1.
         23    2    1    2    0    0 -0.35527136788E-14  0.00000000000E+00  0.35527136788E-14  0.91188000000E+02  0.91188000000E+02 0.  0.
    9900012    2    3    3    0    0 -0.26556500061E+02 -0.18501386831E+02 -0.17556498157E+02  0.54367086952E+02  0.40000006325E+02 0.  0.
         12    1    3    3    0    0  0.26556500061E+02  0.18501386831E+02  0.17556498157E+02  0.36820913048E+02  0.00000000000E+00 0. -1.
         11    1    4    4    0    0 -0.10632635993E+02 -0.25076564906E+02 -0.62350023047E+01  0.27942124286E+02  0.51100000000E-03 0. -1.
        -11    1    4    4    0    0 -0.70813794368E+01 -0.48454463478E+01 -0.92811352868E+00  0.86305086769E+01  0.51100000000E-03 0.  1.
         12    1    4    4    0    0 -0.88424846310E+01  0.11420624423E+02 -0.10393382323E+02  0.17794453989E+02  0.00000000000E+00 0. -1.
</event>
<event>
 8    1  0.1229941E-006  0.9118800E+02  0.7816164E-02  0.1184000E+00
        -11   -1    0    0    0    0  0.00000000000E+00  0.00000000000E+00  0.45593999997E+02  0.45594000000E+02  0.51100000000E-03 0. -1.
         11   -1    0    0    0    0 -0.00000000000E+00 -0.00000000000E+00 -0.45593999997E+02  0.45594000000E+02  0.51100000000E-03 0.  1.
         23    2    1    2    0    0 -0.26645352591E-14  0.00000000000E+00  0.00000000000E+00  0.91188000000E+02  0.91188000000E+02 0.  0.
    9900012    2    3    3    0    0 -0.45521589897E+01 -0.18490804782E+02 -0.31514243538E+02  0.54367088024E+02  0.40000008769E+02 0.  0.
         12    1    3    3    0    0  0.45521589897E+01  0.18490804782E+02  0.31514243538E+02  0.36820911976E+02  0.00000000000E+00 0. -1.
         11    1    4    4    0    0  0.67944313757E+01 -0.45129519919E+01  0.24308241184E+01  0.85111655815E+01  0.51100000000E-03 0. -1.
        -11    1    4    4    0    0  0.65346391432E+01  0.65179824779E+00 -0.13468991203E+02  0.14984661290E+02  0.51100000000E-03 0.  1.
        -12    1    4    4    0    0 -0.17881229509E+02 -0.14629651038E+02 -0.20476076454E+02  0.30871261153E+02  0.00000000000E+00 0.  1.
</event>
<event>
 8    1  0.1229941E-006  0.9118800E+02  0.7816164E-02  0.1184000E+00
        -11   -1    0    0    0    0  0.00000000000E+00  0.00000000000E+00  0.45593999997E+02  0.45594000000E+02  0.51100000000E-03 0. -1.
         11   -1    0    0    0    0 -0.00000000000E+00 -0.00000000000E+00 -0.45593999997E+02  0.45594000000E+02  0.51100000000E-03 0.  1.
         23    2    1    2    0    0  0.00000000000E+00  0.17763568394E-14 -0.88817841970E-15  0.91188000000E+02  0.91188000000E+02 0.  0.
    9900012    2    3    3    0    0 -0.35357972234E+02  0.69874993558E+01  0.75346028112E+01  0.54367060478E+02  0.39999945971E+02 0.  0.
         12    1    3    3    0    0  0.35357972234E+02 -0.69874993558E+01 -0.75346028112E+01  0.36820939522E+02  0.00000000000E+00 0. -1.
         11    1    4    4    0    0 -0.26370555282E+02  0.13542073062E+02  0.21176647557E+02  0.36431364656E+02  0.51100000000E-03 0. -1.
        -11    1    4    4    0    0 -0.50459530079E+01 -0.56952660073E+01 -0.88064257141E+01  0.11638334536E+02  0.51100000000E-03 0.  1.
         12    1    4    4    0    0 -0.39414639446E+01 -0.85930769883E+00 -0.48356190315E+01  0.62973612859E+01  0.00000000000E+00 0. -1.
</event>
<event>
 8    1  0.1229941E-006  0.9118800E+02  0.7816164E-02  0.1184000E+00
        -11   -1    0    0    0    0  0.00000000000E+00  0.00000000000E+00  0.45593999997E+02  0.45594000000E+02  0.51100000000E-03 0. -1.
         11   -1    0    0    0    0 -0.00000000000E+00 -0.00000000000E+00 -0.45593999997E+02  0.45594000000E+02  0.51100000000E-03 0.  1.
         23    2    1    2    0    0  0.00000000000E+00 -0.17763568394E-14 -0.17763568394E-14  0.91188000000E+02  0.91188000000E+02 0.  0.
    9900012    2    3    3    0    0 -0.30737968641E+02 -0.15361535429E+02 -0.13227904121E+02  0.54367123662E+02  0.40000090011E+02 0.  0.
        -12    1    3    3    0    0  0.30737968641E+02  0.15361535429E+02  0.13227904121E+02  0.36820876338E+02  0.00000000000E+00 0.  1.
         11    1    4    4    0    0 -0.13398304050E+02 -0.34099786549E+01 -0.16438777686E+02  0.21479662891E+02  0.51100000000E-03 0.  1.
        -11    1    4    4    0    0 -0.14898555178E+02 -0.23995000686E+01 -0.87053408519E+01  0.17421466832E+02  0.51100000000E-03 0. -1.
         12    1    4    4    0    0 -0.24411094129E+01 -0.95520567054E+01  0.11916214417E+02  0.15465993939E+02  0.00000000000E+00 0. -1.
</event>
<event>
 8    1  0.1229941E-006  0.9118800E+02  0.7816164E-02  0.1184000E+00
        -11   -1    0    0    0    0  0.00000000000E+00  0.00000000000E+00  0.45593999997E+02  0.45594000000E+02  0.51100000000E-03 0.  1.
         11   -1    0    0    0    0 -0.00000000000E+00 -0.00000000000E+00 -0.45593999997E+02  0.45594000000E+02  0.51100000000E-03 0. -1.
         23    2    1    2    0    0 -0.44408920985E-15  0.00000000000E+00  0.00000000000E+00  0.91188000000E+02  0.91188000000E+02 0.  0.
    9900012    2    3    3    0    0 -0.31803489561E+00  0.29963559039E+02 -0.21397773025E+02  0.54367072433E+02  0.39999973225E+02 0.  0.
        -12    1    3    3    0    0  0.31803489561E+00 -0.29963559039E+02  0.21397773025E+02  0.36820927567E+02  0.00000000000E+00 0.  1.
         11    1    4    4    0    0 -0.34970584411E+00  0.22328292544E+01 -0.72810237613E+01  0.76237213965E+01  0.51100000000E-03 0. -1.
        -11    1    4    4    0    0 -0.11815750507E+02  0.25743953847E+02 -0.18638054737E+02  0.33907819222E+02  0.51100000000E-03 0.  1.
        -12    1    4    4    0    0  0.11847421456E+02  0.19867759368E+01  0.45213054730E+01  0.12835531814E+02  0.00000000000E+00 0.  1.
</event>
<event>
 8    1  0.1229941E-006  0.9118800E+02  0.7816164E-02  0.1184000E+00
        -11   -1    0    0    0    0  0.00000000000E+00  0.00000000000E+00  0.45593999997E+02  0.45594000000E+02  0.51100000000E-03 0. -1.
         11   -1    0    0    0    0 -0.00000000000E+00 -0.00000000000E+00 -0.45593999997E+02  0.45594000000E+02  0.51100000000E-03 0.  1.
         23    2    1    2    0    0  0.00000000000E+00  0.17763568394E-14  0.17763568394E-14  0.91188000000E+02  0.91188000000E+02 0.  0.
    9900012    2    3    3    0    0  0.32682236182E+02 -0.14892247360E+02  0.81161834067E+01  0.54367081674E+02  0.39999994292E+02 0.  0.
        -12    1    3    3    0    0 -0.32682236182E+02  0.14892247360E+02 -0.81161834067E+01  0.36820918326E+02  0.00000000000E+00 0.  1.
         11    1    4    4    0    0 -0.45411516241E-01 -0.13247783424E+02  0.76245255237E+01  0.15285261449E+02  0.51100000000E-03 0. -1.
        -11    1    4    4    0    0  0.27487682589E+02 -0.15556750930E+01 -0.83792229053E+01  0.28778537070E+02  0.51100000000E-03 0.  1.
         12    1    4    4    0    0  0.52399651089E+01 -0.88788843456E-01  0.88708807882E+01  0.10303283154E+02  0.00000000000E+00 0. -1.
</event>
<event>
 8    1  0.1229941E-006  0.9118800E+02  0.7816164E-02  0.1184000E+00
        -11   -1    0    0    0    0  0.00000000000E+00  0.00000000000E+00  0.45593999997E+02  0.45594000000E+02  0.51100000000E-03 0.  1.
         11   -1    0    0    0    0 -0.00000000000E+00 -0.00000000000E+00 -0.45593999997E+02  0.45594000000E+02  0.51100000000E-03 0. -1.
         23    2    1    2    0    0  0.00000000000E+00 -0.35527136788E-14  0.00000000000E+00  0.91188000000E+02  0.91188000000E+02 0.  0.
    9900012    2    3    3    0    0  0.21299548494E+02 -0.20480052278E+02  0.21969688480E+02  0.54367210773E+02  0.40000288599E+02 0.  0.
         12    1    3    3    0    0 -0.21299548494E+02  0.20480052278E+02 -0.21969688480E+02  0.36820789227E+02  0.00000000000E+00 0. -1.
         11    1    4    4    0    0  0.13794955729E+02 -0.23941109142E+02  0.36569546689E+01  0.27872043847E+02  0.51100000000E-03 0. -1.
        -11    1    4    4    0    0 -0.24591711935E+01  0.45974804035E+01 -0.43689345676E+00  0.52321339024E+01  0.51100000000E-03 0.  1.
        -12    1    4    4    0    0  0.99637639581E+01 -0.11364235399E+01  0.18749627268E+02  0.21263033023E+02  0.00000000000E+00 0.  1.
</event>
<event>
 8    1  0.1229941E-006  0.9118800E+02  0.7816164E-02  0.1184000E+00
        -11   -1    0    0    0    0  0.00000000000E+00  0.00000000000E+00  0.45593999997E+02  0.45594000000E+02  0.51100000000E-03 0. -1.
         11   -1    0    0    0    0 -0.00000000000E+00 -0.00000000000E+00 -0.45593999997E+02  0.45594000000E+02  0.51100000000E-03 0.  1.
         23    2    1    2    0    0  0.00000000000E+00 -0.17763568394E-14  0.00000000000E+00  0.91188000000E+02  0.91188000000E+02 0.  0.
    9900012    2    3    3    0    0 -0.22451209987E+02  0.67059891023E+01 -0.28403460617E+02  0.54367031860E+02  0.39999880731E+02 0.  0.
         12    1    3    3    0    0  0.22451209987E+02 -0.67059891023E+01  0.28403460617E+02  0.36820968140E+02  0.00000000000E+00 0. -1.
         11    1    4    4    0    0 -0.19151757927E+02  0.37564430701E+00 -0.22286686201E+01  0.19284654636E+02  0.51100000000E-03 0. -1.
        -11    1    4    4    0    0 -0.11213385127E+02  0.91953471895E+00 -0.21826141528E+02  0.24555366101E+02  0.51100000000E-03 0.  1.
         12    1    4    4    0    0  0.79139330674E+01  0.54108100763E+01 -0.43486504693E+01  0.10527011123E+02  0.00000000000E+00 0. -1.
</event>
<event>
 8    1  0.1229941E-006  0.9118800E+02  0.7816164E-02  0.1184000E+00
        -11   -1    0    0    0    0  0.00000000000E+00  0.00000000000E+00  0.45593999997E+02  0.45594000000E+02  0.51100000000E-03 0. -1.
         11   -1    0    0    0    0 -0.00000000000E+00 -0.00000000000E+00 -0.45593999997E+02  0.45594000000E+02  0.51100000000E-03 0.  1.
         23    2    1    2    0    0  0.00000000000E+00 -0.88817841970E-15  0.24424906542E-14  0.91188000000E+02  0.91188000000E+02 0.  0.
    9900012    2    3    3    0    0 -0.36673766921E+02  0.29096231257E+01  0.15326924676E+01  0.54367078866E+02  0.39999987892E+02 0.  0.
        -12    1    3    3    0    0  0.36673766921E+02 -0.29096231257E+01 -0.15326924676E+01  0.36820921134E+02  0.00000000000E+00 0.  1.
         11    1    4    4    0    0 -0.72772639611E+01  0.50084221030E+01  0.17093178272E+02  0.19241091612E+02  0.51100000000E-03 0. -1.
        -11    1    4    4    0    0 -0.15654746780E+02 -0.66569086122E+01 -0.86054272177E+01  0.19064073722E+02  0.51100000000E-03 0.  1.
        -12    1    4    4    0    0 -0.13741756180E+02  0.45581096349E+01 -0.69550585872E+01  0.16061913532E+02  0.00000000000E+00 0.  1.
</event>
<event>
 8    1  0.1229941E-006  0.9118800E+02  0.7816164E-02  0.1184000E+00
        -11   -1    0    0    0    0  0.00000000000E+00  0.00000000000E+00  0.45593999997E+02  0.45594000000E+02  0.51100000000E-03 0.  1.
         11   -1    0    0    0    0 -0.00000000000E+00 -0.00000000000E+00 -0.45593999997E+02  0.45594000000E+02  0.51100000000E-03 0. -1.
         23    2    1    2    0    0  0.00000000000E+00  0.00000000000E+00 -0.17763568394E-14  0.91188000000E+02  0.91188000000E+02 0.  0.
    9900012    2    3    3    0    0 -0.36110873023E+02  0.24597636669E+01  0.67626511813E+01  0.54367095085E+02  0.40000024865E+02 0.  0.
         12    1    3    3    0    0  0.36110873023E+02 -0.24597636669E+01 -0.67626511813E+01  0.36820904915E+02  0.00000000000E+00 0. -1.
         11    1    4    4    0    0 -0.33626753484E+02  0.44919446162E+01  0.14406611128E+02  0.36857652675E+02  0.51100000000E-03 0.  1.
        -11    1    4    4    0    0  0.22576151921E+01 -0.76348282936E+01 -0.60474348721E+01  0.99979446999E+01  0.51100000000E-03 0. -1.
         12    1    4    4    0    0 -0.47417347314E+01  0.56026473443E+01 -0.15965250743E+01  0.75114977095E+01  0.00000000000E+00 0. -1.
</event>
<event>
 8    1  0.1229941E-006  0.9118800E+02  0.7816164E-02  0.1184000E+00
        -11   -1    0    0    0    0  0.00000000000E+00  0.00000000000E+00  0.45593999997E+02  0.45594000000E+02  0.51100000000E-03 0. -1.
         11   -1    0    0    0    0 -0.00000000000E+00 -0.00000000000E+00 -0.45593999997E+02  0.45594000000E+02  0.51100000000E-03 0.  1.
         23    2    1    2    0    0 -0.35527136788E-14 -0.17763568394E-14  0.71054273576E-14  0.91188000000E+02  0.91188000000E+02 0.  0.
    9900012    2    3    3    0    0  0.22237512084E+02  0.14676479606E+02 -0.25413977386E+02  0.54367133037E+02  0.40000111385E+02 0.  0.
         12    1    3    3    0    0 -0.22237512084E+02 -0.14676479606E+02  0.25413977386E+02  0.36820866963E+02  0.00000000000E+00 0. -1.
         11    1    4    4    0    0  0.61855365923E+01 -0.20270867484E+01 -0.11925683295E+01  0.66175647410E+01  0.51100000000E-03 0. -1.
        -11    1    4    4    0    0 -0.59536496939E+01 -0.44094317783E+01 -0.13544853618E+02  0.15438655805E+02  0.51100000000E-03 0.  1.
         12    1    4    4    0    0  0.22005625186E+02  0.21112998133E+02 -0.10676555439E+02  0.32310912491E+02  0.00000000000E+00 0. -1.
</event>
<event>
 8    1  0.1229941E-006  0.9118800E+02  0.7816164E-02  0.1184000E+00
        -11   -1    0    0    0    0  0.00000000000E+00  0.00000000000E+00  0.45593999997E+02  0.45594000000E+02  0.51100000000E-03 0.  1.
         11   -1    0    0    0    0 -0.00000000000E+00 -0.00000000000E+00 -0.45593999997E+02  0.45594000000E+02  0.51100000000E-03 0. -1.
         23    2    1    2    0    0  0.00000000000E+00  0.00000000000E+00  0.17763568394E-14  0.91188000000E+02  0.91188000000E+02 0.  0.
    9900012    2    3    3    0    0 -0.13423395429E+02 -0.33923928970E+02  0.49758436844E+01  0.54367088524E+02  0.40000009907E+02 0.  0.
        -12    1    3    3    0    0  0.13423395429E+02  0.33923928970E+02 -0.49758436844E+01  0.36820911476E+02  0.00000000000E+00 0.  1.
         11    1    4    4    0    0  0.63970169621E+00  0.20741206654E+01 -0.56024116746E+01  0.60081787280E+01  0.51100000000E-03 0. -1.
        -11    1    4    4    0    0 -0.14139533149E+02 -0.34001014422E+01  0.42655211950E+01  0.15155255155E+02  0.51100000000E-03 0.  1.
         12    1    4    4    0    0  0.76436024311E-01 -0.32597948193E+02  0.63127341641E+01  0.33203654640E+02  0.00000000000E+00 0. -1.
</event>
<event>
 8    1  0.1229941E-006  0.9118800E+02  0.7816164E-02  0.1184000E+00
        -11   -1    0    0    0    0  0.00000000000E+00  0.00000000000E+00  0.45593999997E+02  0.45594000000E+02  0.51100000000E-03 0. -1.
         11   -1    0    0    0    0 -0.00000000000E+00 -0.00000000000E+00 -0.45593999997E+02  0.45594000000E+02  0.51100000000E-03 0.  1.
         23    2    1    2    0    0  0.00000000000E+00  0.00000000000E+00 -0.35527136788E-14  0.91188000000E+02  0.91188000000E+02 0.  0.
    9900012    2    3    3    0    0  0.74572685753E+01 -0.25282845477E+02  0.25708863401E+02  0.54367098498E+02  0.40000032646E+02 0.  0.
        -12    1    3    3    0    0 -0.74572685753E+01  0.25282845477E+02 -0.25708863401E+02  0.36820901502E+02  0.00000000000E+00 0.  1.
         11    1    4    4    0    0  0.62054565883E+01 -0.13578235315E+01 -0.81539077251E+00  0.64043921324E+01  0.51100000000E-03 0. -1.
        -11    1    4    4    0    0  0.53222513263E+01 -0.13533679783E+02 -0.43125459518E+01  0.15168549717E+02  0.51100000000E-03 0.  1.
         12    1    4    4    0    0 -0.40704393393E+01 -0.10391342163E+02  0.30836800125E+02  0.32794156649E+02  0.00000000000E+00 0. -1.
</event>
<event>
 8    1  0.1229941E-006  0.9118800E+02  0.7816164E-02  0.1184000E+00
        -11   -1    0    0    0    0  0.00000000000E+00  0.00000000000E+00  0.45593999997E+02  0.45594000000E+02  0.51100000000E-03 0.  1.
         11   -1    0    0    0    0 -0.00000000000E+00 -0.00000000000E+00 -0.45593999997E+02  0.45594000000E+02  0.51100000000E-03 0. -1.
         23    2    1    2    0    0  0.44408920985E-15 -0.17763568394E-14 -0.71054273576E-14  0.91188000000E+02  0.91188000000E+02 0.  0.
    9900012    2    3    3    0    0  0.33566745367E+01  0.10849162867E+02 -0.35025848780E+02  0.54367059197E+02  0.39999943052E+02 0.  0.
        -12    1    3    3    0    0 -0.33566745367E+01 -0.10849162867E+02  0.35025848780E+02  0.36820940803E+02  0.00000000000E+00 0.  1.
         11    1    4    4    0    0 -0.91140737470E+01 -0.10156031454E+02 -0.13434644507E+02  0.19149438333E+02  0.51100000000E-03 0. -1.
        -11    1    4    4    0    0  0.52689054559E-01 -0.17488934535E+01 -0.23739119293E+01  0.29490443465E+01  0.51100000000E-03 0.  1.
        -12    1    4    4    0    0  0.12418059229E+02  0.22754087775E+02 -0.19217292343E+02  0.32268576518E+02  0.00000000000E+00 0.  1.
</event>
<event>
 8    1  0.1229941E-006  0.9118800E+02  0.7816164E-02  0.1184000E+00
        -11   -1    0    0    0    0  0.00000000000E+00  0.00000000000E+00  0.45593999997E+02  0.45594000000E+02  0.51100000000E-03 0. -1.
         11   -1    0    0    0    0 -0.00000000000E+00 -0.00000000000E+00 -0.45593999997E+02  0.45594000000E+02  0.51100000000E-03 0.  1.
         23    2    1    2    0    0  0.00000000000E+00 -0.97144514655E-15  0.00000000000E+00  0.91188000000E+02  0.91188000000E+02 0.  0.
    9900012    2    3    3    0    0  0.19340844383E+02 -0.18181549517E-01  0.31332277727E+02  0.54367079051E+02  0.39999988312E+02 0.  0.
        -12    1    3    3    0    0 -0.19340844383E+02  0.18181549517E-01 -0.31332277727E+02  0.36820920949E+02  0.00000000000E+00 0.  1.
         11    1    4    4    0    0  0.21929754990E+02 -0.10037504926E+02  0.31871683043E+02  0.39968360478E+02  0.51100000000E-03 0. -1.
        -11    1    4    4    0    0 -0.21860621670E+01  0.61993453094E+01 -0.51839234210E+01  0.83716075135E+01  0.51100000000E-03 0.  1.
         12    1    4    4    0    0 -0.40284843965E+00  0.38199780668E+01  0.46445181044E+01  0.60271110591E+01  0.00000000000E+00 0. -1.
</event>
<event>
 8    1  0.1229941E-006  0.9118800E+02  0.7816164E-02  0.1184000E+00
        -11   -1    0    0    0    0  0.00000000000E+00  0.00000000000E+00  0.45593999997E+02  0.45594000000E+02  0.51100000000E-03 0.  1.
         11   -1    0    0    0    0 -0.00000000000E+00 -0.00000000000E+00 -0.45593999997E+02  0.45594000000E+02  0.51100000000E-03 0. -1.
         23    2    1    2    0    0  0.00000000000E+00  0.44408920985E-15  0.00000000000E+00  0.91188000000E+02  0.91188000000E+02 0.  0.
    9900012    2    3    3    0    0 -0.74563551190E+01 -0.12115362011E+01 -0.36037653092E+02  0.54367116088E+02  0.40000072746E+02 0.  0.
        -12    1    3    3    0    0  0.74563551190E+01  0.12115362011E+01  0.36037653092E+02  0.36820883912E+02  0.00000000000E+00 0.  1.
         11    1    4    4    0    0 -0.76306928824E+01 -0.90886432250E+01 -0.24115543659E+02  0.26877320472E+02  0.51100000000E-03 0. -1.
        -11    1    4    4    0    0 -0.76386236479E+01  0.10019774139E+02  0.55686685146E+00  0.12611682916E+02  0.51100000000E-03 0.  1.
        -12    1    4    4    0    0  0.78129614113E+01 -0.21426671152E+01 -0.12478976285E+02  0.14878112700E+02  0.00000000000E+00 0.  1.
</event>
<event>
 8    1  0.1229941E-006  0.9118800E+02  0.7816164E-02  0.1184000E+00
        -11   -1    0    0    0    0  0.00000000000E+00  0.00000000000E+00  0.45593999997E+02  0.45594000000E+02  0.51100000000E-03 0. -1.
         11   -1    0    0    0    0 -0.00000000000E+00 -0.00000000000E+00 -0.45593999997E+02  0.45594000000E+02  0.51100000000E-03 0.  1.
         23    2    1    2    0    0  0.35527136788E-14  0.00000000000E+00 -0.44408920985E-15  0.91188000000E+02  0.91188000000E+02 0.  0.
    9900012    2    3    3    0    0 -0.29933418777E+02 -0.21185311896E+02  0.33101602263E+01  0.54367025535E+02  0.39999866312E+02 0.  0.
        -12    1    3    3    0    0  0.29933418777E+02  0.21185311896E+02 -0.33101602263E+01  0.36820974465E+02  0.00000000000E+00 0.  1.
         11    1    4    4    0    0 -0.73417242507E-01 -0.88383524253E+01  0.93463289338E+01  0.12863736956E+02  0.51100000000E-03 0. -1.
        -11    1    4    4    0    0 -0.27651626608E+02  0.83636733569E+00 -0.33159101818E+01  0.27862290376E+02  0.51100000000E-03 0.  1.
        -12    1    4    4    0    0 -0.22083749263E+01 -0.13183326807E+02 -0.27202585256E+01  0.13640998202E+02  0.00000000000E+00 0.  1.
</event>
<event>
 8    1  0.1229941E-006  0.9118800E+02  0.7816164E-02  0.1184000E+00
        -11   -1    0    0    0    0  0.00000000000E+00  0.00000000000E+00  0.45593999997E+02  0.45594000000E+02  0.51100000000E-03 0. -1.
         11   -1    0    0    0    0 -0.00000000000E+00 -0.00000000000E+00 -0.45593999997E+02  0.45594000000E+02  0.51100000000E-03 0.  1.
         23    2    1    2    0    0  0.35527136788E-14  0.00000000000E+00  0.00000000000E+00  0.91188000000E+02  0.91188000000E+02 0.  0.
    9900012    2    3    3    0    0  0.29233448570E+02 -0.10899505197E+02 -0.19554707555E+02  0.54367077736E+02  0.39999985314E+02 0.  0.
         12    1    3    3    0    0 -0.29233448570E+02  0.10899505197E+02  0.19554707555E+02  0.36820922264E+02  0.00000000000E+00 0. -1.
         11    1    4    4    0    0  0.19677520310E+01 -0.99606861134E+01 -0.90733889050E+01  0.13616670018E+02  0.51100000000E-03 0. -1.
        -11    1    4    4    0    0  0.19146933171E+02  0.48051841836E+01 -0.19190170891E+02  0.27531028022E+02  0.51100000000E-03 0.  1.
         12    1    4    4    0    0  0.81187633682E+01 -0.57440032676E+01  0.87088522409E+01  0.13219379695E+02  0.00000000000E+00 0. -1.
</event>
<event>
 8    1  0.1229941E-006  0.9118800E+02  0.7816164E-02  0.1184000E+00
        -11   -1    0    0    0    0  0.00000000000E+00  0.00000000000E+00  0.45593999997E+02  0.45594000000E+02  0.51100000000E-03 0.  1.
         11   -1    0    0    0    0 -0.00000000000E+00 -0.00000000000E+00 -0.45593999997E+02  0.45594000000E+02  0.51100000000E-03 0. -1.
         23    2    1    2    0    0  0.17763568394E-14  0.00000000000E+00 -0.71054273576E-14  0.91188000000E+02  0.91188000000E+02 0.  0.
    9900012    2    3    3    0    0  0.14889936291E+02 -0.28182904509E+01  0.33557816916E+02  0.54367081489E+02  0.39999993871E+02 0.  0.
         12    1    3    3    0    0 -0.14889936291E+02  0.28182904509E+01 -0.33557816916E+02  0.36820918511E+02  0.00000000000E+00 0. -1.
         11    1    4    4    0    0  0.18014215095E+02 -0.42206026180E+01  0.25690484726E+01  0.18679546093E+02  0.51100000000E-03 0. -1.
        -11    1    4    4    0    0  0.52258341030E+01 -0.93119654241E-01  0.24380363427E+02  0.24934316402E+02  0.51100000000E-03 0.  1.
         12    1    4    4    0    0 -0.83501129064E+01  0.14954318213E+01  0.66084050159E+01  0.10753218994E+02  0.00000000000E+00 0. -1.
</event>
<event>
 8    1  0.1229941E-006  0.9118800E+02  0.7816164E-02  0.1184000E+00
        -11   -1    0    0    0    0  0.00000000000E+00  0.00000000000E+00  0.45593999997E+02  0.45594000000E+02  0.51100000000E-03 0. -1.
         11   -1    0    0    0    0 -0.00000000000E+00 -0.00000000000E+00 -0.45593999997E+02  0.45594000000E+02  0.51100000000E-03 0.  1.
         23    2    1    2    0    0 -0.17763568394E-14  0.00000000000E+00  0.71054273576E-14  0.91188000000E+02  0.91188000000E+02 0.  0.
    9900012    2    3    3    0    0  0.37599225138E+01  0.41462558413E+01  0.36393008911E+02  0.54367088110E+02  0.40000008965E+02 0.  0.
        -12    1    3    3    0    0 -0.37599225138E+01 -0.41462558413E+01 -0.36393008911E+02  0.36820911890E+02  0.00000000000E+00 0.  1.
         11    1    4    4    0    0 -0.71308263451E+01  0.33427879399E+01 -0.53910154951E+01  0.95438966835E+01  0.51100000000E-03 0.  1.
        -11    1    4    4    0    0 -0.26087893966E+01  0.75604612431E-01  0.87168762646E+01  0.90991994288E+01  0.51100000000E-03 0. -1.
         12    1    4    4    0    0  0.13499538255E+02  0.72786328902E+00  0.33067148141E+02  0.35723991998E+02  0.00000000000E+00 0. -1.
</event>
<event>
 8    1  0.1229941E-006  0.9118800E+02  0.7816164E-02  0.1184000E+00
        -11   -1    0    0    0    0  0.00000000000E+00  0.00000000000E+00  0.45593999997E+02  0.45594000000E+02  0.51100000000E-03 0. -1.
         11   -1    0    0    0    0 -0.00000000000E+00 -0.00000000000E+00 -0.45593999997E+02  0.45594000000E+02  0.51100000000E-03 0.  1.
         23    2    1    2    0    0  0.00000000000E+00  0.00000000000E+00  0.00000000000E+00  0.91188000000E+02  0.91188000000E+02 0.  0.
    9900012    2    3    3    0    0  0.82302893038E+01 -0.10803832854E+02  0.34224517028E+02  0.54367108754E+02  0.40000056025E+02 0.  0.
        -12    1    3    3    0    0 -0.82302893038E+01  0.10803832854E+02 -0.34224517028E+02  0.36820891246E+02  0.00000000000E+00 0.  1.
         11    1    4    4    0    0 -0.49559060252E+01  0.62740194786E+01  0.15658921246E+00  0.79968021978E+01  0.51100000000E-03 0. -1.
        -11    1    4    4    0    0  0.12283821565E+01 -0.86873914999E+01 -0.55557047196E+00  0.87913794483E+01  0.51100000000E-03 0.  1.
        -12    1    4    4    0    0  0.11957813172E+02 -0.83904608329E+01  0.34623498288E+02  0.37578927107E+02  0.00000000000E+00 0.  1.
</event>
<event>
 8    1  0.1229941E-006  0.9118800E+02  0.7816164E-02  0.1184000E+00
        -11   -1    0    0    0    0  0.00000000000E+00  0.00000000000E+00  0.45593999997E+02  0.45594000000E+02  0.51100000000E-03 0.  1.
         11   -1    0    0    0    0 -0.00000000000E+00 -0.00000000000E+00 -0.45593999997E+02  0.45594000000E+02  0.51100000000E-03 0. -1.
         23    2    1    2    0    0  0.17763568394E-14  0.00000000000E+00  0.35527136788E-14  0.91188000000E+02  0.91188000000E+02 0.  0.
    9900012    2    3    3    0    0 -0.11849768852E+02 -0.25773537052E+02 -0.23475261178E+02  0.54367080384E+02  0.39999991350E+02 0.  0.
         12    1    3    3    0    0  0.11849768852E+02  0.25773537052E+02  0.23475261178E+02  0.36820919616E+02  0.00000000000E+00 0. -1.
         11    1    4    4    0    0  0.51089438012E+01 -0.60157988105E+00 -0.57191708556E+01  0.76923416886E+01  0.51100000000E-03 0. -1.
        -11    1    4    4    0    0  0.29476412203E+01 -0.53795222310E+01  0.69569228568E+01  0.92750538594E+01  0.51100000000E-03 0.  1.
         12    1    4    4    0    0 -0.19906353874E+02 -0.19792434940E+02 -0.24713013179E+02  0.37399684836E+02  0.00000000000E+00 0. -1.
</event>
<event>
 8    1  0.1229941E-006  0.9118800E+02  0.7816164E-02  0.1184000E+00
        -11   -1    0    0    0    0  0.00000000000E+00  0.00000000000E+00  0.45593999997E+02  0.45594000000E+02  0.51100000000E-03 0.  1.
         11   -1    0    0    0    0 -0.00000000000E+00 -0.00000000000E+00 -0.45593999997E+02  0.45594000000E+02  0.51100000000E-03 0. -1.
         23    2    1    2    0    0  0.71054273576E-14  0.17763568394E-14 -0.17763568394E-14  0.91188000000E+02  0.91188000000E+02 0.  0.
    9900012    2    3    3    0    0  0.34030378285E+02  0.10627961551E+02 -0.92065943125E+01  0.54367060417E+02  0.39999945833E+02 0.  0.
        -12    1    3    3    0    0 -0.34030378285E+02 -0.10627961551E+02  0.92065943125E+01  0.36820939583E+02  0.00000000000E+00 0.  1.
         11    1    4    4    0    0 -0.38680280995E+01 -0.63636356576E-01 -0.70860787869E+01  0.80733019143E+01  0.51100000000E-03 0. -1.
        -11    1    4    4    0    0  0.83005011233E+01  0.26767311998E+01 -0.11310340037E+02  0.14282401788E+02  0.51100000000E-03 0.  1.
        -12    1    4    4    0    0  0.29597905261E+02  0.80148667076E+01  0.91898245117E+01  0.32011356715E+02  0.00000000000E+00 0.  1.
</event>
<event>
 8    1  0.1229941E-006  0.9118800E+02  0.7816164E-02  0.1184000E+00
        -11   -1    0    0    0    0  0.00000000000E+00  0.00000000000E+00  0.45593999997E+02  0.45594000000E+02  0.51100000000E-03 0.  1.
         11   -1    0    0    0    0 -0.00000000000E+00 -0.00000000000E+00 -0.45593999997E+02  0.45594000000E+02  0.51100000000E-03 0. -1.
         23    2    1    2    0    0 -0.35527136788E-14 -0.88817841970E-15  0.00000000000E+00  0.91188000000E+02  0.91188000000E+02 0.  0.
    9900012    2    3    3    0    0  0.13925528155E+02 -0.46793202664E+01 -0.33763341575E+02  0.54367087371E+02  0.40000007279E+02 0.  0.
        -12    1    3    3    0    0 -0.13925528155E+02  0.46793202664E+01  0.33763341575E+02  0.36820912629E+02  0.00000000000E+00 0.  1.
         11    1    4    4    0    0 -0.17538113769E+01 -0.77590505490E+01 -0.14974198918E+02  0.16955982816E+02  0.51100000000E-03 0. -1.
        -11    1    4    4    0    0  0.66676038345E+00 -0.19418112316E+01  0.69205621482E+01  0.72186827729E+01  0.51100000000E-03 0.  1.
        -12    1    4    4    0    0  0.15012579148E+02  0.50215415142E+01 -0.25709704806E+02  0.30192421782E+02  0.00000000000E+00 0.  1.
</event>
<event>
 8    1  0.1229941E-006  0.9118800E+02  0.7816164E-02  0.1184000E+00
        -11   -1    0    0    0    0  0.00000000000E+00  0.00000000000E+00  0.45593999997E+02  0.45594000000E+02  0.51100000000E-03 0.  1.
         11   -1    0    0    0    0 -0.00000000000E+00 -0.00000000000E+00 -0.45593999997E+02  0.45594000000E+02  0.51100000000E-03 0. -1.
         23    2    1    2    0    0  0.00000000000E+00  0.00000000000E+00  0.35527136788E-14  0.91188000000E+02  0.91188000000E+02 0.  0.
    9900012    2    3    3    0    0  0.25802937222E+02 -0.35981692355E+01  0.26020350626E+02  0.54366850672E+02  0.39999467674E+02 0.  0.
         12    1    3    3    0    0 -0.25802937222E+02  0.35981692355E+01 -0.26020350626E+02  0.36821149328E+02  0.00000000000E+00 0. -1.
         11    1    4    4    0    0 -0.60120095281E+01 -0.31103092743E+01  0.74992252769E+01  0.10102309754E+02  0.51100000000E-03 0. -1.
        -11    1    4    4    0    0 -0.58786767814E+00  0.41695657373E+01 -0.29269877529E+01  0.51281696941E+01  0.51100000000E-03 0.  1.
        -12    1    4    4    0    0  0.32402814428E+02 -0.46574256985E+01  0.21448113102E+02  0.39136371224E+02  0.00000000000E+00 0.  1.
</event>
<event>
 8    1  0.1229941E-006  0.9118800E+02  0.7816164E-02  0.1184000E+00
        -11   -1    0    0    0    0  0.00000000000E+00  0.00000000000E+00  0.45593999997E+02  0.45594000000E+02  0.51100000000E-03 0.  1.
         11   -1    0    0    0    0 -0.00000000000E+00 -0.00000000000E+00 -0.45593999997E+02  0.45594000000E+02  0.51100000000E-03 0. -1.
         23    2    1    2    0    0 -0.35527136788E-14  0.00000000000E+00  0.66613381478E-15  0.91188000000E+02  0.91188000000E+02 0.  0.
    9900012    2    3    3    0    0  0.31016329345E+02 -0.19821901752E+02 -0.92642490607E+00  0.54367099167E+02  0.40000034170E+02 0.  0.
        -12    1    3    3    0    0 -0.31016329345E+02  0.19821901752E+02  0.92642490607E+00  0.36820900833E+02  0.00000000000E+00 0.  1.
         11    1    4    4    0    0  0.12650351540E+02 -0.12008776414E+02  0.38606822729E+01  0.17864685077E+02  0.51100000000E-03 0. -1.
        -11    1    4    4    0    0 -0.23673130686E+00 -0.20548107501E+01  0.11149080691E+02  0.11339324911E+02  0.51100000000E-03 0.  1.
        -12    1    4    4    0    0  0.18602709112E+02 -0.57583145881E+01 -0.15936187869E+02  0.25163089179E+02  0.00000000000E+00 0.  1.
</event>
<event>
 8    1  0.1229941E-006  0.9118800E+02  0.7816164E-02  0.1184000E+00
        -11   -1    0    0    0    0  0.00000000000E+00  0.00000000000E+00  0.45593999997E+02  0.45594000000E+02  0.51100000000E-03 0. -1.
         11   -1    0    0    0    0 -0.00000000000E+00 -0.00000000000E+00 -0.45593999997E+02  0.45594000000E+02  0.51100000000E-03 0.  1.
         23    2    1    2    0    0 -0.26645352591E-14  0.00000000000E+00  0.00000000000E+00  0.91188000000E+02  0.91188000000E+02 0.  0.
    9900012    2    3    3    0    0  0.59410615444E+01 -0.34062004030E+02 -0.12659501334E+02  0.54367091472E+02  0.40000016628E+02 0.  0.
         12    1    3    3    0    0 -0.59410615444E+01  0.34062004030E+02  0.12659501334E+02  0.36820908528E+02  0.00000000000E+00 0. -1.
         11    1    4    4    0    0 -0.58188675614E+01 -0.34600476510E+01 -0.42843306772E+01  0.80116564490E+01  0.51100000000E-03 0. -1.
        -11    1    4    4    0    0  0.16927971582E+02 -0.34936005789E+02 -0.76947182301E+01  0.39576374408E+02  0.51100000000E-03 0.  1.
        -12    1    4    4    0    0 -0.51680424759E+01  0.43340494098E+01 -0.68045242632E+00  0.67790606152E+01  0.00000000000E+00 0.  1.
</event>
<event>
 8    1  0.1229941E-006  0.9118800E+02  0.7816164E-02  0.1184000E+00
        -11   -1    0    0    0    0  0.00000000000E+00  0.00000000000E+00  0.45593999997E+02  0.45594000000E+02  0.51100000000E-03 0. -1.
         11   -1    0    0    0    0 -0.00000000000E+00 -0.00000000000E+00 -0.45593999997E+02  0.45594000000E+02  0.51100000000E-03 0.  1.
         23    2    1    2    0    0  0.44408920985E-15 -0.17763568394E-14  0.00000000000E+00  0.91188000000E+02  0.91188000000E+02 0.  0.
    9900012    2    3    3    0    0 -0.33372495421E+01 -0.66184479052E+01  0.36067114648E+02  0.54367111279E+02  0.40000061782E+02 0.  0.
        -12    1    3    3    0    0  0.33372495421E+01  0.66184479052E+01 -0.36067114648E+02  0.36820888721E+02  0.00000000000E+00 0.  1.
         11    1    4    4    0    0  0.38610904915E+01 -0.21801740028E+02  0.23377590272E+02  0.32198379077E+02  0.51100000000E-03 0. -1.
        -11    1    4    4    0    0 -0.38596729885E+01  0.44075516591E+01  0.10363016161E+01  0.59495805320E+01  0.51100000000E-03 0.  1.
         12    1    4    4    0    0 -0.33386670451E+01  0.10775740463E+02  0.11653222760E+02  0.16219151669E+02  0.00000000000E+00 0. -1.
</event>
<event>
 8    1  0.1229941E-006  0.9118800E+02  0.7816164E-02  0.1184000E+00
        -11   -1    0    0    0    0  0.00000000000E+00  0.00000000000E+00  0.45593999997E+02  0.45594000000E+02  0.51100000000E-03 0.  1.
         11   -1    0    0    0    0 -0.00000000000E+00 -0.00000000000E+00 -0.45593999997E+02  0.45594000000E+02  0.51100000000E-03 0. -1.
         23    2    1    2    0    0 -0.88817841970E-15  0.00000000000E+00  0.00000000000E+00  0.91188000000E+02  0.91188000000E+02 0.  0.
    9900012    2    3    3    0    0  0.45134314752E+01  0.28889725307E+02 -0.22378408134E+02  0.54367076022E+02  0.39999981407E+02 0.  0.
        -12    1    3    3    0    0 -0.45134314752E+01 -0.28889725307E+02  0.22378408134E+02  0.36820923978E+02  0.00000000000E+00 0.  1.
         11    1    4    4    0    0 -0.93376832592E+01  0.14340384834E+02 -0.22937325634E+02  0.28617474965E+02  0.51100000000E-03 0. -1.
        -11    1    4    4    0    0  0.70210346915E+01  0.28293898739E+00 -0.53846717348E+01  0.88526647154E+01  0.51100000000E-03 0.  1.
        -12    1    4    4    0    0  0.68300800428E+01  0.14266401486E+02  0.59435892354E+01  0.16896936342E+02  0.00000000000E+00 0.  1.
</event>
<event>
 8    1  0.1229941E-006  0.9118800E+02  0.7816164E-02  0.1184000E+00
        -11   -1    0    0    0    0  0.00000000000E+00  0.00000000000E+00  0.45593999997E+02  0.45594000000E+02  0.51100000000E-03 0.  1.
         11   -1    0    0    0    0 -0.00000000000E+00 -0.00000000000E+00 -0.45593999997E+02  0.45594000000E+02  0.51100000000E-03 0. -1.
         23    2    1    2    0    0  0.35527136788E-14 -0.17763568394E-14  0.35527136788E-14  0.91188000000E+02  0.91188000000E+02 0.  0.
    9900012    2    3    3    0    0 -0.26003884193E+02 -0.10772931197E+02  0.23738848971E+02  0.54366932795E+02  0.39999654890E+02 0.  0.
         12    1    3    3    0    0  0.26003884193E+02  0.10772931197E+02 -0.23738848971E+02  0.36821067205E+02  0.00000000000E+00 0. -1.
         11    1    4    4    0    0 -0.80581435588E+01 -0.38682000287E+01 -0.77788836726E+01  0.11849374689E+02  0.51100000000E-03 0. -1.
        -11    1    4    4    0    0 -0.67639032589E+01  0.47570471902E+01  0.14660760887E+01  0.83981703140E+01  0.51100000000E-03 0.  1.
        -12    1    4    4    0    0 -0.11181837375E+02 -0.11661778358E+02  0.30051656555E+02  0.34119387791E+02  0.00000000000E+00 0.  1.
</event>
<event>
 8    1  0.1229941E-006  0.9118800E+02  0.7816164E-02  0.1184000E+00
        -11   -1    0    0    0    0  0.00000000000E+00  0.00000000000E+00  0.45593999997E+02  0.45594000000E+02  0.51100000000E-03 0.  1.
         11   -1    0    0    0    0 -0.00000000000E+00 -0.00000000000E+00 -0.45593999997E+02  0.45594000000E+02  0.51100000000E-03 0. -1.
         23    2    1    2    0    0  0.00000000000E+00  0.00000000000E+00  0.00000000000E+00  0.91188000000E+02  0.91188000000E+02 0.  0.
    9900012    2    3    3    0    0 -0.35435298514E+02 -0.98378746108E+01  0.18264528864E+01  0.54367080840E+02  0.39999992390E+02 0.  0.
         12    1    3    3    0    0  0.35435298514E+02  0.98378746108E+01 -0.18264528864E+01  0.36820919160E+02  0.00000000000E+00 0. -1.
         11    1    4    4    0    0  0.43250089651E+01  0.18600050514E+01  0.81906063629E+00  0.47787217879E+01  0.51100000000E-03 0. -1.
        -11    1    4    4    0    0 -0.52089847346E+01 -0.28623953998E+01  0.11042292266E+02  0.12540296972E+02  0.51100000000E-03 0.  1.
        -12    1    4    4    0    0 -0.34551322745E+02 -0.88354842624E+01 -0.10034900016E+02  0.37048062080E+02  0.00000000000E+00 0.  1.
</event>
<event>
 8    1  0.1229941E-006  0.9118800E+02  0.7816164E-02  0.1184000E+00
        -11   -1    0    0    0    0  0.00000000000E+00  0.00000000000E+00  0.45593999997E+02  0.45594000000E+02  0.51100000000E-03 0.  1.
         11   -1    0    0    0    0 -0.00000000000E+00 -0.00000000000E+00 -0.45593999997E+02  0.45594000000E+02  0.51100000000E-03 0. -1.
         23    2    1    2    0    0 -0.88817841970E-15  0.00000000000E+00  0.00000000000E+00  0.91188000000E+02  0.91188000000E+02 0.  0.
    9900012    2    3    3    0    0  0.18769676618E+01  0.34498740357E+02  0.12731610561E+02  0.54367082014E+02  0.39999995068E+02 0.  0.
        -12    1    3    3    0    0 -0.18769676618E+01 -0.34498740357E+02 -0.12731610561E+02  0.36820917986E+02  0.00000000000E+00 0.  1.
         11    1    4    4    0    0 -0.30312468557E+01  0.16669666426E+01  0.44662712086E+01  0.56493197871E+01  0.51100000000E-03 0. -1.
        -11    1    4    4    0    0 -0.66175008990E+01  0.34427273442E+01 -0.98231057748E+01  0.12334386772E+02  0.51100000000E-03 0.  1.
         12    1    4    4    0    0  0.11525715417E+02  0.29389046370E+02  0.18088445127E+02  0.36383375455E+02  0.00000000000E+00 0. -1.
</event>
<event>
 8    1  0.1229941E-006  0.9118800E+02  0.7816164E-02  0.1184000E+00
        -11   -1    0    0    0    0  0.00000000000E+00  0.00000000000E+00  0.45593999997E+02  0.45594000000E+02  0.51100000000E-03 0. -1.
         11   -1    0    0    0    0 -0.00000000000E+00 -0.00000000000E+00 -0.45593999997E+02  0.45594000000E+02  0.51100000000E-03 0.  1.
         23    2    1    2    0    0 -0.35527136788E-14  0.00000000000E+00  0.71054273576E-14  0.91188000000E+02  0.91188000000E+02 0.  0.
    9900012    2    3    3    0    0  0.28834928659E+02  0.10345933894E+02 -0.20427633446E+02  0.54367086552E+02  0.40000005413E+02 0.  0.
         12    1    3    3    0    0 -0.28834928659E+02 -0.10345933894E+02  0.20427633446E+02  0.36820913448E+02  0.00000000000E+00 0. -1.
         11    1    4    4    0    0 -0.41000214630E+01 -0.33379652636E+00  0.12138243603E+01  0.42889352941E+01  0.51100000000E-03 0. -1.
        -11    1    4    4    0    0  0.25548997415E+02  0.23915576562E+01  0.10608882120E+00  0.25660905519E+02  0.51100000000E-03 0.  1.
        -12    1    4    4    0    0  0.73859527071E+01  0.82881727640E+01 -0.21747546628E+02  0.24417245739E+02  0.00000000000E+00 0.  1.
</event>
<event>
 8    1  0.1229941E-006  0.9118800E+02  0.7816164E-02  0.1184000E+00
        -11   -1    0    0    0    0  0.00000000000E+00  0.00000000000E+00  0.45593999997E+02  0.45594000000E+02  0.51100000000E-03 0. -1.
         11   -1    0    0    0    0 -0.00000000000E+00 -0.00000000000E+00 -0.45593999997E+02  0.45594000000E+02  0.51100000000E-03 0.  1.
         23    2    1    2    0    0  0.00000000000E+00  0.71054273576E-14  0.23314683517E-14  0.91188000000E+02  0.91188000000E+02 0.  0.
    9900012    2    3    3    0    0  0.13071142672E+02  0.34422563282E+02  0.11064242381E+00  0.54367083723E+02  0.39999998964E+02 0.  0.
         12    1    3    3    0    0 -0.13071142672E+02 -0.34422563282E+02 -0.11064242381E+00  0.36820916277E+02  0.00000000000E+00 0. -1.
         11    1    4    4    0    0  0.11977183232E+02  0.37213910917E+01  0.83262999601E+01  0.15054200115E+02  0.51100000000E-03 0. -1.
        -11    1    4    4    0    0  0.62745311397E+01  0.28519039374E+02  0.18883001207E+00  0.29201729485E+02  0.51100000000E-03 0.  1.
         12    1    4    4    0    0 -0.51805716992E+01  0.21821328165E+01 -0.84044875484E+01  0.10111154124E+02  0.00000000000E+00 0. -1.
</event>
<event>
 8    1  0.1229941E-006  0.9118800E+02  0.7816164E-02  0.1184000E+00
        -11   -1    0    0    0    0  0.00000000000E+00  0.00000000000E+00  0.45593999997E+02  0.45594000000E+02  0.51100000000E-03 0.  1.
         11   -1    0    0    0    0 -0.00000000000E+00 -0.00000000000E+00 -0.45593999997E+02  0.45594000000E+02  0.51100000000E-03 0. -1.
         23    2    1    2    0    0  0.88817841970E-15  0.22204460493E-14  0.00000000000E+00  0.91188000000E+02  0.91188000000E+02 0.  0.
    9900012    2    3    3    0    0  0.42943125618E+01 -0.37873547786E+01 -0.36372977395E+02  0.54367100212E+02  0.40000036553E+02 0.  0.
        -12    1    3    3    0    0 -0.42943125618E+01  0.37873547786E+01  0.36372977395E+02  0.36820899788E+02  0.00000000000E+00 0.  1.
         11    1    4    4    0    0 -0.52369586866E+01  0.89434224506E+01 -0.20332644837E+02  0.22821634204E+02  0.51100000000E-03 0. -1.
        -11    1    4    4    0    0 -0.46144914037E+01 -0.15452463108E+01  0.26769303311E+01  0.55540321690E+01  0.51100000000E-03 0.  1.
         12    1    4    4    0    0  0.14145762652E+02 -0.11185530918E+02 -0.18717262889E+02  0.25991433839E+02  0.00000000000E+00 0. -1.
</event>
<event>
 8    1  0.1229941E-006  0.9118800E+02  0.7816164E-02  0.1184000E+00
        -11   -1    0    0    0    0  0.00000000000E+00  0.00000000000E+00  0.45593999997E+02  0.45594000000E+02  0.51100000000E-03 0.  1.
         11   -1    0    0    0    0 -0.00000000000E+00 -0.00000000000E+00 -0.45593999997E+02  0.45594000000E+02  0.51100000000E-03 0. -1.
         23    2    1    2    0    0  0.00000000000E+00 -0.17763568394E-14  0.35527136788E-14  0.91188000000E+02  0.91188000000E+02 0.  0.
    9900012    2    3    3    0    0  0.26719402881E+02  0.11313118675E+02 -0.22668658688E+02  0.54367065313E+02  0.39999956994E+02 0.  0.
        -12    1    3    3    0    0 -0.26719402881E+02 -0.11313118675E+02  0.22668658688E+02  0.36820934687E+02  0.00000000000E+00 0.  1.
         11    1    4    4    0    0  0.12573884284E+01  0.40873824717E+01 -0.19618006846E+02  0.20078693035E+02  0.51100000000E-03 0. -1.
        -11    1    4    4    0    0 -0.12617521769E+01 -0.40545670362E+00 -0.61802270212E+01  0.63207293875E+01  0.51100000000E-03 0.  1.
        -12    1    4    4    0    0  0.26723766630E+02  0.76311929073E+01  0.31295751789E+01  0.27967642891E+02  0.00000000000E+00 0.  1.
</event>
<event>
 8    1  0.1229941E-006  0.9118800E+02  0.7816164E-02  0.1184000E+00
        -11   -1    0    0    0    0  0.00000000000E+00  0.00000000000E+00  0.45593999997E+02  0.45594000000E+02  0.51100000000E-03 0.  1.
         11   -1    0    0    0    0 -0.00000000000E+00 -0.00000000000E+00 -0.45593999997E+02  0.45594000000E+02  0.51100000000E-03 0. -1.
         23    2    1    2    0    0  0.00000000000E+00  0.00000000000E+00 -0.88817841970E-15  0.91188000000E+02  0.91188000000E+02 0.  0.
    9900012    2    3    3    0    0 -0.16246116540E+02  0.32592562915E+02  0.54378615748E+01  0.54367057609E+02  0.39999939432E+02 0.  0.
         12    1    3    3    0    0  0.16246116540E+02 -0.32592562915E+02 -0.54378615748E+01  0.36820942391E+02  0.00000000000E+00 0. -1.
         11    1    4    4    0    0  0.16642423475E+01 -0.65994048744E+01 -0.62055434742E+01  0.92103538129E+01  0.51100000000E-03 0. -1.
        -11    1    4    4    0    0 -0.70845595870E+01  0.22447457958E+02  0.44262907500E+01  0.23951438440E+02  0.51100000000E-03 0.  1.
         12    1    4    4    0    0 -0.10825799300E+02  0.16744509832E+02  0.72171142990E+01  0.21205265356E+02  0.00000000000E+00 0. -1.
</event>
<event>
 8    1  0.1229941E-006  0.9118800E+02  0.7816164E-02  0.1184000E+00
        -11   -1    0    0    0    0  0.00000000000E+00  0.00000000000E+00  0.45593999997E+02  0.45594000000E+02  0.51100000000E-03 0.  1.
         11   -1    0    0    0    0 -0.00000000000E+00 -0.00000000000E+00 -0.45593999997E+02  0.45594000000E+02  0.51100000000E-03 0. -1.
         23    2    1    2    0    0 -0.11657341759E-14  0.00000000000E+00 -0.88817841970E-15  0.91188000000E+02  0.91188000000E+02 0.  0.
    9900012    2    3    3    0    0  0.49114956203E+00  0.36509231957E+02  0.47554696677E+01  0.54367085593E+02  0.40000003227E+02 0.  0.
        -12    1    3    3    0    0 -0.49114956203E+00 -0.36509231957E+02 -0.47554696677E+01  0.36820914407E+02  0.00000000000E+00 0.  1.
         11    1    4    4    0    0  0.13778684248E+02  0.26225708681E+02 -0.78838407289E+01  0.30656074118E+02  0.51100000000E-03 0. -1.
        -11    1    4    4    0    0 -0.11160879952E+02  0.76070115515E+01  0.34993682675E+01  0.13952685927E+02  0.51100000000E-03 0.  1.
        -12    1    4    4    0    0 -0.21266547341E+01  0.26765117247E+01  0.91399421291E+01  0.97583255476E+01  0.00000000000E+00 0.  1.
</event>
<event>
 8    1  0.1229941E-006  0.9118800E+02  0.7816164E-02  0.1184000E+00
        -11   -1    0    0    0    0  0.00000000000E+00  0.00000000000E+00  0.45593999997E+02  0.45594000000E+02  0.51100000000E-03 0.  1.
         11   -1    0    0    0    0 -0.00000000000E+00 -0.00000000000E+00 -0.45593999997E+02  0.45594000000E+02  0.51100000000E-03 0. -1.
         23    2    1    2    0    0  0.00000000000E+00  0.00000000000E+00  0.88817841970E-15  0.91188000000E+02  0.91188000000E+02 0.  0.
    9900012    2    3    3    0    0  0.95529889213E+01 -0.34781684470E+02 -0.73997766512E+01  0.54367056688E+02  0.39999937331E+02 0.  0.
        -12    1    3    3    0    0 -0.95529889213E+01  0.34781684470E+02  0.73997766512E+01  0.36820943312E+02  0.00000000000E+00 0.  1.
         11    1    4    4    0    0 -0.66303107968E+01 -0.20633171182E+02 -0.28005194254E+01  0.21852498338E+02  0.51100000000E-03 0. -1.
        -11    1    4    4    0    0 -0.41587566679E+01 -0.68981332456E+01 -0.71480537319E+01  0.10769130499E+02  0.51100000000E-03 0.  1.
        -12    1    4    4    0    0  0.20342056386E+02 -0.72503800423E+01  0.25487965061E+01  0.21745427850E+02  0.00000000000E+00 0.  1.
</event>
<event>
 8    1  0.1229941E-006  0.9118800E+02  0.7816164E-02  0.1184000E+00
        -11   -1    0    0    0    0  0.00000000000E+00  0.00000000000E+00  0.45593999997E+02  0.45594000000E+02  0.51100000000E-03 0.  1.
         11   -1    0    0    0    0 -0.00000000000E+00 -0.00000000000E+00 -0.45593999997E+02  0.45594000000E+02  0.51100000000E-03 0. -1.
         23    2    1    2    0    0 -0.17763568394E-14  0.00000000000E+00  0.71054273576E-14  0.91188000000E+02  0.91188000000E+02 0.  0.
    9900012    2    3    3    0    0 -0.14225086407E+02  0.10232201714E+02  0.32384082255E+02  0.54367084494E+02  0.40000000721E+02 0.  0.
         12    1    3    3    0    0  0.14225086407E+02 -0.10232201714E+02 -0.32384082255E+02  0.36820915506E+02  0.00000000000E+00 0. -1.
         11    1    4    4    0    0  0.72041376564E+01  0.31610731430E+01  0.17780977736E+01  0.80655821080E+01  0.51100000000E-03 0. -1.
        -11    1    4    4    0    0  0.11040598175E+01  0.15781194954E+01  0.21177924842E+02  0.21265321772E+02  0.51100000000E-03 0.  1.
         12    1    4    4    0    0 -0.22533283881E+02  0.54930090755E+01  0.94280596399E+01  0.25036180614E+02  0.00000000000E+00 0. -1.
</event>
<event>
 8    1  0.1229941E-006  0.9118800E+02  0.7816164E-02  0.1184000E+00
        -11   -1    0    0    0    0  0.00000000000E+00  0.00000000000E+00  0.45593999997E+02  0.45594000000E+02  0.51100000000E-03 0. -1.
         11   -1    0    0    0    0 -0.00000000000E+00 -0.00000000000E+00 -0.45593999997E+02  0.45594000000E+02  0.51100000000E-03 0.  1.
         23    2    1    2    0    0  0.00000000000E+00  0.00000000000E+00 -0.35527136788E-14  0.91188000000E+02  0.91188000000E+02 0.  0.
    9900012    2    3    3    0    0  0.19082003147E+02  0.22399656309E+02  0.22134040422E+02  0.54367038684E+02  0.39999896287E+02 0.  0.
        -12    1    3    3    0    0 -0.19082003147E+02 -0.22399656309E+02 -0.22134040422E+02  0.36820961316E+02  0.00000000000E+00 0.  1.
         11    1    4    4    0    0  0.10117502982E+02  0.48764952117E+01  0.16947672396E+02  0.20331445400E+02  0.51100000000E-03 0. -1.
        -11    1    4    4    0    0 -0.79306333223E+00  0.16658178943E+02  0.13288023322E+02  0.21323588798E+02  0.51100000000E-03 0.  1.
        -12    1    4    4    0    0  0.97575634972E+01  0.86498215376E+00 -0.81016552955E+01  0.12712004486E+02  0.00000000000E+00 0.  1.
</event>
<event>
 8    1  0.1229941E-006  0.9118800E+02  0.7816164E-02  0.1184000E+00
        -11   -1    0    0    0    0  0.00000000000E+00  0.00000000000E+00  0.45593999997E+02  0.45594000000E+02  0.51100000000E-03 0.  1.
         11   -1    0    0    0    0 -0.00000000000E+00 -0.00000000000E+00 -0.45593999997E+02  0.45594000000E+02  0.51100000000E-03 0. -1.
         23    2    1    2    0    0  0.00000000000E+00  0.00000000000E+00  0.00000000000E+00  0.91188000000E+02  0.91188000000E+02 0.  0.
    9900012    2    3    3    0    0 -0.22485699408E+02  0.46322502053E+01 -0.28787406712E+02  0.54367092828E+02  0.40000019719E+02 0.  0.
        -12    1    3    3    0    0  0.22485699408E+02 -0.46322502053E+01  0.28787406712E+02  0.36820907172E+02  0.00000000000E+00 0.  1.
         11    1    4    4    0    0 -0.18911997797E+02  0.61160344192E+01  0.30154270754E-01  0.19876379127E+02  0.51100000000E-03 0. -1.
        -11    1    4    4    0    0 -0.20387642760E+01 -0.32371394280E+01  0.14812624000E+01  0.41024102681E+01  0.51100000000E-03 0.  1.
         12    1    4    4    0    0 -0.15349373348E+01  0.17533552141E+01 -0.30298823382E+02  0.30388303432E+02  0.00000000000E+00 0. -1.
</event>
<event>
 8    1  0.1229941E-006  0.9118800E+02  0.7816164E-02  0.1184000E+00
        -11   -1    0    0    0    0  0.00000000000E+00  0.00000000000E+00  0.45593999997E+02  0.45594000000E+02  0.51100000000E-03 0.  1.
         11   -1    0    0    0    0 -0.00000000000E+00 -0.00000000000E+00 -0.45593999997E+02  0.45594000000E+02  0.51100000000E-03 0. -1.
         23    2    1    2    0    0 -0.71054273576E-14  0.44408920985E-15  0.00000000000E+00  0.91188000000E+02  0.91188000000E+02 0.  0.
    9900012    2    3    3    0    0 -0.36538507278E+02 -0.37006578200E+01  0.26500389964E+01  0.54367080822E+02  0.39999992351E+02 0.  0.
        -12    1    3    3    0    0  0.36538507278E+02  0.37006578200E+01 -0.26500389964E+01  0.36820919178E+02  0.00000000000E+00 0.  1.
         11    1    4    4    0    0  0.30899065443E+01  0.22652446245E+01 -0.35475421931E+01  0.52214855677E+01  0.51100000000E-03 0.  1.
        -11    1    4    4    0    0 -0.22605760348E+02  0.80551179514E+01  0.11275547512E+02  0.26514963664E+02  0.51100000000E-03 0. -1.
         12    1    4    4    0    0 -0.17022653474E+02 -0.14021020396E+02 -0.50779663224E+01  0.22630631591E+02  0.00000000000E+00 0. -1.
</event>
<event>
 8    1  0.1229941E-006  0.9118800E+02  0.7816164E-02  0.1184000E+00
        -11   -1    0    0    0    0  0.00000000000E+00  0.00000000000E+00  0.45593999997E+02  0.45594000000E+02  0.51100000000E-03 0.  1.
         11   -1    0    0    0    0 -0.00000000000E+00 -0.00000000000E+00 -0.45593999997E+02  0.45594000000E+02  0.51100000000E-03 0. -1.
         23    2    1    2    0    0  0.00000000000E+00 -0.88817841970E-15 -0.35527136788E-14  0.91188000000E+02  0.91188000000E+02 0.  0.
    9900012    2    3    3    0    0 -0.27861950566E+02 -0.69715917633E+01  0.23041031665E+02  0.54367074954E+02  0.39999978974E+02 0.  0.
         12    1    3    3    0    0  0.27861950566E+02  0.69715917633E+01 -0.23041031665E+02  0.36820925046E+02  0.00000000000E+00 0. -1.
         11    1    4    4    0    0 -0.40946253736E+01 -0.19575102266E+02  0.92503155743E+01  0.22034493962E+02  0.51100000000E-03 0. -1.
        -11    1    4    4    0    0 -0.73230124143E+01  0.72082899036E+01  0.11733590756E+00  0.10276172543E+02  0.51100000000E-03 0.  1.
         12    1    4    4    0    0 -0.16444312778E+02  0.53952205996E+01  0.13673380183E+02  0.22056408449E+02  0.00000000000E+00 0. -1.
</event>
<event>
 8    1  0.1229941E-006  0.9118800E+02  0.7816164E-02  0.1184000E+00
        -11   -1    0    0    0    0  0.00000000000E+00  0.00000000000E+00  0.45593999997E+02  0.45594000000E+02  0.51100000000E-03 0.  1.
         11   -1    0    0    0    0 -0.00000000000E+00 -0.00000000000E+00 -0.45593999997E+02  0.45594000000E+02  0.51100000000E-03 0. -1.
         23    2    1    2    0    0  0.00000000000E+00  0.00000000000E+00  0.00000000000E+00  0.91188000000E+02  0.91188000000E+02 0.  0.
    9900012    2    3    3    0    0 -0.25866752205E+02 -0.25817491289E+02  0.44886711198E+01  0.54367083465E+02  0.39999998375E+02 0.  0.
         12    1    3    3    0    0  0.25866752205E+02  0.25817491289E+02 -0.44886711198E+01  0.36820916535E+02  0.00000000000E+00 0. -1.
         11    1    4    4    0    0 -0.28752787266E+01  0.40664772108E+01 -0.61934425141E+01  0.79474646963E+01  0.51100000000E-03 0. -1.
        -11    1    4    4    0    0 -0.15586263403E+02 -0.10888458526E+02 -0.61483648525E+01  0.19982305337E+02  0.51100000000E-03 0.  1.
         12    1    4    4    0    0 -0.74052100749E+01 -0.18995509974E+02  0.16830478486E+02  0.26437313432E+02  0.00000000000E+00 0. -1.
</event>
<event>
 8    1  0.1229941E-006  0.9118800E+02  0.7816164E-02  0.1184000E+00
        -11   -1    0    0    0    0  0.00000000000E+00  0.00000000000E+00  0.45593999997E+02  0.45594000000E+02  0.51100000000E-03 0. -1.
         11   -1    0    0    0    0 -0.00000000000E+00 -0.00000000000E+00 -0.45593999997E+02  0.45594000000E+02  0.51100000000E-03 0.  1.
         23    2    1    2    0    0  0.00000000000E+00  0.00000000000E+00 -0.44408920985E-15  0.91188000000E+02  0.91188000000E+02 0.  0.
    9900012    2    3    3    0    0 -0.12618659840E+02 -0.34546268182E+02  0.17618710576E+01  0.54367090029E+02  0.40000013339E+02 0.  0.
        -12    1    3    3    0    0  0.12618659840E+02  0.34546268182E+02 -0.17618710576E+01  0.36820909971E+02  0.00000000000E+00 0.  1.
         11    1    4    4    0    0 -0.57985390599E-01  0.73170171292E+00 -0.33982985516E+01  0.34766626252E+01  0.51100000000E-03 0.  1.
        -11    1    4    4    0    0  0.11468370312E+02 -0.92968441808E+01 -0.16381604086E+01  0.14853901815E+02  0.51100000000E-03 0. -1.
         12    1    4    4    0    0 -0.24029044761E+02 -0.25981125714E+02  0.67983300178E+01  0.36036525589E+02  0.00000000000E+00 0. -1.
</event>
<event>
 8    1  0.1229941E-006  0.9118800E+02  0.7816164E-02  0.1184000E+00
        -11   -1    0    0    0    0  0.00000000000E+00  0.00000000000E+00  0.45593999997E+02  0.45594000000E+02  0.51100000000E-03 0. -1.
         11   -1    0    0    0    0 -0.00000000000E+00 -0.00000000000E+00 -0.45593999997E+02  0.45594000000E+02  0.51100000000E-03 0.  1.
         23    2    1    2    0    0  0.00000000000E+00  0.35527136788E-14  0.00000000000E+00  0.91188000000E+02  0.91188000000E+02 0.  0.
    9900012    2    3    3    0    0 -0.33113104609E+02 -0.13437457120E+02  0.88733872874E+01  0.54367082675E+02  0.39999996574E+02 0.  0.
        -12    1    3    3    0    0  0.33113104609E+02  0.13437457120E+02 -0.88733872874E+01  0.36820917325E+02  0.00000000000E+00 0.  1.
         11    1    4    4    0    0 -0.13945351106E+02  0.55455265514E+01 -0.48195320447E+01  0.15762410082E+02  0.51100000000E-03 0. -1.
        -11    1    4    4    0    0 -0.36383758690E+01 -0.91056728106E+01 -0.61230107153E+01  0.11560377017E+02  0.51100000000E-03 0.  1.
         12    1    4    4    0    0 -0.15529377634E+02 -0.98773108608E+01  0.19815930047E+02  0.27044295576E+02  0.00000000000E+00 0. -1.
</event>
<event>
 8    1  0.1229941E-006  0.9118800E+02  0.7816164E-02  0.1184000E+00
        -11   -1    0    0    0    0  0.00000000000E+00  0.00000000000E+00  0.45593999997E+02  0.45594000000E+02  0.51100000000E-03 0.  1.
         11   -1    0    0    0    0 -0.00000000000E+00 -0.00000000000E+00 -0.45593999997E+02  0.45594000000E+02  0.51100000000E-03 0. -1.
         23    2    1    2    0    0 -0.71054273576E-14 -0.35527136788E-14  0.00000000000E+00  0.91188000000E+02  0.91188000000E+02 0.  0.
    9900012    2    3    3    0    0 -0.17160528474E+02 -0.28342035062E+02 -0.16063132345E+02  0.54367096838E+02  0.40000028861E+02 0.  0.
        -12    1    3    3    0    0  0.17160528474E+02  0.28342035062E+02  0.16063132345E+02  0.36820903162E+02  0.00000000000E+00 0.  1.
         11    1    4    4    0    0 -0.31214169849E+01 -0.55185136712E+01  0.67698137061E+00  0.63761697884E+01  0.51100000000E-03 0. -1.
        -11    1    4    4    0    0  0.50006411440E+01 -0.16504155204E+02  0.54414895174E+01  0.18083234204E+02  0.51100000000E-03 0.  1.
         12    1    4    4    0    0 -0.19039752634E+02 -0.63193661866E+01 -0.22181603233E+02  0.29907692845E+02  0.00000000000E+00 0. -1.
</event>
<event>
 8    1  0.1229941E-006  0.9118800E+02  0.7816164E-02  0.1184000E+00
        -11   -1    0    0    0    0  0.00000000000E+00  0.00000000000E+00  0.45593999997E+02  0.45594000000E+02  0.51100000000E-03 0.  1.
         11   -1    0    0    0    0 -0.00000000000E+00 -0.00000000000E+00 -0.45593999997E+02  0.45594000000E+02  0.51100000000E-03 0. -1.
         23    2    1    2    0    0  0.00000000000E+00  0.35527136788E-14 -0.17763568394E-14  0.91188000000E+02  0.91188000000E+02 0.  0.
    9900012    2    3    3    0    0  0.26412129416E+02 -0.22335895981E+02  0.12620907944E+02  0.54367080038E+02  0.39999990562E+02 0.  0.
         12    1    3    3    0    0 -0.26412129416E+02  0.22335895981E+02 -0.12620907944E+02  0.36820919962E+02  0.00000000000E+00 0. -1.
         11    1    4    4    0    0  0.76386273303E+01 -0.24674666825E+02  0.13628790543E+02  0.29204995161E+02  0.51100000000E-03 0.  1.
        -11    1    4    4    0    0  0.10674587927E+02  0.78113890629E+01 -0.55982407862E+01  0.14363318790E+02  0.51100000000E-03 0. -1.
         12    1    4    4    0    0  0.80989141581E+01 -0.54726182188E+01  0.45903581867E+01  0.10798766087E+02  0.00000000000E+00 0. -1.
</event>
<event>
 8    1  0.1229941E-006  0.9118800E+02  0.7816164E-02  0.1184000E+00
        -11   -1    0    0    0    0  0.00000000000E+00  0.00000000000E+00  0.45593999997E+02  0.45594000000E+02  0.51100000000E-03 0. -1.
         11   -1    0    0    0    0 -0.00000000000E+00 -0.00000000000E+00 -0.45593999997E+02  0.45594000000E+02  0.51100000000E-03 0.  1.
         23    2    1    2    0    0  0.88817841970E-15  0.00000000000E+00  0.00000000000E+00  0.91188000000E+02  0.91188000000E+02 0.  0.
    9900012    2    3    3    0    0 -0.48980735534E+01  0.84136935862E+00  0.36483980054E+02  0.54367084374E+02  0.40000000448E+02 0.  0.
        -12    1    3    3    0    0  0.48980735534E+01 -0.84136935862E+00 -0.36483980054E+02  0.36820915626E+02  0.00000000000E+00 0.  1.
         11    1    4    4    0    0 -0.42840564104E+01 -0.15602021689E+02  0.13954534825E+02  0.21365983772E+02  0.51100000000E-03 0. -1.
        -11    1    4    4    0    0  0.13709476699E+01  0.18288064969E+02  0.23768701351E+02  0.30021392073E+02  0.51100000000E-03 0.  1.
        -12    1    4    4    0    0 -0.19849648129E+01 -0.18446739212E+01 -0.12392561214E+01  0.29797085291E+01  0.00000000000E+00 0.  1.
</event>
<event>
 8    1  0.1229941E-006  0.9118800E+02  0.7816164E-02  0.1184000E+00
        -11   -1    0    0    0    0  0.00000000000E+00  0.00000000000E+00  0.45593999997E+02  0.45594000000E+02  0.51100000000E-03 0.  1.
         11   -1    0    0    0    0 -0.00000000000E+00 -0.00000000000E+00 -0.45593999997E+02  0.45594000000E+02  0.51100000000E-03 0. -1.
         23    2    1    2    0    0  0.00000000000E+00 -0.35527136788E-14  0.00000000000E+00  0.91188000000E+02  0.91188000000E+02 0.  0.
    9900012    2    3    3    0    0  0.26366822000E+02 -0.25494480099E+02 -0.32558407067E+01  0.54367104891E+02  0.40000047221E+02 0.  0.
         12    1    3    3    0    0 -0.26366822000E+02  0.25494480099E+02  0.32558407067E+01  0.36820895109E+02  0.00000000000E+00 0. -1.
         11    1    4    4    0    0  0.69941390553E+00 -0.38084054505E+00  0.72426367420E+01  0.72862889436E+01  0.51100000000E-03 0. -1.
        -11    1    4    4    0    0  0.21156939922E+01 -0.33075329753E+01  0.87951405895E+01  0.96317409487E+01  0.51100000000E-03 0.  1.
         12    1    4    4    0    0  0.23551714103E+02 -0.21806106578E+02 -0.19293618038E+02  0.37449074999E+02  0.00000000000E+00 0. -1.
</event>
<event>
 8    1  0.1229941E-006  0.9118800E+02  0.7816164E-02  0.1184000E+00
        -11   -1    0    0    0    0  0.00000000000E+00  0.00000000000E+00  0.45593999997E+02  0.45594000000E+02  0.51100000000E-03 0. -1.
         11   -1    0    0    0    0 -0.00000000000E+00 -0.00000000000E+00 -0.45593999997E+02  0.45594000000E+02  0.51100000000E-03 0.  1.
         23    2    1    2    0    0  0.00000000000E+00 -0.99920072216E-15  0.00000000000E+00  0.91188000000E+02  0.91188000000E+02 0.  0.
    9900012    2    3    3    0    0  0.10984130176E+02  0.93507576347E+00 -0.35131931025E+02  0.54367108376E+02  0.40000055165E+02 0.  0.
         12    1    3    3    0    0 -0.10984130176E+02 -0.93507576347E+00  0.35131931025E+02  0.36820891624E+02  0.00000000000E+00 0. -1.
         11    1    4    4    0    0 -0.47886067533E+01  0.65922796340E+01 -0.98571831830E+01  0.12788782818E+02  0.51100000000E-03 0. -1.
        -11    1    4    4    0    0  0.15888003875E+02 -0.42977939266E+01 -0.31319816583E+02  0.35381218334E+02  0.51100000000E-03 0.  1.
         12    1    4    4    0    0 -0.11526694561E+00 -0.13594099440E+01  0.60450687402E+01  0.61971072234E+01  0.00000000000E+00 0. -1.
</event>
<event>
 8    1  0.1229941E-006  0.9118800E+02  0.7816164E-02  0.1184000E+00
        -11   -1    0    0    0    0  0.00000000000E+00  0.00000000000E+00  0.45593999997E+02  0.45594000000E+02  0.51100000000E-03 0. -1.
         11   -1    0    0    0    0 -0.00000000000E+00 -0.00000000000E+00 -0.45593999997E+02  0.45594000000E+02  0.51100000000E-03 0.  1.
         23    2    1    2    0    0  0.00000000000E+00  0.00000000000E+00 -0.35527136788E-14  0.91188000000E+02  0.91188000000E+02 0.  0.
    9900012    2    3    3    0    0 -0.20180280135E+02  0.12360727235E+02  0.28209048462E+02  0.54367058958E+02  0.39999942507E+02 0.  0.
        -12    1    3    3    0    0  0.20180280135E+02 -0.12360727235E+02 -0.28209048462E+02  0.36820941042E+02  0.00000000000E+00 0.  1.
         11    1    4    4    0    0 -0.11662514237E+02 -0.98432953826E+01  0.15142582757E+02  0.21498895672E+02  0.51100000000E-03 0. -1.
        -11    1    4    4    0    0 -0.92146337283E+01  0.14720969599E+01  0.52038253120E+01  0.10684397145E+02  0.51100000000E-03 0.  1.
        -12    1    4    4    0    0  0.69686783065E+00  0.20731925658E+02  0.78626403926E+01  0.22183766141E+02  0.00000000000E+00 0.  1.
</event>
<event>
 8    1  0.1229941E-006  0.9118800E+02  0.7816164E-02  0.1184000E+00
        -11   -1    0    0    0    0  0.00000000000E+00  0.00000000000E+00  0.45593999997E+02  0.45594000000E+02  0.51100000000E-03 0.  1.
         11   -1    0    0    0    0 -0.00000000000E+00 -0.00000000000E+00 -0.45593999997E+02  0.45594000000E+02  0.51100000000E-03 0. -1.
         23    2    1    2    0    0  0.35527136788E-14  0.35527136788E-14 -0.88817841970E-15  0.91188000000E+02  0.91188000000E+02 0.  0.
    9900012    2    3    3    0    0  0.28861018687E+02  0.21573234975E+02 -0.75774593264E+01  0.54367071756E+02  0.39999971682E+02 0.  0.
        -12    1    3    3    0    0 -0.28861018687E+02 -0.21573234975E+02  0.75774593264E+01  0.36820928244E+02  0.00000000000E+00 0.  1.
         11    1    4    4    0    0  0.46203631313E+01  0.11547794778E+02 -0.83111883732E+01  0.14959116689E+02  0.51100000000E-03 0. -1.
        -11    1    4    4    0    0  0.15289135818E+02  0.85003002404E+01  0.14632227585E+02  0.22806026892E+02  0.51100000000E-03 0.  1.
        -12    1    4    4    0    0  0.89515197380E+01  0.15251399568E+01 -0.13898498538E+02  0.16601928175E+02  0.00000000000E+00 0.  1.
</event>
<event>
 8    1  0.1229941E-006  0.9118800E+02  0.7816164E-02  0.1184000E+00
        -11   -1    0    0    0    0  0.00000000000E+00  0.00000000000E+00  0.45593999997E+02  0.45594000000E+02  0.51100000000E-03 0.  1.
         11   -1    0    0    0    0 -0.00000000000E+00 -0.00000000000E+00 -0.45593999997E+02  0.45594000000E+02  0.51100000000E-03 0. -1.
         23    2    1    2    0    0  0.17763568394E-14 -0.17763568394E-14  0.00000000000E+00  0.91188000000E+02  0.91188000000E+02 0.  0.
    9900012    2    3    3    0    0 -0.14901055683E+02 -0.53387857172E+01  0.33244904119E+02  0.54367248469E+02  0.40000374533E+02 0.  0.
         12    1    3    3    0    0  0.14901055683E+02  0.53387857172E+01 -0.33244904119E+02  0.36820751531E+02  0.00000000000E+00 0. -1.
         11    1    4    4    0    0 -0.34935115625E+00 -0.16422641065E+02  0.29872567696E+02  0.34090988352E+02  0.51100000000E-03 0. -1.
        -11    1    4    4    0    0 -0.10504448099E+02  0.64213053011E+01  0.58409356651E+01  0.13626926335E+02  0.51100000000E-03 0.  1.
         12    1    4    4    0    0 -0.40472564280E+01  0.46625500471E+01 -0.24685992415E+01  0.66493337824E+01  0.00000000000E+00 0. -1.
</event>
<event>
 8    1  0.1229941E-006  0.9118800E+02  0.7816164E-02  0.1184000E+00
        -11   -1    0    0    0    0  0.00000000000E+00  0.00000000000E+00  0.45593999997E+02  0.45594000000E+02  0.51100000000E-03 0. -1.
         11   -1    0    0    0    0 -0.00000000000E+00 -0.00000000000E+00 -0.45593999997E+02  0.45594000000E+02  0.51100000000E-03 0.  1.
         23    2    1    2    0    0  0.00000000000E+00  0.00000000000E+00  0.17763568394E-14  0.91188000000E+02  0.91188000000E+02 0.  0.
    9900012    2    3    3    0    0  0.33378999780E+02 -0.15383775301E+02  0.22275391893E+01  0.54367080679E+02  0.39999992023E+02 0.  0.
        -12    1    3    3    0    0 -0.33378999780E+02  0.15383775301E+02 -0.22275391893E+01  0.36820919321E+02  0.00000000000E+00 0.  1.
         11    1    4    4    0    0  0.28777631177E+02  0.64874316897E+00  0.96847879181E+01  0.30370512692E+02  0.51100000000E-03 0. -1.
        -11    1    4    4    0    0  0.57506397078E+01 -0.74428593114E+01 -0.11140597287E+02  0.14580086418E+02  0.51100000000E-03 0.  1.
         12    1    4    4    0    0 -0.11492711051E+01 -0.85896591585E+01  0.36833485587E+01  0.94164815689E+01  0.00000000000E+00 0. -1.
</event>
<event>
 8    1  0.1229941E-006  0.9118800E+02  0.7816164E-02  0.1184000E+00
        -11   -1    0    0    0    0  0.00000000000E+00  0.00000000000E+00  0.45593999997E+02  0.45594000000E+02  0.51100000000E-03 0. -1.
         11   -1    0    0    0    0 -0.00000000000E+00 -0.00000000000E+00 -0.45593999997E+02  0.45594000000E+02  0.51100000000E-03 0.  1.
         23    2    1    2    0    0 -0.71054273576E-14  0.00000000000E+00 -0.17763568394E-14  0.91188000000E+02  0.91188000000E+02 0.  0.
    9900012    2    3    3    0    0 -0.33543585063E+02  0.43943590626E+01 -0.14535926636E+02  0.54367141053E+02  0.40000129658E+02 0.  0.
         12    1    3    3    0    0  0.33543585063E+02 -0.43943590626E+01  0.14535926636E+02  0.36820858947E+02  0.00000000000E+00 0. -1.
         11    1    4    4    0    0 -0.13400388058E+01  0.14891785056E+01  0.75469960144E+01  0.78083612701E+01  0.51100000000E-03 0. -1.
        -11    1    4    4    0    0 -0.38305040410E+01  0.60595099300E+01  0.37213855663E+01  0.80770745072E+01  0.51100000000E-03 0.  1.
        -12    1    4    4    0    0 -0.28373042216E+02 -0.31543293731E+01 -0.25804308217E+02  0.38481705276E+02  0.00000000000E+00 0.  1.
</event>
<event>
 8    1  0.1229941E-006  0.9118800E+02  0.7816164E-02  0.1184000E+00
        -11   -1    0    0    0    0  0.00000000000E+00  0.00000000000E+00  0.45593999997E+02  0.45594000000E+02  0.51100000000E-03 0. -1.
         11   -1    0    0    0    0 -0.00000000000E+00 -0.00000000000E+00 -0.45593999997E+02  0.45594000000E+02  0.51100000000E-03 0.  1.
         23    2    1    2    0    0  0.17763568394E-14  0.80491169285E-15  0.71054273576E-14  0.91188000000E+02  0.91188000000E+02 0.  0.
    9900012    2    3    3    0    0  0.11255433325E+02  0.57202044914E-01  0.35058380605E+02  0.54367107805E+02  0.40000053863E+02 0.  0.
        -12    1    3    3    0    0 -0.11255433325E+02 -0.57202044914E-01 -0.35058380605E+02  0.36820892195E+02  0.00000000000E+00 0.  1.
         11    1    4    4    0    0  0.11391273344E+02 -0.22105643767E+01  0.24860895386E+02  0.27435594087E+02  0.51100000000E-03 0. -1.
        -11    1    4    4    0    0  0.99132477104E+01  0.85100737600E+01  0.60236328152E+01  0.14386729584E+02  0.51100000000E-03 0.  1.
        -12    1    4    4    0    0 -0.10049087729E+02 -0.62423073384E+01  0.41738524038E+01  0.12544784135E+02  0.00000000000E+00 0.  1.
</event>
<event>
 8    1  0.1229941E-006  0.9118800E+02  0.7816164E-02  0.1184000E+00
        -11   -1    0    0    0    0  0.00000000000E+00  0.00000000000E+00  0.45593999997E+02  0.45594000000E+02  0.51100000000E-03 0. -1.
         11   -1    0    0    0    0 -0.00000000000E+00 -0.00000000000E+00 -0.45593999997E+02  0.45594000000E+02  0.51100000000E-03 0.  1.
         23    2    1    2    0    0 -0.88817841970E-15  0.00000000000E+00  0.00000000000E+00  0.91188000000E+02  0.91188000000E+02 0.  0.
    9900012    2    3    3    0    0 -0.35511584347E+01 -0.32648320375E+02 -0.16650994934E+02  0.54367093143E+02  0.40000020437E+02 0.  0.
         12    1    3    3    0    0  0.35511584347E+01  0.32648320375E+02  0.16650994934E+02  0.36820906857E+02  0.00000000000E+00 0. -1.
         11    1    4    4    0    0 -0.10152201711E+02 -0.18090244560E+01 -0.71478718071E+01  0.12547184573E+02  0.51100000000E-03 0. -1.
        -11    1    4    4    0    0  0.66447866618E+00 -0.31987392801E+02 -0.13334306659E+02  0.34661773821E+02  0.51100000000E-03 0.  1.
        -12    1    4    4    0    0  0.59365646106E+01  0.11480968824E+01  0.38311835314E+01  0.71581347486E+01  0.00000000000E+00 0.  1.
</event>
<event>
 8    1  0.1229941E-006  0.9118800E+02  0.7816164E-02  0.1184000E+00
        -11   -1    0    0    0    0  0.00000000000E+00  0.00000000000E+00  0.45593999997E+02  0.45594000000E+02  0.51100000000E-03 0. -1.
         11   -1    0    0    0    0 -0.00000000000E+00 -0.00000000000E+00 -0.45593999997E+02  0.45594000000E+02  0.51100000000E-03 0.  1.
         23    2    1    2    0    0 -0.35527136788E-14  0.00000000000E+00 -0.35527136788E-14  0.91188000000E+02  0.91188000000E+02 0.  0.
    9900012    2    3    3    0    0 -0.21422791057E+02  0.32732956214E+01 -0.29767932408E+02  0.54367078763E+02  0.39999987656E+02 0.  0.
         12    1    3    3    0    0  0.21422791057E+02 -0.32732956214E+01  0.29767932408E+02  0.36820921237E+02  0.00000000000E+00 0. -1.
         11    1    4    4    0    0  0.94747536839E+00 -0.14067769782E+01 -0.15209904261E+02  0.15304179786E+02  0.51100000000E-03 0. -1.
        -11    1    4    4    0    0 -0.28208797848E+02 -0.34153882144E+00 -0.13549924652E+02  0.31296219950E+02  0.51100000000E-03 0.  1.
         12    1    4    4    0    0  0.58385314234E+01  0.50216114210E+01 -0.10081034951E+01  0.77666790267E+01  0.00000000000E+00 0. -1.
</event>
<event>
 8    1  0.1229941E-006  0.9118800E+02  0.7816164E-02  0.1184000E+00
        -11   -1    0    0    0    0  0.00000000000E+00  0.00000000000E+00  0.45593999997E+02  0.45594000000E+02  0.51100000000E-03 0.  1.
         11   -1    0    0    0    0 -0.00000000000E+00 -0.00000000000E+00 -0.45593999997E+02  0.45594000000E+02  0.51100000000E-03 0. -1.
         23    2    1    2    0    0 -0.22204460493E-15  0.17763568394E-14 -0.71054273576E-14  0.91188000000E+02  0.91188000000E+02 0.  0.
    9900012    2    3    3    0    0  0.22089718332E+00 -0.15231929206E+02  0.33521934819E+02  0.54367074198E+02  0.39999977250E+02 0.  0.
         12    1    3    3    0    0 -0.22089718332E+00  0.15231929206E+02 -0.33521934819E+02  0.36820925802E+02  0.00000000000E+00 0. -1.
         11    1    4    4    0    0 -0.93114543443E+01  0.71168956875E+01  0.13465613333E+02  0.17851502148E+02  0.51100000000E-03 0. -1.
        -11    1    4    4    0    0 -0.36519648889E+01 -0.29715401154E+01  0.99194225943E+01  0.10980065714E+02  0.51100000000E-03 0.  1.
        -12    1    4    4    0    0  0.13184316417E+02 -0.19377284778E+02  0.10136898891E+02  0.25535506337E+02  0.00000000000E+00 0.  1.
</event>
<event>
 8    1  0.1229941E-006  0.9118800E+02  0.7816164E-02  0.1184000E+00
        -11   -1    0    0    0    0  0.00000000000E+00  0.00000000000E+00  0.45593999997E+02  0.45594000000E+02  0.51100000000E-03 0. -1.
         11   -1    0    0    0    0 -0.00000000000E+00 -0.00000000000E+00 -0.45593999997E+02  0.45594000000E+02  0.51100000000E-03 0.  1.
         23    2    1    2    0    0  0.00000000000E+00  0.35527136788E-14  0.35527136788E-14  0.91188000000E+02  0.91188000000E+02 0.  0.
    9900012    2    3    3    0    0 -0.22747746944E+02  0.25307797822E+02 -0.14065382339E+02  0.54367087437E+02  0.40000007431E+02 0.  0.
         12    1    3    3    0    0  0.22747746944E+02 -0.25307797822E+02  0.14065382339E+02  0.36820912563E+02  0.00000000000E+00 0. -1.
         11    1    4    4    0    0  0.49779710156E+00  0.18342433915E+01  0.20396260849E+01  0.27878890941E+01  0.51100000000E-03 0. -1.
        -11    1    4    4    0    0 -0.11667888676E+02  0.32354803977E+02 -0.11876189398E+02  0.36387042219E+02  0.51100000000E-03 0.  1.
         12    1    4    4    0    0 -0.11577655370E+02 -0.88812495466E+01 -0.42288190256E+01  0.15192156125E+02  0.00000000000E+00 0. -1.
</event>
<event>
 8    1  0.1229941E-006  0.9118800E+02  0.7816164E-02  0.1184000E+00
        -11   -1    0    0    0    0  0.00000000000E+00  0.00000000000E+00  0.45593999997E+02  0.45594000000E+02  0.51100000000E-03 0. -1.
         11   -1    0    0    0    0 -0.00000000000E+00 -0.00000000000E+00 -0.45593999997E+02  0.45594000000E+02  0.51100000000E-03 0.  1.
         23    2    1    2    0    0 -0.35527136788E-14  0.00000000000E+00  0.00000000000E+00  0.91188000000E+02  0.91188000000E+02 0.  0.
    9900012    2    3    3    0    0 -0.23374858617E+02 -0.91409969201E+00 -0.28435199463E+02  0.54367079831E+02  0.39999990090E+02 0.  0.
         12    1    3    3    0    0  0.23374858617E+02  0.91409969201E+00  0.28435199463E+02  0.36820920169E+02  0.00000000000E+00 0. -1.
         11    1    4    4    0    0 -0.36241753040E+01 -0.54482841575E+01  0.13780693815E+01  0.66871161480E+01  0.51100000000E-03 0. -1.
        -11    1    4    4    0    0  0.14556332158E+01  0.13803659388E+02 -0.13517421415E+02  0.19374740322E+02  0.51100000000E-03 0.  1.
        -12    1    4    4    0    0 -0.21206316529E+02 -0.92694749227E+01 -0.16295847429E+02  0.28305223361E+02  0.00000000000E+00 0.  1.
</event>
<event>
 8    1  0.1229941E-006  0.9118800E+02  0.7816164E-02  0.1184000E+00
        -11   -1    0    0    0    0  0.00000000000E+00  0.00000000000E+00  0.45593999997E+02  0.45594000000E+02  0.51100000000E-03 0.  1.
         11   -1    0    0    0    0 -0.00000000000E+00 -0.00000000000E+00 -0.45593999997E+02  0.45594000000E+02  0.51100000000E-03 0. -1.
         23    2    1    2    0    0 -0.13322676296E-14  0.00000000000E+00  0.71054273576E-14  0.91188000000E+02  0.91188000000E+02 0.  0.
    9900012    2    3    3    0    0 -0.38301612386E+01  0.16412048186E+02  0.32737856294E+02  0.54366909638E+02  0.39999602099E+02 0.  0.
         12    1    3    3    0    0  0.38301612386E+01 -0.16412048186E+02 -0.32737856294E+02  0.36821090362E+02  0.00000000000E+00 0. -1.
         11    1    4    4    0    0  0.69634755736E+01  0.96014917785E+01 -0.25450811820E+01  0.12130790367E+02  0.51100000000E-03 0. -1.
        -11    1    4    4    0    0 -0.75907203034E+01  0.10938993429E+01  0.14885039660E+01  0.78122528642E+01  0.51100000000E-03 0.  1.
         12    1    4    4    0    0 -0.32029165087E+01  0.57166570642E+01  0.33794433510E+02  0.34423866407E+02  0.00000000000E+00 0. -1.
</event>
<event>
 8    1  0.1229941E-006  0.9118800E+02  0.7816164E-02  0.1184000E+00
        -11   -1    0    0    0    0  0.00000000000E+00  0.00000000000E+00  0.45593999997E+02  0.45594000000E+02  0.51100000000E-03 0. -1.
         11   -1    0    0    0    0 -0.00000000000E+00 -0.00000000000E+00 -0.45593999997E+02  0.45594000000E+02  0.51100000000E-03 0.  1.
         23    2    1    2    0    0  0.00000000000E+00 -0.35527136788E-14  0.17763568394E-14  0.91188000000E+02  0.91188000000E+02 0.  0.
    9900012    2    3    3    0    0 -0.23744843321E+02 -0.26585691086E+02 -0.92286633268E+01  0.54367017101E+02  0.39999847085E+02 0.  0.
         12    1    3    3    0    0  0.23744843321E+02  0.26585691086E+02  0.92286633268E+01  0.36820982899E+02  0.00000000000E+00 0. -1.
         11    1    4    4    0    0  0.12371953339E+01 -0.31090175645E+00 -0.22915133329E+01  0.26226600642E+01  0.51100000000E-03 0. -1.
        -11    1    4    4    0    0 -0.17222472730E+02 -0.23707323456E+02  0.11576666891E+02  0.31506665469E+02  0.51100000000E-03 0.  1.
        -12    1    4    4    0    0 -0.77595659249E+01 -0.25674658735E+01 -0.18513816885E+02  0.20237691568E+02  0.00000000000E+00 0.  1.
</event>
<event>
 8    1  0.1229941E-006  0.9118800E+02  0.7816164E-02  0.1184000E+00
        -11   -1    0    0    0    0  0.00000000000E+00  0.00000000000E+00  0.45593999997E+02  0.45594000000E+02  0.51100000000E-03 0. -1.
         11   -1    0    0    0    0 -0.00000000000E+00 -0.00000000000E+00 -0.45593999997E+02  0.45594000000E+02  0.51100000000E-03 0.  1.
         23    2    1    2    0    0 -0.17763568394E-14  0.00000000000E+00  0.00000000000E+00  0.91188000000E+02  0.91188000000E+02 0.  0.
    9900012    2    3    3    0    0  0.14451589046E+02 -0.28300758660E+02  0.18601043292E+02  0.54367079612E+02  0.39999989591E+02 0.  0.
        -12    1    3    3    0    0 -0.14451589046E+02  0.28300758660E+02 -0.18601043292E+02  0.36820920388E+02  0.00000000000E+00 0.  1.
         11    1    4    4    0    0  0.18738087812E+02 -0.14431024342E+02  0.81523437810E+01  0.25016616634E+02  0.51100000000E-03 0.  1.
        -11    1    4    4    0    0 -0.90161515176E+01 -0.11980054854E+02 -0.27134021036E+01  0.15237298111E+02  0.51100000000E-03 0. -1.
        -12    1    4    4    0    0  0.47296527515E+01 -0.18896794635E+01  0.13162101615E+02  0.14113164866E+02  0.00000000000E+00 0.  1.
</event>
<event>
 8    1  0.1229941E-006  0.9118800E+02  0.7816164E-02  0.1184000E+00
        -11   -1    0    0    0    0  0.00000000000E+00  0.00000000000E+00  0.45593999997E+02  0.45594000000E+02  0.51100000000E-03 0.  1.
         11   -1    0    0    0    0 -0.00000000000E+00 -0.00000000000E+00 -0.45593999997E+02  0.45594000000E+02  0.51100000000E-03 0. -1.
         23    2    1    2    0    0  0.00000000000E+00  0.35527136788E-14  0.17763568394E-14  0.91188000000E+02  0.91188000000E+02 0.  0.
    9900012    2    3    3    0    0 -0.21683127251E+02 -0.29026830559E+02  0.65623927651E+01  0.54367083410E+02  0.39999998251E+02 0.  0.
        -12    1    3    3    0    0  0.21683127251E+02  0.29026830559E+02 -0.65623927651E+01  0.36820916590E+02  0.00000000000E+00 0.  1.
         11    1    4    4    0    0  0.97979377918E+00 -0.14639911756E+02  0.50679259640E+01  0.15523236966E+02  0.51100000000E-03 0. -1.
        -11    1    4    4    0    0 -0.13113330804E+02 -0.12198300344E+02 -0.12442670723E+02  0.21807751627E+02  0.51100000000E-03 0.  1.
        -12    1    4    4    0    0 -0.95495902265E+01 -0.21886184594E+01  0.13937137524E+02  0.17036094817E+02  0.00000000000E+00 0.  1.
</event>
<event>
 8    1  0.1229941E-006  0.9118800E+02  0.7816164E-02  0.1184000E+00
        -11   -1    0    0    0    0  0.00000000000E+00  0.00000000000E+00  0.45593999997E+02  0.45594000000E+02  0.51100000000E-03 0. -1.
         11   -1    0    0    0    0 -0.00000000000E+00 -0.00000000000E+00 -0.45593999997E+02  0.45594000000E+02  0.51100000000E-03 0.  1.
         23    2    1    2    0    0 -0.35527136788E-14  0.24424906542E-14 -0.71054273576E-14  0.91188000000E+02  0.91188000000E+02 0.  0.
    9900012    2    3    3    0    0 -0.14930601535E+02  0.17060287979E+01 -0.33614571284E+02  0.54367179815E+02  0.40000218024E+02 0.  0.
         12    1    3    3    0    0  0.14930601535E+02 -0.17060287979E+01  0.33614571284E+02  0.36820820185E+02  0.00000000000E+00 0. -1.
         11    1    4    4    0    0  0.43601634506E+01 -0.10093642994E+02  0.23839536717E+01  0.11250595077E+02  0.51100000000E-03 0. -1.
        -11    1    4    4    0    0 -0.47013799172E+01 -0.32547553035E+00 -0.61131938530E+01  0.77188112292E+01  0.51100000000E-03 0.  1.
         12    1    4    4    0    0 -0.14589385069E+02  0.12125147322E+02 -0.29885331103E+02  0.35397773509E+02  0.00000000000E+00 0. -1.
</event>
<event>
 8    1  0.1229941E-006  0.9118800E+02  0.7816164E-02  0.1184000E+00
        -11   -1    0    0    0    0  0.00000000000E+00  0.00000000000E+00  0.45593999997E+02  0.45594000000E+02  0.51100000000E-03 0.  1.
         11   -1    0    0    0    0 -0.00000000000E+00 -0.00000000000E+00 -0.45593999997E+02  0.45594000000E+02  0.51100000000E-03 0. -1.
         23    2    1    2    0    0  0.00000000000E+00  0.00000000000E+00  0.35527136788E-14  0.91188000000E+02  0.91188000000E+02 0.  0.
    9900012    2    3    3    0    0  0.41544555237E+01  0.23592927997E+02  0.27962356200E+02  0.54367094030E+02  0.40000022460E+02 0.  0.
         12    1    3    3    0    0 -0.41544555237E+01 -0.23592927997E+02 -0.27962356200E+02  0.36820905970E+02  0.00000000000E+00 0. -1.
         11    1    4    4    0    0  0.15361781772E+01  0.52595086939E+01 -0.53405040221E+01  0.76513566486E+01  0.51100000000E-03 0. -1.
        -11    1    4    4    0    0 -0.67391852795E+01  0.74324791037E+01  0.30461354629E+02  0.32071053771E+02  0.51100000000E-03 0.  1.
        -12    1    4    4    0    0  0.93574626260E+01  0.10900940199E+02  0.28415055934E+01  0.14644683611E+02  0.00000000000E+00 0.  1.
</event>
<event>
 8    1  0.1229941E-006  0.9118800E+02  0.7816164E-02  0.1184000E+00
        -11   -1    0    0    0    0  0.00000000000E+00  0.00000000000E+00  0.45593999997E+02  0.45594000000E+02  0.51100000000E-03 0. -1.
         11   -1    0    0    0    0 -0.00000000000E+00 -0.00000000000E+00 -0.45593999997E+02  0.45594000000E+02  0.51100000000E-03 0.  1.
         23    2    1    2    0    0 -0.17763568394E-14  0.00000000000E+00  0.88817841970E-15  0.91188000000E+02  0.91188000000E+02 0.  0.
    9900012    2    3    3    0    0 -0.68175830111E+01  0.35452787031E+02 -0.72387479633E+01  0.54367095361E+02  0.40000025494E+02 0.  0.
         12    1    3    3    0    0  0.68175830111E+01 -0.35452787031E+02  0.72387479633E+01  0.36820904639E+02  0.00000000000E+00 0. -1.
         11    1    4    4    0    0  0.12392513005E+02  0.16930156760E+02  0.53900265770E+01  0.21662339977E+02  0.51100000000E-03 0. -1.
        -11    1    4    4    0    0 -0.28197834300E+01  0.11588903360E+02 -0.78472198719E+01  0.14276999673E+02  0.51100000000E-03 0.  1.
         12    1    4    4    0    0 -0.16390312586E+02  0.69337269105E+01 -0.47815546684E+01  0.18427755712E+02  0.00000000000E+00 0. -1.
</event>
<event>
 8    1  0.1229941E-006  0.9118800E+02  0.7816164E-02  0.1184000E+00
        -11   -1    0    0    0    0  0.00000000000E+00  0.00000000000E+00  0.45593999997E+02  0.45594000000E+02  0.51100000000E-03 0.  1.
         11   -1    0    0    0    0 -0.00000000000E+00 -0.00000000000E+00 -0.45593999997E+02  0.45594000000E+02  0.51100000000E-03 0. -1.
         23    2    1    2    0    0  0.17763568394E-14 -0.71054273576E-14 -0.17763568394E-14  0.91188000000E+02  0.91188000000E+02 0.  0.
    9900012    2    3    3    0    0  0.14015596819E+02 -0.32751902351E+02 -0.93088833117E+01  0.54367090583E+02  0.40000014602E+02 0.  0.
        -12    1    3    3    0    0 -0.14015596819E+02  0.32751902351E+02  0.93088833117E+01  0.36820909417E+02  0.00000000000E+00 0.  1.
         11    1    4    4    0    0  0.37748712474E+01  0.48123780073E+01 -0.14242662807E+01  0.62799020469E+01  0.51100000000E-03 0. -1.
        -11    1    4    4    0    0  0.64981519821E+01 -0.31195488816E+02  0.59388050598E+01  0.32413791933E+02  0.51100000000E-03 0.  1.
         12    1    4    4    0    0  0.37425735893E+01 -0.63687915420E+01 -0.13823422091E+02  0.15673396603E+02  0.00000000000E+00 0. -1.
</event>
<event>
 8    1  0.1229941E-006  0.9118800E+02  0.7816164E-02  0.1184000E+00
        -11   -1    0    0    0    0  0.00000000000E+00  0.00000000000E+00  0.45593999997E+02  0.45594000000E+02  0.51100000000E-03 0.  1.
         11   -1    0    0    0    0 -0.00000000000E+00 -0.00000000000E+00 -0.45593999997E+02  0.45594000000E+02  0.51100000000E-03 0. -1.
         23    2    1    2    0    0  0.00000000000E+00  0.00000000000E+00 -0.35527136788E-14  0.91188000000E+02  0.91188000000E+02 0.  0.
    9900012    2    3    3    0    0  0.12553257662E+02  0.17505022671E+02  0.29862536835E+02  0.54367065698E+02  0.39999957871E+02 0.  0.
         12    1    3    3    0    0 -0.12553257662E+02 -0.17505022671E+02 -0.29862536835E+02  0.36820934302E+02  0.00000000000E+00 0. -1.
         11    1    4    4    0    0 -0.40808240621E+01 -0.38174539614E+01  0.28804417403E+01  0.62867340212E+01  0.51100000000E-03 0. -1.
        -11    1    4    4    0    0  0.39836235684E+01  0.25319403510E+02  0.22414380029E+02  0.34049168612E+02  0.51100000000E-03 0.  1.
        -12    1    4    4    0    0  0.12650458156E+02 -0.39969268772E+01  0.45677150664E+01  0.14031163065E+02  0.00000000000E+00 0.  1.
</event>
<event>
 8    1  0.1229941E-006  0.9118800E+02  0.7816164E-02  0.1184000E+00
        -11   -1    0    0    0    0  0.00000000000E+00  0.00000000000E+00  0.45593999997E+02  0.45594000000E+02  0.51100000000E-03 0.  1.
         11   -1    0    0    0    0 -0.00000000000E+00 -0.00000000000E+00 -0.45593999997E+02  0.45594000000E+02  0.51100000000E-03 0. -1.
         23    2    1    2    0    0  0.35527136788E-14  0.00000000000E+00  0.35527136788E-14  0.91188000000E+02  0.91188000000E+02 0.  0.
    9900012    2    3    3    0    0 -0.28676243807E+02  0.13904878996E+02 -0.18441988311E+02  0.54367088121E+02  0.40000008988E+02 0.  0.
        -12    1    3    3    0    0  0.28676243807E+02 -0.13904878996E+02  0.18441988311E+02  0.36820911879E+02  0.00000000000E+00 0.  1.
         11    1    4    4    0    0 -0.32679711559E+02  0.73406223085E+01 -0.15202724255E+02  0.36782755586E+02  0.51100000000E-03 0. -1.
        -11    1    4    4    0    0  0.12841874471E+00  0.66574819695E+01  0.51005548652E+01  0.83877421122E+01  0.51100000000E-03 0.  1.
        -12    1    4    4    0    0  0.38750490075E+01 -0.93225282011E-01 -0.83398189204E+01  0.91965904219E+01  0.00000000000E+00 0.  1.
</event>
<event>
 8    1  0.1229941E-006  0.9118800E+02  0.7816164E-02  0.1184000E+00
        -11   -1    0    0    0    0  0.00000000000E+00  0.00000000000E+00  0.45593999997E+02  0.45594000000E+02  0.51100000000E-03 0. -1.
         11   -1    0    0    0    0 -0.00000000000E+00 -0.00000000000E+00 -0.45593999997E+02  0.45594000000E+02  0.51100000000E-03 0.  1.
         23    2    1    2    0    0  0.00000000000E+00 -0.71054273576E-14  0.00000000000E+00  0.91188000000E+02  0.91188000000E+02 0.  0.
    9900012    2    3    3    0    0 -0.17627694303E+02  0.32006609075E+02  0.45410746138E+01  0.54367082174E+02  0.39999995432E+02 0.  0.
         12    1    3    3    0    0  0.17627694303E+02 -0.32006609075E+02 -0.45410746138E+01  0.36820917826E+02  0.00000000000E+00 0. -1.
         11    1    4    4    0    0 -0.11161400411E+01 -0.44747145917E+01  0.71736714606E+01  0.85282121077E+01  0.51100000000E-03 0. -1.
        -11    1    4    4    0    0 -0.10844039632E+02  0.22631029654E+01 -0.77599643003E+00  0.11104818832E+02  0.51100000000E-03 0.  1.
        -12    1    4    4    0    0 -0.56675146304E+01  0.34218220701E+02 -0.18566004167E+01  0.34734051234E+02  0.00000000000E+00 0.  1.
</event>
<event>
 8    1  0.1229941E-006  0.9118800E+02  0.7816164E-02  0.1184000E+00
        -11   -1    0    0    0    0  0.00000000000E+00  0.00000000000E+00  0.45593999997E+02  0.45594000000E+02  0.51100000000E-03 0. -1.
         11   -1    0    0    0    0 -0.00000000000E+00 -0.00000000000E+00 -0.45593999997E+02  0.45594000000E+02  0.51100000000E-03 0.  1.
         23    2    1    2    0    0 -0.17763568394E-14 -0.38857805862E-14  0.00000000000E+00  0.91188000000E+02  0.91188000000E+02 0.  0.
    9900012    2    3    3    0    0  0.13354631215E+02 -0.93186867559E+00 -0.34301098877E+02  0.54367082870E+02  0.39999997019E+02 0.  0.
         12    1    3    3    0    0 -0.13354631215E+02  0.93186867559E+00  0.34301098877E+02  0.36820917130E+02  0.00000000000E+00 0. -1.
         11    1    4    4    0    0  0.33119660325E+01  0.26852972421E+01 -0.15192916691E+01  0.45263879325E+01  0.51100000000E-03 0. -1.
        -11    1    4    4    0    0  0.12786923853E+02 -0.16941042135E+02 -0.10368751395E+02  0.23622348232E+02  0.51100000000E-03 0.  1.
        -12    1    4    4    0    0 -0.27442586707E+01  0.13323876217E+02 -0.22413055813E+02  0.26218346706E+02  0.00000000000E+00 0.  1.
</event>
<event>
 8    1  0.1229941E-006  0.9118800E+02  0.7816164E-02  0.1184000E+00
        -11   -1    0    0    0    0  0.00000000000E+00  0.00000000000E+00  0.45593999997E+02  0.45594000000E+02  0.51100000000E-03 0. -1.
         11   -1    0    0    0    0 -0.00000000000E+00 -0.00000000000E+00 -0.45593999997E+02  0.45594000000E+02  0.51100000000E-03 0.  1.
         23    2    1    2    0    0  0.11102230246E-15  0.26922908347E-14  0.00000000000E+00  0.91188000000E+02  0.91188000000E+02 0.  0.
    9900012    2    3    3    0    0  0.97599858469E+00 -0.68426898871E-01  0.36807917447E+02  0.54367081458E+02  0.39999993801E+02 0.  0.
        -12    1    3    3    0    0 -0.97599858469E+00  0.68426898871E-01 -0.36807917447E+02  0.36820918542E+02  0.00000000000E+00 0.  1.
         11    1    4    4    0    0 -0.64519955188E+01  0.68271563929E+01  0.12552587342E+02  0.15678193768E+02  0.51100000000E-03 0. -1.
        -11    1    4    4    0    0  0.42920776591E+01 -0.13526882687E+02  0.27282996231E+02  0.30753217222E+02  0.51100000000E-03 0.  1.
        -12    1    4    4    0    0  0.31359164444E+01  0.66312993953E+01 -0.30276661266E+01  0.79356704688E+01  0.00000000000E+00 0.  1.
</event>
<event>
 8    1  0.1229941E-006  0.9118800E+02  0.7816164E-02  0.1184000E+00
        -11   -1    0    0    0    0  0.00000000000E+00  0.00000000000E+00  0.45593999997E+02  0.45594000000E+02  0.51100000000E-03 0. -1.
         11   -1    0    0    0    0 -0.00000000000E+00 -0.00000000000E+00 -0.45593999997E+02  0.45594000000E+02  0.51100000000E-03 0.  1.
         23    2    1    2    0    0 -0.35527136788E-14  0.35527136788E-14  0.00000000000E+00  0.91188000000E+02  0.91188000000E+02 0.  0.
    9900012    2    3    3    0    0  0.22477837934E+02 -0.28950787783E+02 -0.35184304670E+01  0.54367073011E+02  0.39999974542E+02 0.  0.
         12    1    3    3    0    0 -0.22477837934E+02  0.28950787783E+02  0.35184304670E+01  0.36820926989E+02  0.00000000000E+00 0. -1.
         11    1    4    4    0    0  0.97571084730E+01 -0.30345487665E+01 -0.73116468991E+01  0.12564626242E+02  0.51100000000E-03 0. -1.
        -11    1    4    4    0    0  0.22611709384E+02 -0.17503751818E+02  0.35599576797E+01  0.28815690655E+02  0.51100000000E-03 0.  1.
         12    1    4    4    0    0 -0.98909799232E+01 -0.84124871979E+01  0.23325875242E+00  0.12986756113E+02  0.00000000000E+00 0. -1.
</event>
<event>
 8    1  0.1229941E-006  0.9118800E+02  0.7816164E-02  0.1184000E+00
        -11   -1    0    0    0    0  0.00000000000E+00  0.00000000000E+00  0.45593999997E+02  0.45594000000E+02  0.51100000000E-03 0. -1.
         11   -1    0    0    0    0 -0.00000000000E+00 -0.00000000000E+00 -0.45593999997E+02  0.45594000000E+02  0.51100000000E-03 0.  1.
         23    2    1    2    0    0  0.00000000000E+00 -0.17763568394E-14  0.00000000000E+00  0.91188000000E+02  0.91188000000E+02 0.  0.
    9900012    2    3    3    0    0  0.29758484351E+02 -0.86315743054E+01  0.19892408697E+02  0.54367090320E+02  0.40000014003E+02 0.  0.
        -12    1    3    3    0    0 -0.29758484351E+02  0.86315743054E+01 -0.19892408697E+02  0.36820909680E+02  0.00000000000E+00 0.  1.
         11    1    4    4    0    0  0.40297421287E+01  0.10449893366E+01  0.85086513803E+01  0.94724850440E+01  0.51100000000E-03 0. -1.
        -11    1    4    4    0    0  0.24724108523E+02 -0.20596641762E+02  0.62258768523E+01  0.32775978048E+02  0.51100000000E-03 0.  1.
         12    1    4    4    0    0  0.10046336997E+01  0.10920078120E+02  0.51578804644E+01  0.12118627229E+02  0.00000000000E+00 0. -1.
</event>
<event>
 8    1  0.1229941E-006  0.9118800E+02  0.7816164E-02  0.1184000E+00
        -11   -1    0    0    0    0  0.00000000000E+00  0.00000000000E+00  0.45593999997E+02  0.45594000000E+02  0.51100000000E-03 0.  1.
         11   -1    0    0    0    0 -0.00000000000E+00 -0.00000000000E+00 -0.45593999997E+02  0.45594000000E+02  0.51100000000E-03 0. -1.
         23    2    1    2    0    0  0.00000000000E+00  0.00000000000E+00  0.00000000000E+00  0.91188000000E+02  0.91188000000E+02 0.  0.
    9900012    2    3    3    0    0 -0.32251124292E+02  0.71589989566E+01 -0.16260257606E+02  0.54367051322E+02  0.39999925099E+02 0.  0.
        -12    1    3    3    0    0  0.32251124292E+02 -0.71589989566E+01  0.16260257606E+02  0.36820948678E+02  0.00000000000E+00 0.  1.
         11    1    4    4    0    0 -0.19688742580E+02  0.10126586948E+02 -0.81999428486E+01  0.23610027755E+02  0.51100000000E-03 0. -1.
        -11    1    4    4    0    0 -0.52304018890E+01  0.10369316821E+02 -0.10113044201E+02  0.15399788912E+02  0.51100000000E-03 0.  1.
         12    1    4    4    0    0 -0.73319798224E+01 -0.13336904812E+02  0.20527294441E+01  0.15357234655E+02  0.00000000000E+00 0. -1.
</event>
<event>
 8    1  0.1229941E-006  0.9118800E+02  0.7816164E-02  0.1184000E+00
        -11   -1    0    0    0    0  0.00000000000E+00  0.00000000000E+00  0.45593999997E+02  0.45594000000E+02  0.51100000000E-03 0.  1.
         11   -1    0    0    0    0 -0.00000000000E+00 -0.00000000000E+00 -0.45593999997E+02  0.45594000000E+02  0.51100000000E-03 0. -1.
         23    2    1    2    0    0  0.17763568394E-14  0.71054273576E-14  0.88817841970E-15  0.91188000000E+02  0.91188000000E+02 0.  0.
    9900012    2    3    3    0    0  0.85631354775E+01 -0.35559767591E+02 -0.42370015879E+01  0.54367128979E+02  0.40000102132E+02 0.  0.
        -12    1    3    3    0    0 -0.85631354775E+01  0.35559767591E+02  0.42370015879E+01  0.36820871021E+02  0.00000000000E+00 0.  1.
         11    1    4    4    0    0 -0.92921116203E+01 -0.26141086233E+02 -0.45196086614E+01  0.28109190499E+02  0.51100000000E-03 0. -1.
        -11    1    4    4    0    0  0.93703777556E+00  0.36921617796E+01  0.27703810200E+01  0.47101071810E+01  0.51100000000E-03 0.  1.
         12    1    4    4    0    0  0.16918209322E+02 -0.13110843137E+02 -0.24877739465E+01  0.21547831298E+02  0.00000000000E+00 0. -1.
</event>
<event>
 8    1  0.1229941E-006  0.9118800E+02  0.7816164E-02  0.1184000E+00
        -11   -1    0    0    0    0  0.00000000000E+00  0.00000000000E+00  0.45593999997E+02  0.45594000000E+02  0.51100000000E-03 0.  1.
         11   -1    0    0    0    0 -0.00000000000E+00 -0.00000000000E+00 -0.45593999997E+02  0.45594000000E+02  0.51100000000E-03 0. -1.
         23    2    1    2    0    0  0.00000000000E+00  0.17763568394E-14 -0.88817841970E-15  0.91188000000E+02  0.91188000000E+02 0.  0.
    9900012    2    3    3    0    0 -0.35851022164E+02 -0.45982054991E+01  0.70243025200E+01  0.54367080540E+02  0.39999991706E+02 0.  0.
         12    1    3    3    0    0  0.35851022164E+02  0.45982054991E+01 -0.70243025200E+01  0.36820919460E+02  0.00000000000E+00 0. -1.
         11    1    4    4    0    0 -0.22475936431E+02  0.32952484257E+01  0.70130639329E+01  0.23774133982E+02  0.51100000000E-03 0. -1.
        -11    1    4    4    0    0 -0.26268596284E+01 -0.19767397059E+01  0.12595531891E+02  0.13017500346E+02  0.51100000000E-03 0.  1.
         12    1    4    4    0    0 -0.10748226105E+02 -0.59167142189E+01 -0.12584293304E+02  0.17575446211E+02  0.00000000000E+00 0. -1.
</event>
<event>
 8    1  0.1229941E-006  0.9118800E+02  0.7816164E-02  0.1184000E+00
        -11   -1    0    0    0    0  0.00000000000E+00  0.00000000000E+00  0.45593999997E+02  0.45594000000E+02  0.51100000000E-03 0.  1.
         11   -1    0    0    0    0 -0.00000000000E+00 -0.00000000000E+00 -0.45593999997E+02  0.45594000000E+02  0.51100000000E-03 0. -1.
         23    2    1    2    0    0 -0.35527136788E-14  0.00000000000E+00  0.00000000000E+00  0.91188000000E+02  0.91188000000E+02 0.  0.
    9900012    2    3    3    0    0 -0.28683210566E+02 -0.20487486637E+02 -0.10645005491E+02  0.54367084490E+02  0.40000000713E+02 0.  0.
        -12    1    3    3    0    0  0.28683210566E+02  0.20487486637E+02  0.10645005491E+02  0.36820915510E+02  0.00000000000E+00 0.  1.
         11    1    4    4    0    0  0.51025242694E+01 -0.45512978649E+01  0.50859147191E+00  0.68562913970E+01  0.51100000000E-03 0. -1.
        -11    1    4    4    0    0 -0.82177403750E+01  0.15149616598E+01  0.76184429416E+01  0.11307830863E+02  0.51100000000E-03 0.  1.
         12    1    4    4    0    0 -0.25567994460E+02 -0.17451150432E+02 -0.18772039905E+02  0.36202962231E+02  0.00000000000E+00 0. -1.
</event>
<event>
 8    1  0.1229941E-006  0.9118800E+02  0.7816164E-02  0.1184000E+00
        -11   -1    0    0    0    0  0.00000000000E+00  0.00000000000E+00  0.45593999997E+02  0.45594000000E+02  0.51100000000E-03 0.  1.
         11   -1    0    0    0    0 -0.00000000000E+00 -0.00000000000E+00 -0.45593999997E+02  0.45594000000E+02  0.51100000000E-03 0. -1.
         23    2    1    2    0    0 -0.44408920985E-15  0.00000000000E+00 -0.71054273576E-14  0.91188000000E+02  0.91188000000E+02 0.  0.
    9900012    2    3    3    0    0  0.28927965671E+01 -0.16276488607E+02  0.32901180408E+02  0.54367081685E+02  0.39999994317E+02 0.  0.
         12    1    3    3    0    0 -0.28927965671E+01  0.16276488607E+02 -0.32901180408E+02  0.36820918315E+02  0.00000000000E+00 0. -1.
         11    1    4    4    0    0  0.11790757334E+02 -0.81080276741E+01 -0.16177506070E+01  0.14400666254E+02  0.51100000000E-03 0.  1.
        -11    1    4    4    0    0 -0.15988579329E+01  0.25387331700E+01  0.21098979777E+02  0.21311228512E+02  0.51100000000E-03 0. -1.
        -12    1    4    4    0    0 -0.72991028342E+01 -0.10707194103E+02  0.13419951237E+02  0.18655186919E+02  0.00000000000E+00 0.  1.
</event>
<event>
 8    1  0.1229941E-006  0.9118800E+02  0.7816164E-02  0.1184000E+00
        -11   -1    0    0    0    0  0.00000000000E+00  0.00000000000E+00  0.45593999997E+02  0.45594000000E+02  0.51100000000E-03 0.  1.
         11   -1    0    0    0    0 -0.00000000000E+00 -0.00000000000E+00 -0.45593999997E+02  0.45594000000E+02  0.51100000000E-03 0. -1.
         23    2    1    2    0    0  0.00000000000E+00  0.00000000000E+00 -0.22204460493E-15  0.91188000000E+02  0.91188000000E+02 0.  0.
    9900012    2    3    3    0    0 -0.36550399682E+02 -0.42689325275E+01  0.12740862959E+01  0.54367098358E+02  0.40000032326E+02 0.  0.
         12    1    3    3    0    0  0.36550399682E+02  0.42689325275E+01 -0.12740862959E+01  0.36820901642E+02  0.00000000000E+00 0. -1.
         11    1    4    4    0    0 -0.85146227864E+01  0.14330533944E+01 -0.49626343178E+01  0.99589247843E+01  0.51100000000E-03 0.  1.
        -11    1    4    4    0    0 -0.32611709023E+02 -0.10277099363E+02 -0.16184639621E+01  0.34231005866E+02  0.51100000000E-03 0. -1.
        -12    1    4    4    0    0  0.45759321273E+01  0.45751134412E+01  0.78551845758E+01  0.10177167708E+02  0.00000000000E+00 0.  1.
</event>
<event>
 8    1  0.1229941E-006  0.9118800E+02  0.7816164E-02  0.1184000E+00
        -11   -1    0    0    0    0  0.00000000000E+00  0.00000000000E+00  0.45593999997E+02  0.45594000000E+02  0.51100000000E-03 0. -1.
         11   -1    0    0    0    0 -0.00000000000E+00 -0.00000000000E+00 -0.45593999997E+02  0.45594000000E+02  0.51100000000E-03 0.  1.
         23    2    1    2    0    0  0.71054273576E-14 -0.88817841970E-15  0.00000000000E+00  0.91188000000E+02  0.91188000000E+02 0.  0.
    9900012    2    3    3    0    0  0.33393961865E+02  0.71102440685E+01 -0.13786476517E+02  0.54367092970E+02  0.40000020045E+02 0.  0.
        -12    1    3    3    0    0 -0.33393961865E+02 -0.71102440685E+01  0.13786476517E+02  0.36820907030E+02  0.00000000000E+00 0.  1.
         11    1    4    4    0    0  0.13386539285E+02 -0.76154327068E+01  0.40917793658E+01  0.15935397955E+02  0.51100000000E-03 0. -1.
        -11    1    4    4    0    0  0.22071246177E+02  0.18551444619E+02 -0.12266074892E+02  0.31332931538E+02  0.51100000000E-03 0.  1.
        -12    1    4    4    0    0 -0.20638235974E+01 -0.38257678437E+01 -0.56121809906E+01  0.70987634773E+01  0.00000000000E+00 0.  1.
</event>
<event>
 8    1  0.1229941E-006  0.9118800E+02  0.7816164E-02  0.1184000E+00
        -11   -1    0    0    0    0  0.00000000000E+00  0.00000000000E+00  0.45593999997E+02  0.45594000000E+02  0.51100000000E-03 0. -1.
         11   -1    0    0    0    0 -0.00000000000E+00 -0.00000000000E+00 -0.45593999997E+02  0.45594000000E+02  0.51100000000E-03 0.  1.
         23    2    1    2    0    0  0.00000000000E+00 -0.35527136788E-14 -0.35527136788E-14  0.91188000000E+02  0.91188000000E+02 0.  0.
    9900012    2    3    3    0    0  0.17012437218E+02 -0.19405341420E+02 -0.26263906527E+02  0.54367040184E+02  0.39999899707E+02 0.  0.
         12    1    3    3    0    0 -0.17012437218E+02  0.19405341420E+02  0.26263906527E+02  0.36820959816E+02  0.00000000000E+00 0. -1.
         11    1    4    4    0    0 -0.24250074722E+01 -0.16857410604E+02 -0.11133414927E+02  0.20347134484E+02  0.51100000000E-03 0. -1.
        -11    1    4    4    0    0  0.11662730927E+02 -0.86881378531E+01 -0.18521304769E+02  0.23548710424E+02  0.51100000000E-03 0.  1.
         12    1    4    4    0    0  0.77747137633E+01  0.61402070367E+01  0.33908131692E+01  0.10471195276E+02  0.00000000000E+00 0. -1.
</event>
<event>
 8    1  0.1229941E-006  0.9118800E+02  0.7816164E-02  0.1184000E+00
        -11   -1    0    0    0    0  0.00000000000E+00  0.00000000000E+00  0.45593999997E+02  0.45594000000E+02  0.51100000000E-03 0. -1.
         11   -1    0    0    0    0 -0.00000000000E+00 -0.00000000000E+00 -0.45593999997E+02  0.45594000000E+02  0.51100000000E-03 0.  1.
         23    2    1    2    0    0  0.17763568394E-14  0.00000000000E+00  0.00000000000E+00  0.91188000000E+02  0.91188000000E+02 0.  0.
    9900012    2    3    3    0    0 -0.13017735471E+02 -0.24092242161E+02  0.24614676914E+02  0.54367083543E+02  0.39999998553E+02 0.  0.
        -12    1    3    3    0    0  0.13017735471E+02  0.24092242161E+02 -0.24614676914E+02  0.36820916457E+02  0.00000000000E+00 0.  1.
         11    1    4    4    0    0 -0.20954030256E+02 -0.20831434400E+02  0.18245256369E+02  0.34726206579E+02  0.51100000000E-03 0. -1.
        -11    1    4    4    0    0  0.78922658608E+01 -0.69943243302E+01  0.99275282932E+01  0.14483240367E+02  0.51100000000E-03 0.  1.
         12    1    4    4    0    0  0.44028924460E-01  0.37335165696E+01 -0.35581077477E+01  0.51576365969E+01  0.00000000000E+00 0. -1.
</event>
<event>
 8    1  0.1229941E-006  0.9118800E+02  0.7816164E-02  0.1184000E+00
        -11   -1    0    0    0    0  0.00000000000E+00  0.00000000000E+00  0.45593999997E+02  0.45594000000E+02  0.51100000000E-03 0. -1.
         11   -1    0    0    0    0 -0.00000000000E+00 -0.00000000000E+00 -0.45593999997E+02  0.45594000000E+02  0.51100000000E-03 0.  1.
         23    2    1    2    0    0 -0.88817841970E-15  0.44408920985E-15  0.00000000000E+00  0.91188000000E+02  0.91188000000E+02 0.  0.
    9900012    2    3    3    0    0 -0.43816524914E+01  0.32251568892E+01  0.36416747279E+02  0.54367082061E+02  0.39999995174E+02 0.  0.
        -12    1    3    3    0    0  0.43816524914E+01 -0.32251568892E+01 -0.36416747279E+02  0.36820917939E+02  0.00000000000E+00 0.  1.
         11    1    4    4    0    0 -0.56785696804E+01 -0.82073439760E+01  0.10471920298E+02  0.14466090133E+02  0.51100000000E-03 0. -1.
        -11    1    4    4    0    0 -0.73106210427E+01 -0.19260682235E+01 -0.19406414182E+01  0.78051911064E+01  0.51100000000E-03 0.  1.
        -12    1    4    4    0    0  0.86075382317E+01  0.13358569089E+02  0.27885468399E+02  0.32095800821E+02  0.00000000000E+00 0.  1.
</event>
<event>
 8    1  0.1229941E-006  0.9118800E+02  0.7816164E-02  0.1184000E+00
        -11   -1    0    0    0    0  0.00000000000E+00  0.00000000000E+00  0.45593999997E+02  0.45594000000E+02  0.51100000000E-03 0.  1.
         11   -1    0    0    0    0 -0.00000000000E+00 -0.00000000000E+00 -0.45593999997E+02  0.45594000000E+02  0.51100000000E-03 0. -1.
         23    2    1    2    0    0 -0.17763568394E-14  0.71054273576E-14  0.88817841970E-15  0.91188000000E+02  0.91188000000E+02 0.  0.
    9900012    2    3    3    0    0  0.11717072341E+02  0.34601297620E+02 -0.46087712783E+01  0.54367077226E+02  0.39999984153E+02 0.  0.
        -12    1    3    3    0    0 -0.11717072341E+02 -0.34601297620E+02  0.46087712783E+01  0.36820922774E+02  0.00000000000E+00 0.  1.
         11    1    4    4    0    0  0.83151725677E+00 -0.94526642132E+00  0.12422652400E+01  0.17686641126E+01  0.51100000000E-03 0.  1.
        -11    1    4    4    0    0  0.80837730805E+01  0.41266901458E+02  0.24648436832E+01  0.42123390151E+02  0.51100000000E-03 0. -1.
         12    1    4    4    0    0  0.28017820033E+01 -0.57203374166E+01 -0.83158802015E+01  0.10475022963E+02  0.00000000000E+00 0. -1.
</event>
<event>
 8    1  0.1229941E-006  0.9118800E+02  0.7816164E-02  0.1184000E+00
        -11   -1    0    0    0    0  0.00000000000E+00  0.00000000000E+00  0.45593999997E+02  0.45594000000E+02  0.51100000000E-03 0. -1.
         11   -1    0    0    0    0 -0.00000000000E+00 -0.00000000000E+00 -0.45593999997E+02  0.45594000000E+02  0.51100000000E-03 0.  1.
         23    2    1    2    0    0  0.00000000000E+00 -0.71054273576E-14  0.00000000000E+00  0.91188000000E+02  0.91188000000E+02 0.  0.
    9900012    2    3    3    0    0 -0.14547162791E+02  0.33091536140E+02  0.70077872494E+01  0.54367098443E+02  0.40000032520E+02 0.  0.
        -12    1    3    3    0    0  0.14547162791E+02 -0.33091536140E+02 -0.70077872494E+01  0.36820901557E+02  0.00000000000E+00 0.  1.
         11    1    4    4    0    0  0.41784492394E+01 -0.41831142958E+01 -0.40816399821E+01  0.71845437199E+01  0.51100000000E-03 0.  1.
        -11    1    4    4    0    0  0.25769371160E+01  0.11298686859E+02 -0.62271397460E+00  0.11605546200E+02  0.51100000000E-03 0. -1.
         12    1    4    4    0    0 -0.21302549146E+02  0.25975963577E+02  0.11712141206E+02  0.35577008524E+02  0.00000000000E+00 0. -1.
</event>
<event>
 8    1  0.1229941E-006  0.9118800E+02  0.7816164E-02  0.1184000E+00
        -11   -1    0    0    0    0  0.00000000000E+00  0.00000000000E+00  0.45593999997E+02  0.45594000000E+02  0.51100000000E-03 0.  1.
         11   -1    0    0    0    0 -0.00000000000E+00 -0.00000000000E+00 -0.45593999997E+02  0.45594000000E+02  0.51100000000E-03 0. -1.
         23    2    1    2    0    0 -0.71054273576E-14  0.00000000000E+00 -0.35527136788E-14  0.91188000000E+02  0.91188000000E+02 0.  0.
    9900012    2    3    3    0    0  0.30142031925E+02  0.11360784642E+02  0.17837165869E+02  0.54367163474E+02  0.40000180772E+02 0.  0.
         12    1    3    3    0    0 -0.30142031925E+02 -0.11360784642E+02 -0.17837165869E+02  0.36820836526E+02  0.00000000000E+00 0. -1.
         11    1    4    4    0    0  0.70917482038E+01  0.36363092451E+01 -0.72097485212E+01  0.10746911720E+02  0.51100000000E-03 0. -1.
        -11    1    4    4    0    0  0.93421537753E+01 -0.55133601741E+01 -0.14902020414E+01  0.10949597251E+02  0.51100000000E-03 0.  1.
        -12    1    4    4    0    0  0.13708129946E+02  0.13237835571E+02  0.26537116431E+02  0.32670654504E+02  0.00000000000E+00 0.  1.
</event>
<event>
 8    1  0.1229941E-006  0.9118800E+02  0.7816164E-02  0.1184000E+00
        -11   -1    0    0    0    0  0.00000000000E+00  0.00000000000E+00  0.45593999997E+02  0.45594000000E+02  0.51100000000E-03 0.  1.
         11   -1    0    0    0    0 -0.00000000000E+00 -0.00000000000E+00 -0.45593999997E+02  0.45594000000E+02  0.51100000000E-03 0. -1.
         23    2    1    2    0    0  0.00000000000E+00  0.00000000000E+00  0.00000000000E+00  0.91188000000E+02  0.91188000000E+02 0.  0.
    9900012    2    3    3    0    0  0.26578528618E+02 -0.20219242358E+02 -0.15509430755E+02  0.54367103931E+02  0.40000045030E+02 0.  0.
         12    1    3    3    0    0 -0.26578528618E+02  0.20219242358E+02  0.15509430755E+02  0.36820896069E+02  0.00000000000E+00 0. -1.
         11    1    4    4    0    0  0.19927132348E+02 -0.18209365504E+02 -0.25785844446E+02  0.37330702776E+02  0.51100000000E-03 0.  1.
        -11    1    4    4    0    0  0.80552326782E+01 -0.52520216518E+01  0.92843450273E+01  0.13366733624E+02  0.51100000000E-03 0. -1.
         12    1    4    4    0    0 -0.14038364088E+01  0.32421447972E+01  0.99206866447E+00  0.36696675304E+01  0.00000000000E+00 0. -1.
</event>
<event>
 8    1  0.1229941E-006  0.9118800E+02  0.7816164E-02  0.1184000E+00
        -11   -1    0    0    0    0  0.00000000000E+00  0.00000000000E+00  0.45593999997E+02  0.45594000000E+02  0.51100000000E-03 0.  1.
         11   -1    0    0    0    0 -0.00000000000E+00 -0.00000000000E+00 -0.45593999997E+02  0.45594000000E+02  0.51100000000E-03 0. -1.
         23    2    1    2    0    0  0.00000000000E+00  0.00000000000E+00  0.00000000000E+00  0.91188000000E+02  0.91188000000E+02 0.  0.
    9900012    2    3    3    0    0 -0.22659512151E+02 -0.22813712823E+01 -0.28933050527E+02  0.54367088025E+02  0.40000008771E+02 0.  0.
        -12    1    3    3    0    0  0.22659512151E+02  0.22813712823E+01  0.28933050527E+02  0.36820911975E+02  0.00000000000E+00 0.  1.
         11    1    4    4    0    0  0.32640017870E+01  0.35822014265E+01 -0.10252604196E+02  0.11340271945E+02  0.51100000000E-03 0. -1.
        -11    1    4    4    0    0 -0.20720523925E+01 -0.11267659581E+02 -0.14062614146E+02  0.18138651285E+02  0.51100000000E-03 0.  1.
         12    1    4    4    0    0 -0.23851461545E+02  0.54040868722E+01 -0.46178321854E+01  0.24888164795E+02  0.00000000000E+00 0. -1.
</event>
<event>
 8    1  0.1229941E-006  0.9118800E+02  0.7816164E-02  0.1184000E+00
        -11   -1    0    0    0    0  0.00000000000E+00  0.00000000000E+00  0.45593999997E+02  0.45594000000E+02  0.51100000000E-03 0. -1.
         11   -1    0    0    0    0 -0.00000000000E+00 -0.00000000000E+00 -0.45593999997E+02  0.45594000000E+02  0.51100000000E-03 0.  1.
         23    2    1    2    0    0  0.00000000000E+00  0.00000000000E+00  0.00000000000E+00  0.91188000000E+02  0.91188000000E+02 0.  0.
    9900012    2    3    3    0    0  0.18306059108E+02 -0.21104544654E+02 -0.23984717098E+02  0.54367078510E+02  0.39999987079E+02 0.  0.
         12    1    3    3    0    0 -0.18306059108E+02  0.21104544654E+02  0.23984717098E+02  0.36820921490E+02  0.00000000000E+00 0. -1.
         11    1    4    4    0    0 -0.10275512309E+01 -0.15076824376E+02 -0.11502055753E+02  0.18991150087E+02  0.51100000000E-03 0.  1.
        -11    1    4    4    0    0 -0.27387758729E+01  0.68995464911E+01 -0.39641589295E+01  0.84154139140E+01  0.51100000000E-03 0. -1.
         12    1    4    4    0    0  0.22072386212E+02 -0.12927266768E+02 -0.85185024158E+01  0.26960514509E+02  0.00000000000E+00 0. -1.
</event>
<event>
 8    1  0.1229941E-006  0.9118800E+02  0.7816164E-02  0.1184000E+00
        -11   -1    0    0    0    0  0.00000000000E+00  0.00000000000E+00  0.45593999997E+02  0.45594000000E+02  0.51100000000E-03 0. -1.
         11   -1    0    0    0    0 -0.00000000000E+00 -0.00000000000E+00 -0.45593999997E+02  0.45594000000E+02  0.51100000000E-03 0.  1.
         23    2    1    2    0    0 -0.12212453271E-14  0.00000000000E+00  0.00000000000E+00  0.91188000000E+02  0.91188000000E+02 0.  0.
    9900012    2    3    3    0    0 -0.90126031894E+00 -0.15535986225E+02 -0.33370663206E+02  0.54367077945E+02  0.39999985791E+02 0.  0.
         12    1    3    3    0    0  0.90126031894E+00  0.15535986225E+02  0.33370663206E+02  0.36820922055E+02  0.00000000000E+00 0. -1.
         11    1    4    4    0    0  0.46229865203E+01  0.33090787563E+01 -0.51130302156E+01  0.76462464536E+01  0.51100000000E-03 0. -1.
        -11    1    4    4    0    0 -0.83531830737E+01 -0.27118823371E+02 -0.20213656793E+02  0.34839606337E+02  0.51100000000E-03 0.  1.
        -12    1    4    4    0    0  0.28289362345E+01  0.82737583894E+01 -0.80439761976E+01  0.11881225154E+02  0.00000000000E+00 0.  1.
</event>
<event>
 8    1  0.1229941E-006  0.9118800E+02  0.7816164E-02  0.1184000E+00
        -11   -1    0    0    0    0  0.00000000000E+00  0.00000000000E+00  0.45593999997E+02  0.45594000000E+02  0.51100000000E-03 0.  1.
         11   -1    0    0    0    0 -0.00000000000E+00 -0.00000000000E+00 -0.45593999997E+02  0.45594000000E+02  0.51100000000E-03 0. -1.
         23    2    1    2    0    0  0.00000000000E+00 -0.17763568394E-14  0.00000000000E+00  0.91188000000E+02  0.91188000000E+02 0.  0.
    9900012    2    3    3    0    0  0.33090781874E+02  0.15377095747E+02  0.49319624599E+01  0.54367093271E+02  0.40000020731E+02 0.  0.
         12    1    3    3    0    0 -0.33090781874E+02 -0.15377095747E+02 -0.49319624599E+01  0.36820906729E+02  0.00000000000E+00 0. -1.
         11    1    4    4    0    0  0.24191238539E+02  0.99458863196E+01 -0.41766014894E+01  0.26487368253E+02  0.51100000000E-03 0. -1.
        -11    1    4    4    0    0  0.10914572234E+02  0.12648949374E+02  0.11182818436E+02  0.20104209403E+02  0.51100000000E-03 0.  1.
         12    1    4    4    0    0 -0.20150288986E+01 -0.72177399468E+01 -0.20742544863E+01  0.77755156148E+01  0.00000000000E+00 0. -1.
</event>
<event>
 8    1  0.1229941E-006  0.9118800E+02  0.7816164E-02  0.1184000E+00
        -11   -1    0    0    0    0  0.00000000000E+00  0.00000000000E+00  0.45593999997E+02  0.45594000000E+02  0.51100000000E-03 0. -1.
         11   -1    0    0    0    0 -0.00000000000E+00 -0.00000000000E+00 -0.45593999997E+02  0.45594000000E+02  0.51100000000E-03 0.  1.
         23    2    1    2    0    0 -0.88817841970E-15  0.00000000000E+00  0.35527136788E-14  0.91188000000E+02  0.91188000000E+02 0.  0.
    9900012    2    3    3    0    0  0.57570798090E+01 -0.25846087953E+02 -0.25585490336E+02  0.54367061037E+02  0.39999947246E+02 0.  0.
         12    1    3    3    0    0 -0.57570798090E+01  0.25846087953E+02  0.25585490336E+02  0.36820938963E+02  0.00000000000E+00 0. -1.
         11    1    4    4    0    0  0.24680442168E+01  0.41644576710E+01  0.56195644955E+01  0.74171055897E+01  0.51100000000E-03 0. -1.
        -11    1    4    4    0    0  0.46220288248E+01 -0.13939324929E+01 -0.10643414818E+02  0.11687107320E+02  0.51100000000E-03 0.  1.
        -12    1    4    4    0    0 -0.13329932326E+01 -0.28616613131E+02 -0.20561640013E+02  0.35262848127E+02  0.00000000000E+00 0.  1.
</event>
<event>
 8    1  0.1229941E-006  0.9118800E+02  0.7816164E-02  0.1184000E+00
        -11   -1    0    0    0    0  0.00000000000E+00  0.00000000000E+00  0.45593999997E+02  0.45594000000E+02  0.51100000000E-03 0. -1.
         11   -1    0    0    0    0 -0.00000000000E+00 -0.00000000000E+00 -0.45593999997E+02  0.45594000000E+02  0.51100000000E-03 0.  1.
         23    2    1    2    0    0  0.00000000000E+00  0.17763568394E-14  0.00000000000E+00  0.91188000000E+02  0.91188000000E+02 0.  0.
    9900012    2    3    3    0    0 -0.10846697617E+02 -0.14630242680E+02  0.32001334076E+02  0.54367078872E+02  0.39999987905E+02 0.  0.
        -12    1    3    3    0    0  0.10846697617E+02  0.14630242680E+02 -0.32001334076E+02  0.36820921128E+02  0.00000000000E+00 0.  1.
         11    1    4    4    0    0 -0.17141376387E+01 -0.24518618843E+02  0.16384117987E+02  0.29538792465E+02  0.51100000000E-03 0. -1.
        -11    1    4    4    0    0 -0.36657432200E+01  0.79065905200E+01  0.61287932835E+00  0.87365592963E+01  0.51100000000E-03 0.  1.
         12    1    4    4    0    0 -0.54668167582E+01  0.19817856430E+01  0.15004336760E+02  0.16091727111E+02  0.00000000000E+00 0. -1.
</event>
<event>
 8    1  0.1229941E-006  0.9118800E+02  0.7816164E-02  0.1184000E+00
        -11   -1    0    0    0    0  0.00000000000E+00  0.00000000000E+00  0.45593999997E+02  0.45594000000E+02  0.51100000000E-03 0.  1.
         11   -1    0    0    0    0 -0.00000000000E+00 -0.00000000000E+00 -0.45593999997E+02  0.45594000000E+02  0.51100000000E-03 0. -1.
         23    2    1    2    0    0 -0.17763568394E-14  0.00000000000E+00  0.00000000000E+00  0.91188000000E+02  0.91188000000E+02 0.  0.
    9900012    2    3    3    0    0 -0.13005066434E+02  0.16491178397E+02  0.30243828150E+02  0.54367083946E+02  0.39999999471E+02 0.  0.
         12    1    3    3    0    0  0.13005066434E+02 -0.16491178397E+02 -0.30243828150E+02  0.36820916054E+02  0.00000000000E+00 0. -1.
         11    1    4    4    0    0  0.93152669777E+01  0.23467733534E+01  0.16543838105E+01  0.97477448721E+01  0.51100000000E-03 0. -1.
        -11    1    4    4    0    0 -0.25300165789E+02  0.67693808275E+01  0.23407969064E+02  0.35126285339E+02  0.51100000000E-03 0.  1.
        -12    1    4    4    0    0  0.29798323771E+01  0.73750242161E+01  0.51814752758E+01  0.94930537351E+01  0.00000000000E+00 0.  1.
</event>
<event>
 8    1  0.1229941E-006  0.9118800E+02  0.7816164E-02  0.1184000E+00
        -11   -1    0    0    0    0  0.00000000000E+00  0.00000000000E+00  0.45593999997E+02  0.45594000000E+02  0.51100000000E-03 0.  1.
         11   -1    0    0    0    0 -0.00000000000E+00 -0.00000000000E+00 -0.45593999997E+02  0.45594000000E+02  0.51100000000E-03 0. -1.
         23    2    1    2    0    0  0.00000000000E+00 -0.88817841970E-15  0.88817841970E-15  0.91188000000E+02  0.91188000000E+02 0.  0.
    9900012    2    3    3    0    0  0.35664276950E+02 -0.61072888721E+01  0.68220950827E+01  0.54367073762E+02  0.39999976254E+02 0.  0.
         12    1    3    3    0    0 -0.35664276950E+02  0.61072888721E+01 -0.68220950827E+01  0.36820926238E+02  0.00000000000E+00 0. -1.
         11    1    4    4    0    0  0.14486626253E+02 -0.54707739328E+01  0.16730521666E+01  0.15575327009E+02  0.51100000000E-03 0. -1.
        -11    1    4    4    0    0  0.27364526232E+02 -0.82369082823E+01  0.48575834920E+01  0.28987239807E+02  0.51100000000E-03 0.  1.
        -12    1    4    4    0    0 -0.61868755354E+01  0.76003933430E+01  0.29145942405E+00  0.98045069460E+01  0.00000000000E+00 0.  1.
</event>
<event>
 8    1  0.1229941E-006  0.9118800E+02  0.7816164E-02  0.1184000E+00
        -11   -1    0    0    0    0  0.00000000000E+00  0.00000000000E+00  0.45593999997E+02  0.45594000000E+02  0.51100000000E-03 0.  1.
         11   -1    0    0    0    0 -0.00000000000E+00 -0.00000000000E+00 -0.45593999997E+02  0.45594000000E+02  0.51100000000E-03 0. -1.
         23    2    1    2    0    0  0.00000000000E+00  0.35527136788E-14  0.00000000000E+00  0.91188000000E+02  0.91188000000E+02 0.  0.
    9900012    2    3    3    0    0 -0.81294809519E+01  0.26894733510E+02 -0.23798440993E+02  0.54367069202E+02  0.39999965860E+02 0.  0.
        -12    1    3    3    0    0  0.81294809519E+01 -0.26894733510E+02  0.23798440993E+02  0.36820930798E+02  0.00000000000E+00 0.  1.
         11    1    4    4    0    0  0.11430462191E+02  0.90758128644E+01  0.13804288960E+01  0.14660539869E+02  0.51100000000E-03 0. -1.
        -11    1    4    4    0    0 -0.12754522134E+02  0.10519468451E+02 -0.51289380285E+01  0.17310200949E+02  0.51100000000E-03 0.  1.
        -12    1    4    4    0    0 -0.68054210094E+01  0.72994521949E+01 -0.20049931860E+02  0.22396328384E+02  0.00000000000E+00 0.  1.
</event>
<event>
 8    1  0.1229941E-006  0.9118800E+02  0.7816164E-02  0.1184000E+00
        -11   -1    0    0    0    0  0.00000000000E+00  0.00000000000E+00  0.45593999997E+02  0.45594000000E+02  0.51100000000E-03 0. -1.
         11   -1    0    0    0    0 -0.00000000000E+00 -0.00000000000E+00 -0.45593999997E+02  0.45594000000E+02  0.51100000000E-03 0.  1.
         23    2    1    2    0    0  0.00000000000E+00 -0.17763568394E-14 -0.88817841970E-15  0.91188000000E+02  0.91188000000E+02 0.  0.
    9900012    2    3    3    0    0  0.34046367147E+02  0.11949634644E+02 -0.73370175460E+01  0.54367072384E+02  0.39999973114E+02 0.  0.
        -12    1    3    3    0    0 -0.34046367147E+02 -0.11949634644E+02  0.73370175460E+01  0.36820927616E+02  0.00000000000E+00 0.  1.
         11    1    4    4    0    0  0.21462151614E+02  0.20905156905E+02  0.64271718707E+01  0.30642422810E+02  0.51100000000E-03 0. -1.
        -11    1    4    4    0    0  0.10910652740E+02 -0.11306079512E+02 -0.88692579278E+01  0.18042547314E+02  0.51100000000E-03 0.  1.
         12    1    4    4    0    0  0.16735627928E+01  0.23505572504E+01 -0.48949314889E+01  0.56821022598E+01  0.00000000000E+00 0. -1.
</event>
<event>
 8    1  0.1229941E-006  0.9118800E+02  0.7816164E-02  0.1184000E+00
        -11   -1    0    0    0    0  0.00000000000E+00  0.00000000000E+00  0.45593999997E+02  0.45594000000E+02  0.51100000000E-03 0.  1.
         11   -1    0    0    0    0 -0.00000000000E+00 -0.00000000000E+00 -0.45593999997E+02  0.45594000000E+02  0.51100000000E-03 0. -1.
         23    2    1    2    0    0  0.35527136788E-14  0.35527136788E-14 -0.17763568394E-14  0.91188000000E+02  0.91188000000E+02 0.  0.
    9900012    2    3    3    0    0  0.26409801480E+02  0.20176307851E+02 -0.15849877701E+02  0.54367086977E+02  0.40000006382E+02 0.  0.
        -12    1    3    3    0    0 -0.26409801480E+02 -0.20176307851E+02  0.15849877701E+02  0.36820913023E+02  0.00000000000E+00 0.  1.
         11    1    4    4    0    0  0.33830838773E+01  0.23579512309E+02  0.43565865583E-01  0.23821010800E+02  0.51100000000E-03 0.  1.
        -11    1    4    4    0    0  0.13984775875E+02 -0.39216290153E+01 -0.30672138931E+01  0.14844558994E+02  0.51100000000E-03 0. -1.
        -12    1    4    4    0    0  0.90419417275E+01  0.51842455722E+00 -0.12826229673E+02  0.15701517183E+02  0.00000000000E+00 0.  1.
</event>
<event>
 8    1  0.1229941E-006  0.9118800E+02  0.7816164E-02  0.1184000E+00
        -11   -1    0    0    0    0  0.00000000000E+00  0.00000000000E+00  0.45593999997E+02  0.45594000000E+02  0.51100000000E-03 0.  1.
         11   -1    0    0    0    0 -0.00000000000E+00 -0.00000000000E+00 -0.45593999997E+02  0.45594000000E+02  0.51100000000E-03 0. -1.
         23    2    1    2    0    0 -0.17763568394E-14 -0.35527136788E-14  0.00000000000E+00  0.91188000000E+02  0.91188000000E+02 0.  0.
    9900012    2    3    3    0    0  0.12906179672E+02  0.26236325938E+02 -0.22380071947E+02  0.54367056329E+02  0.39999936513E+02 0.  0.
        -12    1    3    3    0    0 -0.12906179672E+02 -0.26236325938E+02  0.22380071947E+02  0.36820943671E+02  0.00000000000E+00 0.  1.
         11    1    4    4    0    0  0.15654460552E+02  0.20505854065E+02  0.74884512902E+00  0.25809164175E+02  0.51100000000E-03 0. -1.
        -11    1    4    4    0    0 -0.77274708364E+01  0.53518416744E+01 -0.71306144908E+01  0.11798376080E+02  0.51100000000E-03 0.  1.
        -12    1    4    4    0    0  0.49791899567E+01  0.37863019857E+00 -0.15998302585E+02  0.16759516075E+02  0.00000000000E+00 0.  1.
</event>
<event>
 8    1  0.1229941E-006  0.9118800E+02  0.7816164E-02  0.1184000E+00
        -11   -1    0    0    0    0  0.00000000000E+00  0.00000000000E+00  0.45593999997E+02  0.45594000000E+02  0.51100000000E-03 0.  1.
         11   -1    0    0    0    0 -0.00000000000E+00 -0.00000000000E+00 -0.45593999997E+02  0.45594000000E+02  0.51100000000E-03 0. -1.
         23    2    1    2    0    0  0.00000000000E+00  0.17763568394E-14  0.35527136788E-14  0.91188000000E+02  0.91188000000E+02 0.  0.
    9900012    2    3    3    0    0 -0.10841848561E+02 -0.15215562769E+02 -0.31728845947E+02  0.54367099743E+02  0.40000035484E+02 0.  0.
        -12    1    3    3    0    0  0.10841848561E+02  0.15215562769E+02  0.31728845947E+02  0.36820900257E+02  0.00000000000E+00 0.  1.
         11    1    4    4    0    0  0.16778634463E+00 -0.10326742779E+02 -0.84048493435E+01  0.13315827478E+02  0.51100000000E-03 0. -1.
        -11    1    4    4    0    0 -0.46476321042E+01  0.43183977343E+01  0.65687631307E+01  0.91322337079E+01  0.51100000000E-03 0.  1.
        -12    1    4    4    0    0 -0.63620028016E+01 -0.92072177246E+01 -0.29892759734E+02  0.31919038557E+02  0.00000000000E+00 0.  1.
</event>
<event>
 8    1  0.1229941E-006  0.9118800E+02  0.7816164E-02  0.1184000E+00
        -11   -1    0    0    0    0  0.00000000000E+00  0.00000000000E+00  0.45593999997E+02  0.45594000000E+02  0.51100000000E-03 0. -1.
         11   -1    0    0    0    0 -0.00000000000E+00 -0.00000000000E+00 -0.45593999997E+02  0.45594000000E+02  0.51100000000E-03 0.  1.
         23    2    1    2    0    0 -0.35527136788E-14  0.35527136788E-14  0.66613381478E-15  0.91188000000E+02  0.91188000000E+02 0.  0.
    9900012    2    3    3    0    0  0.20923245548E+02 -0.30294950208E+02  0.46152951249E+00  0.54367092599E+02  0.40000019197E+02 0.  0.
         12    1    3    3    0    0 -0.20923245548E+02  0.30294950208E+02 -0.46152951249E+00  0.36820907401E+02  0.00000000000E+00 0. -1.
         11    1    4    4    0    0  0.10747936380E+02 -0.78174339315E+01  0.31017615767E+01  0.13647392969E+02  0.51100000000E-03 0. -1.
        -11    1    4    4    0    0 -0.26077746407E+01 -0.25400298936E+02  0.42842324117E+01  0.25890738156E+02  0.51100000000E-03 0.  1.
         12    1    4    4    0    0  0.12783083809E+02  0.29227826596E+01 -0.69244644759E+01  0.14828961474E+02  0.00000000000E+00 0. -1.
</event>
<event>
 8    1  0.1229941E-006  0.9118800E+02  0.7816164E-02  0.1184000E+00
        -11   -1    0    0    0    0  0.00000000000E+00  0.00000000000E+00  0.45593999997E+02  0.45594000000E+02  0.51100000000E-03 0.  1.
         11   -1    0    0    0    0 -0.00000000000E+00 -0.00000000000E+00 -0.45593999997E+02  0.45594000000E+02  0.51100000000E-03 0. -1.
         23    2    1    2    0    0 -0.11657341759E-14 -0.41633363423E-15 -0.71054273576E-14  0.91188000000E+02  0.91188000000E+02 0.  0.
    9900012    2    3    3    0    0 -0.41690500326E+00  0.13652828282E+00 -0.36818307204E+02  0.54367079382E+02  0.39999989068E+02 0.  0.
        -12    1    3    3    0    0  0.41690500326E+00 -0.13652828282E+00  0.36818307204E+02  0.36820920618E+02  0.00000000000E+00 0.  1.
         11    1    4    4    0    0  0.11129204072E+02 -0.93131696618E+01 -0.61054823001E+01  0.15743926664E+02  0.51100000000E-03 0. -1.
        -11    1    4    4    0    0 -0.10873446238E+02 -0.76575311879E+00 -0.74380007988E+01  0.13196289898E+02  0.51100000000E-03 0.  1.
         12    1    4    4    0    0 -0.67266283720E+00  0.10215451063E+02 -0.23274824105E+02  0.25426862820E+02  0.00000000000E+00 0. -1.
</event>
<event>
 8    1  0.1229941E-006  0.9118800E+02  0.7816164E-02  0.1184000E+00
        -11   -1    0    0    0    0  0.00000000000E+00  0.00000000000E+00  0.45593999997E+02  0.45594000000E+02  0.51100000000E-03 0.  1.
         11   -1    0    0    0    0 -0.00000000000E+00 -0.00000000000E+00 -0.45593999997E+02  0.45594000000E+02  0.51100000000E-03 0. -1.
         23    2    1    2    0    0  0.17763568394E-14  0.00000000000E+00  0.00000000000E+00  0.91188000000E+02  0.91188000000E+02 0.  0.
    9900012    2    3    3    0    0 -0.11961629493E+02  0.43023477337E+01  0.34557042173E+02  0.54367082849E+02  0.39999996970E+02 0.  0.
         12    1    3    3    0    0  0.11961629493E+02 -0.43023477337E+01 -0.34557042173E+02  0.36820917151E+02  0.00000000000E+00 0. -1.
         11    1    4    4    0    0 -0.87700778093E-01  0.81546194582E+01  0.20336106441E+02  0.21910333986E+02  0.51100000000E-03 0. -1.
        -11    1    4    4    0    0 -0.71161524412E+01  0.10161613511E+02  0.12409321052E+02  0.17546773605E+02  0.51100000000E-03 0.  1.
         12    1    4    4    0    0 -0.47577762735E+01 -0.14013885235E+02  0.18116146804E+01  0.14909975258E+02  0.00000000000E+00 0. -1.
</event>
<event>
 8    1  0.1229941E-006  0.9118800E+02  0.7816164E-02  0.1184000E+00
        -11   -1    0    0    0    0  0.00000000000E+00  0.00000000000E+00  0.45593999997E+02  0.45594000000E+02  0.51100000000E-03 0.  1.
         11   -1    0    0    0    0 -0.00000000000E+00 -0.00000000000E+00 -0.45593999997E+02  0.45594000000E+02  0.51100000000E-03 0. -1.
         23    2    1    2    0    0  0.00000000000E+00  0.35527136788E-14 -0.71054273576E-14  0.91188000000E+02  0.91188000000E+02 0.  0.
    9900012    2    3    3    0    0 -0.14929080792E+02 -0.27040488178E+02  0.20042830377E+02  0.54367075192E+02  0.39999979515E+02 0.  0.
         12    1    3    3    0    0  0.14929080792E+02  0.27040488178E+02 -0.20042830377E+02  0.36820924808E+02  0.00000000000E+00 0. -1.
         11    1    4    4    0    0  0.57674965698E+01  0.27816225774E+00  0.47993469415E+01  0.75083368498E+01  0.51100000000E-03 0. -1.
        -11    1    4    4    0    0 -0.34619364087E+01 -0.36297612287E+01  0.16789711269E+02  0.17522972780E+02  0.51100000000E-03 0.  1.
         12    1    4    4    0    0 -0.17234640953E+02 -0.23688889207E+02 -0.15462278333E+01  0.29335765563E+02  0.00000000000E+00 0. -1.
</event>
<event>
 8    1  0.1229941E-006  0.9118800E+02  0.7816164E-02  0.1184000E+00
        -11   -1    0    0    0    0  0.00000000000E+00  0.00000000000E+00  0.45593999997E+02  0.45594000000E+02  0.51100000000E-03 0.  1.
         11   -1    0    0    0    0 -0.00000000000E+00 -0.00000000000E+00 -0.45593999997E+02  0.45594000000E+02  0.51100000000E-03 0. -1.
         23    2    1    2    0    0  0.00000000000E+00  0.00000000000E+00 -0.35527136788E-14  0.91188000000E+02  0.91188000000E+02 0.  0.
    9900012    2    3    3    0    0 -0.15655135663E+02 -0.21334172520E+02  0.25603705223E+02  0.54367083242E+02  0.39999997866E+02 0.  0.
         12    1    3    3    0    0  0.15655135663E+02  0.21334172520E+02 -0.25603705223E+02  0.36820916758E+02  0.00000000000E+00 0. -1.
         11    1    4    4    0    0 -0.73439279512E+01 -0.93004993348E+01  0.14062740500E+02  0.18390030893E+02  0.51100000000E-03 0. -1.
        -11    1    4    4    0    0 -0.45648160360E+01 -0.18451003595E+02  0.17965439777E+02  0.26154045686E+02  0.51100000000E-03 0.  1.
         12    1    4    4    0    0 -0.37463916761E+01  0.64173304094E+01 -0.64244750534E+01  0.98230066622E+01  0.00000000000E+00 0. -1.
</event>
<event>
 8    1  0.1229941E-006  0.9118800E+02  0.7816164E-02  0.1184000E+00
        -11   -1    0    0    0    0  0.00000000000E+00  0.00000000000E+00  0.45593999997E+02  0.45594000000E+02  0.51100000000E-03 0.  1.
         11   -1    0    0    0    0 -0.00000000000E+00 -0.00000000000E+00 -0.45593999997E+02  0.45594000000E+02  0.51100000000E-03 0. -1.
         23    2    1    2    0    0  0.35527136788E-14  0.00000000000E+00 -0.17763568394E-14  0.91188000000E+02  0.91188000000E+02 0.  0.
    9900012    2    3    3    0    0  0.31677242759E+02 -0.15484043695E+02  0.10610304823E+02  0.54367056417E+02  0.39999936713E+02 0.  0.
        -12    1    3    3    0    0 -0.31677242759E+02  0.15484043695E+02 -0.10610304823E+02  0.36820943583E+02  0.00000000000E+00 0.  1.
         11    1    4    4    0    0 -0.19148808148E+01  0.73124592142E+01 -0.99536311883E+00  0.76242754602E+01  0.51100000000E-03 0. -1.
        -11    1    4    4    0    0  0.84251096096E+00 -0.48481590642E+01  0.77750683026E+01  0.92014215425E+01  0.51100000000E-03 0.  1.
         12    1    4    4    0    0  0.32749612612E+02 -0.17948343845E+02  0.38305996396E+01  0.37541359414E+02  0.00000000000E+00 0. -1.
</event>
<event>
 8    1  0.1229941E-006  0.9118800E+02  0.7816164E-02  0.1184000E+00
        -11   -1    0    0    0    0  0.00000000000E+00  0.00000000000E+00  0.45593999997E+02  0.45594000000E+02  0.51100000000E-03 0. -1.
         11   -1    0    0    0    0 -0.00000000000E+00 -0.00000000000E+00 -0.45593999997E+02  0.45594000000E+02  0.51100000000E-03 0.  1.
         23    2    1    2    0    0  0.00000000000E+00 -0.17763568394E-14  0.00000000000E+00  0.91188000000E+02  0.91188000000E+02 0.  0.
    9900012    2    3    3    0    0  0.12754957848E+02  0.88513958560E+01 -0.33387775164E+02  0.54367086259E+02  0.40000004745E+02 0.  0.
         12    1    3    3    0    0 -0.12754957848E+02 -0.88513958560E+01  0.33387775164E+02  0.36820913741E+02  0.00000000000E+00 0. -1.
         11    1    4    4    0    0  0.48191639960E+01 -0.89961293480E+01 -0.25087428066E+01  0.10509446969E+02  0.51100000000E-03 0. -1.
        -11    1    4    4    0    0  0.48574891217E+01  0.89826453062E+01  0.13403254395E+01  0.10299494639E+02  0.51100000000E-03 0.  1.
        -12    1    4    4    0    0  0.30783047303E+01  0.88648798978E+01 -0.32219357797E+02  0.33558144652E+02  0.00000000000E+00 0.  1.
</event>
<event>
 8    1  0.1229941E-006  0.9118800E+02  0.7816164E-02  0.1184000E+00
        -11   -1    0    0    0    0  0.00000000000E+00  0.00000000000E+00  0.45593999997E+02  0.45594000000E+02  0.51100000000E-03 0. -1.
         11   -1    0    0    0    0 -0.00000000000E+00 -0.00000000000E+00 -0.45593999997E+02  0.45594000000E+02  0.51100000000E-03 0.  1.
         23    2    1    2    0    0  0.00000000000E+00  0.35527136788E-14  0.94368957093E-15  0.91188000000E+02  0.91188000000E+02 0.  0.
    9900012    2    3    3    0    0 -0.32214137630E+02  0.17828640544E+02  0.42183136146E+00  0.54366959431E+02  0.39999715613E+02 0.  0.
         12    1    3    3    0    0  0.32214137630E+02 -0.17828640544E+02 -0.42183136146E+00  0.36821040569E+02  0.00000000000E+00 0. -1.
         11    1    4    4    0    0  0.67268890909E+00 -0.45042064773E+01 -0.13266296760E+01  0.47434515826E+01  0.51100000000E-03 0. -1.
        -11    1    4    4    0    0 -0.15204693820E+02  0.25958973688E+01  0.13628729343E+02  0.20583091630E+02  0.51100000000E-03 0.  1.
         12    1    4    4    0    0 -0.17682132719E+02  0.19736949653E+02 -0.11880268305E+02  0.29040416218E+02  0.00000000000E+00 0. -1.
</event>
<event>
 8    1  0.1229941E-006  0.9118800E+02  0.7816164E-02  0.1184000E+00
        -11   -1    0    0    0    0  0.00000000000E+00  0.00000000000E+00  0.45593999997E+02  0.45594000000E+02  0.51100000000E-03 0. -1.
         11   -1    0    0    0    0 -0.00000000000E+00 -0.00000000000E+00 -0.45593999997E+02  0.45594000000E+02  0.51100000000E-03 0.  1.
         23    2    1    2    0    0  0.00000000000E+00 -0.35527136788E-14  0.00000000000E+00  0.91188000000E+02  0.91188000000E+02 0.  0.
    9900012    2    3    3    0    0 -0.23989182244E+02 -0.16581041725E+02 -0.22480398804E+02  0.54367080134E+02  0.39999990781E+02 0.  0.
         12    1    3    3    0    0  0.23989182244E+02  0.16581041725E+02  0.22480398804E+02  0.36820919866E+02  0.00000000000E+00 0. -1.
         11    1    4    4    0    0  0.71370941802E+01 -0.32629209067E+01 -0.27556943113E+00  0.78524330595E+01  0.51100000000E-03 0. -1.
        -11    1    4    4    0    0 -0.26712617715E+02 -0.16899268920E+02 -0.24886125614E+02  0.40230193680E+02  0.51100000000E-03 0.  1.
        -12    1    4    4    0    0 -0.44136587091E+01  0.35811481014E+01  0.26812962413E+01  0.62844533938E+01  0.00000000000E+00 0.  1.
</event>
<event>
 8    1  0.1229941E-006  0.9118800E+02  0.7816164E-02  0.1184000E+00
        -11   -1    0    0    0    0  0.00000000000E+00  0.00000000000E+00  0.45593999997E+02  0.45594000000E+02  0.51100000000E-03 0. -1.
         11   -1    0    0    0    0 -0.00000000000E+00 -0.00000000000E+00 -0.45593999997E+02  0.45594000000E+02  0.51100000000E-03 0.  1.
         23    2    1    2    0    0  0.17763568394E-14  0.00000000000E+00 -0.88817841970E-15  0.91188000000E+02  0.91188000000E+02 0.  0.
    9900012    2    3    3    0    0  0.45550619508E+01  0.35655099963E+02 -0.79840547218E+01  0.54367083763E+02  0.39999999055E+02 0.  0.
        -12    1    3    3    0    0 -0.45550619508E+01 -0.35655099963E+02  0.79840547218E+01  0.36820916237E+02  0.00000000000E+00 0.  1.
         11    1    4    4    0    0 -0.90317312064E+01  0.23412030659E+02  0.71238755831E+01  0.26085339786E+02  0.51100000000E-03 0. -1.
        -11    1    4    4    0    0  0.16393833912E+02  0.12477258287E+02 -0.11155514590E+02  0.23428300637E+02  0.51100000000E-03 0.  1.
         12    1    4    4    0    0 -0.28070407545E+01 -0.23418898360E+00 -0.39524157145E+01  0.48534433404E+01  0.00000000000E+00 0. -1.
</event>
<event>
 8    1  0.1229941E-006  0.9118800E+02  0.7816164E-02  0.1184000E+00
        -11   -1    0    0    0    0  0.00000000000E+00  0.00000000000E+00  0.45593999997E+02  0.45594000000E+02  0.51100000000E-03 0.  1.
         11   -1    0    0    0    0 -0.00000000000E+00 -0.00000000000E+00 -0.45593999997E+02  0.45594000000E+02  0.51100000000E-03 0. -1.
         23    2    1    2    0    0  0.00000000000E+00  0.35527136788E-14  0.17763568394E-14  0.91188000000E+02  0.91188000000E+02 0.  0.
    9900012    2    3    3    0    0  0.27102471478E+02 -0.21841655223E+02 -0.12007439641E+02  0.54367075652E+02  0.39999980565E+02 0.  0.
         12    1    3    3    0    0 -0.27102471478E+02  0.21841655223E+02  0.12007439641E+02  0.36820924348E+02  0.00000000000E+00 0. -1.
         11    1    4    4    0    0  0.14975166045E+02  0.62070796879E+01 -0.77457897663E+01  0.17966098511E+02  0.51100000000E-03 0. -1.
        -11    1    4    4    0    0  0.54308181886E+01 -0.38877262250E+01  0.63129795076E+01  0.91903162036E+01  0.51100000000E-03 0.  1.
         12    1    4    4    0    0  0.66964872443E+01 -0.24161008686E+02 -0.10574629382E+02  0.27210660938E+02  0.00000000000E+00 0. -1.
</event>
<event>
 8    1  0.1229941E-006  0.9118800E+02  0.7816164E-02  0.1184000E+00
        -11   -1    0    0    0    0  0.00000000000E+00  0.00000000000E+00  0.45593999997E+02  0.45594000000E+02  0.51100000000E-03 0. -1.
         11   -1    0    0    0    0 -0.00000000000E+00 -0.00000000000E+00 -0.45593999997E+02  0.45594000000E+02  0.51100000000E-03 0.  1.
         23    2    1    2    0    0 -0.26645352591E-14  0.35527136788E-14  0.00000000000E+00  0.91188000000E+02  0.91188000000E+02 0.  0.
    9900012    2    3    3    0    0 -0.64841369249E+01  0.21515060413E+02  0.29169129427E+02  0.54367082470E+02  0.39999996107E+02 0.  0.
        -12    1    3    3    0    0  0.64841369249E+01 -0.21515060413E+02 -0.29169129427E+02  0.36820917530E+02  0.00000000000E+00 0.  1.
         11    1    4    4    0    0 -0.13763733718E+02  0.11635323430E+01 -0.14076803974E+01  0.13884370268E+02  0.51100000000E-03 0. -1.
        -11    1    4    4    0    0  0.19348499785E+01  0.53518038396E+00 -0.14270034008E+01  0.24630065874E+01  0.51100000000E-03 0.  1.
        -12    1    4    4    0    0  0.53447468143E+01  0.19816347686E+02  0.32003813225E+02  0.38019705615E+02  0.00000000000E+00 0.  1.
</event>
<event>
 8    1  0.1229941E-006  0.9118800E+02  0.7816164E-02  0.1184000E+00
        -11   -1    0    0    0    0  0.00000000000E+00  0.00000000000E+00  0.45593999997E+02  0.45594000000E+02  0.51100000000E-03 0.  1.
         11   -1    0    0    0    0 -0.00000000000E+00 -0.00000000000E+00 -0.45593999997E+02  0.45594000000E+02  0.51100000000E-03 0. -1.
         23    2    1    2    0    0  0.00000000000E+00  0.11102230246E-15  0.00000000000E+00  0.91188000000E+02  0.91188000000E+02 0.  0.
    9900012    2    3    3    0    0 -0.26675326640E+02  0.93642617912E+00  0.25363923758E+02  0.54367101400E+02  0.40000039261E+02 0.  0.
         12    1    3    3    0    0  0.26675326640E+02 -0.93642617912E+00 -0.25363923758E+02  0.36820898600E+02  0.00000000000E+00 0. -1.
         11    1    4    4    0    0 -0.28595745776E+02 -0.78540767849E+01  0.14909277808E+02  0.33191712274E+02  0.51100000000E-03 0. -1.
        -11    1    4    4    0    0 -0.44772201629E+01 -0.23185171121E+01  0.54203886622E+01  0.74028126746E+01  0.51100000000E-03 0.  1.
         12    1    4    4    0    0  0.63976392998E+01  0.11109020076E+02  0.50342572882E+01  0.13772576451E+02  0.00000000000E+00 0. -1.
</event>
<event>
 8    1  0.1229941E-006  0.9118800E+02  0.7816164E-02  0.1184000E+00
        -11   -1    0    0    0    0  0.00000000000E+00  0.00000000000E+00  0.45593999997E+02  0.45594000000E+02  0.51100000000E-03 0. -1.
         11   -1    0    0    0    0 -0.00000000000E+00 -0.00000000000E+00 -0.45593999997E+02  0.45594000000E+02  0.51100000000E-03 0.  1.
         23    2    1    2    0    0 -0.13322676296E-14  0.35527136788E-14  0.35527136788E-14  0.91188000000E+02  0.91188000000E+02 0.  0.
    9900012    2    3    3    0    0 -0.34310261224E+01 -0.29498713296E+02  0.21767736430E+02  0.54367076930E+02  0.39999983478E+02 0.  0.
        -12    1    3    3    0    0  0.34310261224E+01  0.29498713296E+02 -0.21767736430E+02  0.36820923070E+02  0.00000000000E+00 0.  1.
         11    1    4    4    0    0 -0.21843694556E+00 -0.54596423169E+01 -0.15418494499E+01  0.56773857466E+01  0.51100000000E-03 0.  1.
        -11    1    4    4    0    0 -0.80114110692E+01 -0.14956297111E+01  0.24289531808E+02  0.25620323403E+02  0.51100000000E-03 0. -1.
         12    1    4    4    0    0  0.47988218924E+01 -0.22543441268E+02 -0.97994592816E+00  0.23069367781E+02  0.00000000000E+00 0. -1.
</event>
<event>
 8    1  0.1229941E-006  0.9118800E+02  0.7816164E-02  0.1184000E+00
        -11   -1    0    0    0    0  0.00000000000E+00  0.00000000000E+00  0.45593999997E+02  0.45594000000E+02  0.51100000000E-03 0.  1.
         11   -1    0    0    0    0 -0.00000000000E+00 -0.00000000000E+00 -0.45593999997E+02  0.45594000000E+02  0.51100000000E-03 0. -1.
         23    2    1    2    0    0  0.35527136788E-14  0.00000000000E+00 -0.35527136788E-14  0.91188000000E+02  0.91188000000E+02 0.  0.
    9900012    2    3    3    0    0  0.27078842976E+02  0.48809994068E+01 -0.24468175727E+02  0.54367088610E+02  0.40000010105E+02 0.  0.
        -12    1    3    3    0    0 -0.27078842976E+02 -0.48809994068E+01  0.24468175727E+02  0.36820911390E+02  0.00000000000E+00 0.  1.
         11    1    4    4    0    0 -0.63334746674E+01  0.75237737205E-01 -0.16763018649E+02  0.17919747670E+02  0.51100000000E-03 0. -1.
        -11    1    4    4    0    0  0.23972160942E+02  0.30282966057E+01 -0.47755003755E-01  0.24162726695E+02  0.51100000000E-03 0.  1.
        -12    1    4    4    0    0  0.94401567018E+01  0.17774650639E+01 -0.76574020751E+01  0.12284614245E+02  0.00000000000E+00 0.  1.
</event>
<event>
 8    1  0.1229941E-006  0.9118800E+02  0.7816164E-02  0.1184000E+00
        -11   -1    0    0    0    0  0.00000000000E+00  0.00000000000E+00  0.45593999997E+02  0.45594000000E+02  0.51100000000E-03 0.  1.
         11   -1    0    0    0    0 -0.00000000000E+00 -0.00000000000E+00 -0.45593999997E+02  0.45594000000E+02  0.51100000000E-03 0. -1.
         23    2    1    2    0    0 -0.17763568394E-14  0.00000000000E+00 -0.35527136788E-14  0.91188000000E+02  0.91188000000E+02 0.  0.
    9900012    2    3    3    0    0  0.80672133790E+01 -0.17691862714E+02 -0.31268150411E+02  0.54367093328E+02  0.40000020860E+02 0.  0.
        -12    1    3    3    0    0 -0.80672133790E+01  0.17691862714E+02  0.31268150411E+02  0.36820906672E+02  0.00000000000E+00 0.  1.
         11    1    4    4    0    0 -0.19942174419E+01 -0.84127674946E+01  0.62274259458E+01  0.10655158107E+02  0.51100000000E-03 0.  1.
        -11    1    4    4    0    0  0.11876160351E+02 -0.10228730671E+02 -0.17033379647E+02  0.23147486651E+02  0.51100000000E-03 0. -1.
         12    1    4    4    0    0 -0.18147295297E+01  0.94963545146E+00 -0.20462196710E+02  0.20564448569E+02  0.00000000000E+00 0. -1.
</event>
<event>
 8    1  0.1229941E-006  0.9118800E+02  0.7816164E-02  0.1184000E+00
        -11   -1    0    0    0    0  0.00000000000E+00  0.00000000000E+00  0.45593999997E+02  0.45594000000E+02  0.51100000000E-03 0. -1.
         11   -1    0    0    0    0 -0.00000000000E+00 -0.00000000000E+00 -0.45593999997E+02  0.45594000000E+02  0.51100000000E-03 0.  1.
         23    2    1    2    0    0  0.88817841970E-15  0.00000000000E+00  0.00000000000E+00  0.91188000000E+02  0.91188000000E+02 0.  0.
    9900012    2    3    3    0    0  0.20281433791E+01  0.26674410387E+02 -0.25301050173E+02  0.54367072868E+02  0.39999974216E+02 0.  0.
         12    1    3    3    0    0 -0.20281433791E+01 -0.26674410387E+02  0.25301050173E+02  0.36820927132E+02  0.00000000000E+00 0. -1.
         11    1    4    4    0    0 -0.63662650810E+01  0.11663855683E+02  0.33646388861E+01  0.13707503623E+02  0.51100000000E-03 0. -1.
        -11    1    4    4    0    0  0.43830974700E+01 -0.54247682283E+01 -0.12431667725E+02  0.14254333252E+02  0.51100000000E-03 0.  1.
        -12    1    4    4    0    0  0.40113109902E+01  0.20435322932E+02 -0.16234021334E+02  0.26405235993E+02  0.00000000000E+00 0.  1.
</event>
<event>
 8    1  0.1229941E-006  0.9118800E+02  0.7816164E-02  0.1184000E+00
        -11   -1    0    0    0    0  0.00000000000E+00  0.00000000000E+00  0.45593999997E+02  0.45594000000E+02  0.51100000000E-03 0. -1.
         11   -1    0    0    0    0 -0.00000000000E+00 -0.00000000000E+00 -0.45593999997E+02  0.45594000000E+02  0.51100000000E-03 0.  1.
         23    2    1    2    0    0  0.00000000000E+00 -0.17763568394E-14 -0.17763568394E-14  0.91188000000E+02  0.91188000000E+02 0.  0.
    9900012    2    3    3    0    0  0.31476489727E+02  0.11891600831E+02 -0.14953292641E+02  0.54367074745E+02  0.39999978495E+02 0.  0.
         12    1    3    3    0    0 -0.31476489727E+02 -0.11891600831E+02  0.14953292641E+02  0.36820925255E+02  0.00000000000E+00 0. -1.
         11    1    4    4    0    0  0.50607905067E+01  0.17452981808E+02 -0.19017313809E+01  0.18271145477E+02  0.51100000000E-03 0. -1.
        -11    1    4    4    0    0  0.11201269940E+02 -0.95620310720E+01  0.13219060272E+01  0.14786761725E+02  0.51100000000E-03 0.  1.
        -12    1    4    4    0    0  0.15214429280E+02  0.40006500952E+01 -0.14373467288E+02  0.21309167543E+02  0.00000000000E+00 0.  1.
</event>
<event>
 8    1  0.1229941E-006  0.9118800E+02  0.7816164E-02  0.1184000E+00
        -11   -1    0    0    0    0  0.00000000000E+00  0.00000000000E+00  0.45593999997E+02  0.45594000000E+02  0.51100000000E-03 0. -1.
         11   -1    0    0    0    0 -0.00000000000E+00 -0.00000000000E+00 -0.45593999997E+02  0.45594000000E+02  0.51100000000E-03 0.  1.
         23    2    1    2    0    0 -0.35527136788E-14  0.00000000000E+00  0.88817841970E-15  0.91188000000E+02  0.91188000000E+02 0.  0.
    9900012    2    3    3    0    0  0.19521936037E+02 -0.30560123699E+02 -0.63839560834E+01  0.54367054298E+02  0.39999931883E+02 0.  0.
        -12    1    3    3    0    0 -0.19521936037E+02  0.30560123699E+02  0.63839560834E+01  0.36820945702E+02  0.00000000000E+00 0.  1.
         11    1    4    4    0    0 -0.31780991818E+01 -0.23695055534E+02 -0.10754404080E+02  0.26214751163E+02  0.51100000000E-03 0. -1.
        -11    1    4    4    0    0  0.13523581923E+02 -0.10795212904E+02  0.53744546589E+01  0.18119289523E+02  0.51100000000E-03 0.  1.
         12    1    4    4    0    0  0.91764532959E+01  0.39301447395E+01 -0.10040066624E+01  0.10033013612E+02  0.00000000000E+00 0. -1.
</event>
<event>
 8    1  0.1229941E-006  0.9118800E+02  0.7816164E-02  0.1184000E+00
        -11   -1    0    0    0    0  0.00000000000E+00  0.00000000000E+00  0.45593999997E+02  0.45594000000E+02  0.51100000000E-03 0.  1.
         11   -1    0    0    0    0 -0.00000000000E+00 -0.00000000000E+00 -0.45593999997E+02  0.45594000000E+02  0.51100000000E-03 0. -1.
         23    2    1    2    0    0  0.00000000000E+00 -0.17763568394E-14  0.35527136788E-14  0.91188000000E+02  0.91188000000E+02 0.  0.
    9900012    2    3    3    0    0  0.27805394323E+02 -0.69469704710E+01  0.23116661226E+02  0.54367076894E+02  0.39999983394E+02 0.  0.
         12    1    3    3    0    0 -0.27805394323E+02  0.69469704710E+01 -0.23116661226E+02  0.36820923106E+02  0.00000000000E+00 0. -1.
         11    1    4    4    0    0  0.11636794138E+02  0.37099985349E+01 -0.48021360436E+01  0.13124007687E+02  0.51100000000E-03 0. -1.
        -11    1    4    4    0    0  0.21240030266E+02 -0.36504864854E+01  0.17971959588E+02  0.28061651216E+02  0.51100000000E-03 0.  1.
         12    1    4    4    0    0 -0.50714300808E+01 -0.70064825204E+01  0.99468376815E+01  0.13181417990E+02  0.00000000000E+00 0. -1.
</event>
<event>
 8    1  0.1229941E-006  0.9118800E+02  0.7816164E-02  0.1184000E+00
        -11   -1    0    0    0    0  0.00000000000E+00  0.00000000000E+00  0.45593999997E+02  0.45594000000E+02  0.51100000000E-03 0. -1.
         11   -1    0    0    0    0 -0.00000000000E+00 -0.00000000000E+00 -0.45593999997E+02  0.45594000000E+02  0.51100000000E-03 0.  1.
         23    2    1    2    0    0 -0.35527136788E-14  0.00000000000E+00  0.71054273576E-14  0.91188000000E+02  0.91188000000E+02 0.  0.
    9900012    2    3    3    0    0 -0.84538535169E+01 -0.97378866801E+01  0.34488916288E+02  0.54367089867E+02  0.40000012970E+02 0.  0.
        -12    1    3    3    0    0  0.84538535169E+01  0.97378866801E+01 -0.34488916288E+02  0.36820910133E+02  0.00000000000E+00 0.  1.
         11    1    4    4    0    0  0.71812653268E+01 -0.92503618966E+01  0.11565146515E+01  0.11767637542E+02  0.51100000000E-03 0.  1.
        -11    1    4    4    0    0  0.38266568492E+01  0.42871215896E+01  0.37253316971E+01  0.68484166550E+01  0.51100000000E-03 0. -1.
         12    1    4    4    0    0 -0.19461775693E+02 -0.47746463731E+01  0.29607069940E+02  0.35751035670E+02  0.00000000000E+00 0. -1.
</event>
<event>
 8    1  0.1229941E-006  0.9118800E+02  0.7816164E-02  0.1184000E+00
        -11   -1    0    0    0    0  0.00000000000E+00  0.00000000000E+00  0.45593999997E+02  0.45594000000E+02  0.51100000000E-03 0. -1.
         11   -1    0    0    0    0 -0.00000000000E+00 -0.00000000000E+00 -0.45593999997E+02  0.45594000000E+02  0.51100000000E-03 0.  1.
         23    2    1    2    0    0  0.00000000000E+00  0.00000000000E+00  0.00000000000E+00  0.91188000000E+02  0.91188000000E+02 0.  0.
    9900012    2    3    3    0    0  0.11192336883E+02 -0.30999358847E+02 -0.16417994334E+02  0.54367093007E+02  0.40000020129E+02 0.  0.
         12    1    3    3    0    0 -0.11192336883E+02  0.30999358847E+02  0.16417994334E+02  0.36820906993E+02  0.00000000000E+00 0. -1.
         11    1    4    4    0    0  0.98692401773E+00  0.30719024292E+01  0.60231947630E+01  0.68329699959E+01  0.51100000000E-03 0. -1.
        -11    1    4    4    0    0  0.15237858616E+02 -0.30175389549E+02 -0.13149761717E+02  0.36272065052E+02  0.51100000000E-03 0.  1.
         12    1    4    4    0    0 -0.50324457506E+01 -0.38958717272E+01 -0.92914273791E+01  0.11262057960E+02  0.00000000000E+00 0. -1.
</event>
<event>
 8    1  0.1229941E-006  0.9118800E+02  0.7816164E-02  0.1184000E+00
        -11   -1    0    0    0    0  0.00000000000E+00  0.00000000000E+00  0.45593999997E+02  0.45594000000E+02  0.51100000000E-03 0.  1.
         11   -1    0    0    0    0 -0.00000000000E+00 -0.00000000000E+00 -0.45593999997E+02  0.45594000000E+02  0.51100000000E-03 0. -1.
         23    2    1    2    0    0  0.00000000000E+00  0.17763568394E-14 -0.35527136788E-14  0.91188000000E+02  0.91188000000E+02 0.  0.
    9900012    2    3    3    0    0 -0.14856998223E+02 -0.15259647815E+02  0.30036518577E+02  0.54367086162E+02  0.40000004523E+02 0.  0.
         12    1    3    3    0    0  0.14856998223E+02  0.15259647815E+02 -0.30036518577E+02  0.36820913838E+02  0.00000000000E+00 0. -1.
         11    1    4    4    0    0 -0.18139211377E+01  0.56272131742E+01  0.69632393701E+01  0.91346888720E+01  0.51100000000E-03 0. -1.
        -11    1    4    4    0    0 -0.69066905922E+01  0.43636970469E+01  0.16525495549E+02  0.18434647549E+02  0.51100000000E-03 0.  1.
        -12    1    4    4    0    0 -0.61363864933E+01 -0.25250558036E+02  0.65477836582E+01  0.26797749741E+02  0.00000000000E+00 0.  1.
</event>
<event>
 8    1  0.1229941E-006  0.9118800E+02  0.7816164E-02  0.1184000E+00
        -11   -1    0    0    0    0  0.00000000000E+00  0.00000000000E+00  0.45593999997E+02  0.45594000000E+02  0.51100000000E-03 0.  1.
         11   -1    0    0    0    0 -0.00000000000E+00 -0.00000000000E+00 -0.45593999997E+02  0.45594000000E+02  0.51100000000E-03 0. -1.
         23    2    1    2    0    0  0.17763568394E-14 -0.88817841970E-15  0.00000000000E+00  0.91188000000E+02  0.91188000000E+02 0.  0.
    9900012    2    3    3    0    0  0.83376465952E+01  0.74263400915E+01 -0.35087228257E+02  0.54367075723E+02  0.39999980725E+02 0.  0.
        -12    1    3    3    0    0 -0.83376465952E+01 -0.74263400915E+01  0.35087228257E+02  0.36820924277E+02  0.00000000000E+00 0.  1.
         11    1    4    4    0    0 -0.64386976823E+01  0.95698329469E+01 -0.84935134060E+01  0.14324046241E+02  0.51100000000E-03 0. -1.
        -11    1    4    4    0    0 -0.30532410278E+00 -0.67822202363E+01 -0.22834628590E+02  0.23822510305E+02  0.51100000000E-03 0.  1.
         12    1    4    4    0    0  0.15081668380E+02  0.46387273808E+01 -0.37590862608E+01  0.16220519177E+02  0.00000000000E+00 0. -1.
</event>
<event>
 8    1  0.1229941E-006  0.9118800E+02  0.7816164E-02  0.1184000E+00
        -11   -1    0    0    0    0  0.00000000000E+00  0.00000000000E+00  0.45593999997E+02  0.45594000000E+02  0.51100000000E-03 0. -1.
         11   -1    0    0    0    0 -0.00000000000E+00 -0.00000000000E+00 -0.45593999997E+02  0.45594000000E+02  0.51100000000E-03 0.  1.
         23    2    1    2    0    0  0.00000000000E+00  0.35527136788E-14 -0.17763568394E-14  0.91188000000E+02  0.91188000000E+02 0.  0.
    9900012    2    3    3    0    0 -0.18742583284E+02 -0.31222810299E+02  0.54434562873E+01  0.54367088449E+02  0.40000009737E+02 0.  0.
         12    1    3    3    0    0  0.18742583284E+02  0.31222810299E+02 -0.54434562873E+01  0.36820911551E+02  0.00000000000E+00 0. -1.
         11    1    4    4    0    0 -0.35417308587E+01 -0.75523658843E+01  0.17521117510E+02  0.19405454053E+02  0.51100000000E-03 0. -1.
        -11    1    4    4    0    0 -0.27279965013E+00 -0.14971993713E+02 -0.88225692083E+01  0.17380240018E+02  0.51100000000E-03 0.  1.
         12    1    4    4    0    0 -0.14928052775E+02 -0.86984507015E+01 -0.32550920148E+01  0.17581394378E+02  0.00000000000E+00 0. -1.
</event>
<event>
 8    1  0.1229941E-006  0.9118800E+02  0.7816164E-02  0.1184000E+00
        -11   -1    0    0    0    0  0.00000000000E+00  0.00000000000E+00  0.45593999997E+02  0.45594000000E+02  0.51100000000E-03 0.  1.
         11   -1    0    0    0    0 -0.00000000000E+00 -0.00000000000E+00 -0.45593999997E+02  0.45594000000E+02  0.51100000000E-03 0. -1.
         23    2    1    2    0    0  0.00000000000E+00 -0.88817841970E-15  0.71054273576E-14  0.91188000000E+02  0.91188000000E+02 0.  0.
    9900012    2    3    3    0    0  0.19124507834E+02  0.44708238290E+01  0.31145527234E+02  0.54367096531E+02  0.40000028162E+02 0.  0.
         12    1    3    3    0    0 -0.19124507834E+02 -0.44708238290E+01 -0.31145527234E+02  0.36820903469E+02  0.00000000000E+00 0. -1.
         11    1    4    4    0    0  0.15644338088E+02 -0.40254874617E+01  0.65925389349E+01  0.17447390446E+02  0.51100000000E-03 0. -1.
        -11    1    4    4    0    0  0.12330641293E+02  0.11370157386E+02  0.96514006676E+01  0.19351349534E+02  0.51100000000E-03 0.  1.
         12    1    4    4    0    0 -0.88504715464E+01 -0.28738460953E+01  0.14901587631E+02  0.17568356551E+02  0.00000000000E+00 0. -1.
</event>
<event>
 8    1  0.1229941E-006  0.9118800E+02  0.7816164E-02  0.1184000E+00
        -11   -1    0    0    0    0  0.00000000000E+00  0.00000000000E+00  0.45593999997E+02  0.45594000000E+02  0.51100000000E-03 0. -1.
         11   -1    0    0    0    0 -0.00000000000E+00 -0.00000000000E+00 -0.45593999997E+02  0.45594000000E+02  0.51100000000E-03 0.  1.
         23    2    1    2    0    0 -0.35527136788E-14 -0.35527136788E-14 -0.17763568394E-14  0.91188000000E+02  0.91188000000E+02 0.  0.
    9900012    2    3    3    0    0 -0.11060994259E+02 -0.31737490021E+02  0.15038851475E+02  0.54367069533E+02  0.39999966613E+02 0.  0.
        -12    1    3    3    0    0  0.11060994259E+02  0.31737490021E+02 -0.15038851475E+02  0.36820930467E+02  0.00000000000E+00 0.  1.
         11    1    4    4    0    0  0.11099641572E+01  0.25674879019E+01  0.58715902286E+01  0.65038132376E+01  0.51100000000E-03 0. -1.
        -11    1    4    4    0    0 -0.17490948698E+02 -0.23523472497E+02  0.16640290364E+02  0.33707362821E+02  0.51100000000E-03 0.  1.
        -12    1    4    4    0    0  0.53199902820E+01 -0.10781505426E+02 -0.74730291180E+01  0.14155893474E+02  0.00000000000E+00 0.  1.
</event>
<event>
 8    1  0.1229941E-006  0.9118800E+02  0.7816164E-02  0.1184000E+00
        -11   -1    0    0    0    0  0.00000000000E+00  0.00000000000E+00  0.45593999997E+02  0.45594000000E+02  0.51100000000E-03 0.  1.
         11   -1    0    0    0    0 -0.00000000000E+00 -0.00000000000E+00 -0.45593999997E+02  0.45594000000E+02  0.51100000000E-03 0. -1.
         23    2    1    2    0    0 -0.33306690739E-15  0.00000000000E+00  0.00000000000E+00  0.91188000000E+02  0.91188000000E+02 0.  0.
    9900012    2    3    3    0    0  0.43991952692E+00 -0.21234481207E+02  0.30077970406E+02  0.54367068113E+02  0.39999963376E+02 0.  0.
         12    1    3    3    0    0 -0.43991952692E+00  0.21234481207E+02 -0.30077970406E+02  0.36820931887E+02  0.00000000000E+00 0. -1.
         11    1    4    4    0    0 -0.84908143206E+01 -0.81768196308E+01 -0.56877644072E+01  0.13088352506E+02  0.51100000000E-03 0. -1.
        -11    1    4    4    0    0  0.10273241754E+01  0.32730844233E+00 -0.93167268611E+00  0.14249701867E+01  0.51100000000E-03 0.  1.
        -12    1    4    4    0    0  0.79034096722E+01 -0.13384970019E+02  0.36697407499E+02  0.39853745420E+02  0.00000000000E+00 0.  1.
</event>
<event>
 8    1  0.1229941E-006  0.9118800E+02  0.7816164E-02  0.1184000E+00
        -11   -1    0    0    0    0  0.00000000000E+00  0.00000000000E+00  0.45593999997E+02  0.45594000000E+02  0.51100000000E-03 0. -1.
         11   -1    0    0    0    0 -0.00000000000E+00 -0.00000000000E+00 -0.45593999997E+02  0.45594000000E+02  0.51100000000E-03 0.  1.
         23    2    1    2    0    0 -0.17763568394E-14 -0.35527136788E-14 -0.71054273576E-14  0.91188000000E+02  0.91188000000E+02 0.  0.
    9900012    2    3    3    0    0 -0.75469086192E+01 -0.31742549098E+02 -0.17065713524E+02  0.54367030010E+02  0.39999876513E+02 0.  0.
         12    1    3    3    0    0  0.75469086192E+01  0.31742549098E+02  0.17065713524E+02  0.36820969990E+02  0.00000000000E+00 0. -1.
         11    1    4    4    0    0  0.20288487305E+00  0.31573238102E+01  0.19987535440E+01  0.37423083658E+01  0.51100000000E-03 0. -1.
        -11    1    4    4    0    0 -0.18035877705E+01 -0.17851180175E+02  0.67094501817E+01  0.19155528823E+02  0.51100000000E-03 0.  1.
        -12    1    4    4    0    0 -0.59462057217E+01 -0.17048692733E+02 -0.25773917250E+02  0.31469192821E+02  0.00000000000E+00 0.  1.
</event>
<event>
 8    1  0.1229941E-006  0.9118800E+02  0.7816164E-02  0.1184000E+00
        -11   -1    0    0    0    0  0.00000000000E+00  0.00000000000E+00  0.45593999997E+02  0.45594000000E+02  0.51100000000E-03 0. -1.
         11   -1    0    0    0    0 -0.00000000000E+00 -0.00000000000E+00 -0.45593999997E+02  0.45594000000E+02  0.51100000000E-03 0.  1.
         23    2    1    2    0    0  0.00000000000E+00  0.00000000000E+00  0.00000000000E+00  0.91188000000E+02  0.91188000000E+02 0.  0.
    9900012    2    3    3    0    0  0.29333747522E+02  0.13222267065E+02 -0.17902042713E+02  0.54367079000E+02  0.39999988196E+02 0.  0.
         12    1    3    3    0    0 -0.29333747522E+02 -0.13222267065E+02  0.17902042713E+02  0.36820921000E+02  0.00000000000E+00 0. -1.
         11    1    4    4    0    0  0.22488154081E+01 -0.96300097124E+01 -0.11306680135E+02  0.15021160865E+02  0.51100000000E-03 0. -1.
        -11    1    4    4    0    0  0.21532394906E+02  0.88709732128E+01 -0.10464864483E+01  0.23311656533E+02  0.51100000000E-03 0.  1.
        -12    1    4    4    0    0  0.55525372071E+01  0.13981303565E+02 -0.55488761299E+01  0.16034261602E+02  0.00000000000E+00 0.  1.
</event>
<event>
 8    1  0.1229941E-006  0.9118800E+02  0.7816164E-02  0.1184000E+00
        -11   -1    0    0    0    0  0.00000000000E+00  0.00000000000E+00  0.45593999997E+02  0.45594000000E+02  0.51100000000E-03 0. -1.
         11   -1    0    0    0    0 -0.00000000000E+00 -0.00000000000E+00 -0.45593999997E+02  0.45594000000E+02  0.51100000000E-03 0.  1.
         23    2    1    2    0    0 -0.44408920985E-15 -0.71054273576E-14 -0.26645352591E-14  0.91188000000E+02  0.91188000000E+02 0.  0.
    9900012    2    3    3    0    0  0.37458953855E+01  0.35951275375E+02  0.70181513392E+01  0.54367076851E+02  0.39999983297E+02 0.  0.
         12    1    3    3    0    0 -0.37458953855E+01 -0.35951275375E+02 -0.70181513392E+01  0.36820923149E+02  0.00000000000E+00 0. -1.
         11    1    4    4    0    0  0.47282623843E+01  0.16487708971E+02 -0.26255039950E+01  0.17352068573E+02  0.51100000000E-03 0. -1.
        -11    1    4    4    0    0  0.98361956093E+00  0.24811171631E+02  0.15153275871E+02  0.29089233661E+02  0.51100000000E-03 0.  1.
         12    1    4    4    0    0 -0.19659865598E+01 -0.53476052262E+01 -0.55096205370E+01  0.79257746164E+01  0.00000000000E+00 0. -1.
</event>
<event>
 8    1  0.1229941E-006  0.9118800E+02  0.7816164E-02  0.1184000E+00
        -11   -1    0    0    0    0  0.00000000000E+00  0.00000000000E+00  0.45593999997E+02  0.45594000000E+02  0.51100000000E-03 0.  1.
         11   -1    0    0    0    0 -0.00000000000E+00 -0.00000000000E+00 -0.45593999997E+02  0.45594000000E+02  0.51100000000E-03 0. -1.
         23    2    1    2    0    0  0.00000000000E+00 -0.35527136788E-14  0.00000000000E+00  0.91188000000E+02  0.91188000000E+02 0.  0.
    9900012    2    3    3    0    0 -0.11515721827E+02 -0.29295598632E+02 -0.19103308302E+02  0.54367077463E+02  0.39999984692E+02 0.  0.
        -12    1    3    3    0    0  0.11515721827E+02  0.29295598632E+02  0.19103308302E+02  0.36820922537E+02  0.00000000000E+00 0.  1.
         11    1    4    4    0    0 -0.19316973397E+02 -0.31439170020E+02 -0.96211112089E+01  0.38133091325E+02  0.51100000000E-03 0. -1.
        -11    1    4    4    0    0  0.44113420100E+01  0.49390116201E+01 -0.10216979003E+01  0.67005701977E+01  0.51100000000E-03 0.  1.
         12    1    4    4    0    0  0.33899095601E+01 -0.27954402318E+01 -0.84604991923E+01  0.95334159406E+01  0.00000000000E+00 0. -1.
</event>
<event>
 8    1  0.1229941E-006  0.9118800E+02  0.7816164E-02  0.1184000E+00
        -11   -1    0    0    0    0  0.00000000000E+00  0.00000000000E+00  0.45593999997E+02  0.45594000000E+02  0.51100000000E-03 0.  1.
         11   -1    0    0    0    0 -0.00000000000E+00 -0.00000000000E+00 -0.45593999997E+02  0.45594000000E+02  0.51100000000E-03 0. -1.
         23    2    1    2    0    0  0.00000000000E+00  0.00000000000E+00  0.00000000000E+00  0.91188000000E+02  0.91188000000E+02 0.  0.
    9900012    2    3    3    0    0 -0.14949768439E+02  0.26081406234E+02 -0.21261309995E+02  0.54367100633E+02  0.40000037512E+02 0.  0.
        -12    1    3    3    0    0  0.14949768439E+02 -0.26081406234E+02  0.21261309995E+02  0.36820899367E+02  0.00000000000E+00 0.  1.
         11    1    4    4    0    0  0.33604037098E+01 -0.38041191026E+01 -0.17668577162E+01  0.53745159493E+01  0.51100000000E-03 0. -1.
        -11    1    4    4    0    0  0.57268826144E+00  0.25223881349E+02 -0.83497649909E+01  0.26576130979E+02  0.51100000000E-03 0.  1.
        -12    1    4    4    0    0 -0.18882860410E+02  0.46616439875E+01 -0.11144687288E+02  0.22416453704E+02  0.00000000000E+00 0.  1.
</event>
<event>
 8    1  0.1229941E-006  0.9118800E+02  0.7816164E-02  0.1184000E+00
        -11   -1    0    0    0    0  0.00000000000E+00  0.00000000000E+00  0.45593999997E+02  0.45594000000E+02  0.51100000000E-03 0.  1.
         11   -1    0    0    0    0 -0.00000000000E+00 -0.00000000000E+00 -0.45593999997E+02  0.45594000000E+02  0.51100000000E-03 0. -1.
         23    2    1    2    0    0  0.00000000000E+00  0.00000000000E+00  0.17763568394E-14  0.91188000000E+02  0.91188000000E+02 0.  0.
    9900012    2    3    3    0    0  0.73653733237E+01  0.34050697355E+02  0.11919019885E+02  0.54367329860E+02  0.40000560078E+02 0.  0.
         12    1    3    3    0    0 -0.73653733237E+01 -0.34050697355E+02 -0.11919019885E+02  0.36820670140E+02  0.00000000000E+00 0. -1.
         11    1    4    4    0    0  0.52129095158E+01 -0.17256632149E+01 -0.77568098398E+01  0.95037065560E+01  0.51100000000E-03 0. -1.
        -11    1    4    4    0    0  0.69526843219E+01  0.25971120170E+02  0.63289663912E+01  0.27620548836E+02  0.51100000000E-03 0.  1.
        -12    1    4    4    0    0 -0.48002205139E+01  0.98052403994E+01  0.13346863333E+02  0.17243074468E+02  0.00000000000E+00 0.  1.
</event>
<event>
 8    1  0.1229941E-006  0.9118800E+02  0.7816164E-02  0.1184000E+00
        -11   -1    0    0    0    0  0.00000000000E+00  0.00000000000E+00  0.45593999997E+02  0.45594000000E+02  0.51100000000E-03 0.  1.
         11   -1    0    0    0    0 -0.00000000000E+00 -0.00000000000E+00 -0.45593999997E+02  0.45594000000E+02  0.51100000000E-03 0. -1.
         23    2    1    2    0    0  0.00000000000E+00  0.17763568394E-14  0.00000000000E+00  0.91188000000E+02  0.91188000000E+02 0.  0.
    9900012    2    3    3    0    0 -0.35982879904E+01 -0.15741297336E+02  0.33091435487E+02  0.54367092612E+02  0.40000019228E+02 0.  0.
         12    1    3    3    0    0  0.35982879904E+01  0.15741297336E+02 -0.33091435487E+02  0.36820907388E+02  0.00000000000E+00 0. -1.
         11    1    4    4    0    0  0.29128494317E+01  0.26518542786E+01  0.13723450329E+01  0.41713731644E+01  0.51100000000E-03 0. -1.
        -11    1    4    4    0    0 -0.79109922618E+00  0.69488871666E+01  0.20925291953E+02  0.22063107542E+02  0.51100000000E-03 0.  1.
        -12    1    4    4    0    0 -0.57200381959E+01 -0.25342038782E+02  0.10793798501E+02  0.28132611906E+02  0.00000000000E+00 0.  1.
</event>
<event>
 8    1  0.1229941E-006  0.9118800E+02  0.7816164E-02  0.1184000E+00
        -11   -1    0    0    0    0  0.00000000000E+00  0.00000000000E+00  0.45593999997E+02  0.45594000000E+02  0.51100000000E-03 0. -1.
         11   -1    0    0    0    0 -0.00000000000E+00 -0.00000000000E+00 -0.45593999997E+02  0.45594000000E+02  0.51100000000E-03 0.  1.
         23    2    1    2    0    0 -0.22204460493E-15  0.35527136788E-14  0.00000000000E+00  0.91188000000E+02  0.91188000000E+02 0.  0.
    9900012    2    3    3    0    0 -0.18412503559E+01 -0.16870400780E+02  0.32676895690E+02  0.54367080168E+02  0.39999990859E+02 0.  0.
        -12    1    3    3    0    0  0.18412503559E+01  0.16870400780E+02 -0.32676895690E+02  0.36820919832E+02  0.00000000000E+00 0.  1.
         11    1    4    4    0    0  0.87237586464E+01  0.70583989600E+01  0.91853709911E+01  0.14501586165E+02  0.51100000000E-03 0. -1.
        -11    1    4    4    0    0 -0.11899407763E+01 -0.22143172621E+02  0.19468461065E+02  0.29508592465E+02  0.51100000000E-03 0.  1.
         12    1    4    4    0    0 -0.93750682261E+01 -0.17856271187E+01  0.40230636339E+01  0.10356901537E+02  0.00000000000E+00 0. -1.
</event>
<event>
 8    1  0.1229941E-006  0.9118800E+02  0.7816164E-02  0.1184000E+00
        -11   -1    0    0    0    0  0.00000000000E+00  0.00000000000E+00  0.45593999997E+02  0.45594000000E+02  0.51100000000E-03 0.  1.
         11   -1    0    0    0    0 -0.00000000000E+00 -0.00000000000E+00 -0.45593999997E+02  0.45594000000E+02  0.51100000000E-03 0. -1.
         23    2    1    2    0    0 -0.17763568394E-14  0.00000000000E+00 -0.35527136788E-14  0.91188000000E+02  0.91188000000E+02 0.  0.
    9900012    2    3    3    0    0  0.14317676231E+02 -0.29265045991E+02  0.17156377986E+02  0.54367081012E+02  0.39999992784E+02 0.  0.
         12    1    3    3    0    0 -0.14317676231E+02  0.29265045991E+02 -0.17156377986E+02  0.36820918988E+02  0.00000000000E+00 0. -1.
         11    1    4    4    0    0  0.12353323443E+01  0.60998476604E+01 -0.61720036628E+01  0.87651478570E+01  0.51100000000E-03 0. -1.
        -11    1    4    4    0    0  0.49386872348E+00 -0.73210859410E+01  0.92084924047E+01  0.11774486753E+02  0.51100000000E-03 0.  1.
         12    1    4    4    0    0  0.12588475163E+02 -0.28043807710E+02  0.14119889244E+02  0.33827446402E+02  0.00000000000E+00 0. -1.
</event>
<event>
 8    1  0.1229941E-006  0.9118800E+02  0.7816164E-02  0.1184000E+00
        -11   -1    0    0    0    0  0.00000000000E+00  0.00000000000E+00  0.45593999997E+02  0.45594000000E+02  0.51100000000E-03 0. -1.
         11   -1    0    0    0    0 -0.00000000000E+00 -0.00000000000E+00 -0.45593999997E+02  0.45594000000E+02  0.51100000000E-03 0.  1.
         23    2    1    2    0    0  0.00000000000E+00  0.35527136788E-14  0.00000000000E+00  0.91188000000E+02  0.91188000000E+02 0.  0.
    9900012    2    3    3    0    0 -0.16683735143E+02  0.27312669347E+02  0.18205427727E+02  0.54367265028E+02  0.40000412283E+02 0.  0.
        -12    1    3    3    0    0  0.16683735143E+02 -0.27312669347E+02 -0.18205427727E+02  0.36820734972E+02  0.00000000000E+00 0.  1.
         11    1    4    4    0    0 -0.54762424395E+01 -0.13025813168E+01  0.20958377869E+02  0.21701141732E+02  0.51100000000E-03 0. -1.
        -11    1    4    4    0    0 -0.30677116082E+01  0.78954674754E+01 -0.57012127850E+01  0.10210440179E+02  0.51100000000E-03 0.  1.
        -12    1    4    4    0    0 -0.81397810949E+01  0.20719783188E+02  0.29482626434E+01  0.22455683117E+02  0.00000000000E+00 0.  1.
</event>
<event>
 8    1  0.1229941E-006  0.9118800E+02  0.7816164E-02  0.1184000E+00
        -11   -1    0    0    0    0  0.00000000000E+00  0.00000000000E+00  0.45593999997E+02  0.45594000000E+02  0.51100000000E-03 0.  1.
         11   -1    0    0    0    0 -0.00000000000E+00 -0.00000000000E+00 -0.45593999997E+02  0.45594000000E+02  0.51100000000E-03 0. -1.
         23    2    1    2    0    0  0.00000000000E+00  0.17763568394E-14 -0.88817841970E-15  0.91188000000E+02  0.91188000000E+02 0.  0.
    9900012    2    3    3    0    0 -0.35816306345E+02 -0.39323551497E+01  0.75836026261E+01  0.54367051533E+02  0.39999925580E+02 0.  0.
         12    1    3    3    0    0  0.35816306345E+02  0.39323551497E+01 -0.75836026261E+01  0.36820948467E+02  0.00000000000E+00 0. -1.
         11    1    4    4    0    0 -0.32796523177E+02 -0.10828863848E+02  0.13564927404E+02  0.37106380590E+02  0.51100000000E-03 0. -1.
        -11    1    4    4    0    0 -0.24941864657E+01  0.96533741384E+01  0.71903489447E+00  0.99962797991E+01  0.51100000000E-03 0.  1.
        -12    1    4    4    0    0 -0.52559670181E+00 -0.27568654402E+01 -0.67003596727E+01  0.72643911439E+01  0.00000000000E+00 0.  1.
</event>
<event>
 8    1  0.1229941E-006  0.9118800E+02  0.7816164E-02  0.1184000E+00
        -11   -1    0    0    0    0  0.00000000000E+00  0.00000000000E+00  0.45593999997E+02  0.45594000000E+02  0.51100000000E-03 0. -1.
         11   -1    0    0    0    0 -0.00000000000E+00 -0.00000000000E+00 -0.45593999997E+02  0.45594000000E+02  0.51100000000E-03 0.  1.
         23    2    1    2    0    0  0.00000000000E+00  0.00000000000E+00 -0.77715611724E-15  0.91188000000E+02  0.91188000000E+02 0.  0.
    9900012    2    3    3    0    0 -0.43038091029E+01 -0.36560591625E+02 -0.76165647949E+00  0.54367085381E+02  0.40000002743E+02 0.  0.
         12    1    3    3    0    0  0.43038091029E+01  0.36560591625E+02  0.76165647949E+00  0.36820914619E+02  0.00000000000E+00 0. -1.
         11    1    4    4    0    0 -0.21483557060E+01 -0.16809633565E+02  0.57557796793E+01  0.17897156557E+02  0.51100000000E-03 0. -1.
        -11    1    4    4    0    0  0.13218479539E+02 -0.10777930756E+02  0.11362142267E+01  0.17093360575E+02  0.51100000000E-03 0.  1.
         12    1    4    4    0    0 -0.15373932936E+02 -0.89730273035E+01 -0.76536503855E+01  0.19376568250E+02  0.00000000000E+00 0. -1.
</event>
<event>
 8    1  0.1229941E-006  0.9118800E+02  0.7816164E-02  0.1184000E+00
        -11   -1    0    0    0    0  0.00000000000E+00  0.00000000000E+00  0.45593999997E+02  0.45594000000E+02  0.51100000000E-03 0. -1.
         11   -1    0    0    0    0 -0.00000000000E+00 -0.00000000000E+00 -0.45593999997E+02  0.45594000000E+02  0.51100000000E-03 0.  1.
         23    2    1    2    0    0  0.00000000000E+00  0.17763568394E-14  0.00000000000E+00  0.91188000000E+02  0.91188000000E+02 0.  0.
    9900012    2    3    3    0    0  0.27509744088E+02  0.15820580135E+02 -0.18673626536E+02  0.54367067046E+02  0.39999960945E+02 0.  0.
         12    1    3    3    0    0 -0.27509744088E+02 -0.15820580135E+02  0.18673626536E+02  0.36820932954E+02  0.00000000000E+00 0. -1.
         11    1    4    4    0    0  0.15695496400E+02  0.10542755030E+02  0.42526430779E+01  0.19379970699E+02  0.51100000000E-03 0. -1.
        -11    1    4    4    0    0  0.16973440936E+02  0.78297690997E+01 -0.22447784921E+02  0.29211402388E+02  0.51100000000E-03 0.  1.
        -12    1    4    4    0    0 -0.51591932473E+01 -0.25519439947E+01 -0.47848469287E+00  0.57756939598E+01  0.00000000000E+00 0.  1.
</event>
<event>
 8    1  0.1229941E-006  0.9118800E+02  0.7816164E-02  0.1184000E+00
        -11   -1    0    0    0    0  0.00000000000E+00  0.00000000000E+00  0.45593999997E+02  0.45594000000E+02  0.51100000000E-03 0.  1.
         11   -1    0    0    0    0 -0.00000000000E+00 -0.00000000000E+00 -0.45593999997E+02  0.45594000000E+02  0.51100000000E-03 0. -1.
         23    2    1    2    0    0  0.00000000000E+00 -0.88817841970E-15 -0.71054273576E-14  0.91188000000E+02  0.91188000000E+02 0.  0.
    9900012    2    3    3    0    0  0.88213628787E+01 -0.53499464365E+01 -0.35346020599E+02  0.54367088250E+02  0.40000009284E+02 0.  0.
        -12    1    3    3    0    0 -0.88213628787E+01  0.53499464365E+01  0.35346020599E+02  0.36820911750E+02  0.00000000000E+00 0.  1.
         11    1    4    4    0    0  0.16936651149E+02  0.89190355668E+00 -0.10509808599E+02  0.19952486591E+02  0.51100000000E-03 0. -1.
        -11    1    4    4    0    0 -0.40504844384E+01  0.73606791705E+01 -0.42705022564E+01  0.94246067196E+01  0.51100000000E-03 0.  1.
        -12    1    4    4    0    0 -0.40648038320E+01 -0.13602529164E+02 -0.20565709744E+02  0.24989994940E+02  0.00000000000E+00 0.  1.
</event>
<event>
 8    1  0.1229941E-006  0.9118800E+02  0.7816164E-02  0.1184000E+00
        -11   -1    0    0    0    0  0.00000000000E+00  0.00000000000E+00  0.45593999997E+02  0.45594000000E+02  0.51100000000E-03 0.  1.
         11   -1    0    0    0    0 -0.00000000000E+00 -0.00000000000E+00 -0.45593999997E+02  0.45594000000E+02  0.51100000000E-03 0. -1.
         23    2    1    2    0    0  0.00000000000E+00  0.00000000000E+00  0.35527136788E-14  0.91188000000E+02  0.91188000000E+02 0.  0.
    9900012    2    3    3    0    0  0.21264662130E+02  0.11232605584E+02  0.27882300911E+02  0.54367082198E+02  0.39999995487E+02 0.  0.
         12    1    3    3    0    0 -0.21264662130E+02 -0.11232605584E+02 -0.27882300911E+02  0.36820917802E+02  0.00000000000E+00 0. -1.
         11    1    4    4    0    0 -0.34559077674E+01 -0.10551164544E+02  0.89248999734E+01  0.14245146947E+02  0.51100000000E-03 0. -1.
        -11    1    4    4    0    0  0.63014213453E+01  0.13680691594E+02  0.61511330448E+01  0.16269777855E+02  0.51100000000E-03 0.  1.
         12    1    4    4    0    0  0.18419148552E+02  0.81030785340E+01  0.12806267892E+02  0.23852157396E+02  0.00000000000E+00 0. -1.
</event>
<event>
 8    1  0.1229941E-006  0.9118800E+02  0.7816164E-02  0.1184000E+00
        -11   -1    0    0    0    0  0.00000000000E+00  0.00000000000E+00  0.45593999997E+02  0.45594000000E+02  0.51100000000E-03 0.  1.
         11   -1    0    0    0    0 -0.00000000000E+00 -0.00000000000E+00 -0.45593999997E+02  0.45594000000E+02  0.51100000000E-03 0. -1.
         23    2    1    2    0    0 -0.35527136788E-14  0.00000000000E+00  0.88817841970E-15  0.91188000000E+02  0.91188000000E+02 0.  0.
    9900012    2    3    3    0    0 -0.21005303943E+02  0.30228630371E+02  0.88728180440E+00  0.54367079902E+02  0.39999990254E+02 0.  0.
        -12    1    3    3    0    0  0.21005303943E+02 -0.30228630371E+02 -0.88728180440E+00  0.36820920098E+02  0.00000000000E+00 0.  1.
         11    1    4    4    0    0 -0.24260963763E+01  0.42536505880E+01 -0.11770140411E+02  0.12748164280E+02  0.51100000000E-03 0. -1.
        -11    1    4    4    0    0 -0.21671950475E+02  0.11393204233E+02  0.55518006576E+01  0.25105796759E+02  0.51100000000E-03 0.  1.
         12    1    4    4    0    0  0.30927429085E+01  0.14581775550E+02  0.71056215578E+01  0.16513118864E+02  0.00000000000E+00 0. -1.
</event>
<event>
 8    1  0.1229941E-006  0.9118800E+02  0.7816164E-02  0.1184000E+00
        -11   -1    0    0    0    0  0.00000000000E+00  0.00000000000E+00  0.45593999997E+02  0.45594000000E+02  0.51100000000E-03 0.  1.
         11   -1    0    0    0    0 -0.00000000000E+00 -0.00000000000E+00 -0.45593999997E+02  0.45594000000E+02  0.51100000000E-03 0. -1.
         23    2    1    2    0    0 -0.35527136788E-14 -0.35527136788E-14  0.00000000000E+00  0.91188000000E+02  0.91188000000E+02 0.  0.
    9900012    2    3    3    0    0 -0.20022685490E+02  0.26769260854E+02  0.15436272035E+02  0.54367085356E+02  0.40000002686E+02 0.  0.
        -12    1    3    3    0    0  0.20022685490E+02 -0.26769260854E+02 -0.15436272035E+02  0.36820914644E+02  0.00000000000E+00 0.  1.
         11    1    4    4    0    0  0.34087091372E+01  0.37483977526E+01 -0.52377898394E+01  0.72872646690E+01  0.51100000000E-03 0. -1.
        -11    1    4    4    0    0  0.40777627123E+01  0.67100160232E+00  0.87621217846E+01  0.96877845928E+01  0.51100000000E-03 0.  1.
        -12    1    4    4    0    0 -0.27509157339E+02  0.22349861499E+02  0.11911940089E+02  0.37392036094E+02  0.00000000000E+00 0.  1.
</event>
<event>
 8    1  0.1229941E-006  0.9118800E+02  0.7816164E-02  0.1184000E+00
        -11   -1    0    0    0    0  0.00000000000E+00  0.00000000000E+00  0.45593999997E+02  0.45594000000E+02  0.51100000000E-03 0. -1.
         11   -1    0    0    0    0 -0.00000000000E+00 -0.00000000000E+00 -0.45593999997E+02  0.45594000000E+02  0.51100000000E-03 0.  1.
         23    2    1    2    0    0  0.00000000000E+00  0.17763568394E-14  0.00000000000E+00  0.91188000000E+02  0.91188000000E+02 0.  0.
    9900012    2    3    3    0    0  0.23261023457E+02  0.13276518077E+02  0.25267356266E+02  0.54367076096E+02  0.39999981575E+02 0.  0.
        -12    1    3    3    0    0 -0.23261023457E+02 -0.13276518077E+02 -0.25267356266E+02  0.36820923904E+02  0.00000000000E+00 0.  1.
         11    1    4    4    0    0  0.12283807346E+02  0.81488868727E+01  0.14015152736E+02  0.20340127498E+02  0.51100000000E-03 0. -1.
        -11    1    4    4    0    0  0.78929344367E+01 -0.76893816545E+01  0.16497248453E+02  0.19838956904E+02  0.51100000000E-03 0.  1.
         12    1    4    4    0    0  0.30842816740E+01  0.12817012859E+02 -0.52450449225E+01  0.14187991694E+02  0.00000000000E+00 0. -1.
</event>
<event>
 8    1  0.1229941E-006  0.9118800E+02  0.7816164E-02  0.1184000E+00
        -11   -1    0    0    0    0  0.00000000000E+00  0.00000000000E+00  0.45593999997E+02  0.45594000000E+02  0.51100000000E-03 0.  1.
         11   -1    0    0    0    0 -0.00000000000E+00 -0.00000000000E+00 -0.45593999997E+02  0.45594000000E+02  0.51100000000E-03 0. -1.
         23    2    1    2    0    0  0.13322676296E-14  0.71054273576E-14  0.88817841970E-15  0.91188000000E+02  0.91188000000E+02 0.  0.
    9900012    2    3    3    0    0 -0.30378346195E+01  0.36296624371E+02 -0.53951985383E+01  0.54367061023E+02  0.39999947213E+02 0.  0.
         12    1    3    3    0    0  0.30378346195E+01 -0.36296624371E+02  0.53951985383E+01  0.36820938977E+02  0.00000000000E+00 0. -1.
         11    1    4    4    0    0 -0.17902397954E+02  0.13683285861E+02  0.73234584829E+01  0.23693062463E+02  0.51100000000E-03 0. -1.
        -11    1    4    4    0    0  0.64460687463E+01  0.14939175796E+02 -0.54405460385E+01  0.17156057741E+02  0.51100000000E-03 0.  1.
         12    1    4    4    0    0  0.84184945885E+01  0.76741627135E+01 -0.72781109827E+01  0.13517940818E+02  0.00000000000E+00 0. -1.
</event>
<event>
 8    1  0.1229941E-006  0.9118800E+02  0.7816164E-02  0.1184000E+00
        -11   -1    0    0    0    0  0.00000000000E+00  0.00000000000E+00  0.45593999997E+02  0.45594000000E+02  0.51100000000E-03 0. -1.
         11   -1    0    0    0    0 -0.00000000000E+00 -0.00000000000E+00 -0.45593999997E+02  0.45594000000E+02  0.51100000000E-03 0.  1.
         23    2    1    2    0    0  0.17763568394E-14  0.00000000000E+00  0.00000000000E+00  0.91188000000E+02  0.91188000000E+02 0.  0.
    9900012    2    3    3    0    0 -0.14018308365E+02  0.25303748913E+02  0.22781256148E+02  0.54367104979E+02  0.40000047421E+02 0.  0.
         12    1    3    3    0    0  0.14018308365E+02 -0.25303748913E+02 -0.22781256148E+02  0.36820895021E+02  0.00000000000E+00 0. -1.
         11    1    4    4    0    0 -0.18550814361E+02 -0.12620754408E+01  0.16725751001E+02  0.25009524080E+02  0.51100000000E-03 0. -1.
        -11    1    4    4    0    0  0.31796291279E+01  0.71054494163E+01 -0.23279714714E+01  0.81250787216E+01  0.51100000000E-03 0.  1.
         12    1    4    4    0    0  0.13528768684E+01  0.19460374937E+02  0.83834766182E+01  0.21232502178E+02  0.00000000000E+00 0. -1.
</event>
<event>
 8    1  0.1229941E-006  0.9118800E+02  0.7816164E-02  0.1184000E+00
        -11   -1    0    0    0    0  0.00000000000E+00  0.00000000000E+00  0.45593999997E+02  0.45594000000E+02  0.51100000000E-03 0. -1.
         11   -1    0    0    0    0 -0.00000000000E+00 -0.00000000000E+00 -0.45593999997E+02  0.45594000000E+02  0.51100000000E-03 0.  1.
         23    2    1    2    0    0  0.00000000000E+00  0.00000000000E+00  0.00000000000E+00  0.91188000000E+02  0.91188000000E+02 0.  0.
    9900012    2    3    3    0    0  0.28688453426E+02 -0.17909199121E+02  0.14560666519E+02  0.54367084984E+02  0.40000001839E+02 0.  0.
        -12    1    3    3    0    0 -0.28688453426E+02  0.17909199121E+02 -0.14560666519E+02  0.36820915016E+02  0.00000000000E+00 0.  1.
         11    1    4    4    0    0  0.26824544196E+02 -0.11920546969E+02  0.21842319655E+02  0.36588830803E+02  0.51100000000E-03 0. -1.
        -11    1    4    4    0    0  0.82317231474E+01 -0.50888327660E+01 -0.53767291251E+01  0.11070984656E+02  0.51100000000E-03 0.  1.
         12    1    4    4    0    0 -0.63678139171E+01 -0.89981938580E+00 -0.19049240110E+01  0.67072695263E+01  0.00000000000E+00 0. -1.
</event>
<event>
 8    1  0.1229941E-006  0.9118800E+02  0.7816164E-02  0.1184000E+00
        -11   -1    0    0    0    0  0.00000000000E+00  0.00000000000E+00  0.45593999997E+02  0.45594000000E+02  0.51100000000E-03 0. -1.
         11   -1    0    0    0    0 -0.00000000000E+00 -0.00000000000E+00 -0.45593999997E+02  0.45594000000E+02  0.51100000000E-03 0.  1.
         23    2    1    2    0    0 -0.35527136788E-14  0.00000000000E+00  0.17763568394E-14  0.91188000000E+02  0.91188000000E+02 0.  0.
    9900012    2    3    3    0    0  0.31783921890E+02  0.16863090380E+02  0.78229242950E+01  0.54367086752E+02  0.40000005869E+02 0.  0.
        -12    1    3    3    0    0 -0.31783921890E+02 -0.16863090380E+02 -0.78229242950E+01  0.36820913248E+02  0.00000000000E+00 0.  1.
         11    1    4    4    0    0  0.23303614438E+02 -0.34131536743E+00 -0.93907632641E+01  0.25126905440E+02  0.51100000000E-03 0. -1.
        -11    1    4    4    0    0 -0.31106186066E+01  0.13657988708E+01  0.44657745307E+00  0.34264830883E+01  0.51100000000E-03 0.  1.
        -12    1    4    4    0    0  0.11590926059E+02  0.15838606876E+02  0.16767110106E+02  0.25813698224E+02  0.00000000000E+00 0.  1.
</event>
<event>
 8    1  0.1229941E-006  0.9118800E+02  0.7816164E-02  0.1184000E+00
        -11   -1    0    0    0    0  0.00000000000E+00  0.00000000000E+00  0.45593999997E+02  0.45594000000E+02  0.51100000000E-03 0.  1.
         11   -1    0    0    0    0 -0.00000000000E+00 -0.00000000000E+00 -0.45593999997E+02  0.45594000000E+02  0.51100000000E-03 0. -1.
         23    2    1    2    0    0 -0.17763568394E-14  0.00000000000E+00  0.00000000000E+00  0.91188000000E+02  0.91188000000E+02 0.  0.
    9900012    2    3    3    0    0 -0.80829164059E+01 -0.14605089917E+02 -0.32819762925E+02  0.54367095237E+02  0.40000025213E+02 0.  0.
        -12    1    3    3    0    0  0.80829164059E+01  0.14605089917E+02  0.32819762925E+02  0.36820904763E+02  0.00000000000E+00 0.  1.
         11    1    4    4    0    0 -0.82456059653E+01 -0.32457495833E+01 -0.92351245355E+01  0.12798923140E+02  0.51100000000E-03 0. -1.
        -11    1    4    4    0    0  0.15521417547E+01  0.35074025363E+01 -0.26139713273E+02  0.26419606864E+02  0.51100000000E-03 0.  1.
        -12    1    4    4    0    0 -0.13894521953E+01 -0.14866742870E+02  0.25550748841E+01  0.15148565233E+02  0.00000000000E+00 0.  1.
</event>
<event>
 8    1  0.1229941E-006  0.9118800E+02  0.7816164E-02  0.1184000E+00
        -11   -1    0    0    0    0  0.00000000000E+00  0.00000000000E+00  0.45593999997E+02  0.45594000000E+02  0.51100000000E-03 0. -1.
         11   -1    0    0    0    0 -0.00000000000E+00 -0.00000000000E+00 -0.45593999997E+02  0.45594000000E+02  0.51100000000E-03 0.  1.
         23    2    1    2    0    0  0.88817841970E-15 -0.35527136788E-14 -0.35527136788E-14  0.91188000000E+02  0.91188000000E+02 0.  0.
    9900012    2    3    3    0    0  0.67990552995E+01 -0.28280979595E+02 -0.22577402762E+02  0.54367081010E+02  0.39999992777E+02 0.  0.
         12    1    3    3    0    0 -0.67990552995E+01  0.28280979595E+02  0.22577402762E+02  0.36820918990E+02  0.00000000000E+00 0. -1.
         11    1    4    4    0    0  0.40001289589E+01 -0.91141672986E+01  0.32571644847E+01  0.10472735936E+02  0.51100000000E-03 0. -1.
        -11    1    4    4    0    0 -0.32851599411E+01 -0.50038465434E+01  0.60304063994E+01  0.84968557521E+01  0.51100000000E-03 0.  1.
        -12    1    4    4    0    0  0.60840862817E+01 -0.14162965753E+02 -0.31864973646E+02  0.35397489322E+02  0.00000000000E+00 0.  1.
</event>
<event>
 8    1  0.1229941E-006  0.9118800E+02  0.7816164E-02  0.1184000E+00
        -11   -1    0    0    0    0  0.00000000000E+00  0.00000000000E+00  0.45593999997E+02  0.45594000000E+02  0.51100000000E-03 0. -1.
         11   -1    0    0    0    0 -0.00000000000E+00 -0.00000000000E+00 -0.45593999997E+02  0.45594000000E+02  0.51100000000E-03 0.  1.
         23    2    1    2    0    0  0.00000000000E+00  0.00000000000E+00 -0.35527136788E-14  0.91188000000E+02  0.91188000000E+02 0.  0.
    9900012    2    3    3    0    0 -0.17827520947E+02  0.20523412114E+02 -0.24834428341E+02  0.54367085034E+02  0.40000001952E+02 0.  0.
        -12    1    3    3    0    0  0.17827520947E+02 -0.20523412114E+02  0.24834428341E+02  0.36820914966E+02  0.00000000000E+00 0.  1.
         11    1    4    4    0    0 -0.51927076609E+01  0.19397903086E+02 -0.12376069293E+02  0.23588343485E+02  0.51100000000E-03 0. -1.
        -11    1    4    4    0    0  0.30900517460E+01 -0.32034697800E+00  0.58362195455E+01  0.66115429987E+01  0.51100000000E-03 0.  1.
         12    1    4    4    0    0 -0.15724865032E+02  0.14458560063E+01 -0.18294578593E+02  0.24167198550E+02  0.00000000000E+00 0. -1.
</event>
<event>
 8    1  0.1229941E-006  0.9118800E+02  0.7816164E-02  0.1184000E+00
        -11   -1    0    0    0    0  0.00000000000E+00  0.00000000000E+00  0.45593999997E+02  0.45594000000E+02  0.51100000000E-03 0.  1.
         11   -1    0    0    0    0 -0.00000000000E+00 -0.00000000000E+00 -0.45593999997E+02  0.45594000000E+02  0.51100000000E-03 0. -1.
         23    2    1    2    0    0  0.35527136788E-14  0.17763568394E-14  0.71054273576E-14  0.91188000000E+02  0.91188000000E+02 0.  0.
    9900012    2    3    3    0    0 -0.10789829152E+02 -0.14350602833E+02 -0.32146854460E+02  0.54367075697E+02  0.39999980668E+02 0.  0.
        -12    1    3    3    0    0  0.10789829152E+02  0.14350602833E+02  0.32146854460E+02  0.36820924303E+02  0.00000000000E+00 0.  1.
         11    1    4    4    0    0  0.11285826765E+02  0.29512303758E+01 -0.12077477295E+02  0.16791221057E+02  0.51100000000E-03 0. -1.
        -11    1    4    4    0    0 -0.35443469324E+01  0.17443849056E+01  0.48561567758E+00  0.39800875271E+01  0.51100000000E-03 0.  1.
        -12    1    4    4    0    0 -0.18531308985E+02 -0.19046218115E+02 -0.20554992842E+02  0.33595767113E+02  0.00000000000E+00 0.  1.
</event>
<event>
 8    1  0.1229941E-006  0.9118800E+02  0.7816164E-02  0.1184000E+00
        -11   -1    0    0    0    0  0.00000000000E+00  0.00000000000E+00  0.45593999997E+02  0.45594000000E+02  0.51100000000E-03 0.  1.
         11   -1    0    0    0    0 -0.00000000000E+00 -0.00000000000E+00 -0.45593999997E+02  0.45594000000E+02  0.51100000000E-03 0. -1.
         23    2    1    2    0    0  0.00000000000E+00  0.35527136788E-14  0.00000000000E+00  0.91188000000E+02  0.91188000000E+02 0.  0.
    9900012    2    3    3    0    0 -0.69826406710E+01 -0.85597294831E+01  0.35124820450E+02  0.54367092200E+02  0.40000018288E+02 0.  0.
         12    1    3    3    0    0  0.69826406710E+01  0.85597294831E+01 -0.35124820450E+02  0.36820907800E+02  0.00000000000E+00 0. -1.
         11    1    4    4    0    0 -0.31974633646E+01  0.96404077730E+01  0.10855531687E+02  0.14866196638E+02  0.51100000000E-03 0. -1.
        -11    1    4    4    0    0 -0.14134089742E+01 -0.60958186894E+01 -0.48238606405E+01  0.79010355120E+01  0.51100000000E-03 0.  1.
         12    1    4    4    0    0 -0.23717683323E+01 -0.12104318567E+02  0.29093149403E+02  0.31599860050E+02  0.00000000000E+00 0. -1.
</event>
<event>
 8    1  0.1229941E-006  0.9118800E+02  0.7816164E-02  0.1184000E+00
        -11   -1    0    0    0    0  0.00000000000E+00  0.00000000000E+00  0.45593999997E+02  0.45594000000E+02  0.51100000000E-03 0.  1.
         11   -1    0    0    0    0 -0.00000000000E+00 -0.00000000000E+00 -0.45593999997E+02  0.45594000000E+02  0.51100000000E-03 0. -1.
         23    2    1    2    0    0  0.00000000000E+00  0.71054273576E-14  0.00000000000E+00  0.91188000000E+02  0.91188000000E+02 0.  0.
    9900012    2    3    3    0    0 -0.37410883940E+01 -0.36446475130E+02 -0.36659203280E+01  0.54367078452E+02  0.39999986947E+02 0.  0.
         12    1    3    3    0    0  0.37410883940E+01  0.36446475130E+02  0.36659203280E+01  0.36820921548E+02  0.00000000000E+00 0. -1.
         11    1    4    4    0    0 -0.24630288338E+01 -0.23217910951E+02 -0.47285309492E+00  0.23352976047E+02  0.51100000000E-03 0. -1.
        -11    1    4    4    0    0 -0.32949046034E-01 -0.21966483155E+02 -0.31248260738E+01  0.22187654362E+02  0.51100000000E-03 0.  1.
         12    1    4    4    0    0 -0.12451105142E+01  0.87379189751E+01 -0.68241159303E-01  0.88264480434E+01  0.00000000000E+00 0. -1.
</event>
<event>
 8    1  0.1229941E-006  0.9118800E+02  0.7816164E-02  0.1184000E+00
        -11   -1    0    0    0    0  0.00000000000E+00  0.00000000000E+00  0.45593999997E+02  0.45594000000E+02  0.51100000000E-03 0.  1.
         11   -1    0    0    0    0 -0.00000000000E+00 -0.00000000000E+00 -0.45593999997E+02  0.45594000000E+02  0.51100000000E-03 0. -1.
         23    2    1    2    0    0  0.35527136788E-14  0.14210854715E-13 -0.35527136788E-14  0.91188000000E+02  0.91188000000E+02 0.  0.
    9900012    2    3    3    0    0  0.14640105797E+02  0.32046235911E+02 -0.10699766886E+02  0.54367096355E+02  0.40000027761E+02 0.  0.
         12    1    3    3    0    0 -0.14640105797E+02 -0.32046235911E+02  0.10699766886E+02  0.36820903645E+02  0.00000000000E+00 0. -1.
         11    1    4    4    0    0  0.87875964949E+01 -0.13318019556E+01 -0.10868042250E+02  0.14039583014E+02  0.51100000000E-03 0. -1.
        -11    1    4    4    0    0  0.16652018555E+01 -0.29076765797E+01  0.17232707362E+01  0.37679095800E+01  0.51100000000E-03 0.  1.
        -12    1    4    4    0    0  0.41873074464E+01  0.36285714446E+02 -0.15549953716E+01  0.36559603761E+02  0.00000000000E+00 0.  1.
</event>
<event>
 8    1  0.1229941E-006  0.9118800E+02  0.7816164E-02  0.1184000E+00
        -11   -1    0    0    0    0  0.00000000000E+00  0.00000000000E+00  0.45593999997E+02  0.45594000000E+02  0.51100000000E-03 0. -1.
         11   -1    0    0    0    0 -0.00000000000E+00 -0.00000000000E+00 -0.45593999997E+02  0.45594000000E+02  0.51100000000E-03 0.  1.
         23    2    1    2    0    0  0.00000000000E+00  0.00000000000E+00  0.00000000000E+00  0.91188000000E+02  0.91188000000E+02 0.  0.
    9900012    2    3    3    0    0 -0.23886655441E+01  0.10721622354E+02 -0.35144295438E+02  0.54367076453E+02  0.39999982390E+02 0.  0.
         12    1    3    3    0    0  0.23886655441E+01 -0.10721622354E+02  0.35144295438E+02  0.36820923547E+02  0.00000000000E+00 0. -1.
         11    1    4    4    0    0  0.17832868639E+00 -0.76752127448E+01 -0.15870681635E+02  0.17630066013E+02  0.51100000000E-03 0. -1.
        -11    1    4    4    0    0  0.47465336398E+01  0.20153265358E+02 -0.20476510168E+02  0.29119944284E+02  0.51100000000E-03 0.  1.
        -12    1    4    4    0    0 -0.73135278703E+01 -0.17564302587E+01  0.12028963643E+01  0.76170661561E+01  0.00000000000E+00 0.  1.
</event>
<event>
 8    1  0.1229941E-006  0.9118800E+02  0.7816164E-02  0.1184000E+00
        -11   -1    0    0    0    0  0.00000000000E+00  0.00000000000E+00  0.45593999997E+02  0.45594000000E+02  0.51100000000E-03 0. -1.
         11   -1    0    0    0    0 -0.00000000000E+00 -0.00000000000E+00 -0.45593999997E+02  0.45594000000E+02  0.51100000000E-03 0.  1.
         23    2    1    2    0    0  0.35527136788E-14 -0.35527136788E-14  0.00000000000E+00  0.91188000000E+02  0.91188000000E+02 0.  0.
    9900012    2    3    3    0    0  0.19284213297E+02 -0.27952714612E+02 -0.14231818200E+02  0.54367084939E+02  0.40000001735E+02 0.  0.
         12    1    3    3    0    0 -0.19284213297E+02  0.27952714612E+02  0.14231818200E+02  0.36820915061E+02  0.00000000000E+00 0. -1.
         11    1    4    4    0    0  0.66744665825E+01 -0.67792157459E+01 -0.86527955359E+01  0.12859904398E+02  0.51100000000E-03 0. -1.
        -11    1    4    4    0    0  0.17487961030E+01  0.27351051231E+01 -0.13653342719E+02  0.14033989294E+02  0.51100000000E-03 0.  1.
         12    1    4    4    0    0  0.10860950611E+02 -0.23908603989E+02  0.80743200548E+01  0.27473191246E+02  0.00000000000E+00 0. -1.
</event>
<event>
 8    1  0.1229941E-006  0.9118800E+02  0.7816164E-02  0.1184000E+00
        -11   -1    0    0    0    0  0.00000000000E+00  0.00000000000E+00  0.45593999997E+02  0.45594000000E+02  0.51100000000E-03 0. -1.
         11   -1    0    0    0    0 -0.00000000000E+00 -0.00000000000E+00 -0.45593999997E+02  0.45594000000E+02  0.51100000000E-03 0.  1.
         23    2    1    2    0    0  0.00000000000E+00 -0.17763568394E-14  0.00000000000E+00  0.91188000000E+02  0.91188000000E+02 0.  0.
    9900012    2    3    3    0    0  0.18272106029E+01 -0.13027452102E+02 -0.34390788460E+02  0.54367088309E+02  0.40000009419E+02 0.  0.
         12    1    3    3    0    0 -0.18272106029E+01  0.13027452102E+02  0.34390788460E+02  0.36820911691E+02  0.00000000000E+00 0. -1.
         11    1    4    4    0    0 -0.15641266171E+01 -0.98666259163E+00  0.68254786549E+01  0.70715736773E+01  0.51100000000E-03 0. -1.
        -11    1    4    4    0    0  0.30193150350E+01 -0.17232872092E+02 -0.27168434767E+02  0.32314269167E+02  0.51100000000E-03 0.  1.
        -12    1    4    4    0    0  0.37202218500E+00  0.51920825812E+01 -0.14047832347E+02  0.14981245465E+02  0.00000000000E+00 0.  1.
</event>
<event>
 8    1  0.1229941E-006  0.9118800E+02  0.7816164E-02  0.1184000E+00
        -11   -1    0    0    0    0  0.00000000000E+00  0.00000000000E+00  0.45593999997E+02  0.45594000000E+02  0.51100000000E-03 0. -1.
         11   -1    0    0    0    0 -0.00000000000E+00 -0.00000000000E+00 -0.45593999997E+02  0.45594000000E+02  0.51100000000E-03 0.  1.
         23    2    1    2    0    0 -0.17763568394E-14  0.00000000000E+00  0.00000000000E+00  0.91188000000E+02  0.91188000000E+02 0.  0.
    9900012    2    3    3    0    0 -0.79056970364E+01 -0.17382148564E+02  0.31482390288E+02  0.54367081590E+02  0.39999994101E+02 0.  0.
        -12    1    3    3    0    0  0.79056970364E+01  0.17382148564E+02 -0.31482390288E+02  0.36820918410E+02  0.00000000000E+00 0.  1.
         11    1    4    4    0    0  0.26514124763E+01 -0.37576763327E+00  0.12153277587E+02  0.12444812003E+02  0.51100000000E-03 0. -1.
        -11    1    4    4    0    0  0.14625872718E+01  0.86267357727E+01  0.30608562081E+01  0.92697665886E+01  0.51100000000E-03 0.  1.
        -12    1    4    4    0    0 -0.12019696785E+02 -0.25633116703E+02  0.16268256493E+02  0.32652502998E+02  0.00000000000E+00 0.  1.
</event>
<event>
 8    1  0.1229941E-006  0.9118800E+02  0.7816164E-02  0.1184000E+00
        -11   -1    0    0    0    0  0.00000000000E+00  0.00000000000E+00  0.45593999997E+02  0.45594000000E+02  0.51100000000E-03 0. -1.
         11   -1    0    0    0    0 -0.00000000000E+00 -0.00000000000E+00 -0.45593999997E+02  0.45594000000E+02  0.51100000000E-03 0.  1.
         23    2    1    2    0    0  0.00000000000E+00  0.00000000000E+00  0.00000000000E+00  0.91188000000E+02  0.91188000000E+02 0.  0.
    9900012    2    3    3    0    0  0.30673736910E+02 -0.10860404462E+02 -0.17232358834E+02  0.54367072362E+02  0.39999973064E+02 0.  0.
        -12    1    3    3    0    0 -0.30673736910E+02  0.10860404462E+02  0.17232358834E+02  0.36820927638E+02  0.00000000000E+00 0.  1.
         11    1    4    4    0    0  0.74081851302E+01  0.62805472516E+01  0.47370076410E+01  0.10805818912E+02  0.51100000000E-03 0. -1.
        -11    1    4    4    0    0  0.98999379839E+01 -0.21270535274E+02 -0.11766823460E+02  0.26246953681E+02  0.51100000000E-03 0.  1.
        -12    1    4    4    0    0  0.13365613796E+02  0.41295835604E+01 -0.10202543015E+02  0.17314299769E+02  0.00000000000E+00 0.  1.
</event>
<event>
 8    1  0.1229941E-006  0.9118800E+02  0.7816164E-02  0.1184000E+00
        -11   -1    0    0    0    0  0.00000000000E+00  0.00000000000E+00  0.45593999997E+02  0.45594000000E+02  0.51100000000E-03 0. -1.
         11   -1    0    0    0    0 -0.00000000000E+00 -0.00000000000E+00 -0.45593999997E+02  0.45594000000E+02  0.51100000000E-03 0.  1.
         23    2    1    2    0    0  0.00000000000E+00  0.00000000000E+00  0.00000000000E+00  0.91188000000E+02  0.91188000000E+02 0.  0.
    9900012    2    3    3    0    0 -0.72117775740E+01 -0.36090850458E+02 -0.11055016069E+01  0.54367063613E+02  0.39999953119E+02 0.  0.
         12    1    3    3    0    0  0.72117775740E+01  0.36090850458E+02  0.11055016069E+01  0.36820936387E+02  0.00000000000E+00 0. -1.
         11    1    4    4    0    0 -0.52246679733E+01 -0.32947051857E+02  0.78273897193E+01  0.34264754655E+02  0.51100000000E-03 0. -1.
        -11    1    4    4    0    0 -0.40093064776E-01  0.55211558960E+01  0.21280598054E+01  0.59172129147E+01  0.51100000000E-03 0.  1.
        -12    1    4    4    0    0 -0.19470165360E+01 -0.86649544977E+01 -0.11060951132E+02  0.14185096044E+02  0.00000000000E+00 0.  1.
</event>
<event>
 8    1  0.1229941E-006  0.9118800E+02  0.7816164E-02  0.1184000E+00
        -11   -1    0    0    0    0  0.00000000000E+00  0.00000000000E+00  0.45593999997E+02  0.45594000000E+02  0.51100000000E-03 0. -1.
         11   -1    0    0    0    0 -0.00000000000E+00 -0.00000000000E+00 -0.45593999997E+02  0.45594000000E+02  0.51100000000E-03 0.  1.
         23    2    1    2    0    0  0.00000000000E+00 -0.88817841970E-15  0.00000000000E+00  0.91188000000E+02  0.91188000000E+02 0.  0.
    9900012    2    3    3    0    0 -0.82949498390E+01 -0.48746385869E+01 -0.35541685513E+02  0.54367086061E+02  0.40000004294E+02 0.  0.
         12    1    3    3    0    0  0.82949498390E+01  0.48746385869E+01  0.35541685513E+02  0.36820913939E+02  0.00000000000E+00 0. -1.
         11    1    4    4    0    0  0.20453909151E+01  0.45621832309E+00  0.15564809088E+00  0.21014246937E+01  0.51100000000E-03 0. -1.
        -11    1    4    4    0    0 -0.23722618519E+02 -0.68587296233E+01 -0.23733279176E+02  0.34250158279E+02  0.51100000000E-03 0.  1.
        -12    1    4    4    0    0  0.13382277764E+02  0.15278727133E+01 -0.11964054427E+02  0.18015503089E+02  0.00000000000E+00 0.  1.
</event>
<event>
 8    1  0.1229941E-006  0.9118800E+02  0.7816164E-02  0.1184000E+00
        -11   -1    0    0    0    0  0.00000000000E+00  0.00000000000E+00  0.45593999997E+02  0.45594000000E+02  0.51100000000E-03 0. -1.
         11   -1    0    0    0    0 -0.00000000000E+00 -0.00000000000E+00 -0.45593999997E+02  0.45594000000E+02  0.51100000000E-03 0.  1.
         23    2    1    2    0    0  0.00000000000E+00 -0.17763568394E-14 -0.71054273576E-14  0.91188000000E+02  0.91188000000E+02 0.  0.
    9900012    2    3    3    0    0  0.14745670813E+02  0.83448589060E+01 -0.32691114357E+02  0.54367076115E+02  0.39999981619E+02 0.  0.
         12    1    3    3    0    0 -0.14745670813E+02 -0.83448589060E+01  0.32691114357E+02  0.36820923885E+02  0.00000000000E+00 0. -1.
         11    1    4    4    0    0  0.17910076878E+02  0.13038280298E+02 -0.30607161508E+01  0.22363711466E+02  0.51100000000E-03 0. -1.
        -11    1    4    4    0    0  0.74962064010E+00  0.26710168574E+01 -0.14149700179E+02  0.14419094201E+02  0.51100000000E-03 0.  1.
         12    1    4    4    0    0 -0.39140267052E+01 -0.73644382497E+01 -0.15480698027E+02  0.17584270448E+02  0.00000000000E+00 0. -1.
</event>
<event>
 8    1  0.1229941E-006  0.9118800E+02  0.7816164E-02  0.1184000E+00
        -11   -1    0    0    0    0  0.00000000000E+00  0.00000000000E+00  0.45593999997E+02  0.45594000000E+02  0.51100000000E-03 0. -1.
         11   -1    0    0    0    0 -0.00000000000E+00 -0.00000000000E+00 -0.45593999997E+02  0.45594000000E+02  0.51100000000E-03 0.  1.
         23    2    1    2    0    0  0.00000000000E+00  0.00000000000E+00  0.88817841970E-15  0.91188000000E+02  0.91188000000E+02 0.  0.
    9900012    2    3    3    0    0  0.23130947149E+02 -0.28078799845E+02  0.56850728718E+01  0.54367085151E+02  0.40000002219E+02 0.  0.
        -12    1    3    3    0    0 -0.23130947149E+02  0.28078799845E+02 -0.56850728718E+01  0.36820914849E+02  0.00000000000E+00 0.  1.
         11    1    4    4    0    0  0.17172693691E+01  0.47789609640E+01 -0.63294108560E+01  0.81147349942E+01  0.51100000000E-03 0. -1.
        -11    1    4    4    0    0 -0.31527748134E+01 -0.93558581086E+01 -0.83341230433E+00  0.99079082708E+01  0.51100000000E-03 0.  1.
         12    1    4    4    0    0  0.24566452593E+02 -0.23501902701E+02  0.12847896032E+02  0.36344441886E+02  0.00000000000E+00 0. -1.
</event>
<event>
 8    1  0.1229941E-006  0.9118800E+02  0.7816164E-02  0.1184000E+00
        -11   -1    0    0    0    0  0.00000000000E+00  0.00000000000E+00  0.45593999997E+02  0.45594000000E+02  0.51100000000E-03 0. -1.
         11   -1    0    0    0    0 -0.00000000000E+00 -0.00000000000E+00 -0.45593999997E+02  0.45594000000E+02  0.51100000000E-03 0.  1.
         23    2    1    2    0    0  0.00000000000E+00 -0.35527136788E-14  0.00000000000E+00  0.91188000000E+02  0.91188000000E+02 0.  0.
    9900012    2    3    3    0    0 -0.30149168046E+02  0.18339314716E+02  0.10510804206E+02  0.54367084705E+02  0.40000001201E+02 0.  0.
        -12    1    3    3    0    0  0.30149168046E+02 -0.18339314716E+02 -0.10510804206E+02  0.36820915295E+02  0.00000000000E+00 0.  1.
         11    1    4    4    0    0 -0.21668431715E+02  0.15083093468E+02  0.13659630182E+02  0.29725513260E+02  0.51100000000E-03 0. -1.
        -11    1    4    4    0    0 -0.92033777227E+01 -0.67279659050E+01  0.42785165132E+01  0.12176756158E+02  0.51100000000E-03 0.  1.
        -12    1    4    4    0    0  0.72264139199E+00  0.99841871525E+01 -0.74273424892E+01  0.12464815287E+02  0.00000000000E+00 0.  1.
</event>
<event>
 8    1  0.1229941E-006  0.9118800E+02  0.7816164E-02  0.1184000E+00
        -11   -1    0    0    0    0  0.00000000000E+00  0.00000000000E+00  0.45593999997E+02  0.45594000000E+02  0.51100000000E-03 0.  1.
         11   -1    0    0    0    0 -0.00000000000E+00 -0.00000000000E+00 -0.45593999997E+02  0.45594000000E+02  0.51100000000E-03 0. -1.
         23    2    1    2    0    0 -0.35527136788E-14  0.00000000000E+00  0.00000000000E+00  0.91188000000E+02  0.91188000000E+02 0.  0.
    9900012    2    3    3    0    0  0.28246757890E+02 -0.14992012283E+02  0.18252126669E+02  0.54367083505E+02  0.39999998466E+02 0.  0.
         12    1    3    3    0    0 -0.28246757890E+02  0.14992012283E+02 -0.18252126669E+02  0.36820916495E+02  0.00000000000E+00 0. -1.
         11    1    4    4    0    0  0.11107076235E+02  0.87679675503E+01  0.88544198891E+01  0.16692667531E+02  0.51100000000E-03 0. -1.
        -11    1    4    4    0    0  0.12601997384E+02 -0.66368757170E+01  0.13353784905E+02  0.19523883551E+02  0.51100000000E-03 0.  1.
         12    1    4    4    0    0  0.45376842705E+01 -0.17123104117E+02 -0.39560781245E+01  0.18150532423E+02  0.00000000000E+00 0. -1.
</event>
<event>
 8    1  0.1229941E-006  0.9118800E+02  0.7816164E-02  0.1184000E+00
        -11   -1    0    0    0    0  0.00000000000E+00  0.00000000000E+00  0.45593999997E+02  0.45594000000E+02  0.51100000000E-03 0.  1.
         11   -1    0    0    0    0 -0.00000000000E+00 -0.00000000000E+00 -0.45593999997E+02  0.45594000000E+02  0.51100000000E-03 0. -1.
         23    2    1    2    0    0  0.00000000000E+00  0.00000000000E+00  0.00000000000E+00  0.91188000000E+02  0.91188000000E+02 0.  0.
    9900012    2    3    3    0    0 -0.90373967823E+01 -0.23714789770E+02  0.26677988365E+02  0.54367070386E+02  0.39999968559E+02 0.  0.
         12    1    3    3    0    0  0.90373967823E+01  0.23714789770E+02 -0.26677988365E+02  0.36820929614E+02  0.00000000000E+00 0. -1.
         11    1    4    4    0    0  0.82253149662E+00  0.34532330969E+00 -0.38414226566E+01  0.39436448293E+01  0.51100000000E-03 0. -1.
        -11    1    4    4    0    0 -0.93386319312E+01 -0.47136850557E+00 -0.26495200919E+01  0.97186517374E+01  0.51100000000E-03 0.  1.
        -12    1    4    4    0    0 -0.52129634767E+00 -0.23588744574E+02  0.33168931114E+02  0.40704773819E+02  0.00000000000E+00 0.  1.
</event>
<event>
 8    1  0.1229941E-006  0.9118800E+02  0.7816164E-02  0.1184000E+00
        -11   -1    0    0    0    0  0.00000000000E+00  0.00000000000E+00  0.45593999997E+02  0.45594000000E+02  0.51100000000E-03 0.  1.
         11   -1    0    0    0    0 -0.00000000000E+00 -0.00000000000E+00 -0.45593999997E+02  0.45594000000E+02  0.51100000000E-03 0. -1.
         23    2    1    2    0    0  0.00000000000E+00 -0.88817841970E-15 -0.66613381478E-15  0.91188000000E+02  0.91188000000E+02 0.  0.
    9900012    2    3    3    0    0  0.36341045779E+02 -0.57776638364E+01 -0.13148863624E+01  0.54367055772E+02  0.39999935243E+02 0.  0.
        -12    1    3    3    0    0 -0.36341045779E+02  0.57776638364E+01  0.13148863624E+01  0.36820944228E+02  0.00000000000E+00 0.  1.
         11    1    4    4    0    0  0.14755601420E+02  0.53973110336E+01 -0.13979150549E+02  0.21030344505E+02  0.51100000000E-03 0. -1.
        -11    1    4    4    0    0  0.11314559995E+02 -0.32887309387E+01 -0.38089461710E+01  0.12383177712E+02  0.51100000000E-03 0.  1.
        -12    1    4    4    0    0  0.10270884364E+02 -0.78862439314E+01  0.16473210357E+02  0.20953533555E+02  0.00000000000E+00 0.  1.
</event>
<event>
 8    1  0.1229941E-006  0.9118800E+02  0.7816164E-02  0.1184000E+00
        -11   -1    0    0    0    0  0.00000000000E+00  0.00000000000E+00  0.45593999997E+02  0.45594000000E+02  0.51100000000E-03 0. -1.
         11   -1    0    0    0    0 -0.00000000000E+00 -0.00000000000E+00 -0.45593999997E+02  0.45594000000E+02  0.51100000000E-03 0.  1.
         23    2    1    2    0    0  0.00000000000E+00  0.00000000000E+00  0.35527136788E-14  0.91188000000E+02  0.91188000000E+02 0.  0.
    9900012    2    3    3    0    0  0.25409492838E+02 -0.20991479498E+02  0.16416347973E+02  0.54367068201E+02  0.39999963577E+02 0.  0.
        -12    1    3    3    0    0 -0.25409492838E+02  0.20991479498E+02 -0.16416347973E+02  0.36820931799E+02  0.00000000000E+00 0.  1.
         11    1    4    4    0    0  0.65213132038E+01 -0.52413139569E+01 -0.61529320418E+01  0.10385445145E+02  0.51100000000E-03 0.  1.
        -11    1    4    4    0    0 -0.45615756649E+01 -0.14086744092E+01 -0.36384010500E+01  0.60025243523E+01  0.51100000000E-03 0. -1.
         12    1    4    4    0    0  0.23449755299E+02 -0.14341491131E+02  0.26207681065E+02  0.37979098703E+02  0.00000000000E+00 0. -1.
</event>
<event>
 8    1  0.1229941E-006  0.9118800E+02  0.7816164E-02  0.1184000E+00
        -11   -1    0    0    0    0  0.00000000000E+00  0.00000000000E+00  0.45593999997E+02  0.45594000000E+02  0.51100000000E-03 0.  1.
         11   -1    0    0    0    0 -0.00000000000E+00 -0.00000000000E+00 -0.45593999997E+02  0.45594000000E+02  0.51100000000E-03 0. -1.
         23    2    1    2    0    0  0.44408920985E-15  0.00000000000E+00  0.00000000000E+00  0.91188000000E+02  0.91188000000E+02 0.  0.
    9900012    2    3    3    0    0 -0.15976055027E+01  0.34269458961E+02  0.13372748894E+02  0.54367101399E+02  0.40000039260E+02 0.  0.
         12    1    3    3    0    0  0.15976055027E+01 -0.34269458961E+02 -0.13372748894E+02  0.36820898601E+02  0.00000000000E+00 0. -1.
         11    1    4    4    0    0 -0.21218538766E+01  0.15569932316E+01  0.49486684653E+01  0.56049809667E+01  0.51100000000E-03 0. -1.
        -11    1    4    4    0    0 -0.22064450010E+01  0.21962956437E+01  0.16730740253E+02  0.17017925366E+02  0.51100000000E-03 0.  1.
        -12    1    4    4    0    0  0.27306933750E+01  0.30516170085E+02 -0.83066598242E+01  0.31744195066E+02  0.00000000000E+00 0.  1.
</event>
<event>
 8    1  0.1229941E-006  0.9118800E+02  0.7816164E-02  0.1184000E+00
        -11   -1    0    0    0    0  0.00000000000E+00  0.00000000000E+00  0.45593999997E+02  0.45594000000E+02  0.51100000000E-03 0. -1.
         11   -1    0    0    0    0 -0.00000000000E+00 -0.00000000000E+00 -0.45593999997E+02  0.45594000000E+02  0.51100000000E-03 0.  1.
         23    2    1    2    0    0  0.17763568394E-14  0.00000000000E+00  0.00000000000E+00  0.91188000000E+02  0.91188000000E+02 0.  0.
    9900012    2    3    3    0    0 -0.49004282858E+01 -0.31922835252E+02  0.17683195304E+02  0.54367122714E+02  0.40000087852E+02 0.  0.
        -12    1    3    3    0    0  0.49004282858E+01  0.31922835252E+02 -0.17683195304E+02  0.36820877286E+02  0.00000000000E+00 0.  1.
         11    1    4    4    0    0 -0.13120533498E+02 -0.30485609461E+02  0.26294827995E+02  0.42343107621E+02  0.51100000000E-03 0. -1.
        -11    1    4    4    0    0  0.54061578904E+01 -0.13030481070E+01 -0.53912007960E+01  0.77452904264E+01  0.51100000000E-03 0.  1.
         12    1    4    4    0    0  0.28139473222E+01 -0.13417768393E+00 -0.32204318949E+01  0.42787246667E+01  0.00000000000E+00 0. -1.
</event>
<event>
 8    1  0.1229941E-006  0.9118800E+02  0.7816164E-02  0.1184000E+00
        -11   -1    0    0    0    0  0.00000000000E+00  0.00000000000E+00  0.45593999997E+02  0.45594000000E+02  0.51100000000E-03 0. -1.
         11   -1    0    0    0    0 -0.00000000000E+00 -0.00000000000E+00 -0.45593999997E+02  0.45594000000E+02  0.51100000000E-03 0.  1.
         23    2    1    2    0    0  0.00000000000E+00  0.00000000000E+00  0.00000000000E+00  0.91188000000E+02  0.91188000000E+02 0.  0.
    9900012    2    3    3    0    0  0.33771788734E+02  0.11863999114E+02 -0.86308555187E+01  0.54367083984E+02  0.39999999559E+02 0.  0.
        -12    1    3    3    0    0 -0.33771788734E+02 -0.11863999114E+02  0.86308555187E+01  0.36820916016E+02  0.00000000000E+00 0.  1.
         11    1    4    4    0    0  0.37491196895E+02  0.16166790046E+02 -0.98112076405E+00  0.40840146220E+02  0.51100000000E-03 0. -1.
        -11    1    4    4    0    0 -0.19183505892E+01 -0.19444142222E+01  0.20295932674E+01  0.34029494182E+01  0.51100000000E-03 0.  1.
         12    1    4    4    0    0 -0.18010575724E+01 -0.23583767097E+01 -0.96793280221E+01  0.10123988347E+02  0.00000000000E+00 0. -1.
</event>
<event>
 8    1  0.1229941E-006  0.9118800E+02  0.7816164E-02  0.1184000E+00
        -11   -1    0    0    0    0  0.00000000000E+00  0.00000000000E+00  0.45593999997E+02  0.45594000000E+02  0.51100000000E-03 0. -1.
         11   -1    0    0    0    0 -0.00000000000E+00 -0.00000000000E+00 -0.45593999997E+02  0.45594000000E+02  0.51100000000E-03 0.  1.
         23    2    1    2    0    0  0.35527136788E-14  0.00000000000E+00  0.00000000000E+00  0.91188000000E+02  0.91188000000E+02 0.  0.
    9900012    2    3    3    0    0  0.26723792886E+02  0.24323969108E+02  0.70671295307E+01  0.54367341407E+02  0.40000586402E+02 0.  0.
        -12    1    3    3    0    0 -0.26723792886E+02 -0.24323969108E+02 -0.70671295307E+01  0.36820658593E+02  0.00000000000E+00 0.  1.
         11    1    4    4    0    0  0.81472338880E+01  0.27399354541E+00  0.32471605999E+01  0.87747675018E+01  0.51100000000E-03 0. -1.
        -11    1    4    4    0    0  0.24276251617E+02  0.12554679056E+02  0.12549258491E+02  0.30073913076E+02  0.51100000000E-03 0.  1.
         12    1    4    4    0    0 -0.56996926189E+01  0.11495296506E+02 -0.87292895600E+01  0.15518660830E+02  0.00000000000E+00 0. -1.
</event>
<event>
 8    1  0.1229941E-006  0.9118800E+02  0.7816164E-02  0.1184000E+00
        -11   -1    0    0    0    0  0.00000000000E+00  0.00000000000E+00  0.45593999997E+02  0.45594000000E+02  0.51100000000E-03 0. -1.
         11   -1    0    0    0    0 -0.00000000000E+00 -0.00000000000E+00 -0.45593999997E+02  0.45594000000E+02  0.51100000000E-03 0.  1.
         23    2    1    2    0    0  0.00000000000E+00  0.00000000000E+00  0.00000000000E+00  0.91188000000E+02  0.91188000000E+02 0.  0.
    9900012    2    3    3    0    0  0.16616467387E+02  0.51411624264E+01  0.32453953787E+02  0.54366842278E+02  0.39999448538E+02 0.  0.
        -12    1    3    3    0    0 -0.16616467387E+02 -0.51411624264E+01 -0.32453953787E+02  0.36821157722E+02  0.00000000000E+00 0.  1.
         11    1    4    4    0    0  0.65348650231E+01 -0.79191430985E+01  0.49050435853E+01  0.11378784694E+02  0.51100000000E-03 0. -1.
        -11    1    4    4    0    0  0.12687633999E+02  0.20866835713E+02  0.23178342803E+02  0.33669518329E+02  0.51100000000E-03 0.  1.
         12    1    4    4    0    0 -0.26060316344E+01 -0.78065301882E+01  0.43705673992E+01  0.93185392552E+01  0.00000000000E+00 0. -1.
</event>
<event>
 8    1  0.1229941E-006  0.9118800E+02  0.7816164E-02  0.1184000E+00
        -11   -1    0    0    0    0  0.00000000000E+00  0.00000000000E+00  0.45593999997E+02  0.45594000000E+02  0.51100000000E-03 0.  1.
         11   -1    0    0    0    0 -0.00000000000E+00 -0.00000000000E+00 -0.45593999997E+02  0.45594000000E+02  0.51100000000E-03 0. -1.
         23    2    1    2    0    0  0.00000000000E+00  0.88817841970E-15  0.35527136788E-14  0.91188000000E+02  0.91188000000E+02 0.  0.
    9900012    2    3    3    0    0  0.31189869933E+02  0.53091861198E+01  0.18835752348E+02  0.54367068314E+02  0.39999963836E+02 0.  0.
         12    1    3    3    0    0 -0.31189869933E+02 -0.53091861198E+01 -0.18835752348E+02  0.36820931686E+02  0.00000000000E+00 0. -1.
         11    1    4    4    0    0  0.79118325041E+01 -0.56923815957E+01  0.81701904879E+01  0.12718188341E+02  0.51100000000E-03 0. -1.
        -11    1    4    4    0    0  0.14434665650E+02 -0.93824455734E+01  0.88438265949E+01  0.19354666788E+02  0.51100000000E-03 0.  1.
         12    1    4    4    0    0  0.88433717792E+01  0.20384013289E+02  0.18217352654E+01  0.22294213186E+02  0.00000000000E+00 0. -1.
</event>
<event>
 8    1  0.1229941E-006  0.9118800E+02  0.7816164E-02  0.1184000E+00
        -11   -1    0    0    0    0  0.00000000000E+00  0.00000000000E+00  0.45593999997E+02  0.45594000000E+02  0.51100000000E-03 0. -1.
         11   -1    0    0    0    0 -0.00000000000E+00 -0.00000000000E+00 -0.45593999997E+02  0.45594000000E+02  0.51100000000E-03 0.  1.
         23    2    1    2    0    0  0.00000000000E+00  0.35527136788E-14  0.00000000000E+00  0.91188000000E+02  0.91188000000E+02 0.  0.
    9900012    2    3    3    0    0 -0.23171878071E+02 -0.23209816660E+02 -0.16737608226E+02  0.54367094907E+02  0.40000024460E+02 0.  0.
         12    1    3    3    0    0  0.23171878071E+02  0.23209816660E+02  0.16737608226E+02  0.36820905093E+02  0.00000000000E+00 0. -1.
         11    1    4    4    0    0 -0.47730000436E+01 -0.10757793193E+02 -0.21195090144E-02  0.11769097185E+02  0.51100000000E-03 0. -1.
        -11    1    4    4    0    0  0.47232668014E+01  0.22660462259E+01 -0.14124696027E+02  0.15064901357E+02  0.51100000000E-03 0.  1.
        -12    1    4    4    0    0 -0.23122144829E+02 -0.14718069693E+02 -0.26107926898E+01  0.27533096365E+02  0.00000000000E+00 0.  1.
</event>
<event>
 8    1  0.1229941E-006  0.9118800E+02  0.7816164E-02  0.1184000E+00
        -11   -1    0    0    0    0  0.00000000000E+00  0.00000000000E+00  0.45593999997E+02  0.45594000000E+02  0.51100000000E-03 0. -1.
         11   -1    0    0    0    0 -0.00000000000E+00 -0.00000000000E+00 -0.45593999997E+02  0.45594000000E+02  0.51100000000E-03 0.  1.
         23    2    1    2    0    0 -0.35527136788E-14  0.00000000000E+00  0.00000000000E+00  0.91188000000E+02  0.91188000000E+02 0.  0.
    9900012    2    3    3    0    0 -0.27191868854E+02 -0.17314688301E+02  0.17792864286E+02  0.54367052399E+02  0.39999927555E+02 0.  0.
        -12    1    3    3    0    0  0.27191868854E+02  0.17314688301E+02 -0.17792864286E+02  0.36820947601E+02  0.00000000000E+00 0.  1.
         11    1    4    4    0    0  0.24032848534E+01  0.34120333362E+01  0.98292250199E+01  0.10678549261E+02  0.51100000000E-03 0. -1.
        -11    1    4    4    0    0 -0.16799645837E+02 -0.13951460769E+02 -0.69363959134E+01  0.22912549975E+02  0.51100000000E-03 0.  1.
         12    1    4    4    0    0 -0.12795507870E+02 -0.67752608682E+01  0.14900035179E+02  0.20775953163E+02  0.00000000000E+00 0. -1.
</event>
<event>
 8    1  0.1229941E-006  0.9118800E+02  0.7816164E-02  0.1184000E+00
        -11   -1    0    0    0    0  0.00000000000E+00  0.00000000000E+00  0.45593999997E+02  0.45594000000E+02  0.51100000000E-03 0.  1.
         11   -1    0    0    0    0 -0.00000000000E+00 -0.00000000000E+00 -0.45593999997E+02  0.45594000000E+02  0.51100000000E-03 0. -1.
         23    2    1    2    0    0 -0.71054273576E-14  0.94368957093E-15  0.00000000000E+00  0.91188000000E+02  0.91188000000E+02 0.  0.
    9900012    2    3    3    0    0 -0.35817682527E+02 -0.26197358242E+00  0.85328129269E+01  0.54367028961E+02  0.39999874123E+02 0.  0.
         12    1    3    3    0    0  0.35817682527E+02  0.26197358242E+00 -0.85328129269E+01  0.36820971039E+02  0.00000000000E+00 0. -1.
         11    1    4    4    0    0 -0.93268506059E+01 -0.15433097841E+02  0.34452344325E+01  0.18358657133E+02  0.51100000000E-03 0. -1.
        -11    1    4    4    0    0 -0.15694929785E+02 -0.14686322005E+01  0.31864670023E+01  0.16082327994E+02  0.51100000000E-03 0.  1.
         12    1    4    4    0    0 -0.10795902136E+02  0.16639756459E+02  0.19011114921E+01  0.19926043833E+02  0.00000000000E+00 0. -1.
</event>
<event>
 8    1  0.1229941E-006  0.9118800E+02  0.7816164E-02  0.1184000E+00
        -11   -1    0    0    0    0  0.00000000000E+00  0.00000000000E+00  0.45593999997E+02  0.45594000000E+02  0.51100000000E-03 0.  1.
         11   -1    0    0    0    0 -0.00000000000E+00 -0.00000000000E+00 -0.45593999997E+02  0.45594000000E+02  0.51100000000E-03 0. -1.
         23    2    1    2    0    0  0.00000000000E+00 -0.88817841970E-15  0.00000000000E+00  0.91188000000E+02  0.91188000000E+02 0.  0.
    9900012    2    3    3    0    0 -0.16028211643E+02  0.63717390955E+01 -0.32531171292E+02  0.54367085655E+02  0.40000003368E+02 0.  0.
        -12    1    3    3    0    0  0.16028211643E+02 -0.63717390955E+01  0.32531171292E+02  0.36820914345E+02  0.00000000000E+00 0.  1.
         11    1    4    4    0    0 -0.22568850091E+02  0.55157477486E+01 -0.13257278910E+02  0.26749428256E+02  0.51100000000E-03 0. -1.
        -11    1    4    4    0    0  0.70390064638E+01  0.66939112499E+01 -0.27645633451E+01  0.10099449023E+02  0.51100000000E-03 0.  1.
         12    1    4    4    0    0 -0.49836801515E+00 -0.58379199030E+01 -0.16509329037E+02  0.17518208376E+02  0.00000000000E+00 0. -1.
</event>
<event>
 8    1  0.1229941E-006  0.9118800E+02  0.7816164E-02  0.1184000E+00
        -11   -1    0    0    0    0  0.00000000000E+00  0.00000000000E+00  0.45593999997E+02  0.45594000000E+02  0.51100000000E-03 0.  1.
         11   -1    0    0    0    0 -0.00000000000E+00 -0.00000000000E+00 -0.45593999997E+02  0.45594000000E+02  0.51100000000E-03 0. -1.
         23    2    1    2    0    0  0.00000000000E+00  0.00000000000E+00  0.71054273576E-14  0.91188000000E+02  0.91188000000E+02 0.  0.
    9900012    2    3    3    0    0  0.80744713477E+01 -0.20049175430E+02 -0.29809631876E+02  0.54367072858E+02  0.39999974195E+02 0.  0.
        -12    1    3    3    0    0 -0.80744713477E+01  0.20049175430E+02  0.29809631876E+02  0.36820927142E+02  0.00000000000E+00 0.  1.
         11    1    4    4    0    0  0.12040021291E+01 -0.88420829287E+01 -0.19187631510E+02  0.21161220543E+02  0.51100000000E-03 0. -1.
        -11    1    4    4    0    0  0.41154846869E+01 -0.20551640346E+02 -0.10546177988E+02  0.23463354524E+02  0.51100000000E-03 0.  1.
        -12    1    4    4    0    0  0.27549845317E+01  0.93445478443E+01 -0.75822378810E-01  0.97424977915E+01  0.00000000000E+00 0.  1.
</event>
<event>
 8    1  0.1229941E-006  0.9118800E+02  0.7816164E-02  0.1184000E+00
        -11   -1    0    0    0    0  0.00000000000E+00  0.00000000000E+00  0.45593999997E+02  0.45594000000E+02  0.51100000000E-03 0. -1.
         11   -1    0    0    0    0 -0.00000000000E+00 -0.00000000000E+00 -0.45593999997E+02  0.45594000000E+02  0.51100000000E-03 0.  1.
         23    2    1    2    0    0  0.35527136788E-14  0.71054273576E-14 -0.17763568394E-14  0.91188000000E+02  0.91188000000E+02 0.  0.
    9900012    2    3    3    0    0 -0.20485242745E+02 -0.27994391343E+02  0.12347027800E+02  0.54367079147E+02  0.39999988532E+02 0.  0.
         12    1    3    3    0    0  0.20485242745E+02  0.27994391343E+02 -0.12347027800E+02  0.36820920853E+02  0.00000000000E+00 0. -1.
         11    1    4    4    0    0 -0.75136126398E+01 -0.16753482862E+02  0.10541725614E+02  0.21172187938E+02  0.51100000000E-03 0. -1.
        -11    1    4    4    0    0 -0.49721000341E+01 -0.81938104631E+01  0.14801012202E+02  0.17633214997E+02  0.51100000000E-03 0.  1.
        -12    1    4    4    0    0 -0.79995300710E+01 -0.30470980178E+01 -0.12995710017E+02  0.15561676212E+02  0.00000000000E+00 0.  1.
</event>
<event>
 8    1  0.1229941E-006  0.9118800E+02  0.7816164E-02  0.1184000E+00
        -11   -1    0    0    0    0  0.00000000000E+00  0.00000000000E+00  0.45593999997E+02  0.45594000000E+02  0.51100000000E-03 0. -1.
         11   -1    0    0    0    0 -0.00000000000E+00 -0.00000000000E+00 -0.45593999997E+02  0.45594000000E+02  0.51100000000E-03 0.  1.
         23    2    1    2    0    0  0.35527136788E-14  0.00000000000E+00 -0.35527136788E-14  0.91188000000E+02  0.91188000000E+02 0.  0.
    9900012    2    3    3    0    0  0.62407216650E+01 -0.23365018802E+02  0.27765244213E+02  0.54367088866E+02  0.40000010687E+02 0.  0.
        -12    1    3    3    0    0 -0.62407216650E+01  0.23365018802E+02 -0.27765244213E+02  0.36820911134E+02  0.00000000000E+00 0.  1.
         11    1    4    4    0    0 -0.97718227604E+01 -0.74109899939E+01  0.11865648949E+01  0.12321494603E+02  0.51100000000E-03 0. -1.
        -11    1    4    4    0    0  0.13059886861E+02  0.13270266151E+01  0.45525314359E+01  0.13894142190E+02  0.51100000000E-03 0.  1.
         12    1    4    4    0    0  0.29526575642E+01 -0.17281055424E+02  0.22026147882E+02  0.28151452072E+02  0.00000000000E+00 0. -1.
</event>
<event>
 8    1  0.1229941E-006  0.9118800E+02  0.7816164E-02  0.1184000E+00
        -11   -1    0    0    0    0  0.00000000000E+00  0.00000000000E+00  0.45593999997E+02  0.45594000000E+02  0.51100000000E-03 0.  1.
         11   -1    0    0    0    0 -0.00000000000E+00 -0.00000000000E+00 -0.45593999997E+02  0.45594000000E+02  0.51100000000E-03 0. -1.
         23    2    1    2    0    0  0.17763568394E-14  0.00000000000E+00  0.35527136788E-14  0.91188000000E+02  0.91188000000E+02 0.  0.
    9900012    2    3    3    0    0  0.11080626384E+02 -0.26408033590E+02  0.23143363682E+02  0.54367084725E+02  0.40000001248E+02 0.  0.
         12    1    3    3    0    0 -0.11080626384E+02  0.26408033590E+02 -0.23143363682E+02  0.36820915275E+02  0.00000000000E+00 0. -1.
         11    1    4    4    0    0  0.73966094450E+01 -0.15566422136E+02  0.42748523614E+01  0.17756623901E+02  0.51100000000E-03 0. -1.
        -11    1    4    4    0    0  0.10745566624E+02 -0.12895198608E+02  0.22767855293E+02  0.28286544224E+02  0.51100000000E-03 0.  1.
         12    1    4    4    0    0 -0.70615496848E+01  0.20535871535E+01 -0.38993439726E+01  0.83239166001E+01  0.00000000000E+00 0. -1.
</event>
<event>
 8    1  0.1229941E-006  0.9118800E+02  0.7816164E-02  0.1184000E+00
        -11   -1    0    0    0    0  0.00000000000E+00  0.00000000000E+00  0.45593999997E+02  0.45594000000E+02  0.51100000000E-03 0. -1.
         11   -1    0    0    0    0 -0.00000000000E+00 -0.00000000000E+00 -0.45593999997E+02  0.45594000000E+02  0.51100000000E-03 0.  1.
         23    2    1    2    0    0  0.00000000000E+00  0.00000000000E+00 -0.17763568394E-14  0.91188000000E+02  0.91188000000E+02 0.  0.
    9900012    2    3    3    0    0  0.24956112624E+01 -0.35228919929E+02  0.10415112739E+02  0.54367089524E+02  0.40000012187E+02 0.  0.
        -12    1    3    3    0    0 -0.24956112624E+01  0.35228919929E+02 -0.10415112739E+02  0.36820910476E+02  0.00000000000E+00 0.  1.
         11    1    4    4    0    0  0.11341191192E+02 -0.16363726235E+02  0.90500998854E+01  0.21870035714E+02  0.51100000000E-03 0. -1.
        -11    1    4    4    0    0  0.32366321900E+01 -0.63543686323E+01  0.10622523123E+02  0.12794209096E+02  0.51100000000E-03 0.  1.
        -12    1    4    4    0    0 -0.12082212119E+02 -0.12510825062E+02 -0.92575102690E+01  0.19702844713E+02  0.00000000000E+00 0.  1.
</event>
<event>
 8    1  0.1229941E-006  0.9118800E+02  0.7816164E-02  0.1184000E+00
        -11   -1    0    0    0    0  0.00000000000E+00  0.00000000000E+00  0.45593999997E+02  0.45594000000E+02  0.51100000000E-03 0.  1.
         11   -1    0    0    0    0 -0.00000000000E+00 -0.00000000000E+00 -0.45593999997E+02  0.45594000000E+02  0.51100000000E-03 0. -1.
         23    2    1    2    0    0 -0.35527136788E-14 -0.35527136788E-14  0.17763568394E-14  0.91188000000E+02  0.91188000000E+02 0.  0.
    9900012    2    3    3    0    0  0.24229128541E+02  0.23550285901E+02 -0.14632624401E+02  0.54367077514E+02  0.39999984809E+02 0.  0.
         12    1    3    3    0    0 -0.24229128541E+02 -0.23550285901E+02  0.14632624401E+02  0.36820922486E+02  0.00000000000E+00 0. -1.
         11    1    4    4    0    0 -0.56900898086E+01 -0.59738233739E+01 -0.20129420501E+01  0.84920918325E+01  0.51100000000E-03 0. -1.
        -11    1    4    4    0    0  0.11781010121E+02  0.45198085118E+01 -0.71530324580E+01  0.14504714477E+02  0.51100000000E-03 0.  1.
         12    1    4    4    0    0  0.18138208228E+02  0.25004300763E+02 -0.54666498926E+01  0.31370271204E+02  0.00000000000E+00 0. -1.
</event>
<event>
 8    1  0.1229941E-006  0.9118800E+02  0.7816164E-02  0.1184000E+00
        -11   -1    0    0    0    0  0.00000000000E+00  0.00000000000E+00  0.45593999997E+02  0.45594000000E+02  0.51100000000E-03 0. -1.
         11   -1    0    0    0    0 -0.00000000000E+00 -0.00000000000E+00 -0.45593999997E+02  0.45594000000E+02  0.51100000000E-03 0.  1.
         23    2    1    2    0    0  0.00000000000E+00  0.00000000000E+00  0.00000000000E+00  0.91188000000E+02  0.91188000000E+02 0.  0.
    9900012    2    3    3    0    0 -0.22946548798E+02 -0.19404272480E+02  0.21276839823E+02  0.54367166155E+02  0.40000186882E+02 0.  0.
        -12    1    3    3    0    0  0.22946548798E+02  0.19404272480E+02 -0.21276839823E+02  0.36820833845E+02  0.00000000000E+00 0.  1.
         11    1    4    4    0    0 -0.17384327283E+02 -0.38102417850E+01  0.19350030802E+02  0.26289854884E+02  0.51100000000E-03 0. -1.
        -11    1    4    4    0    0 -0.39506587293E+01 -0.21293021882E+02  0.35287228268E+01  0.21942022931E+02  0.51100000000E-03 0.  1.
         12    1    4    4    0    0 -0.16115627862E+01  0.56989911867E+01 -0.16019138065E+01  0.61352883391E+01  0.00000000000E+00 0. -1.
</event>
<event>
 8    1  0.1229941E-006  0.9118800E+02  0.7816164E-02  0.1184000E+00
        -11   -1    0    0    0    0  0.00000000000E+00  0.00000000000E+00  0.45593999997E+02  0.45594000000E+02  0.51100000000E-03 0. -1.
         11   -1    0    0    0    0 -0.00000000000E+00 -0.00000000000E+00 -0.45593999997E+02  0.45594000000E+02  0.51100000000E-03 0.  1.
         23    2    1    2    0    0 -0.35527136788E-14  0.00000000000E+00  0.00000000000E+00  0.91188000000E+02  0.91188000000E+02 0.  0.
    9900012    2    3    3    0    0  0.22304178238E+02  0.22185744418E+02 -0.19133657301E+02  0.54367075732E+02  0.39999980745E+02 0.  0.
         12    1    3    3    0    0 -0.22304178238E+02 -0.22185744418E+02  0.19133657301E+02  0.36820924268E+02  0.00000000000E+00 0. -1.
         11    1    4    4    0    0  0.29191728695E+01  0.12443088946E+02 -0.13163826192E+02  0.18347707024E+02  0.51100000000E-03 0. -1.
        -11    1    4    4    0    0 -0.49225895444E+01  0.65607317269E+01 -0.79524156000E+01  0.11424360059E+02  0.51100000000E-03 0.  1.
         12    1    4    4    0    0  0.24307594913E+02  0.31819237444E+01  0.19825844906E+01  0.24595008649E+02  0.00000000000E+00 0. -1.
</event>
<event>
 8    1  0.1229941E-006  0.9118800E+02  0.7816164E-02  0.1184000E+00
        -11   -1    0    0    0    0  0.00000000000E+00  0.00000000000E+00  0.45593999997E+02  0.45594000000E+02  0.51100000000E-03 0. -1.
         11   -1    0    0    0    0 -0.00000000000E+00 -0.00000000000E+00 -0.45593999997E+02  0.45594000000E+02  0.51100000000E-03 0.  1.
         23    2    1    2    0    0  0.00000000000E+00 -0.35527136788E-14  0.88817841970E-15  0.91188000000E+02  0.91188000000E+02 0.  0.
    9900012    2    3    3    0    0  0.22889426068E+02 -0.28033165705E+02  0.67820208807E+01  0.54367081864E+02  0.39999994725E+02 0.  0.
        -12    1    3    3    0    0 -0.22889426068E+02  0.28033165705E+02 -0.67820208807E+01  0.36820918136E+02  0.00000000000E+00 0.  1.
         11    1    4    4    0    0  0.19366908207E+02 -0.33681112786E+02 -0.17601127170E+00  0.38852612167E+02  0.51100000000E-03 0. -1.
        -11    1    4    4    0    0  0.63106512652E+01  0.21695920295E+01 -0.64148179762E+00  0.67039501879E+01  0.51100000000E-03 0.  1.
         12    1    4    4    0    0 -0.27881334033E+01  0.34783550517E+01  0.75995139500E+01  0.88105195089E+01  0.00000000000E+00 0. -1.
</event>
<event>
 8    1  0.1229941E-006  0.9118800E+02  0.7816164E-02  0.1184000E+00
        -11   -1    0    0    0    0  0.00000000000E+00  0.00000000000E+00  0.45593999997E+02  0.45594000000E+02  0.51100000000E-03 0.  1.
         11   -1    0    0    0    0 -0.00000000000E+00 -0.00000000000E+00 -0.45593999997E+02  0.45594000000E+02  0.51100000000E-03 0. -1.
         23    2    1    2    0    0  0.00000000000E+00  0.00000000000E+00  0.00000000000E+00  0.91188000000E+02  0.91188000000E+02 0.  0.
    9900012    2    3    3    0    0 -0.15035323709E+02  0.29367577935E+02  0.16348212684E+02  0.54367086775E+02  0.40000005920E+02 0.  0.
         12    1    3    3    0    0  0.15035323709E+02 -0.29367577935E+02 -0.16348212684E+02  0.36820913225E+02  0.00000000000E+00 0. -1.
         11    1    4    4    0    0 -0.14034079546E+02  0.22638069173E+02  0.11312757495E+01  0.26659282617E+02  0.51100000000E-03 0. -1.
        -11    1    4    4    0    0 -0.83659940471E+01  0.65429685448E+01 -0.19831129698E+00  0.10622599560E+02  0.51100000000E-03 0.  1.
        -12    1    4    4    0    0  0.73647498837E+01  0.18654021669E+00  0.15415248231E+02  0.17085204597E+02  0.00000000000E+00 0.  1.
</event>
<event>
 8    1  0.1229941E-006  0.9118800E+02  0.7816164E-02  0.1184000E+00
        -11   -1    0    0    0    0  0.00000000000E+00  0.00000000000E+00  0.45593999997E+02  0.45594000000E+02  0.51100000000E-03 0. -1.
         11   -1    0    0    0    0 -0.00000000000E+00 -0.00000000000E+00 -0.45593999997E+02  0.45594000000E+02  0.51100000000E-03 0.  1.
         23    2    1    2    0    0  0.00000000000E+00 -0.35527136788E-14  0.00000000000E+00  0.91188000000E+02  0.91188000000E+02 0.  0.
    9900012    2    3    3    0    0 -0.26202571363E+02 -0.24331216636E+02  0.87861799971E+01  0.54367084640E+02  0.40000001053E+02 0.  0.
        -12    1    3    3    0    0  0.26202571363E+02  0.24331216636E+02 -0.87861799971E+01  0.36820915360E+02  0.00000000000E+00 0.  1.
         11    1    4    4    0    0 -0.14726475095E+02 -0.23828649294E+02  0.34383676083E+01  0.28222260150E+02  0.51100000000E-03 0. -1.
        -11    1    4    4    0    0  0.41560170353E+01  0.57341611911E+01 -0.25846659612E+01  0.75388049819E+01  0.51100000000E-03 0.  1.
         12    1    4    4    0    0 -0.15632113304E+02 -0.62367285325E+01  0.79324783500E+01  0.18606019507E+02  0.00000000000E+00 0. -1.
</event>
<event>
 8    1  0.1229941E-006  0.9118800E+02  0.7816164E-02  0.1184000E+00
        -11   -1    0    0    0    0  0.00000000000E+00  0.00000000000E+00  0.45593999997E+02  0.45594000000E+02  0.51100000000E-03 0.  1.
         11   -1    0    0    0    0 -0.00000000000E+00 -0.00000000000E+00 -0.45593999997E+02  0.45594000000E+02  0.51100000000E-03 0. -1.
         23    2    1    2    0    0  0.00000000000E+00  0.00000000000E+00  0.00000000000E+00  0.91188000000E+02  0.91188000000E+02 0.  0.
    9900012    2    3    3    0    0  0.10912462755E+02 -0.10690369412E+02  0.33502463685E+02  0.54367069614E+02  0.39999966799E+02 0.  0.
         12    1    3    3    0    0 -0.10912462755E+02  0.10690369412E+02 -0.33502463685E+02  0.36820930386E+02  0.00000000000E+00 0. -1.
         11    1    4    4    0    0  0.10206609414E+02  0.20615341467E+01 -0.39614585462E+00  0.10420255782E+02  0.51100000000E-03 0. -1.
        -11    1    4    4    0    0  0.11388171441E+02 -0.71202357103E+01  0.26700877522E+02  0.29888544060E+02  0.51100000000E-03 0.  1.
         12    1    4    4    0    0 -0.10682318101E+02 -0.56316678488E+01  0.71977320176E+01  0.14058269771E+02  0.00000000000E+00 0. -1.
</event>
<event>
 8    1  0.1229941E-006  0.9118800E+02  0.7816164E-02  0.1184000E+00
        -11   -1    0    0    0    0  0.00000000000E+00  0.00000000000E+00  0.45593999997E+02  0.45594000000E+02  0.51100000000E-03 0.  1.
         11   -1    0    0    0    0 -0.00000000000E+00 -0.00000000000E+00 -0.45593999997E+02  0.45594000000E+02  0.51100000000E-03 0. -1.
         23    2    1    2    0    0  0.00000000000E+00  0.00000000000E+00  0.00000000000E+00  0.91188000000E+02  0.91188000000E+02 0.  0.
    9900012    2    3    3    0    0  0.11025504072E+02  0.33552953598E+02  0.10412326803E+02  0.54367095820E+02  0.40000026541E+02 0.  0.
         12    1    3    3    0    0 -0.11025504072E+02 -0.33552953598E+02 -0.10412326803E+02  0.36820904180E+02  0.00000000000E+00 0. -1.
         11    1    4    4    0    0  0.75571090415E+01  0.23783984076E+02  0.51833185305E+01  0.25488322558E+02  0.51100000000E-03 0. -1.
        -11    1    4    4    0    0  0.67283602404E+01 -0.69138019518E+01  0.68074813230E+01  0.11807340563E+02  0.51100000000E-03 0.  1.
         12    1    4    4    0    0 -0.32599652094E+01  0.16682771474E+02 -0.15784730502E+01  0.17071432699E+02  0.00000000000E+00 0. -1.
</event>
<event>
 8    1  0.1229941E-006  0.9118800E+02  0.7816164E-02  0.1184000E+00
        -11   -1    0    0    0    0  0.00000000000E+00  0.00000000000E+00  0.45593999997E+02  0.45594000000E+02  0.51100000000E-03 0. -1.
         11   -1    0    0    0    0 -0.00000000000E+00 -0.00000000000E+00 -0.45593999997E+02  0.45594000000E+02  0.51100000000E-03 0.  1.
         23    2    1    2    0    0 -0.35527136788E-14  0.00000000000E+00 -0.35527136788E-14  0.91188000000E+02  0.91188000000E+02 0.  0.
    9900012    2    3    3    0    0  0.19353755211E+02  0.17093511589E+02 -0.26249350739E+02  0.54367022373E+02  0.39999859103E+02 0.  0.
         12    1    3    3    0    0 -0.19353755211E+02 -0.17093511589E+02  0.26249350739E+02  0.36820977627E+02  0.00000000000E+00 0. -1.
         11    1    4    4    0    0 -0.50615415155E+01 -0.12165685099E+01 -0.55844595200E+01  0.76344894947E+01  0.51100000000E-03 0. -1.
        -11    1    4    4    0    0  0.25274987191E+02  0.11925396299E+02 -0.32150071758E+01  0.28131411728E+02  0.51100000000E-03 0.  1.
        -12    1    4    4    0    0 -0.85969046472E+00  0.63846837999E+01 -0.17449884043E+02  0.18601121150E+02  0.00000000000E+00 0.  1.
</event>
<event>
 8    1  0.1229941E-006  0.9118800E+02  0.7816164E-02  0.1184000E+00
        -11   -1    0    0    0    0  0.00000000000E+00  0.00000000000E+00  0.45593999997E+02  0.45594000000E+02  0.51100000000E-03 0. -1.
         11   -1    0    0    0    0 -0.00000000000E+00 -0.00000000000E+00 -0.45593999997E+02  0.45594000000E+02  0.51100000000E-03 0.  1.
         23    2    1    2    0    0  0.00000000000E+00  0.00000000000E+00  0.35527136788E-14  0.91188000000E+02  0.91188000000E+02 0.  0.
    9900012    2    3    3    0    0 -0.19326021631E+02 -0.95521537403E+01 -0.29850347435E+02  0.54367054940E+02  0.39999933346E+02 0.  0.
         12    1    3    3    0    0  0.19326021631E+02  0.95521537403E+01  0.29850347435E+02  0.36820945060E+02  0.00000000000E+00 0. -1.
         11    1    4    4    0    0 -0.11868121517E+02  0.49428500011E+01 -0.13520322709E+02  0.18656987991E+02  0.51100000000E-03 0. -1.
        -11    1    4    4    0    0 -0.13840026103E+02 -0.16237443767E+02 -0.39854427426E+01  0.21704484715E+02  0.51100000000E-03 0.  1.
        -12    1    4    4    0    0  0.63821259886E+01  0.17424400256E+01 -0.12344581983E+02  0.14005582234E+02  0.00000000000E+00 0.  1.
</event>
<event>
 8    1  0.1229941E-006  0.9118800E+02  0.7816164E-02  0.1184000E+00
        -11   -1    0    0    0    0  0.00000000000E+00  0.00000000000E+00  0.45593999997E+02  0.45594000000E+02  0.51100000000E-03 0.  1.
         11   -1    0    0    0    0 -0.00000000000E+00 -0.00000000000E+00 -0.45593999997E+02  0.45594000000E+02  0.51100000000E-03 0. -1.
         23    2    1    2    0    0  0.88817841970E-15  0.17763568394E-14  0.00000000000E+00  0.91188000000E+02  0.91188000000E+02 0.  0.
    9900012    2    3    3    0    0 -0.53254041454E+01  0.50795963532E+01  0.36077906838E+02  0.54367114755E+02  0.40000069707E+02 0.  0.
         12    1    3    3    0    0  0.53254041454E+01 -0.50795963532E+01 -0.36077906838E+02  0.36820885245E+02  0.00000000000E+00 0. -1.
         11    1    4    4    0    0 -0.30534057324E+00 -0.12806136483E+02  0.25163203084E+01  0.13054586652E+02  0.51100000000E-03 0. -1.
        -11    1    4    4    0    0 -0.19936770140E+01  0.11280756308E+02  0.62469444311E+01  0.13048161783E+02  0.51100000000E-03 0.  1.
         12    1    4    4    0    0 -0.30263865581E+01  0.66049765282E+01  0.27314642098E+02  0.28264366320E+02  0.00000000000E+00 0. -1.
</event>
<event>
 8    1  0.1229941E-006  0.9118800E+02  0.7816164E-02  0.1184000E+00
        -11   -1    0    0    0    0  0.00000000000E+00  0.00000000000E+00  0.45593999997E+02  0.45594000000E+02  0.51100000000E-03 0. -1.
         11   -1    0    0    0    0 -0.00000000000E+00 -0.00000000000E+00 -0.45593999997E+02  0.45594000000E+02  0.51100000000E-03 0.  1.
         23    2    1    2    0    0  0.35527136788E-14  0.00000000000E+00  0.00000000000E+00  0.91188000000E+02  0.91188000000E+02 0.  0.
    9900012    2    3    3    0    0 -0.28229577056E+02 -0.22972744097E+02  0.55788665283E+01  0.54367085511E+02  0.40000003038E+02 0.  0.
        -12    1    3    3    0    0  0.28229577056E+02  0.22972744097E+02 -0.55788665283E+01  0.36820914489E+02  0.00000000000E+00 0.  1.
         11    1    4    4    0    0  0.32970884567E+01 -0.72324562073E+00  0.36176650265E+01  0.49478659060E+01  0.51100000000E-03 0. -1.
        -11    1    4    4    0    0 -0.31601684645E+02 -0.17091328788E+02 -0.92318594324E+01  0.37094571314E+02  0.51100000000E-03 0.  1.
        -12    1    4    4    0    0  0.75019132610E-01 -0.51581696888E+01  0.11193060934E+02  0.12324648291E+02  0.00000000000E+00 0.  1.
</event>
<event>
 8    1  0.1229941E-006  0.9118800E+02  0.7816164E-02  0.1184000E+00
        -11   -1    0    0    0    0  0.00000000000E+00  0.00000000000E+00  0.45593999997E+02  0.45594000000E+02  0.51100000000E-03 0.  1.
         11   -1    0    0    0    0 -0.00000000000E+00 -0.00000000000E+00 -0.45593999997E+02  0.45594000000E+02  0.51100000000E-03 0. -1.
         23    2    1    2    0    0  0.00000000000E+00  0.22204460493E-14  0.00000000000E+00  0.91188000000E+02  0.91188000000E+02 0.  0.
    9900012    2    3    3    0    0 -0.31506083896E+02 -0.28990863004E+01  0.18834568431E+02  0.54367095722E+02  0.40000026318E+02 0.  0.
         12    1    3    3    0    0  0.31506083896E+02  0.28990863004E+01 -0.18834568431E+02  0.36820904278E+02  0.00000000000E+00 0. -1.
         11    1    4    4    0    0 -0.88913074987E+01  0.12105625077E+02  0.21976291032E+02  0.26618769230E+02  0.51100000000E-03 0. -1.
        -11    1    4    4    0    0 -0.11723487153E+02 -0.10617600847E+02 -0.21965712677E+01  0.15968673219E+02  0.51100000000E-03 0.  1.
         12    1    4    4    0    0 -0.10891289244E+02 -0.43871105296E+01 -0.94515133317E+00  0.11779653274E+02  0.00000000000E+00 0. -1.
</event>
<event>
 8    1  0.1229941E-006  0.9118800E+02  0.7816164E-02  0.1184000E+00
        -11   -1    0    0    0    0  0.00000000000E+00  0.00000000000E+00  0.45593999997E+02  0.45594000000E+02  0.51100000000E-03 0.  1.
         11   -1    0    0    0    0 -0.00000000000E+00 -0.00000000000E+00 -0.45593999997E+02  0.45594000000E+02  0.51100000000E-03 0. -1.
         23    2    1    2    0    0  0.00000000000E+00  0.00000000000E+00  0.00000000000E+00  0.91188000000E+02  0.91188000000E+02 0.  0.
    9900012    2    3    3    0    0 -0.25918987306E+02  0.17838480654E+02  0.19125250029E+02  0.54367075464E+02  0.39999980135E+02 0.  0.
         12    1    3    3    0    0  0.25918987306E+02 -0.17838480654E+02 -0.19125250029E+02  0.36820924536E+02  0.00000000000E+00 0. -1.
         11    1    4    4    0    0 -0.27578055594E+01 -0.61611436750E+01  0.57510485953E+01  0.88679052258E+01  0.51100000000E-03 0. -1.
        -11    1    4    4    0    0 -0.11826040733E+01 -0.33154209599E+01  0.96145344982E+01  0.10238644559E+02  0.51100000000E-03 0.  1.
        -12    1    4    4    0    0 -0.21978577673E+02  0.27315045289E+02  0.37596669358E+01  0.35260525679E+02  0.00000000000E+00 0.  1.
</event>
<event>
 8    1  0.1229941E-006  0.9118800E+02  0.7816164E-02  0.1184000E+00
        -11   -1    0    0    0    0  0.00000000000E+00  0.00000000000E+00  0.45593999997E+02  0.45594000000E+02  0.51100000000E-03 0. -1.
         11   -1    0    0    0    0 -0.00000000000E+00 -0.00000000000E+00 -0.45593999997E+02  0.45594000000E+02  0.51100000000E-03 0.  1.
         23    2    1    2    0    0 -0.71054273576E-14 -0.17763568394E-14  0.17763568394E-14  0.91188000000E+02  0.91188000000E+02 0.  0.
    9900012    2    3    3    0    0  0.35591519374E+02  0.49506622501E+01 -0.80321185501E+01  0.54367078821E+02  0.39999987789E+02 0.  0.
         12    1    3    3    0    0 -0.35591519374E+02 -0.49506622501E+01  0.80321185501E+01  0.36820921179E+02  0.00000000000E+00 0. -1.
         11    1    4    4    0    0  0.69346259387E+01 -0.52668554233E+01 -0.42969995107E+01  0.97104586923E+01  0.51100000000E-03 0. -1.
        -11    1    4    4    0    0  0.28337520556E+02  0.89480335235E+01 -0.15019432569E+02  0.33296632415E+02  0.51100000000E-03 0.  1.
         12    1    4    4    0    0  0.31937287898E+00  0.12694841499E+01  0.11284313529E+02  0.11359987714E+02  0.00000000000E+00 0. -1.
</event>
<event>
 8    1  0.1229941E-006  0.9118800E+02  0.7816164E-02  0.1184000E+00
        -11   -1    0    0    0    0  0.00000000000E+00  0.00000000000E+00  0.45593999997E+02  0.45594000000E+02  0.51100000000E-03 0.  1.
         11   -1    0    0    0    0 -0.00000000000E+00 -0.00000000000E+00 -0.45593999997E+02  0.45594000000E+02  0.51100000000E-03 0. -1.
         23    2    1    2    0    0  0.00000000000E+00  0.00000000000E+00  0.00000000000E+00  0.91188000000E+02  0.91188000000E+02 0.  0.
    9900012    2    3    3    0    0  0.33399192591E+02 -0.96216746592E+01  0.12153075575E+02  0.54367082916E+02  0.39999997124E+02 0.  0.
         12    1    3    3    0    0 -0.33399192591E+02  0.96216746592E+01 -0.12153075575E+02  0.36820917084E+02  0.00000000000E+00 0. -1.
         11    1    4    4    0    0  0.45585365354E+01  0.10377840776E+02 -0.40735348200E+00  0.11342211937E+02  0.51100000000E-03 0. -1.
        -11    1    4    4    0    0  0.36517816832E+01 -0.95600270127E+01  0.11974906549E+02  0.15752079643E+02  0.51100000000E-03 0.  1.
        -12    1    4    4    0    0  0.25188874372E+02 -0.10439488422E+02  0.58552250763E+00  0.27272791336E+02  0.00000000000E+00 0.  1.
</event>
<event>
 8    1  0.1229941E-006  0.9118800E+02  0.7816164E-02  0.1184000E+00
        -11   -1    0    0    0    0  0.00000000000E+00  0.00000000000E+00  0.45593999997E+02  0.45594000000E+02  0.51100000000E-03 0.  1.
         11   -1    0    0    0    0 -0.00000000000E+00 -0.00000000000E+00 -0.45593999997E+02  0.45594000000E+02  0.51100000000E-03 0. -1.
         23    2    1    2    0    0  0.00000000000E+00  0.17763568394E-14  0.00000000000E+00  0.91188000000E+02  0.91188000000E+02 0.  0.
    9900012    2    3    3    0    0 -0.20511829113E+02 -0.13384640011E+02 -0.27493572951E+02  0.54367078292E+02  0.39999986583E+02 0.  0.
        -12    1    3    3    0    0  0.20511829113E+02  0.13384640011E+02  0.27493572951E+02  0.36820921708E+02  0.00000000000E+00 0.  1.
         11    1    4    4    0    0 -0.14253246313E+02 -0.10707384633E+02 -0.68131864674E+01  0.19084617530E+02  0.51100000000E-03 0. -1.
        -11    1    4    4    0    0 -0.45017326526E+00 -0.14950221538E+02 -0.97838861194E+01  0.17872778403E+02  0.51100000000E-03 0.  1.
         12    1    4    4    0    0 -0.58084095345E+01  0.12272966160E+02 -0.10896500364E+02  0.17409682360E+02  0.00000000000E+00 0. -1.
</event>
<event>
 8    1  0.1229941E-006  0.9118800E+02  0.7816164E-02  0.1184000E+00
        -11   -1    0    0    0    0  0.00000000000E+00  0.00000000000E+00  0.45593999997E+02  0.45594000000E+02  0.51100000000E-03 0.  1.
         11   -1    0    0    0    0 -0.00000000000E+00 -0.00000000000E+00 -0.45593999997E+02  0.45594000000E+02  0.51100000000E-03 0. -1.
         23    2    1    2    0    0  0.00000000000E+00  0.00000000000E+00 -0.88817841970E-15  0.91188000000E+02  0.91188000000E+02 0.  0.
    9900012    2    3    3    0    0  0.27267935153E+02 -0.24337833270E+02  0.44619148173E+01  0.54367094259E+02  0.40000022981E+02 0.  0.
         12    1    3    3    0    0 -0.27267935153E+02  0.24337833270E+02 -0.44619148173E+01  0.36820905741E+02  0.00000000000E+00 0. -1.
         11    1    4    4    0    0  0.40150149880E+00 -0.23135377925E+02  0.10339034453E+02  0.25343688541E+02  0.51100000000E-03 0. -1.
        -11    1    4    4    0    0  0.20608186922E+02 -0.23591436010E+01 -0.59270477994E+00  0.20751246371E+02  0.51100000000E-03 0.  1.
        -12    1    4    4    0    0  0.62582467321E+01  0.11566882558E+01 -0.52844148559E+01  0.82721593463E+01  0.00000000000E+00 0.  1.
</event>
<event>
 8    1  0.1229941E-006  0.9118800E+02  0.7816164E-02  0.1184000E+00
        -11   -1    0    0    0    0  0.00000000000E+00  0.00000000000E+00  0.45593999997E+02  0.45594000000E+02  0.51100000000E-03 0. -1.
         11   -1    0    0    0    0 -0.00000000000E+00 -0.00000000000E+00 -0.45593999997E+02  0.45594000000E+02  0.51100000000E-03 0.  1.
         23    2    1    2    0    0  0.00000000000E+00  0.17763568394E-14 -0.71054273576E-14  0.91188000000E+02  0.91188000000E+02 0.  0.
    9900012    2    3    3    0    0  0.77822050358E+01 -0.46676592846E+01 -0.35685154898E+02  0.54367081509E+02  0.39999993917E+02 0.  0.
         12    1    3    3    0    0 -0.77822050358E+01  0.46676592846E+01  0.35685154898E+02  0.36820918491E+02  0.00000000000E+00 0. -1.
         11    1    4    4    0    0 -0.24629319435E-01  0.41987148013E+01 -0.10734555474E+02  0.11526512659E+02  0.51100000000E-03 0. -1.
        -11    1    4    4    0    0  0.79413651950E+01 -0.16287533758E+02 -0.29142193218E+02  0.34316416813E+02  0.51100000000E-03 0.  1.
        -12    1    4    4    0    0 -0.13453083982E+00  0.74211596718E+01  0.41915937945E+01  0.85241520376E+01  0.00000000000E+00 0.  1.
</event>
<event>
 8    1  0.1229941E-006  0.9118800E+02  0.7816164E-02  0.1184000E+00
        -11   -1    0    0    0    0  0.00000000000E+00  0.00000000000E+00  0.45593999997E+02  0.45594000000E+02  0.51100000000E-03 0. -1.
         11   -1    0    0    0    0 -0.00000000000E+00 -0.00000000000E+00 -0.45593999997E+02  0.45594000000E+02  0.51100000000E-03 0.  1.
         23    2    1    2    0    0 -0.17763568394E-14 -0.88817841970E-15  0.00000000000E+00  0.91188000000E+02  0.91188000000E+02 0.  0.
    9900012    2    3    3    0    0  0.12669367404E+02 -0.44580035033E+01 -0.34284007227E+02  0.54367084514E+02  0.40000000767E+02 0.  0.
         12    1    3    3    0    0 -0.12669367404E+02  0.44580035033E+01  0.34284007227E+02  0.36820915486E+02  0.00000000000E+00 0. -1.
         11    1    4    4    0    0 -0.90185550430E+00 -0.52815026009E+01  0.30607837789E+01  0.61705762029E+01  0.51100000000E-03 0. -1.
        -11    1    4    4    0    0  0.20816375018E+02 -0.38069782556E+01 -0.21489621952E+02  0.30159880706E+02  0.51100000000E-03 0.  1.
        -12    1    4    4    0    0 -0.72451521100E+01  0.46304773532E+01 -0.15855169054E+02  0.18036627605E+02  0.00000000000E+00 0.  1.
</event>
<event>
 8    1  0.1229941E-006  0.9118800E+02  0.7816164E-02  0.1184000E+00
        -11   -1    0    0    0    0  0.00000000000E+00  0.00000000000E+00  0.45593999997E+02  0.45594000000E+02  0.51100000000E-03 0.  1.
         11   -1    0    0    0    0 -0.00000000000E+00 -0.00000000000E+00 -0.45593999997E+02  0.45594000000E+02  0.51100000000E-03 0. -1.
         23    2    1    2    0    0  0.00000000000E+00 -0.88817841970E-15  0.00000000000E+00  0.91188000000E+02  0.91188000000E+02 0.  0.
    9900012    2    3    3    0    0  0.15044646340E+02  0.29563010365E+01  0.33476867221E+02  0.54367058428E+02  0.39999941297E+02 0.  0.
         12    1    3    3    0    0 -0.15044646340E+02 -0.29563010365E+01 -0.33476867221E+02  0.36820941572E+02  0.00000000000E+00 0. -1.
         11    1    4    4    0    0 -0.57348861267E+01  0.65952977619E+01  0.15468476181E+02  0.17766840661E+02  0.51100000000E-03 0. -1.
        -11    1    4    4    0    0  0.22621205582E+02 -0.42269390976E+01  0.22205534273E+02  0.31979238714E+02  0.51100000000E-03 0.  1.
         12    1    4    4    0    0 -0.18416731153E+01  0.58794237215E+00 -0.41971432321E+01  0.46209790528E+01  0.00000000000E+00 0. -1.
</event>
<event>
 8    1  0.1229941E-006  0.9118800E+02  0.7816164E-02  0.1184000E+00
        -11   -1    0    0    0    0  0.00000000000E+00  0.00000000000E+00  0.45593999997E+02  0.45594000000E+02  0.51100000000E-03 0.  1.
         11   -1    0    0    0    0 -0.00000000000E+00 -0.00000000000E+00 -0.45593999997E+02  0.45594000000E+02  0.51100000000E-03 0. -1.
         23    2    1    2    0    0  0.88817841970E-15  0.00000000000E+00  0.00000000000E+00  0.91188000000E+02  0.91188000000E+02 0.  0.
    9900012    2    3    3    0    0  0.63984542379E+01  0.18281293050E+02  0.31315047689E+02  0.54367107779E+02  0.40000053803E+02 0.  0.
         12    1    3    3    0    0 -0.63984542379E+01 -0.18281293050E+02 -0.31315047689E+02  0.36820892221E+02  0.00000000000E+00 0. -1.
         11    1    4    4    0    0  0.54344807257E+01  0.63277895336E+01  0.79522827969E+01  0.11524465414E+02  0.51100000000E-03 0. -1.
        -11    1    4    4    0    0  0.16078479341E+02  0.12904134824E+02  0.11512511332E+02  0.23612964890E+02  0.51100000000E-03 0.  1.
         12    1    4    4    0    0 -0.15114505829E+02 -0.95063130738E+00  0.11850253560E+02  0.19229677474E+02  0.00000000000E+00 0. -1.
</event>
<event>
 8    1  0.1229941E-006  0.9118800E+02  0.7816164E-02  0.1184000E+00
        -11   -1    0    0    0    0  0.00000000000E+00  0.00000000000E+00  0.45593999997E+02  0.45594000000E+02  0.51100000000E-03 0. -1.
         11   -1    0    0    0    0 -0.00000000000E+00 -0.00000000000E+00 -0.45593999997E+02  0.45594000000E+02  0.51100000000E-03 0.  1.
         23    2    1    2    0    0  0.00000000000E+00  0.00000000000E+00  0.44408920985E-15  0.91188000000E+02  0.91188000000E+02 0.  0.
    9900012    2    3    3    0    0 -0.27891095770E+02 -0.23831818244E+02 -0.31480882924E+01  0.54367092298E+02  0.40000018512E+02 0.  0.
        -12    1    3    3    0    0  0.27891095770E+02  0.23831818244E+02  0.31480882924E+01  0.36820907702E+02  0.00000000000E+00 0.  1.
         11    1    4    4    0    0  0.19670941561E+01  0.48109185668E+01 -0.17131738851E+01  0.54726010175E+01  0.51100000000E-03 0. -1.
        -11    1    4    4    0    0 -0.23629246284E+02 -0.59537296929E+01  0.41339124984E+01  0.24715934334E+02  0.51100000000E-03 0.  1.
         12    1    4    4    0    0 -0.62289436423E+01 -0.22689007118E+02 -0.55688269057E+01  0.24178556947E+02  0.00000000000E+00 0. -1.
</event>
<event>
 8    1  0.1229941E-006  0.9118800E+02  0.7816164E-02  0.1184000E+00
        -11   -1    0    0    0    0  0.00000000000E+00  0.00000000000E+00  0.45593999997E+02  0.45594000000E+02  0.51100000000E-03 0.  1.
         11   -1    0    0    0    0 -0.00000000000E+00 -0.00000000000E+00 -0.45593999997E+02  0.45594000000E+02  0.51100000000E-03 0. -1.
         23    2    1    2    0    0 -0.35527136788E-14 -0.71054273576E-14  0.26645352591E-14  0.91188000000E+02  0.91188000000E+02 0.  0.
    9900012    2    3    3    0    0 -0.13477195392E+02 -0.33378083614E+02  0.77487831134E+01  0.54367151271E+02  0.40000152952E+02 0.  0.
         12    1    3    3    0    0  0.13477195392E+02  0.33378083614E+02 -0.77487831134E+01  0.36820848729E+02  0.00000000000E+00 0. -1.
         11    1    4    4    0    0  0.93715382448E+00 -0.18975284149E+01  0.89111655443E+00  0.22962927407E+01  0.51100000000E-03 0. -1.
        -11    1    4    4    0    0 -0.22779745227E+01 -0.31571128653E+02 -0.82318685461E+01  0.32706100232E+02  0.51100000000E-03 0.  1.
         12    1    4    4    0    0 -0.12136374694E+02  0.90573454345E-01  0.15089535105E+02  0.19364758298E+02  0.00000000000E+00 0. -1.
</event>
<event>
 8    1  0.1229941E-006  0.9118800E+02  0.7816164E-02  0.1184000E+00
        -11   -1    0    0    0    0  0.00000000000E+00  0.00000000000E+00  0.45593999997E+02  0.45594000000E+02  0.51100000000E-03 0.  1.
         11   -1    0    0    0    0 -0.00000000000E+00 -0.00000000000E+00 -0.45593999997E+02  0.45594000000E+02  0.51100000000E-03 0. -1.
         23    2    1    2    0    0  0.88817841970E-15 -0.35527136788E-14 -0.35527136788E-14  0.91188000000E+02  0.91188000000E+02 0.  0.
    9900012    2    3    3    0    0  0.53312968185E+01 -0.18715120433E+02 -0.31258607244E+02  0.54367095809E+02  0.40000026517E+02 0.  0.
        -12    1    3    3    0    0 -0.53312968185E+01  0.18715120433E+02  0.31258607244E+02  0.36820904191E+02  0.00000000000E+00 0.  1.
         11    1    4    4    0    0  0.95376913052E+01 -0.47364584505E+01 -0.77149078736E+01  0.13149958093E+02  0.51100000000E-03 0.  1.
        -11    1    4    4    0    0 -0.11715804239E+02 -0.19160653472E+02 -0.93134962670E+01  0.24313204713E+02  0.51100000000E-03 0. -1.
         12    1    4    4    0    0  0.75094097524E+01  0.51819914895E+01 -0.14230203103E+02  0.16903933004E+02  0.00000000000E+00 0. -1.
</event>
<event>
 8    1  0.1229941E-006  0.9118800E+02  0.7816164E-02  0.1184000E+00
        -11   -1    0    0    0    0  0.00000000000E+00  0.00000000000E+00  0.45593999997E+02  0.45594000000E+02  0.51100000000E-03 0.  1.
         11   -1    0    0    0    0 -0.00000000000E+00 -0.00000000000E+00 -0.45593999997E+02  0.45594000000E+02  0.51100000000E-03 0. -1.
         23    2    1    2    0    0  0.35527136788E-14 -0.35527136788E-14  0.00000000000E+00  0.91188000000E+02  0.91188000000E+02 0.  0.
    9900012    2    3    3    0    0 -0.23353715475E+02  0.25453585406E+02  0.12747568440E+02  0.54367061152E+02  0.39999947508E+02 0.  0.
         12    1    3    3    0    0  0.23353715475E+02 -0.25453585406E+02 -0.12747568440E+02  0.36820938848E+02  0.00000000000E+00 0. -1.
         11    1    4    4    0    0  0.35665413761E+01  0.25186077059E+01 -0.39940650432E+01  0.59174452252E+01  0.51100000000E-03 0. -1.
        -11    1    4    4    0    0 -0.53855267846E+01  0.23293400251E+02  0.95172610911E+01  0.25732560171E+02  0.51100000000E-03 0.  1.
        -12    1    4    4    0    0 -0.21534730066E+02 -0.35842255114E+00  0.72243723925E+01  0.22717055756E+02  0.00000000000E+00 0.  1.
</event>
<event>
 8    1  0.1229941E-006  0.9118800E+02  0.7816164E-02  0.1184000E+00
        -11   -1    0    0    0    0  0.00000000000E+00  0.00000000000E+00  0.45593999997E+02  0.45594000000E+02  0.51100000000E-03 0.  1.
         11   -1    0    0    0    0 -0.00000000000E+00 -0.00000000000E+00 -0.45593999997E+02  0.45594000000E+02  0.51100000000E-03 0. -1.
         23    2    1    2    0    0  0.00000000000E+00  0.00000000000E+00  0.00000000000E+00  0.91188000000E+02  0.91188000000E+02 0.  0.
    9900012    2    3    3    0    0  0.25645651222E+02 -0.26388116194E+02 -0.13233440315E+01  0.54367036646E+02  0.39999891642E+02 0.  0.
         12    1    3    3    0    0 -0.25645651222E+02  0.26388116194E+02  0.13233440315E+01  0.36820963354E+02  0.00000000000E+00 0. -1.
         11    1    4    4    0    0  0.26144548100E+02 -0.25183318759E+02 -0.89275147281E+01  0.37382314783E+02  0.51100000000E-03 0. -1.
        -11    1    4    4    0    0  0.32968638382E+01  0.53473217758E+01  0.40573503669E-01  0.62821021810E+01  0.51100000000E-03 0.  1.
         12    1    4    4    0    0 -0.37957607157E+01 -0.65521192106E+01  0.75635971929E+01  0.10702619682E+02  0.00000000000E+00 0. -1.
</event>
<event>
 8    1  0.1229941E-006  0.9118800E+02  0.7816164E-02  0.1184000E+00
        -11   -1    0    0    0    0  0.00000000000E+00  0.00000000000E+00  0.45593999997E+02  0.45594000000E+02  0.51100000000E-03 0.  1.
         11   -1    0    0    0    0 -0.00000000000E+00 -0.00000000000E+00 -0.45593999997E+02  0.45594000000E+02  0.51100000000E-03 0. -1.
         23    2    1    2    0    0  0.00000000000E+00 -0.22204460493E-15 -0.71054273576E-14  0.91188000000E+02  0.91188000000E+02 0.  0.
    9900012    2    3    3    0    0  0.52481207465E+01  0.19312970817E+01 -0.36393783063E+02  0.54367080329E+02  0.39999991225E+02 0.  0.
        -12    1    3    3    0    0 -0.52481207465E+01 -0.19312970817E+01  0.36393783063E+02  0.36820919671E+02  0.00000000000E+00 0.  1.
         11    1    4    4    0    0  0.56059631786E+01 -0.38899112590E+00 -0.32466744326E+02  0.32949470779E+02  0.51100000000E-03 0. -1.
        -11    1    4    4    0    0  0.50833967852E+01  0.25470385179E+01  0.71137153485E+01  0.91067708002E+01  0.51100000000E-03 0.  1.
        -12    1    4    4    0    0 -0.54412392174E+01 -0.22675031026E+00 -0.11040754086E+02  0.12310838749E+02  0.00000000000E+00 0.  1.
</event>
<event>
 8    1  0.1229941E-006  0.9118800E+02  0.7816164E-02  0.1184000E+00
        -11   -1    0    0    0    0  0.00000000000E+00  0.00000000000E+00  0.45593999997E+02  0.45594000000E+02  0.51100000000E-03 0.  1.
         11   -1    0    0    0    0 -0.00000000000E+00 -0.00000000000E+00 -0.45593999997E+02  0.45594000000E+02  0.51100000000E-03 0. -1.
         23    2    1    2    0    0  0.00000000000E+00  0.00000000000E+00 -0.35527136788E-14  0.91188000000E+02  0.91188000000E+02 0.  0.
    9900012    2    3    3    0    0 -0.26181809213E+02  0.86378091985E+01 -0.24406571786E+02  0.54367087087E+02  0.40000006631E+02 0.  0.
        -12    1    3    3    0    0  0.26181809213E+02 -0.86378091985E+01  0.24406571786E+02  0.36820912913E+02  0.00000000000E+00 0.  1.
         11    1    4    4    0    0 -0.24894751492E+01  0.27661201695E+01 -0.66914261834E+01  0.76566371169E+01  0.51100000000E-03 0. -1.
        -11    1    4    4    0    0 -0.16500549813E+02  0.55105369983E+01 -0.28708890571E+02  0.33568356532E+02  0.51100000000E-03 0.  1.
        -12    1    4    4    0    0 -0.71917842504E+01  0.36115203075E+00  0.10993744969E+02  0.13142093438E+02  0.00000000000E+00 0.  1.
</event>
<event>
 8    1  0.1229941E-006  0.9118800E+02  0.7816164E-02  0.1184000E+00
        -11   -1    0    0    0    0  0.00000000000E+00  0.00000000000E+00  0.45593999997E+02  0.45594000000E+02  0.51100000000E-03 0. -1.
         11   -1    0    0    0    0 -0.00000000000E+00 -0.00000000000E+00 -0.45593999997E+02  0.45594000000E+02  0.51100000000E-03 0.  1.
         23    2    1    2    0    0  0.00000000000E+00  0.00000000000E+00 -0.88817841970E-15  0.91188000000E+02  0.91188000000E+02 0.  0.
    9900012    2    3    3    0    0  0.81135020131E+01 -0.35514132294E+02 -0.53561721864E+01  0.54367203051E+02  0.40000270994E+02 0.  0.
         12    1    3    3    0    0 -0.81135020131E+01  0.35514132294E+02  0.53561721864E+01  0.36820796949E+02  0.00000000000E+00 0. -1.
         11    1    4    4    0    0 -0.78781389575E+01 -0.11443100486E+02  0.32574189593E+01  0.14269562037E+02  0.51100000000E-03 0. -1.
        -11    1    4    4    0    0  0.19661521968E+02 -0.27421038855E+02 -0.94929693741E+01  0.35051466243E+02  0.51100000000E-03 0.  1.
         12    1    4    4    0    0 -0.36698809972E+01  0.33500070480E+01  0.87937822834E+00  0.50461747714E+01  0.00000000000E+00 0. -1.
</event>
<event>
 8    1  0.1229941E-006  0.9118800E+02  0.7816164E-02  0.1184000E+00
        -11   -1    0    0    0    0  0.00000000000E+00  0.00000000000E+00  0.45593999997E+02  0.45594000000E+02  0.51100000000E-03 0. -1.
         11   -1    0    0    0    0 -0.00000000000E+00 -0.00000000000E+00 -0.45593999997E+02  0.45594000000E+02  0.51100000000E-03 0.  1.
         23    2    1    2    0    0 -0.17763568394E-14  0.00000000000E+00 -0.35527136788E-14  0.91188000000E+02  0.91188000000E+02 0.  0.
    9900012    2    3    3    0    0 -0.55748761153E+01 -0.33293340484E+02 -0.14705595126E+02  0.54367078063E+02  0.39999986061E+02 0.  0.
         12    1    3    3    0    0  0.55748761153E+01  0.33293340484E+02  0.14705595126E+02  0.36820921937E+02  0.00000000000E+00 0. -1.
         11    1    4    4    0    0 -0.16003792111E+02 -0.23288613569E+02 -0.69823159511E+01  0.29107277788E+02  0.51100000000E-03 0. -1.
        -11    1    4    4    0    0 -0.11669564895E+01 -0.66464325048E+01  0.44754388719E+01  0.80973085557E+01  0.51100000000E-03 0.  1.
        -12    1    4    4    0    0  0.11595872485E+02 -0.33582944096E+01 -0.12198718047E+02  0.17162491720E+02  0.00000000000E+00 0.  1.
</event>
<event>
 8    1  0.1229941E-006  0.9118800E+02  0.7816164E-02  0.1184000E+00
        -11   -1    0    0    0    0  0.00000000000E+00  0.00000000000E+00  0.45593999997E+02  0.45594000000E+02  0.51100000000E-03 0. -1.
         11   -1    0    0    0    0 -0.00000000000E+00 -0.00000000000E+00 -0.45593999997E+02  0.45594000000E+02  0.51100000000E-03 0.  1.
         23    2    1    2    0    0  0.00000000000E+00  0.00000000000E+00  0.00000000000E+00  0.91188000000E+02  0.91188000000E+02 0.  0.
    9900012    2    3    3    0    0  0.35819027233E+02 -0.45985548075E+01 -0.71855804110E+01  0.54367055090E+02  0.39999933689E+02 0.  0.
         12    1    3    3    0    0 -0.35819027233E+02  0.45985548075E+01  0.71855804110E+01  0.36820944910E+02  0.00000000000E+00 0. -1.
         11    1    4    4    0    0  0.80538188968E+00  0.18892439953E+01 -0.13237643352E+02  0.13396010027E+02  0.51100000000E-03 0. -1.
        -11    1    4    4    0    0  0.18860245284E+02 -0.33676322274E+00 -0.61190955189E+01  0.19830925139E+02  0.51100000000E-03 0.  1.
         12    1    4    4    0    0  0.16153400059E+02 -0.61510355800E+01  0.12171158460E+02  0.21140119925E+02  0.00000000000E+00 0. -1.
</event>
<event>
 8    1  0.1229941E-006  0.9118800E+02  0.7816164E-02  0.1184000E+00
        -11   -1    0    0    0    0  0.00000000000E+00  0.00000000000E+00  0.45593999997E+02  0.45594000000E+02  0.51100000000E-03 0.  1.
         11   -1    0    0    0    0 -0.00000000000E+00 -0.00000000000E+00 -0.45593999997E+02  0.45594000000E+02  0.51100000000E-03 0. -1.
         23    2    1    2    0    0  0.00000000000E+00 -0.53290705182E-14 -0.35527136788E-14  0.91188000000E+02  0.91188000000E+02 0.  0.
    9900012    2    3    3    0    0  0.19065332709E+02 -0.13632905087E+02 -0.28397843741E+02  0.54367074678E+02  0.39999978343E+02 0.  0.
        -12    1    3    3    0    0 -0.19065332709E+02  0.13632905087E+02  0.28397843741E+02  0.36820925322E+02  0.00000000000E+00 0.  1.
         11    1    4    4    0    0  0.20710259755E+02 -0.88855560885E+01 -0.31037835540E+02  0.38356423209E+02  0.51100000000E-03 0. -1.
        -11    1    4    4    0    0  0.51397967049E+01  0.17458915540E+01 -0.16676830334E+01  0.56786278666E+01  0.51100000000E-03 0.  1.
        -12    1    4    4    0    0 -0.67847237510E+01 -0.64932405530E+01  0.43076748323E+01  0.10332023602E+02  0.00000000000E+00 0.  1.
</event>
<event>
 8    1  0.1229941E-006  0.9118800E+02  0.7816164E-02  0.1184000E+00
        -11   -1    0    0    0    0  0.00000000000E+00  0.00000000000E+00  0.45593999997E+02  0.45594000000E+02  0.51100000000E-03 0. -1.
         11   -1    0    0    0    0 -0.00000000000E+00 -0.00000000000E+00 -0.45593999997E+02  0.45594000000E+02  0.51100000000E-03 0.  1.
         23    2    1    2    0    0  0.00000000000E+00  0.00000000000E+00  0.00000000000E+00  0.91188000000E+02  0.91188000000E+02 0.  0.
    9900012    2    3    3    0    0 -0.15909402847E+02  0.11745745315E+02 -0.31059790239E+02  0.54367052135E+02  0.39999926953E+02 0.  0.
         12    1    3    3    0    0  0.15909402847E+02 -0.11745745315E+02  0.31059790239E+02  0.36820947865E+02  0.00000000000E+00 0. -1.
         11    1    4    4    0    0  0.90613557404E+01 -0.52308817043E+01 -0.16708408621E+02  0.19713985142E+02  0.51100000000E-03 0. -1.
        -11    1    4    4    0    0 -0.10917088850E+01  0.19546319684E+01 -0.40355716400E+01  0.46150030492E+01  0.51100000000E-03 0.  1.
         12    1    4    4    0    0 -0.23879049703E+02  0.15021995051E+02 -0.10315809978E+02  0.30038063944E+02  0.00000000000E+00 0. -1.
</event>
<event>
 8    1  0.1229941E-006  0.9118800E+02  0.7816164E-02  0.1184000E+00
        -11   -1    0    0    0    0  0.00000000000E+00  0.00000000000E+00  0.45593999997E+02  0.45594000000E+02  0.51100000000E-03 0. -1.
         11   -1    0    0    0    0 -0.00000000000E+00 -0.00000000000E+00 -0.45593999997E+02  0.45594000000E+02  0.51100000000E-03 0.  1.
         23    2    1    2    0    0 -0.13322676296E-14  0.35527136788E-14  0.00000000000E+00  0.91188000000E+02  0.91188000000E+02 0.  0.
    9900012    2    3    3    0    0  0.17517834766E+01 -0.14576961465E+02  0.33767227101E+02  0.54367052470E+02  0.39999927716E+02 0.  0.
        -12    1    3    3    0    0 -0.17517834766E+01  0.14576961465E+02 -0.33767227101E+02  0.36820947530E+02  0.00000000000E+00 0.  1.
         11    1    4    4    0    0 -0.31339025331E+00  0.76974645056E+01 -0.28713266518E+01  0.82215381936E+01  0.51100000000E-03 0. -1.
        -11    1    4    4    0    0 -0.68859966544E+01 -0.14539737230E+02  0.23329498339E+02  0.28338779114E+02  0.51100000000E-03 0.  1.
         12    1    4    4    0    0  0.89511703843E+01 -0.77346887405E+01  0.13309055414E+02  0.17806735163E+02  0.00000000000E+00 0. -1.
</event>
<event>
 8    1  0.1229941E-006  0.9118800E+02  0.7816164E-02  0.1184000E+00
        -11   -1    0    0    0    0  0.00000000000E+00  0.00000000000E+00  0.45593999997E+02  0.45594000000E+02  0.51100000000E-03 0. -1.
         11   -1    0    0    0    0 -0.00000000000E+00 -0.00000000000E+00 -0.45593999997E+02  0.45594000000E+02  0.51100000000E-03 0.  1.
         23    2    1    2    0    0  0.00000000000E+00  0.00000000000E+00  0.00000000000E+00  0.91188000000E+02  0.91188000000E+02 0.  0.
    9900012    2    3    3    0    0 -0.18754402150E+02  0.12152850336E+02  0.29263634093E+02  0.54367086763E+02  0.40000005894E+02 0.  0.
         12    1    3    3    0    0  0.18754402150E+02 -0.12152850336E+02 -0.29263634093E+02  0.36820913237E+02  0.00000000000E+00 0. -1.
         11    1    4    4    0    0  0.34549892323E-01 -0.11510635154E+00 -0.40381526337E+01  0.40399406087E+01  0.51100000000E-03 0. -1.
        -11    1    4    4    0    0 -0.10887575769E+02  0.22344284105E+02  0.23439778533E+02  0.34164741419E+02  0.51100000000E-03 0.  1.
         12    1    4    4    0    0 -0.79013762728E+01 -0.10076327417E+02  0.98620081935E+01  0.16162404735E+02  0.00000000000E+00 0. -1.
</event>
<event>
 8    1  0.1229941E-006  0.9118800E+02  0.7816164E-02  0.1184000E+00
        -11   -1    0    0    0    0  0.00000000000E+00  0.00000000000E+00  0.45593999997E+02  0.45594000000E+02  0.51100000000E-03 0. -1.
         11   -1    0    0    0    0 -0.00000000000E+00 -0.00000000000E+00 -0.45593999997E+02  0.45594000000E+02  0.51100000000E-03 0.  1.
         23    2    1    2    0    0 -0.26645352591E-14 -0.26645352591E-14  0.00000000000E+00  0.91188000000E+02  0.91188000000E+02 0.  0.
    9900012    2    3    3    0    0 -0.68615698405E+01 -0.69947979922E+01 -0.35493304573E+02  0.54367041171E+02  0.39999901956E+02 0.  0.
         12    1    3    3    0    0  0.68615698405E+01  0.69947979922E+01  0.35493304573E+02  0.36820958829E+02  0.00000000000E+00 0. -1.
         11    1    4    4    0    0 -0.67441139788E+01  0.33183724280E+01 -0.95287779399E+01  0.12136403018E+02  0.51100000000E-03 0. -1.
        -11    1    4    4    0    0  0.66790434777E+01  0.88303081277E+01 -0.16375103528E+02  0.19766840396E+02  0.51100000000E-03 0.  1.
        -12    1    4    4    0    0 -0.67964993394E+01 -0.19143478548E+02 -0.95894231047E+01  0.22463797757E+02  0.00000000000E+00 0.  1.
</event>
<event>
 8    1  0.1229941E-006  0.9118800E+02  0.7816164E-02  0.1184000E+00
        -11   -1    0    0    0    0  0.00000000000E+00  0.00000000000E+00  0.45593999997E+02  0.45594000000E+02  0.51100000000E-03 0. -1.
         11   -1    0    0    0    0 -0.00000000000E+00 -0.00000000000E+00 -0.45593999997E+02  0.45594000000E+02  0.51100000000E-03 0.  1.
         23    2    1    2    0    0  0.00000000000E+00  0.00000000000E+00 -0.17763568394E-14  0.91188000000E+02  0.91188000000E+02 0.  0.
    9900012    2    3    3    0    0 -0.31928720695E+02 -0.17821376539E+02 -0.43284830369E+01  0.54367076161E+02  0.39999981724E+02 0.  0.
         12    1    3    3    0    0  0.31928720695E+02  0.17821376539E+02  0.43284830369E+01  0.36820923839E+02  0.00000000000E+00 0. -1.
         11    1    4    4    0    0 -0.13993542372E+02 -0.30515168994E+00  0.12723193110E+02  0.18915390264E+02  0.51100000000E-03 0. -1.
        -11    1    4    4    0    0 -0.53771592991E+01 -0.12172541723E+02  0.38030043210E+00  0.13312747381E+02  0.51100000000E-03 0.  1.
        -12    1    4    4    0    0 -0.12558019024E+02 -0.53436831259E+01 -0.17431976579E+02  0.22138938516E+02  0.00000000000E+00 0.  1.
</event>
<event>
 8    1  0.1229941E-006  0.9118800E+02  0.7816164E-02  0.1184000E+00
        -11   -1    0    0    0    0  0.00000000000E+00  0.00000000000E+00  0.45593999997E+02  0.45594000000E+02  0.51100000000E-03 0. -1.
         11   -1    0    0    0    0 -0.00000000000E+00 -0.00000000000E+00 -0.45593999997E+02  0.45594000000E+02  0.51100000000E-03 0.  1.
         23    2    1    2    0    0 -0.88817841970E-15  0.00000000000E+00  0.71054273576E-14  0.91188000000E+02  0.91188000000E+02 0.  0.
    9900012    2    3    3    0    0  0.66463486617E+01  0.99902966873E+01 -0.34810924194E+02  0.54367076306E+02  0.39999982055E+02 0.  0.
         12    1    3    3    0    0 -0.66463486617E+01 -0.99902966873E+01  0.34810924194E+02  0.36820923694E+02  0.00000000000E+00 0. -1.
         11    1    4    4    0    0  0.20962460810E+01 -0.84745704843E+01 -0.19591342179E+02  0.21448386447E+02  0.51100000000E-03 0. -1.
        -11    1    4    4    0    0 -0.47429551281E+01  0.14713059754E+02 -0.16735801128E+02  0.22782817875E+02  0.51100000000E-03 0.  1.
        -12    1    4    4    0    0  0.92930577087E+01  0.37518074180E+01  0.15162191138E+01  0.10135871984E+02  0.00000000000E+00 0.  1.
</event>
<event>
 8    1  0.1229941E-006  0.9118800E+02  0.7816164E-02  0.1184000E+00
        -11   -1    0    0    0    0  0.00000000000E+00  0.00000000000E+00  0.45593999997E+02  0.45594000000E+02  0.51100000000E-03 0.  1.
         11   -1    0    0    0    0 -0.00000000000E+00 -0.00000000000E+00 -0.45593999997E+02  0.45594000000E+02  0.51100000000E-03 0. -1.
         23    2    1    2    0    0  0.44408920985E-15  0.00000000000E+00 -0.71054273576E-14  0.91188000000E+02  0.91188000000E+02 0.  0.
    9900012    2    3    3    0    0 -0.30718075168E+01 -0.16207197946E+02 -0.32919269535E+02  0.54366979191E+02  0.39999760661E+02 0.  0.
        -12    1    3    3    0    0  0.30718075168E+01  0.16207197946E+02  0.32919269535E+02  0.36821020809E+02  0.00000000000E+00 0.  1.
         11    1    4    4    0    0 -0.76503879944E+01  0.15650200243E+01 -0.22135601779E+02  0.23472592327E+02  0.51100000000E-03 0. -1.
        -11    1    4    4    0    0 -0.48702575279E+01 -0.17783291171E+02 -0.30597130271E+01  0.18690283500E+02  0.51100000000E-03 0.  1.
         12    1    4    4    0    0  0.94488380055E+01  0.11073200408E-01 -0.77239547286E+01  0.12204103364E+02  0.00000000000E+00 0. -1.
</event>
<event>
 8    1  0.1229941E-006  0.9118800E+02  0.7816164E-02  0.1184000E+00
        -11   -1    0    0    0    0  0.00000000000E+00  0.00000000000E+00  0.45593999997E+02  0.45594000000E+02  0.51100000000E-03 0.  1.
         11   -1    0    0    0    0 -0.00000000000E+00 -0.00000000000E+00 -0.45593999997E+02  0.45594000000E+02  0.51100000000E-03 0. -1.
         23    2    1    2    0    0  0.00000000000E+00  0.00000000000E+00  0.00000000000E+00  0.91188000000E+02  0.91188000000E+02 0.  0.
    9900012    2    3    3    0    0  0.12214545068E+02  0.32212243499E+02 -0.12998270104E+02  0.54367098760E+02  0.40000033242E+02 0.  0.
        -12    1    3    3    0    0 -0.12214545068E+02 -0.32212243499E+02  0.12998270104E+02  0.36820901240E+02  0.00000000000E+00 0.  1.
         11    1    4    4    0    0 -0.49792323107E+01  0.25199302109E+02 -0.97107711789E+01  0.27460820423E+02  0.51100000000E-03 0. -1.
        -11    1    4    4    0    0  0.18458617502E+02  0.88413005490E+01  0.25827824349E+01  0.20629103734E+02  0.51100000000E-03 0.  1.
        -12    1    4    4    0    0 -0.12648401235E+01 -0.18283591584E+01 -0.58702813595E+01  0.62771746025E+01  0.00000000000E+00 0.  1.
</event>
<event>
 8    1  0.1229941E-006  0.9118800E+02  0.7816164E-02  0.1184000E+00
        -11   -1    0    0    0    0  0.00000000000E+00  0.00000000000E+00  0.45593999997E+02  0.45594000000E+02  0.51100000000E-03 0.  1.
         11   -1    0    0    0    0 -0.00000000000E+00 -0.00000000000E+00 -0.45593999997E+02  0.45594000000E+02  0.51100000000E-03 0. -1.
         23    2    1    2    0    0 -0.35527136788E-14 -0.35527136788E-14  0.35527136788E-14  0.91188000000E+02  0.91188000000E+02 0.  0.
    9900012    2    3    3    0    0  0.26508941639E+02 -0.18764481980E+02  0.17347944824E+02  0.54367068991E+02  0.39999965378E+02 0.  0.
         12    1    3    3    0    0 -0.26508941639E+02  0.18764481980E+02 -0.17347944824E+02  0.36820931009E+02  0.00000000000E+00 0. -1.
         11    1    4    4    0    0  0.11723404900E+01 -0.15744634279E+02  0.21922910492E+01  0.15939699844E+02  0.51100000000E-03 0. -1.
        -11    1    4    4    0    0  0.19523605186E+02  0.77573375205E+01  0.30856654124E+01  0.21233670812E+02  0.51100000000E-03 0.  1.
        -12    1    4    4    0    0  0.58129959628E+01 -0.10777185221E+02  0.12069988363E+02  0.17193698335E+02  0.00000000000E+00 0.  1.
</event>
<event>
 8    1  0.1229941E-006  0.9118800E+02  0.7816164E-02  0.1184000E+00
        -11   -1    0    0    0    0  0.00000000000E+00  0.00000000000E+00  0.45593999997E+02  0.45594000000E+02  0.51100000000E-03 0. -1.
         11   -1    0    0    0    0 -0.00000000000E+00 -0.00000000000E+00 -0.45593999997E+02  0.45594000000E+02  0.51100000000E-03 0.  1.
         23    2    1    2    0    0  0.77715611724E-15 -0.35527136788E-14 -0.35527136788E-14  0.91188000000E+02  0.91188000000E+02 0.  0.
    9900012    2    3    3    0    0  0.70151761364E+00 -0.20229365450E+02 -0.30758090919E+02  0.54367088680E+02  0.40000010263E+02 0.  0.
         12    1    3    3    0    0 -0.70151761364E+00  0.20229365450E+02  0.30758090919E+02  0.36820911320E+02  0.00000000000E+00 0. -1.
         11    1    4    4    0    0 -0.20594684326E+01 -0.29249017845E+01 -0.56168409628E+01  0.66592314373E+01  0.51100000000E-03 0. -1.
        -11    1    4    4    0    0  0.17690796218E+02 -0.18293919330E+02 -0.13935096988E+02  0.29014111801E+02  0.51100000000E-03 0.  1.
         12    1    4    4    0    0 -0.14929810172E+02  0.98945566415E+00 -0.11206152968E+02  0.18693745441E+02  0.00000000000E+00 0. -1.
</event>
<event>
 8    1  0.1229941E-006  0.9118800E+02  0.7816164E-02  0.1184000E+00
        -11   -1    0    0    0    0  0.00000000000E+00  0.00000000000E+00  0.45593999997E+02  0.45594000000E+02  0.51100000000E-03 0.  1.
         11   -1    0    0    0    0 -0.00000000000E+00 -0.00000000000E+00 -0.45593999997E+02  0.45594000000E+02  0.51100000000E-03 0. -1.
         23    2    1    2    0    0  0.88817841970E-15 -0.11102230246E-15  0.00000000000E+00  0.91188000000E+02  0.91188000000E+02 0.  0.
    9900012    2    3    3    0    0  0.66868195351E+01 -0.86774712531E+00 -0.36198254405E+02  0.54367079825E+02  0.39999990078E+02 0.  0.
        -12    1    3    3    0    0 -0.66868195351E+01  0.86774712531E+00  0.36198254405E+02  0.36820920175E+02  0.00000000000E+00 0.  1.
         11    1    4    4    0    0 -0.64656833063E+01  0.37642176695E+01 -0.27763880809E+02  0.28754260087E+02  0.51100000000E-03 0. -1.
        -11    1    4    4    0    0  0.11177631285E+02  0.63187276404E+01 -0.28061460493E+01  0.13143067224E+02  0.51100000000E-03 0.  1.
        -12    1    4    4    0    0  0.19748715564E+01 -0.10950692435E+02 -0.56282275460E+01  0.12469752515E+02  0.00000000000E+00 0.  1.
</event>
<event>
 8    1  0.1229941E-006  0.9118800E+02  0.7816164E-02  0.1184000E+00
        -11   -1    0    0    0    0  0.00000000000E+00  0.00000000000E+00  0.45593999997E+02  0.45594000000E+02  0.51100000000E-03 0. -1.
         11   -1    0    0    0    0 -0.00000000000E+00 -0.00000000000E+00 -0.45593999997E+02  0.45594000000E+02  0.51100000000E-03 0.  1.
         23    2    1    2    0    0  0.00000000000E+00 -0.17763568394E-14  0.00000000000E+00  0.91188000000E+02  0.91188000000E+02 0.  0.
    9900012    2    3    3    0    0  0.34958820151E+02  0.10192050708E+02  0.54572942784E+01  0.54367094731E+02  0.40000024059E+02 0.  0.
         12    1    3    3    0    0 -0.34958820151E+02 -0.10192050708E+02 -0.54572942784E+01  0.36820905269E+02  0.00000000000E+00 0. -1.
         11    1    4    4    0    0  0.90330981711E+01  0.17448694371E+02  0.38558924310E+01  0.20023029354E+02  0.51100000000E-03 0. -1.
        -11    1    4    4    0    0  0.24799197900E+02  0.81389543308E+00  0.53366865781E+01  0.25379969783E+02  0.51100000000E-03 0.  1.
         12    1    4    4    0    0  0.11265240793E+01 -0.80705390960E+01 -0.37352847307E+01  0.89640955942E+01  0.00000000000E+00 0. -1.
</event>
<event>
 8    1  0.1229941E-006  0.9118800E+02  0.7816164E-02  0.1184000E+00
        -11   -1    0    0    0    0  0.00000000000E+00  0.00000000000E+00  0.45593999997E+02  0.45594000000E+02  0.51100000000E-03 0.  1.
         11   -1    0    0    0    0 -0.00000000000E+00 -0.00000000000E+00 -0.45593999997E+02  0.45594000000E+02  0.51100000000E-03 0. -1.
         23    2    1    2    0    0 -0.17763568394E-14  0.71054273576E-14  0.88817841970E-15  0.91188000000E+02  0.91188000000E+02 0.  0.
    9900012    2    3    3    0    0  0.15535211933E+02  0.33019314849E+02 -0.49153261335E+01  0.54367103842E+02  0.40000044829E+02 0.  0.
         12    1    3    3    0    0 -0.15535211933E+02 -0.33019314849E+02  0.49153261335E+01  0.36820896158E+02  0.00000000000E+00 0. -1.
         11    1    4    4    0    0  0.53325926869E+01 -0.17784354086E+00 -0.14004132959E+01  0.55162787048E+01  0.51100000000E-03 0. -1.
        -11    1    4    4    0    0  0.11811488612E+02  0.27933751059E+02  0.11826059169E+02  0.32552440571E+02  0.51100000000E-03 0.  1.
         12    1    4    4    0    0 -0.16088693656E+01  0.52634073306E+01 -0.15340972006E+02  0.16298384566E+02  0.00000000000E+00 0. -1.
</event>
<event>
 8    1  0.1229941E-006  0.9118800E+02  0.7816164E-02  0.1184000E+00
        -11   -1    0    0    0    0  0.00000000000E+00  0.00000000000E+00  0.45593999997E+02  0.45594000000E+02  0.51100000000E-03 0. -1.
         11   -1    0    0    0    0 -0.00000000000E+00 -0.00000000000E+00 -0.45593999997E+02  0.45594000000E+02  0.51100000000E-03 0.  1.
         23    2    1    2    0    0  0.35527136788E-14  0.00000000000E+00  0.00000000000E+00  0.91188000000E+02  0.91188000000E+02 0.  0.
    9900012    2    3    3    0    0 -0.17924034181E+02 -0.26341546255E+02 -0.18456206787E+02  0.54367087065E+02  0.40000006581E+02 0.  0.
         12    1    3    3    0    0  0.17924034181E+02  0.26341546255E+02  0.18456206787E+02  0.36820912935E+02  0.00000000000E+00 0. -1.
         11    1    4    4    0    0  0.95425181655E+01 -0.16179960743E+01 -0.75404885510E+00  0.97080458472E+01  0.51100000000E-03 0. -1.
        -11    1    4    4    0    0 -0.10093760566E+01 -0.26000666523E+01  0.32676610947E+01  0.42961373245E+01  0.51100000000E-03 0.  1.
        -12    1    4    4    0    0 -0.26457176289E+02 -0.22123483529E+02 -0.20969819027E+02  0.40362903893E+02  0.00000000000E+00 0.  1.
</event>
<event>
 8    1  0.1229941E-006  0.9118800E+02  0.7816164E-02  0.1184000E+00
        -11   -1    0    0    0    0  0.00000000000E+00  0.00000000000E+00  0.45593999997E+02  0.45594000000E+02  0.51100000000E-03 0.  1.
         11   -1    0    0    0    0 -0.00000000000E+00 -0.00000000000E+00 -0.45593999997E+02  0.45594000000E+02  0.51100000000E-03 0. -1.
         23    2    1    2    0    0  0.17763568394E-14 -0.35527136788E-14  0.00000000000E+00  0.91188000000E+02  0.91188000000E+02 0.  0.
    9900012    2    3    3    0    0  0.10800853116E+02 -0.26946187187E+02 -0.22650067384E+02  0.54367068664E+02  0.39999964633E+02 0.  0.
        -12    1    3    3    0    0 -0.10800853116E+02  0.26946187187E+02  0.22650067384E+02  0.36820931336E+02  0.00000000000E+00 0.  1.
         11    1    4    4    0    0  0.97939310515E+01 -0.14903083981E+02  0.30503487848E+01  0.18092197920E+02  0.51100000000E-03 0. -1.
        -11    1    4    4    0    0  0.53670809124E+01  0.46414500100E+01 -0.28480004025E+01  0.76458957794E+01  0.51100000000E-03 0.  1.
         12    1    4    4    0    0 -0.43601588477E+01 -0.16684553215E+02 -0.22852415766E+02  0.28628974965E+02  0.00000000000E+00 0. -1.
</event>
<event>
 8    1  0.1229941E-006  0.9118800E+02  0.7816164E-02  0.1184000E+00
        -11   -1    0    0    0    0  0.00000000000E+00  0.00000000000E+00  0.45593999997E+02  0.45594000000E+02  0.51100000000E-03 0.  1.
         11   -1    0    0    0    0 -0.00000000000E+00 -0.00000000000E+00 -0.45593999997E+02  0.45594000000E+02  0.51100000000E-03 0. -1.
         23    2    1    2    0    0  0.35527136788E-14  0.00000000000E+00  0.00000000000E+00  0.91188000000E+02  0.91188000000E+02 0.  0.
    9900012    2    3    3    0    0 -0.30168694372E+02 -0.19531280787E+02  0.80099196725E+01  0.54367083900E+02  0.39999999367E+02 0.  0.
         12    1    3    3    0    0  0.30168694372E+02  0.19531280787E+02 -0.80099196725E+01  0.36820916100E+02  0.00000000000E+00 0. -1.
         11    1    4    4    0    0 -0.13875729970E+02  0.10899404137E+01 -0.19730195736E+01  0.14057619244E+02  0.51100000000E-03 0. -1.
        -11    1    4    4    0    0 -0.82838319282E+01 -0.19595708095E+02  0.18773331742E+02  0.28373431800E+02  0.51100000000E-03 0.  1.
         12    1    4    4    0    0 -0.80091324735E+01 -0.10255131052E+01 -0.87903924957E+01  0.11936032856E+02  0.00000000000E+00 0. -1.
</event>
<event>
 8    1  0.1229941E-006  0.9118800E+02  0.7816164E-02  0.1184000E+00
        -11   -1    0    0    0    0  0.00000000000E+00  0.00000000000E+00  0.45593999997E+02  0.45594000000E+02  0.51100000000E-03 0.  1.
         11   -1    0    0    0    0 -0.00000000000E+00 -0.00000000000E+00 -0.45593999997E+02  0.45594000000E+02  0.51100000000E-03 0. -1.
         23    2    1    2    0    0  0.35527136788E-14  0.00000000000E+00  0.33306690739E-15  0.91188000000E+02  0.91188000000E+02 0.  0.
    9900012    2    3    3    0    0  0.25664302809E+02  0.26389535642E+02  0.84604646818E+00  0.54367084413E+02  0.40000000535E+02 0.  0.
         12    1    3    3    0    0 -0.25664302809E+02 -0.26389535642E+02 -0.84604646818E+00  0.36820915587E+02  0.00000000000E+00 0. -1.
         11    1    4    4    0    0  0.19603654568E+02  0.21711491745E+02 -0.41265445613E+01  0.29541843485E+02  0.51100000000E-03 0. -1.
        -11    1    4    4    0    0 -0.52163354116E+01 -0.26811847190E+01  0.90245700241E+01  0.10762981511E+02  0.51100000000E-03 0.  1.
        -12    1    4    4    0    0  0.11276983653E+02  0.73592286155E+01 -0.40519789946E+01  0.14062259416E+02  0.00000000000E+00 0.  1.
</event>
<event>
 8    1  0.1229941E-006  0.9118800E+02  0.7816164E-02  0.1184000E+00
        -11   -1    0    0    0    0  0.00000000000E+00  0.00000000000E+00  0.45593999997E+02  0.45594000000E+02  0.51100000000E-03 0.  1.
         11   -1    0    0    0    0 -0.00000000000E+00 -0.00000000000E+00 -0.45593999997E+02  0.45594000000E+02  0.51100000000E-03 0. -1.
         23    2    1    2    0    0  0.17763568394E-14  0.00000000000E+00  0.00000000000E+00  0.91188000000E+02  0.91188000000E+02 0.  0.
    9900012    2    3    3    0    0 -0.12249336432E+02 -0.13085928482E+02  0.32163513081E+02  0.54367090982E+02  0.40000015511E+02 0.  0.
         12    1    3    3    0    0  0.12249336432E+02  0.13085928482E+02 -0.32163513081E+02  0.36820909018E+02  0.00000000000E+00 0. -1.
         11    1    4    4    0    0 -0.46220980880E+01  0.10238499740E+01 -0.24726955794E+01  0.53410002054E+01  0.51100000000E-03 0. -1.
        -11    1    4    4    0    0 -0.17966581046E+02 -0.13391910753E+01  0.15173186616E+02  0.23554554964E+02  0.51100000000E-03 0.  1.
        -12    1    4    4    0    0  0.10339342702E+02 -0.12770587380E+02  0.19463022044E+02  0.25471535812E+02  0.00000000000E+00 0.  1.
</event>
<event>
 8    1  0.1229941E-006  0.9118800E+02  0.7816164E-02  0.1184000E+00
        -11   -1    0    0    0    0  0.00000000000E+00  0.00000000000E+00  0.45593999997E+02  0.45594000000E+02  0.51100000000E-03 0.  1.
         11   -1    0    0    0    0 -0.00000000000E+00 -0.00000000000E+00 -0.45593999997E+02  0.45594000000E+02  0.51100000000E-03 0. -1.
         23    2    1    2    0    0  0.00000000000E+00 -0.35527136788E-14  0.17763568394E-14  0.91188000000E+02  0.91188000000E+02 0.  0.
    9900012    2    3    3    0    0 -0.32099830779E+02  0.14016441892E+02 -0.11354449878E+02  0.54367037066E+02  0.39999892599E+02 0.  0.
        -12    1    3    3    0    0  0.32099830779E+02 -0.14016441892E+02  0.11354449878E+02  0.36820962934E+02  0.00000000000E+00 0.  1.
         11    1    4    4    0    0 -0.27172288586E+02  0.18750068834E+02 -0.17879253181E+02  0.37544187870E+02  0.51100000000E-03 0. -1.
        -11    1    4    4    0    0 -0.10740583996E+01  0.49057649589E+01  0.30501981456E+01  0.58756991300E+01  0.51100000000E-03 0.  1.
        -12    1    4    4    0    0 -0.38534837937E+01 -0.96393919008E+01  0.34746051574E+01  0.10947150066E+02  0.00000000000E+00 0.  1.
</event>
<event>
 8    1  0.1229941E-006  0.9118800E+02  0.7816164E-02  0.1184000E+00
        -11   -1    0    0    0    0  0.00000000000E+00  0.00000000000E+00  0.45593999997E+02  0.45594000000E+02  0.51100000000E-03 0.  1.
         11   -1    0    0    0    0 -0.00000000000E+00 -0.00000000000E+00 -0.45593999997E+02  0.45594000000E+02  0.51100000000E-03 0. -1.
         23    2    1    2    0    0  0.00000000000E+00 -0.44408920985E-15 -0.71054273576E-14  0.91188000000E+02  0.91188000000E+02 0.  0.
    9900012    2    3    3    0    0  0.14259417053E+02 -0.34247172263E+01  0.33774552067E+02  0.54367081623E+02  0.39999994176E+02 0.  0.
         12    1    3    3    0    0 -0.14259417053E+02  0.34247172263E+01 -0.33774552067E+02  0.36820918377E+02  0.00000000000E+00 0. -1.
         11    1    4    4    0    0  0.39068408665E+01  0.11300255399E+02  0.11133987090E+01  0.12008281917E+02  0.51100000000E-03 0. -1.
        -11    1    4    4    0    0  0.14074815517E+02 -0.15080935082E+02  0.18488765928E+02  0.27701434992E+02  0.51100000000E-03 0.  1.
         12    1    4    4    0    0 -0.37222393305E+01  0.35596245696E+00  0.14172387431E+02  0.14657364715E+02  0.00000000000E+00 0. -1.
</event>
<event>
 8    1  0.1229941E-006  0.9118800E+02  0.7816164E-02  0.1184000E+00
        -11   -1    0    0    0    0  0.00000000000E+00  0.00000000000E+00  0.45593999997E+02  0.45594000000E+02  0.51100000000E-03 0.  1.
         11   -1    0    0    0    0 -0.00000000000E+00 -0.00000000000E+00 -0.45593999997E+02  0.45594000000E+02  0.51100000000E-03 0. -1.
         23    2    1    2    0    0  0.88817841970E-15  0.00000000000E+00  0.00000000000E+00  0.91188000000E+02  0.91188000000E+02 0.  0.
    9900012    2    3    3    0    0 -0.71415217169E+01  0.34588439947E+02 -0.10412409122E+02  0.54367085099E+02  0.40000002100E+02 0.  0.
        -12    1    3    3    0    0  0.71415217169E+01 -0.34588439947E+02  0.10412409122E+02  0.36820914901E+02  0.00000000000E+00 0.  1.
         11    1    4    4    0    0 -0.17458414117E+02  0.15600999703E+02 -0.13344695546E+02  0.26949365757E+02  0.51100000000E-03 0. -1.
        -11    1    4    4    0    0  0.66501592049E+01 -0.71184906020E+00 -0.15934360155E+01  0.68753461827E+01  0.51100000000E-03 0.  1.
         12    1    4    4    0    0  0.36667331952E+01  0.19699289304E+02  0.45257224393E+01  0.20542373159E+02  0.00000000000E+00 0. -1.
</event>
<event>
 8    1  0.1229941E-006  0.9118800E+02  0.7816164E-02  0.1184000E+00
        -11   -1    0    0    0    0  0.00000000000E+00  0.00000000000E+00  0.45593999997E+02  0.45594000000E+02  0.51100000000E-03 0.  1.
         11   -1    0    0    0    0 -0.00000000000E+00 -0.00000000000E+00 -0.45593999997E+02  0.45594000000E+02  0.51100000000E-03 0. -1.
         23    2    1    2    0    0 -0.17763568394E-14  0.00000000000E+00  0.00000000000E+00  0.91188000000E+02  0.91188000000E+02 0.  0.
    9900012    2    3    3    0    0 -0.10932741539E+02 -0.10742309366E+02 -0.33479214886E+02  0.54367083696E+02  0.39999998902E+02 0.  0.
        -12    1    3    3    0    0  0.10932741539E+02  0.10742309366E+02  0.33479214886E+02  0.36820916304E+02  0.00000000000E+00 0.  1.
         11    1    4    4    0    0  0.33994923139E+00 -0.45831502341E+01 -0.21275956130E+02  0.21766652040E+02  0.51100000000E-03 0. -1.
        -11    1    4    4    0    0 -0.19102818369E+02 -0.38215590890E+01 -0.20821520941E+01  0.19592277588E+02  0.51100000000E-03 0.  1.
        -12    1    4    4    0    0  0.78301275985E+01 -0.23376000431E+01 -0.10121106662E+02  0.13008154067E+02  0.00000000000E+00 0.  1.
</event>
<event>
 8    1  0.1229941E-006  0.9118800E+02  0.7816164E-02  0.1184000E+00
        -11   -1    0    0    0    0  0.00000000000E+00  0.00000000000E+00  0.45593999997E+02  0.45594000000E+02  0.51100000000E-03 0. -1.
         11   -1    0    0    0    0 -0.00000000000E+00 -0.00000000000E+00 -0.45593999997E+02  0.45594000000E+02  0.51100000000E-03 0.  1.
         23    2    1    2    0    0 -0.35527136788E-14 -0.35527136788E-14  0.17763568394E-14  0.91188000000E+02  0.91188000000E+02 0.  0.
    9900012    2    3    3    0    0 -0.25659300579E+02 -0.21121913219E+02  0.15850884277E+02  0.54367007936E+02  0.39999826192E+02 0.  0.
         12    1    3    3    0    0  0.25659300579E+02  0.21121913219E+02 -0.15850884277E+02  0.36820992064E+02  0.00000000000E+00 0. -1.
         11    1    4    4    0    0 -0.13880045862E+02 -0.11495761503E+02  0.14705403804E+02  0.23260634277E+02  0.51100000000E-03 0. -1.
        -11    1    4    4    0    0 -0.13933728177E+02  0.54800731358E+01  0.41871201847E+01  0.15547088415E+02  0.51100000000E-03 0.  1.
        -12    1    4    4    0    0  0.21544734603E+01 -0.15106224852E+02 -0.30416397122E+01  0.15559285244E+02  0.00000000000E+00 0.  1.
</event>
<event>
 8    1  0.1229941E-006  0.9118800E+02  0.7816164E-02  0.1184000E+00
        -11   -1    0    0    0    0  0.00000000000E+00  0.00000000000E+00  0.45593999997E+02  0.45594000000E+02  0.51100000000E-03 0.  1.
         11   -1    0    0    0    0 -0.00000000000E+00 -0.00000000000E+00 -0.45593999997E+02  0.45594000000E+02  0.51100000000E-03 0. -1.
         23    2    1    2    0    0 -0.35527136788E-14  0.00000000000E+00  0.00000000000E+00  0.91188000000E+02  0.91188000000E+02 0.  0.
    9900012    2    3    3    0    0  0.27659531692E+02  0.17777841334E+02 -0.16573435267E+02  0.54367080777E+02  0.39999992246E+02 0.  0.
         12    1    3    3    0    0 -0.27659531692E+02 -0.17777841334E+02  0.16573435267E+02  0.36820919223E+02  0.00000000000E+00 0. -1.
         11    1    4    4    0    0 -0.28407475776E+01  0.92341206918E+01 -0.15550785721E+01  0.97855557521E+01  0.51100000000E-03 0. -1.
        -11    1    4    4    0    0  0.19391376435E+02  0.17823744092E+02 -0.14569512988E+02  0.30099535586E+02  0.51100000000E-03 0.  1.
        -12    1    4    4    0    0  0.11108902835E+02 -0.92800234504E+01 -0.44884370677E+00  0.14481989439E+02  0.00000000000E+00 0.  1.
</event>
<event>
 8    1  0.1229941E-006  0.9118800E+02  0.7816164E-02  0.1184000E+00
        -11   -1    0    0    0    0  0.00000000000E+00  0.00000000000E+00  0.45593999997E+02  0.45594000000E+02  0.51100000000E-03 0. -1.
         11   -1    0    0    0    0 -0.00000000000E+00 -0.00000000000E+00 -0.45593999997E+02  0.45594000000E+02  0.51100000000E-03 0.  1.
         23    2    1    2    0    0  0.00000000000E+00  0.00000000000E+00  0.22204460493E-15  0.91188000000E+02  0.91188000000E+02 0.  0.
    9900012    2    3    3    0    0 -0.24402955271E+02 -0.27535675951E+02  0.14359705126E+01  0.54367086277E+02  0.40000004787E+02 0.  0.
         12    1    3    3    0    0  0.24402955271E+02  0.27535675951E+02 -0.14359705126E+01  0.36820913723E+02  0.00000000000E+00 0. -1.
         11    1    4    4    0    0  0.60385851980E+01 -0.14471950619E+02  0.81310784209E+01  0.17663983199E+02  0.51100000000E-03 0. -1.
        -11    1    4    4    0    0  0.29854654871E+00  0.18016099711E+01  0.29325768779E+00  0.18495753195E+01  0.51100000000E-03 0.  1.
        -12    1    4    4    0    0 -0.30740087018E+02 -0.14865335304E+02 -0.69883655961E+01  0.34853527759E+02  0.00000000000E+00 0.  1.
</event>
<event>
 8    1  0.1229941E-006  0.9118800E+02  0.7816164E-02  0.1184000E+00
        -11   -1    0    0    0    0  0.00000000000E+00  0.00000000000E+00  0.45593999997E+02  0.45594000000E+02  0.51100000000E-03 0. -1.
         11   -1    0    0    0    0 -0.00000000000E+00 -0.00000000000E+00 -0.45593999997E+02  0.45594000000E+02  0.51100000000E-03 0.  1.
         23    2    1    2    0    0  0.35527136788E-14  0.00000000000E+00 -0.16653345369E-15  0.91188000000E+02  0.91188000000E+02 0.  0.
    9900012    2    3    3    0    0 -0.30269569975E+02  0.20960024637E+02 -0.45922847528E+00  0.54367076735E+02  0.39999983033E+02 0.  0.
        -12    1    3    3    0    0  0.30269569975E+02 -0.20960024637E+02  0.45922847528E+00  0.36820923265E+02  0.00000000000E+00 0.  1.
         11    1    4    4    0    0 -0.93636697129E+01  0.16322208537E+02  0.26760727735E+00  0.18819256519E+02  0.51100000000E-03 0. -1.
        -11    1    4    4    0    0  0.31912083964E+00  0.11414822692E+02 -0.56334566247E+01  0.12733257596E+02  0.51100000000E-03 0.  1.
         12    1    4    4    0    0 -0.21225021102E+02 -0.67770065924E+01  0.49066208720E+01  0.22814562620E+02  0.00000000000E+00 0. -1.
</event>
<event>
 8    1  0.1229941E-006  0.9118800E+02  0.7816164E-02  0.1184000E+00
        -11   -1    0    0    0    0  0.00000000000E+00  0.00000000000E+00  0.45593999997E+02  0.45594000000E+02  0.51100000000E-03 0. -1.
         11   -1    0    0    0    0 -0.00000000000E+00 -0.00000000000E+00 -0.45593999997E+02  0.45594000000E+02  0.51100000000E-03 0.  1.
         23    2    1    2    0    0 -0.88817841970E-15  0.35527136788E-14 -0.71054273576E-14  0.91188000000E+02  0.91188000000E+02 0.  0.
    9900012    2    3    3    0    0 -0.22140155549E+01  0.17901093810E+02 -0.32100296161E+02  0.54367081515E+02  0.39999993930E+02 0.  0.
         12    1    3    3    0    0  0.22140155549E+01 -0.17901093810E+02  0.32100296161E+02  0.36820918485E+02  0.00000000000E+00 0. -1.
         11    1    4    4    0    0 -0.10153349085E+02  0.78349502933E+01 -0.46648771840E+01  0.13646905259E+02  0.51100000000E-03 0. -1.
        -11    1    4    4    0    0  0.11266230761E+01 -0.86555330265E+01 -0.30838762144E+01  0.92573119368E+01  0.51100000000E-03 0.  1.
        -12    1    4    4    0    0  0.68127104540E+01  0.18721676543E+02 -0.24351542762E+02  0.31462864320E+02  0.00000000000E+00 0.  1.
</event>
<event>
 8    1  0.1229941E-006  0.9118800E+02  0.7816164E-02  0.1184000E+00
        -11   -1    0    0    0    0  0.00000000000E+00  0.00000000000E+00  0.45593999997E+02  0.45594000000E+02  0.51100000000E-03 0.  1.
         11   -1    0    0    0    0 -0.00000000000E+00 -0.00000000000E+00 -0.45593999997E+02  0.45594000000E+02  0.51100000000E-03 0. -1.
         23    2    1    2    0    0  0.00000000000E+00  0.00000000000E+00  0.22204460493E-14  0.91188000000E+02  0.91188000000E+02 0.  0.
    9900012    2    3    3    0    0 -0.35616128783E+02  0.85726456238E+01 -0.37123325967E+01  0.54367078015E+02  0.39999985951E+02 0.  0.
         12    1    3    3    0    0  0.35616128783E+02 -0.85726456238E+01  0.37123325967E+01  0.36820921985E+02  0.00000000000E+00 0. -1.
         11    1    4    4    0    0 -0.10939810646E+02  0.11056270946E+02 -0.16804524318E+02  0.22897873744E+02  0.51100000000E-03 0. -1.
        -11    1    4    4    0    0 -0.13456512809E+02  0.58063222994E+01  0.62793897847E+01  0.15944336046E+02  0.51100000000E-03 0.  1.
        -12    1    4    4    0    0 -0.11219805329E+02 -0.82899476214E+01  0.68128019365E+01  0.15524868225E+02  0.00000000000E+00 0.  1.
</event>
<event>
 8    1  0.1229941E-006  0.9118800E+02  0.7816164E-02  0.1184000E+00
        -11   -1    0    0    0    0  0.00000000000E+00  0.00000000000E+00  0.45593999997E+02  0.45594000000E+02  0.51100000000E-03 0.  1.
         11   -1    0    0    0    0 -0.00000000000E+00 -0.00000000000E+00 -0.45593999997E+02  0.45594000000E+02  0.51100000000E-03 0. -1.
         23    2    1    2    0    0  0.35527136788E-14  0.00000000000E+00  0.00000000000E+00  0.91188000000E+02  0.91188000000E+02 0.  0.
    9900012    2    3    3    0    0  0.29517413247E+02 -0.21305747246E+02  0.55288501380E+01  0.54367072060E+02  0.39999972375E+02 0.  0.
         12    1    3    3    0    0 -0.29517413247E+02  0.21305747246E+02 -0.55288501380E+01  0.36820927940E+02  0.00000000000E+00 0. -1.
         11    1    4    4    0    0  0.25287286898E+02  0.19260554670E+01  0.14611082454E+01  0.25402586599E+02  0.51100000000E-03 0. -1.
        -11    1    4    4    0    0  0.35482025460E+00 -0.17826910693E+02  0.96565265751E+01  0.20277404864E+02  0.51100000000E-03 0.  1.
        -12    1    4    4    0    0  0.38753060939E+01 -0.54048920203E+01 -0.55887846825E+01  0.86870805971E+01  0.00000000000E+00 0.  1.
</event>
<event>
 8    1  0.1229941E-006  0.9118800E+02  0.7816164E-02  0.1184000E+00
        -11   -1    0    0    0    0  0.00000000000E+00  0.00000000000E+00  0.45593999997E+02  0.45594000000E+02  0.51100000000E-03 0.  1.
         11   -1    0    0    0    0 -0.00000000000E+00 -0.00000000000E+00 -0.45593999997E+02  0.45594000000E+02  0.51100000000E-03 0. -1.
         23    2    1    2    0    0  0.00000000000E+00  0.00000000000E+00  0.17763568394E-14  0.91188000000E+02  0.91188000000E+02 0.  0.
    9900012    2    3    3    0    0 -0.27926719238E+02 -0.23668814047E+02 -0.39581084532E+01  0.54367068068E+02  0.39999963275E+02 0.  0.
        -12    1    3    3    0    0  0.27926719238E+02  0.23668814047E+02  0.39581084532E+01  0.36820931932E+02  0.00000000000E+00 0.  1.
         11    1    4    4    0    0 -0.49654885527E+01 -0.77436652133E+01  0.15216275554E+02  0.17780761218E+02  0.51100000000E-03 0. -1.
        -11    1    4    4    0    0 -0.12988502132E+02 -0.22813579658E+01 -0.13207354796E+02  0.18663868912E+02  0.51100000000E-03 0.  1.
         12    1    4    4    0    0 -0.99727285533E+01 -0.13643790868E+02 -0.59670292107E+01  0.17922437938E+02  0.00000000000E+00 0. -1.
</event>
<event>
 8    1  0.1229941E-006  0.9118800E+02  0.7816164E-02  0.1184000E+00
        -11   -1    0    0    0    0  0.00000000000E+00  0.00000000000E+00  0.45593999997E+02  0.45594000000E+02  0.51100000000E-03 0.  1.
         11   -1    0    0    0    0 -0.00000000000E+00 -0.00000000000E+00 -0.45593999997E+02  0.45594000000E+02  0.51100000000E-03 0. -1.
         23    2    1    2    0    0  0.00000000000E+00 -0.35527136788E-14  0.00000000000E+00  0.91188000000E+02  0.91188000000E+02 0.  0.
    9900012    2    3    3    0    0 -0.23377979289E+02  0.24573483407E+02  0.14331571561E+02  0.54367082768E+02  0.39999996786E+02 0.  0.
         12    1    3    3    0    0  0.23377979289E+02 -0.24573483407E+02 -0.14331571561E+02  0.36820917232E+02  0.00000000000E+00 0. -1.
         11    1    4    4    0    0 -0.10302454877E+02  0.15126158667E+02  0.20259605903E+02  0.27301884259E+02  0.51100000000E-03 0. -1.
        -11    1    4    4    0    0 -0.10131269695E+01  0.96553931493E+01  0.48816435557E+01  0.10866622621E+02  0.51100000000E-03 0.  1.
        -12    1    4    4    0    0 -0.12062397443E+02 -0.20806840927E+00 -0.10809677898E+02  0.16198575888E+02  0.00000000000E+00 0.  1.
</event>
<event>
 8    1  0.1229941E-006  0.9118800E+02  0.7816164E-02  0.1184000E+00
        -11   -1    0    0    0    0  0.00000000000E+00  0.00000000000E+00  0.45593999997E+02  0.45594000000E+02  0.51100000000E-03 0. -1.
         11   -1    0    0    0    0 -0.00000000000E+00 -0.00000000000E+00 -0.45593999997E+02  0.45594000000E+02  0.51100000000E-03 0.  1.
         23    2    1    2    0    0  0.00000000000E+00  0.22204460493E-15  0.71054273576E-14  0.91188000000E+02  0.91188000000E+02 0.  0.
    9900012    2    3    3    0    0  0.14437489333E+02  0.10406311659E+01  0.33856387353E+02  0.54367095936E+02  0.40000026806E+02 0.  0.
        -12    1    3    3    0    0 -0.14437489333E+02 -0.10406311659E+01 -0.33856387353E+02  0.36820904064E+02  0.00000000000E+00 0.  1.
         11    1    4    4    0    0 -0.73670272084E+01  0.26296617562E+01  0.29489144665E+02  0.30508980058E+02  0.51100000000E-03 0. -1.
        -11    1    4    4    0    0  0.93178151132E+01 -0.27536820571E+01 -0.18020776347E+01  0.98818989784E+01  0.51100000000E-03 0.  1.
        -12    1    4    4    0    0  0.12486701428E+02  0.11646514669E+01  0.61693203230E+01  0.13976216900E+02  0.00000000000E+00 0.  1.
</event>
<event>
 8    1  0.1229941E-006  0.9118800E+02  0.7816164E-02  0.1184000E+00
        -11   -1    0    0    0    0  0.00000000000E+00  0.00000000000E+00  0.45593999997E+02  0.45594000000E+02  0.51100000000E-03 0. -1.
         11   -1    0    0    0    0 -0.00000000000E+00 -0.00000000000E+00 -0.45593999997E+02  0.45594000000E+02  0.51100000000E-03 0.  1.
         23    2    1    2    0    0  0.00000000000E+00  0.72164496601E-15  0.00000000000E+00  0.91188000000E+02  0.91188000000E+02 0.  0.
    9900012    2    3    3    0    0  0.86126319218E+01 -0.36278936235E+00  0.35797642033E+02  0.54367079047E+02  0.39999988303E+02 0.  0.
        -12    1    3    3    0    0 -0.86126319218E+01  0.36278936235E+00 -0.35797642033E+02  0.36820920953E+02  0.00000000000E+00 0.  1.
         11    1    4    4    0    0  0.46004760455E+01 -0.10948385787E+02  0.13353918109E+02  0.17870608840E+02  0.51100000000E-03 0.  1.
        -11    1    4    4    0    0  0.93630613700E+01 -0.10523672877E+01  0.21709907494E+02  0.23666315277E+02  0.51100000000E-03 0. -1.
        -12    1    4    4    0    0 -0.53509054937E+01  0.11637963712E+02  0.73381642945E+00  0.12830154930E+02  0.00000000000E+00 0.  1.
</event>
<event>
 8    1  0.1229941E-006  0.9118800E+02  0.7816164E-02  0.1184000E+00
        -11   -1    0    0    0    0  0.00000000000E+00  0.00000000000E+00  0.45593999997E+02  0.45594000000E+02  0.51100000000E-03 0.  1.
         11   -1    0    0    0    0 -0.00000000000E+00 -0.00000000000E+00 -0.45593999997E+02  0.45594000000E+02  0.51100000000E-03 0. -1.
         23    2    1    2    0    0  0.26645352591E-14 -0.35527136788E-14  0.00000000000E+00  0.91188000000E+02  0.91188000000E+02 0.  0.
    9900012    2    3    3    0    0 -0.21586532531E+00 -0.15929034529E+02  0.33196341205E+02  0.54367111794E+02  0.40000062957E+02 0.  0.
         12    1    3    3    0    0  0.21586532531E+00  0.15929034529E+02 -0.33196341205E+02  0.36820888206E+02  0.00000000000E+00 0. -1.
         11    1    4    4    0    0  0.16428803810E+02 -0.61616481873E+01  0.63507835615E+01  0.18660223876E+02  0.51100000000E-03 0. -1.
        -11    1    4    4    0    0 -0.11990924045E+02 -0.66563899927E+01  0.76333773805E+01  0.15695803187E+02  0.51100000000E-03 0.  1.
         12    1    4    4    0    0 -0.46537450898E+01 -0.31109963494E+01  0.19212180263E+02  0.20011084731E+02  0.00000000000E+00 0. -1.
</event>
<event>
 8    1  0.1229941E-006  0.9118800E+02  0.7816164E-02  0.1184000E+00
        -11   -1    0    0    0    0  0.00000000000E+00  0.00000000000E+00  0.45593999997E+02  0.45594000000E+02  0.51100000000E-03 0.  1.
         11   -1    0    0    0    0 -0.00000000000E+00 -0.00000000000E+00 -0.45593999997E+02  0.45594000000E+02  0.51100000000E-03 0. -1.
         23    2    1    2    0    0  0.00000000000E+00 -0.17763568394E-14  0.00000000000E+00  0.91188000000E+02  0.91188000000E+02 0.  0.
    9900012    2    3    3    0    0  0.27017229689E+02 -0.11608976730E+02 -0.22160343764E+02  0.54367083709E+02  0.39999998932E+02 0.  0.
         12    1    3    3    0    0 -0.27017229689E+02  0.11608976730E+02  0.22160343764E+02  0.36820916291E+02  0.00000000000E+00 0. -1.
         11    1    4    4    0    0 -0.61028796095E-01  0.27841658597E+01  0.61530276164E+01  0.67538917046E+01  0.51100000000E-03 0. -1.
        -11    1    4    4    0    0  0.24950972000E+02 -0.13908625214E+02 -0.11719207370E+02  0.30876215454E+02  0.51100000000E-03 0.  1.
        -12    1    4    4    0    0  0.21272864849E+01 -0.48451737555E+00 -0.16594164010E+02  0.16736976551E+02  0.00000000000E+00 0.  1.
</event>
<event>
 8    1  0.1229941E-006  0.9118800E+02  0.7816164E-02  0.1184000E+00
        -11   -1    0    0    0    0  0.00000000000E+00  0.00000000000E+00  0.45593999997E+02  0.45594000000E+02  0.51100000000E-03 0. -1.
         11   -1    0    0    0    0 -0.00000000000E+00 -0.00000000000E+00 -0.45593999997E+02  0.45594000000E+02  0.51100000000E-03 0.  1.
         23    2    1    2    0    0  0.88817841970E-15  0.00000000000E+00  0.17763568394E-14  0.91188000000E+02  0.91188000000E+02 0.  0.
    9900012    2    3    3    0    0 -0.64315368531E+01 -0.35178161808E+02 -0.87699494183E+01  0.54367085464E+02  0.40000002932E+02 0.  0.
         12    1    3    3    0    0  0.64315368531E+01  0.35178161808E+02  0.87699494183E+01  0.36820914536E+02  0.00000000000E+00 0. -1.
         11    1    4    4    0    0 -0.15198320741E+02 -0.17572119634E+02  0.89410829226E+01  0.24894001403E+02  0.51100000000E-03 0. -1.
        -11    1    4    4    0    0 -0.29219394937E+01 -0.66426917410E+01 -0.35123060645E+01  0.80622191810E+01  0.51100000000E-03 0.  1.
        -12    1    4    4    0    0  0.11688723382E+02 -0.10963350433E+02 -0.14198726276E+02  0.21410864879E+02  0.00000000000E+00 0.  1.
</event>
<event>
 8    1  0.1229941E-006  0.9118800E+02  0.7816164E-02  0.1184000E+00
        -11   -1    0    0    0    0  0.00000000000E+00  0.00000000000E+00  0.45593999997E+02  0.45594000000E+02  0.51100000000E-03 0. -1.
         11   -1    0    0    0    0 -0.00000000000E+00 -0.00000000000E+00 -0.45593999997E+02  0.45594000000E+02  0.51100000000E-03 0.  1.
         23    2    1    2    0    0  0.35527136788E-14 -0.88817841970E-15  0.00000000000E+00  0.91188000000E+02  0.91188000000E+02 0.  0.
    9900012    2    3    3    0    0  0.15853248706E+02 -0.37490171015E+01 -0.33021182727E+02  0.54367093813E+02  0.40000021965E+02 0.  0.
         12    1    3    3    0    0 -0.15853248706E+02  0.37490171015E+01  0.33021182727E+02  0.36820906187E+02  0.00000000000E+00 0. -1.
         11    1    4    4    0    0  0.21059686166E+02  0.57792450417E+01 -0.15052469138E+02  0.26523327130E+02  0.51100000000E-03 0. -1.
        -11    1    4    4    0    0 -0.26624024283E+01  0.54318557141E+01 -0.59606987906E+01  0.84925481172E+01  0.51100000000E-03 0.  1.
         12    1    4    4    0    0 -0.25440350318E+01 -0.14960117857E+02 -0.12008014799E+02  0.19351218565E+02  0.00000000000E+00 0. -1.
</event>
<event>
 8    1  0.1229941E-006  0.9118800E+02  0.7816164E-02  0.1184000E+00
        -11   -1    0    0    0    0  0.00000000000E+00  0.00000000000E+00  0.45593999997E+02  0.45594000000E+02  0.51100000000E-03 0. -1.
         11   -1    0    0    0    0 -0.00000000000E+00 -0.00000000000E+00 -0.45593999997E+02  0.45594000000E+02  0.51100000000E-03 0.  1.
         23    2    1    2    0    0  0.00000000000E+00  0.00000000000E+00  0.00000000000E+00  0.91188000000E+02  0.91188000000E+02 0.  0.
    9900012    2    3    3    0    0 -0.15029301870E+01 -0.14783198347E+02 -0.33689446128E+02  0.54367074795E+02  0.39999978611E+02 0.  0.
         12    1    3    3    0    0  0.15029301870E+01  0.14783198347E+02  0.33689446128E+02  0.36820925205E+02  0.00000000000E+00 0. -1.
         11    1    4    4    0    0 -0.34175659544E+01 -0.12636802595E+01  0.81730934339E+01  0.89485250958E+01  0.51100000000E-03 0. -1.
        -11    1    4    4    0    0  0.24807452639E+01 -0.73470315721E+01 -0.36205927469E+02  0.37027046252E+02  0.51100000000E-03 0.  1.
        -12    1    4    4    0    0 -0.56610949646E+00 -0.61724865151E+01 -0.56566120927E+01  0.83915034474E+01  0.00000000000E+00 0.  1.
</event>
<event>
 8    1  0.1229941E-006  0.9118800E+02  0.7816164E-02  0.1184000E+00
        -11   -1    0    0    0    0  0.00000000000E+00  0.00000000000E+00  0.45593999997E+02  0.45594000000E+02  0.51100000000E-03 0. -1.
         11   -1    0    0    0    0 -0.00000000000E+00 -0.00000000000E+00 -0.45593999997E+02  0.45594000000E+02  0.51100000000E-03 0.  1.
         23    2    1    2    0    0 -0.71054273576E-14  0.17763568394E-14  0.00000000000E+00  0.91188000000E+02  0.91188000000E+02 0.  0.
    9900012    2    3    3    0    0 -0.32943077037E+02 -0.14615111445E+02 -0.75453151882E+01  0.54367087620E+02  0.40000007847E+02 0.  0.
         12    1    3    3    0    0  0.32943077037E+02  0.14615111445E+02  0.75453151882E+01  0.36820912380E+02  0.00000000000E+00 0. -1.
         11    1    4    4    0    0  0.64080547771E+00  0.19210184475E+01  0.11338898347E+00  0.20282506893E+01  0.51100000000E-03 0. -1.
        -11    1    4    4    0    0  0.70635695085E+01 -0.12126238173E+01 -0.51522702829E+01  0.88266845448E+01  0.51100000000E-03 0.  1.
         12    1    4    4    0    0 -0.40647452023E+02 -0.15323506075E+02 -0.25064338887E+01  0.43512152386E+02  0.00000000000E+00 0. -1.
</event>
<event>
 8    1  0.1229941E-006  0.9118800E+02  0.7816164E-02  0.1184000E+00
        -11   -1    0    0    0    0  0.00000000000E+00  0.00000000000E+00  0.45593999997E+02  0.45594000000E+02  0.51100000000E-03 0.  1.
         11   -1    0    0    0    0 -0.00000000000E+00 -0.00000000000E+00 -0.45593999997E+02  0.45594000000E+02  0.51100000000E-03 0. -1.
         23    2    1    2    0    0  0.00000000000E+00  0.00000000000E+00  0.88817841970E-15  0.91188000000E+02  0.91188000000E+02 0.  0.
    9900012    2    3    3    0    0  0.27353094671E+02  0.24322170533E+02 -0.40024157172E+01  0.54367094266E+02  0.40000022998E+02 0.  0.
        -12    1    3    3    0    0 -0.27353094671E+02 -0.24322170533E+02  0.40024157172E+01  0.36820905734E+02  0.00000000000E+00 0.  1.
         11    1    4    4    0    0  0.24197203617E+02  0.12649986127E+02 -0.88946080438E+01  0.28716560804E+02  0.51100000000E-03 0. -1.
        -11    1    4    4    0    0  0.87148875570E+01  0.15823718892E+02  0.21588697822E+01  0.18193407150E+02  0.51100000000E-03 0.  1.
         12    1    4    4    0    0 -0.55589965027E+01 -0.41515344866E+01  0.27333225444E+01  0.74571263126E+01  0.00000000000E+00 0. -1.
</event>
<event>
 8    1  0.1229941E-006  0.9118800E+02  0.7816164E-02  0.1184000E+00
        -11   -1    0    0    0    0  0.00000000000E+00  0.00000000000E+00  0.45593999997E+02  0.45594000000E+02  0.51100000000E-03 0.  1.
         11   -1    0    0    0    0 -0.00000000000E+00 -0.00000000000E+00 -0.45593999997E+02  0.45594000000E+02  0.51100000000E-03 0. -1.
         23    2    1    2    0    0  0.00000000000E+00  0.00000000000E+00  0.88817841970E-15  0.91188000000E+02  0.91188000000E+02 0.  0.
    9900012    2    3    3    0    0 -0.30627814028E+02  0.20352203401E+02 -0.18722064965E+01  0.54367077516E+02  0.39999984813E+02 0.  0.
        -12    1    3    3    0    0  0.30627814028E+02 -0.20352203401E+02  0.18722064965E+01  0.36820922484E+02  0.00000000000E+00 0.  1.
         11    1    4    4    0    0 -0.15368013551E+02  0.30620698891E+01 -0.89128249994E+01  0.18027494619E+02  0.51100000000E-03 0. -1.
        -11    1    4    4    0    0 -0.54220290152E+00  0.20564933146E+02  0.39035005419E+01  0.20939144587E+02  0.51100000000E-03 0.  1.
        -12    1    4    4    0    0 -0.14717597576E+02 -0.32747996339E+01  0.31371179610E+01  0.15400438310E+02  0.00000000000E+00 0.  1.
</event>
<event>
 8    1  0.1229941E-006  0.9118800E+02  0.7816164E-02  0.1184000E+00
        -11   -1    0    0    0    0  0.00000000000E+00  0.00000000000E+00  0.45593999997E+02  0.45594000000E+02  0.51100000000E-03 0.  1.
         11   -1    0    0    0    0 -0.00000000000E+00 -0.00000000000E+00 -0.45593999997E+02  0.45594000000E+02  0.51100000000E-03 0. -1.
         23    2    1    2    0    0  0.35527136788E-14 -0.71054273576E-14  0.35527136788E-14  0.91188000000E+02  0.91188000000E+02 0.  0.
    9900012    2    3    3    0    0 -0.18619219008E+02  0.23165630174E+02 -0.21736100239E+02  0.54367084864E+02  0.40000001564E+02 0.  0.
        -12    1    3    3    0    0  0.18619219008E+02 -0.23165630174E+02  0.21736100239E+02  0.36820915136E+02  0.00000000000E+00 0.  1.
         11    1    4    4    0    0  0.11751011906E+01  0.21478210367E+02 -0.16951086636E+02  0.27386743541E+02  0.51100000000E-03 0. -1.
        -11    1    4    4    0    0 -0.50771504194E+01  0.87989516586E+01 -0.26297891438E+01  0.10493559828E+02  0.51100000000E-03 0.  1.
        -12    1    4    4    0    0 -0.14717169779E+02 -0.71115318514E+01 -0.21552244599E+01  0.16486781495E+02  0.00000000000E+00 0.  1.
</event>
<event>
 8    1  0.1229941E-006  0.9118800E+02  0.7816164E-02  0.1184000E+00
        -11   -1    0    0    0    0  0.00000000000E+00  0.00000000000E+00  0.45593999997E+02  0.45594000000E+02  0.51100000000E-03 0.  1.
         11   -1    0    0    0    0 -0.00000000000E+00 -0.00000000000E+00 -0.45593999997E+02  0.45594000000E+02  0.51100000000E-03 0. -1.
         23    2    1    2    0    0  0.71054273576E-14 -0.10658141036E-13 -0.22204460493E-15  0.91188000000E+02  0.91188000000E+02 0.  0.
    9900012    2    3    3    0    0  0.19051250687E+02 -0.31493830831E+02  0.98564005860E+00  0.54367041030E+02  0.39999901636E+02 0.  0.
         12    1    3    3    0    0 -0.19051250687E+02  0.31493830831E+02 -0.98564005860E+00  0.36820958970E+02  0.00000000000E+00 0. -1.
         11    1    4    4    0    0  0.41419820426E+01 -0.18887537398E+02 -0.10252002782E+02  0.21886037683E+02  0.51100000000E-03 0. -1.
        -11    1    4    4    0    0  0.12679884395E+01 -0.31597110551E+01 -0.70247797186E+01  0.78063499147E+01  0.51100000000E-03 0.  1.
        -12    1    4    4    0    0  0.13641280205E+02 -0.94465823782E+01  0.18262422559E+02  0.24674653432E+02  0.00000000000E+00 0.  1.
</event>
<event>
 8    1  0.1229941E-006  0.9118800E+02  0.7816164E-02  0.1184000E+00
        -11   -1    0    0    0    0  0.00000000000E+00  0.00000000000E+00  0.45593999997E+02  0.45594000000E+02  0.51100000000E-03 0. -1.
         11   -1    0    0    0    0 -0.00000000000E+00 -0.00000000000E+00 -0.45593999997E+02  0.45594000000E+02  0.51100000000E-03 0.  1.
         23    2    1    2    0    0  0.00000000000E+00  0.00000000000E+00  0.00000000000E+00  0.91188000000E+02  0.91188000000E+02 0.  0.
    9900012    2    3    3    0    0 -0.73670697860E+01 -0.28665324884E+02  0.21904467459E+02  0.54367078466E+02  0.39999986979E+02 0.  0.
        -12    1    3    3    0    0  0.73670697860E+01  0.28665324884E+02 -0.21904467459E+02  0.36820921534E+02  0.00000000000E+00 0.  1.
         11    1    4    4    0    0 -0.15144399986E+02 -0.18312320436E+02  0.11821342962E+02  0.26541252426E+02  0.51100000000E-03 0. -1.
        -11    1    4    4    0    0  0.11126780932E+02 -0.12109168319E+02 -0.63786039921E+00  0.16457341141E+02  0.51100000000E-03 0.  1.
         12    1    4    4    0    0 -0.33494507316E+01  0.17561638705E+01  0.10720984896E+02  0.11368484898E+02  0.00000000000E+00 0. -1.
</event>
<event>
 8    1  0.1229941E-006  0.9118800E+02  0.7816164E-02  0.1184000E+00
        -11   -1    0    0    0    0  0.00000000000E+00  0.00000000000E+00  0.45593999997E+02  0.45594000000E+02  0.51100000000E-03 0. -1.
         11   -1    0    0    0    0 -0.00000000000E+00 -0.00000000000E+00 -0.45593999997E+02  0.45594000000E+02  0.51100000000E-03 0.  1.
         23    2    1    2    0    0  0.00000000000E+00  0.00000000000E+00  0.00000000000E+00  0.91188000000E+02  0.91188000000E+02 0.  0.
    9900012    2    3    3    0    0  0.22354751702E+02  0.27335322364E+02  0.10431965589E+02  0.54367072819E+02  0.39999974106E+02 0.  0.
        -12    1    3    3    0    0 -0.22354751702E+02 -0.27335322364E+02 -0.10431965589E+02  0.36820927181E+02  0.00000000000E+00 0.  1.
         11    1    4    4    0    0  0.76574012197E+01 -0.15468260843E+01  0.81588674651E+01  0.11295821482E+02  0.51100000000E-03 0. -1.
        -11    1    4    4    0    0  0.33258430909E+01 -0.56870695189E+01 -0.24501107895E+00  0.65927249804E+01  0.51100000000E-03 0.  1.
         12    1    4    4    0    0  0.11371507392E+02  0.34569217967E+02  0.25181092025E+01  0.36478526357E+02  0.00000000000E+00 0. -1.
</event>
<event>
 8    1  0.1229941E-006  0.9118800E+02  0.7816164E-02  0.1184000E+00
        -11   -1    0    0    0    0  0.00000000000E+00  0.00000000000E+00  0.45593999997E+02  0.45594000000E+02  0.51100000000E-03 0.  1.
         11   -1    0    0    0    0 -0.00000000000E+00 -0.00000000000E+00 -0.45593999997E+02  0.45594000000E+02  0.51100000000E-03 0. -1.
         23    2    1    2    0    0  0.00000000000E+00  0.00000000000E+00  0.00000000000E+00  0.91188000000E+02  0.91188000000E+02 0.  0.
    9900012    2    3    3    0    0  0.12687441761E+02  0.19857556267E+02  0.28292872939E+02  0.54367076893E+02  0.39999983393E+02 0.  0.
         12    1    3    3    0    0 -0.12687441761E+02 -0.19857556267E+02 -0.28292872939E+02  0.36820923107E+02  0.00000000000E+00 0. -1.
         11    1    4    4    0    0 -0.74765965115E+00  0.17386867422E+01  0.35801303116E+00  0.19261879797E+01  0.51100000000E-03 0. -1.
        -11    1    4    4    0    0  0.16369419226E+02  0.28778031864E+02  0.23124175682E+02  0.40383913939E+02  0.51100000000E-03 0.  1.
        -12    1    4    4    0    0 -0.29343178145E+01 -0.10659162339E+02  0.48106842257E+01  0.12056974974E+02  0.00000000000E+00 0.  1.
</event>
<event>
 8    1  0.1229941E-006  0.9118800E+02  0.7816164E-02  0.1184000E+00
        -11   -1    0    0    0    0  0.00000000000E+00  0.00000000000E+00  0.45593999997E+02  0.45594000000E+02  0.51100000000E-03 0.  1.
         11   -1    0    0    0    0 -0.00000000000E+00 -0.00000000000E+00 -0.45593999997E+02  0.45594000000E+02  0.51100000000E-03 0. -1.
         23    2    1    2    0    0  0.71054273576E-14  0.35527136788E-14  0.00000000000E+00  0.91188000000E+02  0.91188000000E+02 0.  0.
    9900012    2    3    3    0    0 -0.20928964308E+02  0.29758331857E+02  0.56745222066E+01  0.54367081161E+02  0.39999993122E+02 0.  0.
         12    1    3    3    0    0  0.20928964308E+02 -0.29758331857E+02 -0.56745222066E+01  0.36820918839E+02  0.00000000000E+00 0. -1.
         11    1    4    4    0    0 -0.20568136765E+01 -0.62791817289E+01  0.78127516542E+01  0.10232189128E+02  0.51100000000E-03 0. -1.
        -11    1    4    4    0    0 -0.21776609468E+02  0.31176313601E+02 -0.38395539906E+01  0.38222054167E+02  0.51100000000E-03 0.  1.
         12    1    4    4    0    0  0.29044588360E+01  0.48611999845E+01  0.17013245429E+01  0.59128378652E+01  0.00000000000E+00 0. -1.
</event>
<event>
 8    1  0.1229941E-006  0.9118800E+02  0.7816164E-02  0.1184000E+00
        -11   -1    0    0    0    0  0.00000000000E+00  0.00000000000E+00  0.45593999997E+02  0.45594000000E+02  0.51100000000E-03 0.  1.
         11   -1    0    0    0    0 -0.00000000000E+00 -0.00000000000E+00 -0.45593999997E+02  0.45594000000E+02  0.51100000000E-03 0. -1.
         23    2    1    2    0    0 -0.88817841970E-15  0.00000000000E+00  0.35527136788E-14  0.91188000000E+02  0.91188000000E+02 0.  0.
    9900012    2    3    3    0    0  0.51887855908E+01 -0.30293014737E+02 -0.20277804849E+02  0.54367087365E+02  0.40000007267E+02 0.  0.
        -12    1    3    3    0    0 -0.51887855908E+01  0.30293014737E+02  0.20277804849E+02  0.36820912635E+02  0.00000000000E+00 0.  1.
         11    1    4    4    0    0  0.38347179909E+01 -0.19807654262E+02 -0.78699457111E+01  0.21656044773E+02  0.51100000000E-03 0. -1.
        -11    1    4    4    0    0  0.12705528968E+02 -0.57630627811E-01 -0.11713739944E+02  0.17281362544E+02  0.51100000000E-03 0.  1.
         12    1    4    4    0    0 -0.11351461368E+02 -0.10427729847E+02 -0.69411919420E+00  0.15429680049E+02  0.00000000000E+00 0. -1.
</event>
<event>
 8    1  0.1229941E-006  0.9118800E+02  0.7816164E-02  0.1184000E+00
        -11   -1    0    0    0    0  0.00000000000E+00  0.00000000000E+00  0.45593999997E+02  0.45594000000E+02  0.51100000000E-03 0. -1.
         11   -1    0    0    0    0 -0.00000000000E+00 -0.00000000000E+00 -0.45593999997E+02  0.45594000000E+02  0.51100000000E-03 0.  1.
         23    2    1    2    0    0  0.17763568394E-14  0.00000000000E+00  0.71054273576E-14  0.91188000000E+02  0.91188000000E+02 0.  0.
    9900012    2    3    3    0    0 -0.55767690191E+01  0.17711870760E+02 -0.31795740832E+02  0.54367084021E+02  0.39999999642E+02 0.  0.
         12    1    3    3    0    0  0.55767690191E+01 -0.17711870760E+02  0.31795740832E+02  0.36820915979E+02  0.00000000000E+00 0. -1.
         11    1    4    4    0    0  0.12423053373E+02  0.34891788651E+01 -0.18190114150E+02  0.22302172031E+02  0.51100000000E-03 0. -1.
        -11    1    4    4    0    0  0.84868509152E+00 -0.32307238686E+01 -0.13493438601E+01  0.36025785507E+01  0.51100000000E-03 0.  1.
        -12    1    4    4    0    0 -0.18848507483E+02  0.17453415764E+02 -0.12256282821E+02  0.28462333439E+02  0.00000000000E+00 0.  1.
</event>
<event>
 8    1  0.1229941E-006  0.9118800E+02  0.7816164E-02  0.1184000E+00
        -11   -1    0    0    0    0  0.00000000000E+00  0.00000000000E+00  0.45593999997E+02  0.45594000000E+02  0.51100000000E-03 0.  1.
         11   -1    0    0    0    0 -0.00000000000E+00 -0.00000000000E+00 -0.45593999997E+02  0.45594000000E+02  0.51100000000E-03 0. -1.
         23    2    1    2    0    0  0.35527136788E-14  0.35527136788E-14  0.17763568394E-14  0.91188000000E+02  0.91188000000E+02 0.  0.
    9900012    2    3    3    0    0 -0.30368872193E+02 -0.16752443582E+02  0.12363945806E+02  0.54367083116E+02  0.39999997581E+02 0.  0.
         12    1    3    3    0    0  0.30368872193E+02  0.16752443582E+02 -0.12363945806E+02  0.36820916884E+02  0.00000000000E+00 0. -1.
         11    1    4    4    0    0 -0.20188292871E+01 -0.28469577951E+01 -0.62238531152E+01  0.71356280900E+01  0.51100000000E-03 0. -1.
        -11    1    4    4    0    0 -0.28925642685E+01 -0.14064476676E+00 -0.76424727020E+01  0.81727656432E+01  0.51100000000E-03 0.  1.
        -12    1    4    4    0    0 -0.25457478637E+02 -0.13764841020E+02  0.26230271624E+02  0.39058689383E+02  0.00000000000E+00 0.  1.
</event>
<event>
 8    1  0.1229941E-006  0.9118800E+02  0.7816164E-02  0.1184000E+00
        -11   -1    0    0    0    0  0.00000000000E+00  0.00000000000E+00  0.45593999997E+02  0.45594000000E+02  0.51100000000E-03 0.  1.
         11   -1    0    0    0    0 -0.00000000000E+00 -0.00000000000E+00 -0.45593999997E+02  0.45594000000E+02  0.51100000000E-03 0. -1.
         23    2    1    2    0    0  0.00000000000E+00  0.00000000000E+00  0.35527136788E-14  0.91188000000E+02  0.91188000000E+02 0.  0.
    9900012    2    3    3    0    0 -0.24297305968E+02  0.73827648707E+01  0.26663009792E+02  0.54367076796E+02  0.39999983172E+02 0.  0.
         12    1    3    3    0    0  0.24297305968E+02 -0.73827648707E+01 -0.26663009792E+02  0.36820923204E+02  0.00000000000E+00 0. -1.
         11    1    4    4    0    0 -0.16129340310E+02  0.14845562640E+02 -0.10528311808E+01  0.21946635339E+02  0.51100000000E-03 0. -1.
        -11    1    4    4    0    0 -0.15476341517E+01 -0.93977218648E+01  0.12506220104E+02  0.15719983755E+02  0.51100000000E-03 0.  1.
         12    1    4    4    0    0 -0.66203315064E+01  0.19349240956E+01  0.15209620868E+02  0.16700457702E+02  0.00000000000E+00 0. -1.
</event>
<event>
 8    1  0.1229941E-006  0.9118800E+02  0.7816164E-02  0.1184000E+00
        -11   -1    0    0    0    0  0.00000000000E+00  0.00000000000E+00  0.45593999997E+02  0.45594000000E+02  0.51100000000E-03 0. -1.
         11   -1    0    0    0    0 -0.00000000000E+00 -0.00000000000E+00 -0.45593999997E+02  0.45594000000E+02  0.51100000000E-03 0.  1.
         23    2    1    2    0    0  0.00000000000E+00 -0.35527136788E-14 -0.17763568394E-14  0.91188000000E+02  0.91188000000E+02 0.  0.
    9900012    2    3    3    0    0 -0.29864032499E+02  0.16106375044E+02  0.14300494216E+02  0.54367083540E+02  0.39999998546E+02 0.  0.
        -12    1    3    3    0    0  0.29864032499E+02 -0.16106375044E+02 -0.14300494216E+02  0.36820916460E+02  0.00000000000E+00 0.  1.
         11    1    4    4    0    0 -0.10881024720E+02  0.10239424730E+02 -0.49229106110E+01  0.15731419736E+02  0.51100000000E-03 0. -1.
        -11    1    4    4    0    0 -0.12492868830E+02  0.16176391339E+02  0.16209114419E+02  0.26086065224E+02  0.51100000000E-03 0.  1.
         12    1    4    4    0    0 -0.64901389485E+01 -0.10309441026E+02  0.30142904082E+01  0.12549598579E+02  0.00000000000E+00 0. -1.
</event>
<event>
 8    1  0.1229941E-006  0.9118800E+02  0.7816164E-02  0.1184000E+00
        -11   -1    0    0    0    0  0.00000000000E+00  0.00000000000E+00  0.45593999997E+02  0.45594000000E+02  0.51100000000E-03 0. -1.
         11   -1    0    0    0    0 -0.00000000000E+00 -0.00000000000E+00 -0.45593999997E+02  0.45594000000E+02  0.51100000000E-03 0.  1.
         23    2    1    2    0    0  0.00000000000E+00  0.00000000000E+00  0.00000000000E+00  0.91188000000E+02  0.91188000000E+02 0.  0.
    9900012    2    3    3    0    0 -0.18599853883E+02  0.21806907993E+02  0.23114603437E+02  0.54367072625E+02  0.39999973664E+02 0.  0.
        -12    1    3    3    0    0  0.18599853883E+02 -0.21806907993E+02 -0.23114603437E+02  0.36820927375E+02  0.00000000000E+00 0.  1.
         11    1    4    4    0    0 -0.13691167460E+02 -0.39318145344E+01  0.13860875569E+02  0.19875389399E+02  0.51100000000E-03 0. -1.
        -11    1    4    4    0    0 -0.23698274127E+01 -0.62823641618E+00 -0.41382024699E+01  0.48099358523E+01  0.51100000000E-03 0.  1.
         12    1    4    4    0    0 -0.25388590105E+01  0.26366958944E+02  0.13391930338E+02  0.29681747374E+02  0.00000000000E+00 0. -1.
</event>
<event>
 8    1  0.1229941E-006  0.9118800E+02  0.7816164E-02  0.1184000E+00
        -11   -1    0    0    0    0  0.00000000000E+00  0.00000000000E+00  0.45593999997E+02  0.45594000000E+02  0.51100000000E-03 0.  1.
         11   -1    0    0    0    0 -0.00000000000E+00 -0.00000000000E+00 -0.45593999997E+02  0.45594000000E+02  0.51100000000E-03 0. -1.
         23    2    1    2    0    0  0.00000000000E+00  0.00000000000E+00 -0.35527136788E-14  0.91188000000E+02  0.91188000000E+02 0.  0.
    9900012    2    3    3    0    0 -0.17850759343E+02  0.95989283868E+01 -0.30740699342E+02  0.54367087038E+02  0.40000006521E+02 0.  0.
        -12    1    3    3    0    0  0.17850759343E+02 -0.95989283868E+01  0.30740699342E+02  0.36820912962E+02  0.00000000000E+00 0.  1.
         11    1    4    4    0    0 -0.13277688732E+02 -0.88782139048E+01 -0.48443655331E+01  0.16690942990E+02  0.51100000000E-03 0. -1.
        -11    1    4    4    0    0  0.35489517241E+01  0.14177955114E+01  0.17394469160E+01  0.41989139413E+01  0.51100000000E-03 0.  1.
         12    1    4    4    0    0 -0.81220223342E+01  0.17059346780E+02 -0.27635780725E+02  0.33477230107E+02  0.00000000000E+00 0. -1.
</event>
<event>
 8    1  0.1229941E-006  0.9118800E+02  0.7816164E-02  0.1184000E+00
        -11   -1    0    0    0    0  0.00000000000E+00  0.00000000000E+00  0.45593999997E+02  0.45594000000E+02  0.51100000000E-03 0. -1.
         11   -1    0    0    0    0 -0.00000000000E+00 -0.00000000000E+00 -0.45593999997E+02  0.45594000000E+02  0.51100000000E-03 0.  1.
         23    2    1    2    0    0 -0.88817841970E-15  0.35527136788E-14 -0.35527136788E-14  0.91188000000E+02  0.91188000000E+02 0.  0.
    9900012    2    3    3    0    0 -0.39023683254E+01  0.25648679242E+02 -0.26128482519E+02  0.54367070841E+02  0.39999969596E+02 0.  0.
         12    1    3    3    0    0  0.39023683254E+01 -0.25648679242E+02  0.26128482519E+02  0.36820929159E+02  0.00000000000E+00 0. -1.
         11    1    4    4    0    0 -0.42294958577E+01  0.27285656550E+02 -0.26347405426E+02  0.38165186512E+02  0.51100000000E-03 0. -1.
        -11    1    4    4    0    0  0.31285308575E+01  0.67043856131E+01 -0.49457677768E-01  0.73985767616E+01  0.51100000000E-03 0.  1.
         12    1    4    4    0    0 -0.28014033251E+01 -0.83413629217E+01  0.26838058469E+00  0.88033075670E+01  0.00000000000E+00 0. -1.
</event>
<event>
 8    1  0.1229941E-006  0.9118800E+02  0.7816164E-02  0.1184000E+00
        -11   -1    0    0    0    0  0.00000000000E+00  0.00000000000E+00  0.45593999997E+02  0.45594000000E+02  0.51100000000E-03 0.  1.
         11   -1    0    0    0    0 -0.00000000000E+00 -0.00000000000E+00 -0.45593999997E+02  0.45594000000E+02  0.51100000000E-03 0. -1.
         23    2    1    2    0    0  0.00000000000E+00 -0.66613381478E-15  0.00000000000E+00  0.91188000000E+02  0.91188000000E+02 0.  0.
    9900012    2    3    3    0    0 -0.25213877064E+01  0.45569989943E+00  0.36731617643E+02  0.54367125580E+02  0.40000094386E+02 0.  0.
         12    1    3    3    0    0  0.25213877064E+01 -0.45569989943E+00 -0.36731617643E+02  0.36820874420E+02  0.00000000000E+00 0. -1.
         11    1    4    4    0    0  0.86091839127E+00 -0.10552365869E+02 -0.32059457185E+01  0.11062174023E+02  0.51100000000E-03 0. -1.
        -11    1    4    4    0    0  0.44436938245E+00 -0.23400769598E+01  0.10356694502E+02  0.10627066650E+02  0.51100000000E-03 0.  1.
        -12    1    4    4    0    0 -0.38266754801E+01  0.13348142728E+02  0.29580868860E+02  0.32677884907E+02  0.00000000000E+00 0.  1.
</event>
<event>
 8    1  0.1229941E-006  0.9118800E+02  0.7816164E-02  0.1184000E+00
        -11   -1    0    0    0    0  0.00000000000E+00  0.00000000000E+00  0.45593999997E+02  0.45594000000E+02  0.51100000000E-03 0. -1.
         11   -1    0    0    0    0 -0.00000000000E+00 -0.00000000000E+00 -0.45593999997E+02  0.45594000000E+02  0.51100000000E-03 0.  1.
         23    2    1    2    0    0  0.00000000000E+00  0.00000000000E+00  0.00000000000E+00  0.91188000000E+02  0.91188000000E+02 0.  0.
    9900012    2    3    3    0    0  0.82807454955E+01 -0.23253024217E+02 -0.27322265587E+02  0.54367080973E+02  0.39999992695E+02 0.  0.
        -12    1    3    3    0    0 -0.82807454955E+01  0.23253024217E+02  0.27322265587E+02  0.36820919027E+02  0.00000000000E+00 0.  1.
         11    1    4    4    0    0  0.37411751250E+01 -0.13481442496E+01 -0.11784994261E+02  0.12437844437E+02  0.51100000000E-03 0. -1.
        -11    1    4    4    0    0  0.21367399261E+01  0.22919796597E+01 -0.17269748377E+02  0.17551724632E+02  0.51100000000E-03 0.  1.
         12    1    4    4    0    0  0.24028304444E+01 -0.24196859627E+02  0.17324770518E+01  0.24377511905E+02  0.00000000000E+00 0. -1.
</event>
<event>
 8    1  0.1229941E-006  0.9118800E+02  0.7816164E-02  0.1184000E+00
        -11   -1    0    0    0    0  0.00000000000E+00  0.00000000000E+00  0.45593999997E+02  0.45594000000E+02  0.51100000000E-03 0. -1.
         11   -1    0    0    0    0 -0.00000000000E+00 -0.00000000000E+00 -0.45593999997E+02  0.45594000000E+02  0.51100000000E-03 0.  1.
         23    2    1    2    0    0  0.71054273576E-14 -0.17763568394E-14 -0.44408920985E-15  0.91188000000E+02  0.91188000000E+02 0.  0.
    9900012    2    3    3    0    0 -0.35490266891E+02  0.91450856198E+01 -0.35480606347E+01  0.54367077018E+02  0.39999983678E+02 0.  0.
        -12    1    3    3    0    0  0.35490266891E+02 -0.91450856198E+01  0.35480606347E+01  0.36820922982E+02  0.00000000000E+00 0.  1.
         11    1    4    4    0    0 -0.12296170100E+01  0.14120059295E+01  0.88048206333E+00  0.20690499417E+01  0.51100000000E-03 0. -1.
        -11    1    4    4    0    0  0.36448502007E+01 -0.79649339038E+01 -0.69669092964E+01  0.11192092319E+02  0.51100000000E-03 0.  1.
        -12    1    4    4    0    0 -0.37905500082E+02  0.15698013594E+02  0.25383665984E+01  0.41105934757E+02  0.00000000000E+00 0.  1.
</event>
<event>
 8    1  0.1229941E-006  0.9118800E+02  0.7816164E-02  0.1184000E+00
        -11   -1    0    0    0    0  0.00000000000E+00  0.00000000000E+00  0.45593999997E+02  0.45594000000E+02  0.51100000000E-03 0.  1.
         11   -1    0    0    0    0 -0.00000000000E+00 -0.00000000000E+00 -0.45593999997E+02  0.45594000000E+02  0.51100000000E-03 0. -1.
         23    2    1    2    0    0  0.35527136788E-14  0.44408920985E-15  0.35527136788E-14  0.91188000000E+02  0.91188000000E+02 0.  0.
    9900012    2    3    3    0    0 -0.24870832527E+02 -0.23130120676E+01  0.27053029803E+02  0.54367153229E+02  0.40000157416E+02 0.  0.
        -12    1    3    3    0    0  0.24870832527E+02  0.23130120676E+01 -0.27053029803E+02  0.36820846771E+02  0.00000000000E+00 0.  1.
         11    1    4    4    0    0 -0.47152737874E+01 -0.79701809710E+01  0.15708842246E+01  0.93928307292E+01  0.51100000000E-03 0. -1.
        -11    1    4    4    0    0 -0.43624394492E+01  0.13011051716E+01  0.28027603679E+02  0.28394899558E+02  0.51100000000E-03 0.  1.
         12    1    4    4    0    0 -0.15793119290E+02  0.43560637318E+01 -0.25454581013E+01  0.16579422942E+02  0.00000000000E+00 0. -1.
</event>
<event>
 8    1  0.1229941E-006  0.9118800E+02  0.7816164E-02  0.1184000E+00
        -11   -1    0    0    0    0  0.00000000000E+00  0.00000000000E+00  0.45593999997E+02  0.45594000000E+02  0.51100000000E-03 0. -1.
         11   -1    0    0    0    0 -0.00000000000E+00 -0.00000000000E+00 -0.45593999997E+02  0.45594000000E+02  0.51100000000E-03 0.  1.
         23    2    1    2    0    0  0.00000000000E+00 -0.17763568394E-14 -0.88817841970E-15  0.91188000000E+02  0.91188000000E+02 0.  0.
    9900012    2    3    3    0    0  0.33762377160E+02  0.14073238215E+02  0.42219561231E+01  0.54367094812E+02  0.40000024244E+02 0.  0.
        -12    1    3    3    0    0 -0.33762377160E+02 -0.14073238215E+02 -0.42219561231E+01  0.36820905188E+02  0.00000000000E+00 0.  1.
         11    1    4    4    0    0  0.21547881145E+02  0.85544542798E+01 -0.89239210263E+01  0.24842025614E+02  0.51100000000E-03 0. -1.
        -11    1    4    4    0    0  0.12708259435E+02  0.10460983087E+01 -0.27159771204E+01  0.13037281600E+02  0.51100000000E-03 0.  1.
         12    1    4    4    0    0 -0.49376341967E+00  0.44726856266E+01  0.15861854270E+02  0.16487787599E+02  0.00000000000E+00 0. -1.
</event>
<event>
 8    1  0.1229941E-006  0.9118800E+02  0.7816164E-02  0.1184000E+00
        -11   -1    0    0    0    0  0.00000000000E+00  0.00000000000E+00  0.45593999997E+02  0.45594000000E+02  0.51100000000E-03 0. -1.
         11   -1    0    0    0    0 -0.00000000000E+00 -0.00000000000E+00 -0.45593999997E+02  0.45594000000E+02  0.51100000000E-03 0.  1.
         23    2    1    2    0    0  0.35527136788E-14 -0.44408920985E-15  0.00000000000E+00  0.91188000000E+02  0.91188000000E+02 0.  0.
    9900012    2    3    3    0    0  0.25612005914E+02  0.23782853160E+01  0.26346701739E+02  0.54367085013E+02  0.40000001903E+02 0.  0.
        -12    1    3    3    0    0 -0.25612005914E+02 -0.23782853160E+01 -0.26346701739E+02  0.36820914987E+02  0.00000000000E+00 0.  1.
         11    1    4    4    0    0  0.40464195769E+01  0.75767270281E+01  0.16199569914E+02  0.18335931106E+02  0.51100000000E-03 0. -1.
        -11    1    4    4    0    0 -0.43405587356E+01 -0.49196908354E+01 -0.27223237570E+01  0.71031580971E+01  0.51100000000E-03 0.  1.
         12    1    4    4    0    0  0.25906145073E+02 -0.27875087671E+00  0.12869455581E+02  0.28927995809E+02  0.00000000000E+00 0. -1.
</event>
<event>
 8    1  0.1229941E-006  0.9118800E+02  0.7816164E-02  0.1184000E+00
        -11   -1    0    0    0    0  0.00000000000E+00  0.00000000000E+00  0.45593999997E+02  0.45594000000E+02  0.51100000000E-03 0.  1.
         11   -1    0    0    0    0 -0.00000000000E+00 -0.00000000000E+00 -0.45593999997E+02  0.45594000000E+02  0.51100000000E-03 0. -1.
         23    2    1    2    0    0  0.31086244690E-14  0.00000000000E+00  0.57592819402E-15  0.91188000000E+02  0.91188000000E+02 0.  0.
    9900012    2    3    3    0    0  0.33126920722E+00 -0.36819372710E+02 -0.61116816025E-01  0.54367086359E+02  0.40000004973E+02 0.  0.
         12    1    3    3    0    0 -0.33126920722E+00  0.36819372710E+02  0.61116816025E-01  0.36820913641E+02  0.00000000000E+00 0. -1.
         11    1    4    4    0    0  0.12905193055E+02 -0.10241928618E+02 -0.54523351361E+01  0.17354223356E+02  0.51100000000E-03 0. -1.
        -11    1    4    4    0    0 -0.41236041208E+01 -0.27610672926E+02  0.25284692036E+01  0.28031170635E+02  0.51100000000E-03 0.  1.
         12    1    4    4    0    0 -0.84503197265E+01  0.10332288334E+01  0.28627491164E+01  0.89816923687E+01  0.00000000000E+00 0. -1.
</event>
<event>
 8    1  0.1229941E-006  0.9118800E+02  0.7816164E-02  0.1184000E+00
        -11   -1    0    0    0    0  0.00000000000E+00  0.00000000000E+00  0.45593999997E+02  0.45594000000E+02  0.51100000000E-03 0. -1.
         11   -1    0    0    0    0 -0.00000000000E+00 -0.00000000000E+00 -0.45593999997E+02  0.45594000000E+02  0.51100000000E-03 0.  1.
         23    2    1    2    0    0  0.44408920985E-15  0.00000000000E+00  0.71054273576E-14  0.91188000000E+02  0.91188000000E+02 0.  0.
    9900012    2    3    3    0    0 -0.25339804058E+01  0.47484131663E+01 -0.36425423828E+02  0.54367082231E+02  0.39999995562E+02 0.  0.
         12    1    3    3    0    0  0.25339804058E+01 -0.47484131663E+01  0.36425423828E+02  0.36820917769E+02  0.00000000000E+00 0. -1.
         11    1    4    4    0    0  0.38630295025E+01 -0.13472806917E+02 -0.40924532085E+01  0.14600948486E+02  0.51100000000E-03 0.  1.
        -11    1    4    4    0    0  0.11605439700E+00  0.14998064928E+01  0.10713623834E+01  0.18468096157E+01  0.51100000000E-03 0. -1.
        -12    1    4    4    0    0 -0.65130643053E+01  0.16721413590E+02 -0.33404333003E+02  0.37919324130E+02  0.00000000000E+00 0.  1.
</event>
<event>
 8    1  0.1229941E-006  0.9118800E+02  0.7816164E-02  0.1184000E+00
        -11   -1    0    0    0    0  0.00000000000E+00  0.00000000000E+00  0.45593999997E+02  0.45594000000E+02  0.51100000000E-03 0. -1.
         11   -1    0    0    0    0 -0.00000000000E+00 -0.00000000000E+00 -0.45593999997E+02  0.45594000000E+02  0.51100000000E-03 0.  1.
         23    2    1    2    0    0  0.13322676296E-14  0.88817841970E-15  0.00000000000E+00  0.91188000000E+02  0.91188000000E+02 0.  0.
    9900012    2    3    3    0    0  0.18925658304E+01  0.55749086024E+01  0.36347189756E+02  0.54367087267E+02  0.40000007042E+02 0.  0.
        -12    1    3    3    0    0 -0.18925658304E+01 -0.55749086024E+01 -0.36347189756E+02  0.36820912733E+02  0.00000000000E+00 0.  1.
         11    1    4    4    0    0  0.98243958471E+01 -0.33903853268E+01  0.31643750542E+01  0.10864011053E+02  0.51100000000E-03 0.  1.
        -11    1    4    4    0    0 -0.16267007206E+02  0.30850949600E+01  0.13614539475E+02  0.21435694990E+02  0.51100000000E-03 0. -1.
         12    1    4    4    0    0  0.83351771890E+01  0.58801989691E+01  0.19568275227E+02  0.22067381223E+02  0.00000000000E+00 0. -1.
</event>
<event>
 8    1  0.1229941E-006  0.9118800E+02  0.7816164E-02  0.1184000E+00
        -11   -1    0    0    0    0  0.00000000000E+00  0.00000000000E+00  0.45593999997E+02  0.45594000000E+02  0.51100000000E-03 0.  1.
         11   -1    0    0    0    0 -0.00000000000E+00 -0.00000000000E+00 -0.45593999997E+02  0.45594000000E+02  0.51100000000E-03 0. -1.
         23    2    1    2    0    0  0.88817841970E-15  0.71054273576E-14  0.17763568394E-14  0.91188000000E+02  0.91188000000E+02 0.  0.
    9900012    2    3    3    0    0 -0.59919935415E+01  0.35695192028E+02  0.67622649472E+01  0.54367096321E+02  0.40000027683E+02 0.  0.
         12    1    3    3    0    0  0.59919935415E+01 -0.35695192028E+02 -0.67622649472E+01  0.36820903679E+02  0.00000000000E+00 0. -1.
         11    1    4    4    0    0 -0.24773582121E+01  0.11824213215E+02 -0.57171451431E+01  0.13365443155E+02  0.51100000000E-03 0. -1.
        -11    1    4    4    0    0  0.27506026266E+01 -0.31667594399E+01 -0.62442484048E+01  0.75222881201E+01  0.51100000000E-03 0.  1.
        -12    1    4    4    0    0 -0.62652379560E+01  0.27037738253E+02  0.18723658495E+02  0.33479365046E+02  0.00000000000E+00 0.  1.
</event>
<event>
 8    1  0.1229941E-006  0.9118800E+02  0.7816164E-02  0.1184000E+00
        -11   -1    0    0    0    0  0.00000000000E+00  0.00000000000E+00  0.45593999997E+02  0.45594000000E+02  0.51100000000E-03 0. -1.
         11   -1    0    0    0    0 -0.00000000000E+00 -0.00000000000E+00 -0.45593999997E+02  0.45594000000E+02  0.51100000000E-03 0.  1.
         23    2    1    2    0    0 -0.35527136788E-14  0.00000000000E+00 -0.17763568394E-14  0.91188000000E+02  0.91188000000E+02 0.  0.
    9900012    2    3    3    0    0  0.27637936836E+02  0.19237539849E+02  0.14894360062E+02  0.54367075872E+02  0.39999981066E+02 0.  0.
        -12    1    3    3    0    0 -0.27637936836E+02 -0.19237539849E+02 -0.14894360062E+02  0.36820924128E+02  0.00000000000E+00 0.  1.
         11    1    4    4    0    0  0.18794364368E+02  0.10576198941E+02  0.36014389438E+01  0.21864456974E+02  0.51100000000E-03 0. -1.
        -11    1    4    4    0    0 -0.25790885175E+01 -0.89799205782E+01  0.21707692071E+01  0.95918147597E+01  0.51100000000E-03 0.  1.
         12    1    4    4    0    0  0.11422660985E+02  0.17641261485E+02  0.91221519112E+01  0.22910804138E+02  0.00000000000E+00 0. -1.
</event>
<event>
 8    1  0.1229941E-006  0.9118800E+02  0.7816164E-02  0.1184000E+00
        -11   -1    0    0    0    0  0.00000000000E+00  0.00000000000E+00  0.45593999997E+02  0.45594000000E+02  0.51100000000E-03 0.  1.
         11   -1    0    0    0    0 -0.00000000000E+00 -0.00000000000E+00 -0.45593999997E+02  0.45594000000E+02  0.51100000000E-03 0. -1.
         23    2    1    2    0    0  0.00000000000E+00 -0.35527136788E-14  0.00000000000E+00  0.91188000000E+02  0.91188000000E+02 0.  0.
    9900012    2    3    3    0    0 -0.25275508877E+02  0.26423388289E+02  0.43282016132E+01  0.54367080309E+02  0.39999991181E+02 0.  0.
         12    1    3    3    0    0  0.25275508877E+02 -0.26423388289E+02 -0.43282016132E+01  0.36820919691E+02  0.00000000000E+00 0. -1.
         11    1    4    4    0    0 -0.29005488172E+02  0.92925008946E+01  0.56895184543E+01  0.30984504796E+02  0.51100000000E-03 0. -1.
        -11    1    4    4    0    0  0.55666406489E+01  0.14139744317E+02 -0.70077753156E+01  0.16734060254E+02  0.51100000000E-03 0.  1.
        -12    1    4    4    0    0 -0.18366613546E+01  0.29911430776E+01  0.56464584745E+01  0.66485152588E+01  0.00000000000E+00 0.  1.
</event>
<event>
 8    1  0.1229941E-006  0.9118800E+02  0.7816164E-02  0.1184000E+00
        -11   -1    0    0    0    0  0.00000000000E+00  0.00000000000E+00  0.45593999997E+02  0.45594000000E+02  0.51100000000E-03 0. -1.
         11   -1    0    0    0    0 -0.00000000000E+00 -0.00000000000E+00 -0.45593999997E+02  0.45594000000E+02  0.51100000000E-03 0.  1.
         23    2    1    2    0    0  0.35527136788E-14  0.35527136788E-14  0.00000000000E+00  0.91188000000E+02  0.91188000000E+02 0.  0.
    9900012    2    3    3    0    0 -0.10020101148E+02 -0.20439083372E+02  0.28941694075E+02  0.54367079153E+02  0.39999988545E+02 0.  0.
        -12    1    3    3    0    0  0.10020101148E+02  0.20439083372E+02 -0.28941694075E+02  0.36820920847E+02  0.00000000000E+00 0.  1.
         11    1    4    4    0    0  0.52943230845E+01 -0.11744133914E+01  0.75722787425E-01  0.54235447762E+01  0.51100000000E-03 0.  1.
        -11    1    4    4    0    0  0.85125260995E+01 -0.89959239427E+01  0.40227179158E+01  0.13021981718E+02  0.51100000000E-03 0. -1.
         12    1    4    4    0    0 -0.23826950332E+02 -0.10268746038E+02  0.24843253372E+02  0.35921552659E+02  0.00000000000E+00 0. -1.
</event>
<event>
 8    1  0.1229941E-006  0.9118800E+02  0.7816164E-02  0.1184000E+00
        -11   -1    0    0    0    0  0.00000000000E+00  0.00000000000E+00  0.45593999997E+02  0.45594000000E+02  0.51100000000E-03 0. -1.
         11   -1    0    0    0    0 -0.00000000000E+00 -0.00000000000E+00 -0.45593999997E+02  0.45594000000E+02  0.51100000000E-03 0.  1.
         23    2    1    2    0    0 -0.17763568394E-14  0.00000000000E+00  0.00000000000E+00  0.91188000000E+02  0.91188000000E+02 0.  0.
    9900012    2    3    3    0    0 -0.10223769699E+02 -0.80606149794E+01 -0.34442393315E+02  0.54367116822E+02  0.40000074419E+02 0.  0.
         12    1    3    3    0    0  0.10223769699E+02  0.80606149794E+01  0.34442393315E+02  0.36820883178E+02  0.00000000000E+00 0. -1.
         11    1    4    4    0    0 -0.30025153448E+01  0.52260780180E+01  0.38591264518E+01  0.71568042504E+01  0.51100000000E-03 0. -1.
        -11    1    4    4    0    0  0.17275974091E+01  0.11605777388E+01 -0.26355203492E+02  0.26437251840E+02  0.51100000000E-03 0.  1.
         12    1    4    4    0    0 -0.89488517636E+01 -0.14447270736E+02 -0.11946316275E+02  0.20773060732E+02  0.00000000000E+00 0. -1.
</event>
<event>
 8    1  0.1229941E-006  0.9118800E+02  0.7816164E-02  0.1184000E+00
        -11   -1    0    0    0    0  0.00000000000E+00  0.00000000000E+00  0.45593999997E+02  0.45594000000E+02  0.51100000000E-03 0. -1.
         11   -1    0    0    0    0 -0.00000000000E+00 -0.00000000000E+00 -0.45593999997E+02  0.45594000000E+02  0.51100000000E-03 0.  1.
         23    2    1    2    0    0 -0.88817841970E-15 -0.71054273576E-14  0.00000000000E+00  0.91188000000E+02  0.91188000000E+02 0.  0.
    9900012    2    3    3    0    0 -0.54859674599E+01  0.36390777725E+02 -0.11813041241E+01  0.54367081735E+02  0.39999994432E+02 0.  0.
        -12    1    3    3    0    0  0.54859674599E+01 -0.36390777725E+02  0.11813041241E+01  0.36820918265E+02  0.00000000000E+00 0.  1.
         11    1    4    4    0    0 -0.89621442425E+00  0.27729741282E+02 -0.28298229826E+00  0.27745663284E+02  0.51100000000E-03 0. -1.
        -11    1    4    4    0    0  0.92859941272E+01  0.86897573871E+01 -0.18553419877E-01  0.12717779479E+02  0.51100000000E-03 0.  1.
         12    1    4    4    0    0 -0.13875747163E+02 -0.28720943641E-01 -0.87976840601E+00  0.13903638972E+02  0.00000000000E+00 0. -1.
</event>
<event>
 8    1  0.1229941E-006  0.9118800E+02  0.7816164E-02  0.1184000E+00
        -11   -1    0    0    0    0  0.00000000000E+00  0.00000000000E+00  0.45593999997E+02  0.45594000000E+02  0.51100000000E-03 0.  1.
         11   -1    0    0    0    0 -0.00000000000E+00 -0.00000000000E+00 -0.45593999997E+02  0.45594000000E+02  0.51100000000E-03 0. -1.
         23    2    1    2    0    0  0.00000000000E+00 -0.15543122345E-14  0.00000000000E+00  0.91188000000E+02  0.91188000000E+02 0.  0.
    9900012    2    3    3    0    0  0.31510164553E+02 -0.15720966045E+01  0.18984915296E+02  0.54366960272E+02  0.39999717531E+02 0.  0.
         12    1    3    3    0    0 -0.31510164553E+02  0.15720966045E+01 -0.18984915296E+02  0.36821039728E+02  0.00000000000E+00 0. -1.
         11    1    4    4    0    0  0.23679284354E+02  0.13778870112E+02  0.11903151588E+02  0.29870567237E+02  0.51100000000E-03 0. -1.
        -11    1    4    4    0    0  0.31668821160E+01 -0.16553672022E+02  0.92375297127E+01  0.19219395287E+02  0.51100000000E-03 0.  1.
        -12    1    4    4    0    0  0.46639980828E+01  0.12027053052E+01 -0.21557660045E+01  0.52769977481E+01  0.00000000000E+00 0.  1.
</event>
<event>
 8    1  0.1229941E-006  0.9118800E+02  0.7816164E-02  0.1184000E+00
        -11   -1    0    0    0    0  0.00000000000E+00  0.00000000000E+00  0.45593999997E+02  0.45594000000E+02  0.51100000000E-03 0.  1.
         11   -1    0    0    0    0 -0.00000000000E+00 -0.00000000000E+00 -0.45593999997E+02  0.45594000000E+02  0.51100000000E-03 0. -1.
         23    2    1    2    0    0  0.00000000000E+00  0.00000000000E+00  0.00000000000E+00  0.91188000000E+02  0.91188000000E+02 0.  0.
    9900012    2    3    3    0    0  0.68929828635E+01  0.18661271854E+02 -0.30984258659E+02  0.54367074365E+02  0.39999977630E+02 0.  0.
        -12    1    3    3    0    0 -0.68929828635E+01 -0.18661271854E+02  0.30984258659E+02  0.36820925635E+02  0.00000000000E+00 0.  1.
         11    1    4    4    0    0 -0.49795139078E+00  0.84369806869E+00 -0.74408202304E+01  0.75050375070E+01  0.51100000000E-03 0. -1.
        -11    1    4    4    0    0  0.26890615453E+01  0.88731301387E+01 -0.32229701837E+02  0.33536803235E+02  0.51100000000E-03 0.  1.
        -12    1    4    4    0    0  0.47018727090E+01  0.89444436467E+01  0.86862634083E+01  0.13325233623E+02  0.00000000000E+00 0.  1.
</event>
<event>
 8    1  0.1229941E-006  0.9118800E+02  0.7816164E-02  0.1184000E+00
        -11   -1    0    0    0    0  0.00000000000E+00  0.00000000000E+00  0.45593999997E+02  0.45594000000E+02  0.51100000000E-03 0.  1.
         11   -1    0    0    0    0 -0.00000000000E+00 -0.00000000000E+00 -0.45593999997E+02  0.45594000000E+02  0.51100000000E-03 0. -1.
         23    2    1    2    0    0 -0.17763568394E-14 -0.44408920985E-15  0.00000000000E+00  0.91188000000E+02  0.91188000000E+02 0.  0.
    9900012    2    3    3    0    0 -0.84301735764E+01  0.37353393595E+01 -0.35647708440E+02  0.54367086056E+02  0.40000004283E+02 0.  0.
        -12    1    3    3    0    0  0.84301735764E+01 -0.37353393595E+01  0.35647708440E+02  0.36820913944E+02  0.00000000000E+00 0.  1.
         11    1    4    4    0    0 -0.37328093772E+00 -0.46769341776E+01  0.21482111063E+01  0.51602192956E+01  0.51100000000E-03 0. -1.
        -11    1    4    4    0    0  0.80293929850E+01 -0.55595362783E+01 -0.82790198218E+01  0.12803193539E+02  0.51100000000E-03 0.  1.
         12    1    4    4    0    0 -0.16086285624E+02  0.13971809815E+02 -0.29516899724E+02  0.36403673221E+02  0.00000000000E+00 0. -1.
</event>
<event>
 8    1  0.1229941E-006  0.9118800E+02  0.7816164E-02  0.1184000E+00
        -11   -1    0    0    0    0  0.00000000000E+00  0.00000000000E+00  0.45593999997E+02  0.45594000000E+02  0.51100000000E-03 0.  1.
         11   -1    0    0    0    0 -0.00000000000E+00 -0.00000000000E+00 -0.45593999997E+02  0.45594000000E+02  0.51100000000E-03 0. -1.
         23    2    1    2    0    0  0.66613381478E-15 -0.44408920985E-15  0.00000000000E+00  0.91188000000E+02  0.91188000000E+02 0.  0.
    9900012    2    3    3    0    0  0.15093159857E+01 -0.12204639421E+01 -0.36769715233E+02  0.54367088478E+02  0.40000009803E+02 0.  0.
        -12    1    3    3    0    0 -0.15093159857E+01  0.12204639421E+01  0.36769715233E+02  0.36820911522E+02  0.00000000000E+00 0.  1.
         11    1    4    4    0    0 -0.16278663495E+02  0.61875499479E+01 -0.72414825879E+01  0.18860533658E+02  0.51100000000E-03 0. -1.
        -11    1    4    4    0    0  0.72421786955E+01 -0.48083813564E+01 -0.10886911027E+02  0.13931780773E+02  0.51100000000E-03 0.  1.
         12    1    4    4    0    0  0.10545800785E+02 -0.25996325336E+01 -0.18641321618E+02  0.21574774047E+02  0.00000000000E+00 0. -1.
</event>
<event>
 8    1  0.1229941E-006  0.9118800E+02  0.7816164E-02  0.1184000E+00
        -11   -1    0    0    0    0  0.00000000000E+00  0.00000000000E+00  0.45593999997E+02  0.45594000000E+02  0.51100000000E-03 0.  1.
         11   -1    0    0    0    0 -0.00000000000E+00 -0.00000000000E+00 -0.45593999997E+02  0.45594000000E+02  0.51100000000E-03 0. -1.
         23    2    1    2    0    0 -0.71054273576E-14  0.17763568394E-14  0.00000000000E+00  0.91188000000E+02  0.91188000000E+02 0.  0.
    9900012    2    3    3    0    0 -0.29038809671E+02  0.15856151583E+02 -0.16158871676E+02  0.54367093656E+02  0.40000021608E+02 0.  0.
        -12    1    3    3    0    0  0.29038809671E+02 -0.15856151583E+02  0.16158871676E+02  0.36820906344E+02  0.00000000000E+00 0.  1.
         11    1    4    4    0    0 -0.70355159552E+01  0.14814242781E+02 -0.12763257915E+01  0.16449598223E+02  0.51100000000E-03 0. -1.
        -11    1    4    4    0    0  0.63568406251E+01  0.40854205552E+00 -0.14608017669E+01  0.65353095877E+01  0.51100000000E-03 0.  1.
         12    1    4    4    0    0 -0.28360134341E+02  0.63336674707E+00 -0.13421744118E+02  0.31382185845E+02  0.00000000000E+00 0. -1.
</event>
<event>
 8    1  0.1229941E-006  0.9118800E+02  0.7816164E-02  0.1184000E+00
        -11   -1    0    0    0    0  0.00000000000E+00  0.00000000000E+00  0.45593999997E+02  0.45594000000E+02  0.51100000000E-03 0. -1.
         11   -1    0    0    0    0 -0.00000000000E+00 -0.00000000000E+00 -0.45593999997E+02  0.45594000000E+02  0.51100000000E-03 0.  1.
         23    2    1    2    0    0  0.00000000000E+00  0.00000000000E+00 -0.35527136788E-14  0.91188000000E+02  0.91188000000E+02 0.  0.
    9900012    2    3    3    0    0 -0.18183273072E+02  0.24225399236E+02  0.20935134495E+02  0.54367065139E+02  0.39999956596E+02 0.  0.
        -12    1    3    3    0    0  0.18183273072E+02 -0.24225399236E+02 -0.20935134495E+02  0.36820934861E+02  0.00000000000E+00 0.  1.
         11    1    4    4    0    0 -0.19231992551E+02 -0.22288725209E+01  0.90129102483E+01  0.21355794567E+02  0.51100000000E-03 0. -1.
        -11    1    4    4    0    0  0.63580199002E+01  0.73409401308E+01 -0.29114856205E+00  0.97158935153E+01  0.51100000000E-03 0.  1.
        -12    1    4    4    0    0 -0.53093004212E+01  0.19113331626E+02  0.12213372809E+02  0.23295377056E+02  0.00000000000E+00 0.  1.
</event>
<event>
 8    1  0.1229941E-006  0.9118800E+02  0.7816164E-02  0.1184000E+00
        -11   -1    0    0    0    0  0.00000000000E+00  0.00000000000E+00  0.45593999997E+02  0.45594000000E+02  0.51100000000E-03 0. -1.
         11   -1    0    0    0    0 -0.00000000000E+00 -0.00000000000E+00 -0.45593999997E+02  0.45594000000E+02  0.51100000000E-03 0.  1.
         23    2    1    2    0    0  0.00000000000E+00  0.33306690739E-15  0.00000000000E+00  0.91188000000E+02  0.91188000000E+02 0.  0.
    9900012    2    3    3    0    0  0.10233182919E+02  0.73501226894E+00 -0.35362723542E+02  0.54367075352E+02  0.39999979879E+02 0.  0.
         12    1    3    3    0    0 -0.10233182919E+02 -0.73501226894E+00  0.35362723542E+02  0.36820924648E+02  0.00000000000E+00 0. -1.
         11    1    4    4    0    0  0.61686262609E+00 -0.11959255580E+02 -0.14326807822E+02  0.18672486073E+02  0.51100000000E-03 0. -1.
        -11    1    4    4    0    0  0.74814350711E+01  0.84737448123E+01 -0.26294866719E+02  0.28621604391E+02  0.51100000000E-03 0.  1.
        -12    1    4    4    0    0  0.21348852214E+01  0.42205230367E+01  0.52589509991E+01  0.70729848878E+01  0.00000000000E+00 0.  1.
</event>
<event>
 8    1  0.1229941E-006  0.9118800E+02  0.7816164E-02  0.1184000E+00
        -11   -1    0    0    0    0  0.00000000000E+00  0.00000000000E+00  0.45593999997E+02  0.45594000000E+02  0.51100000000E-03 0. -1.
         11   -1    0    0    0    0 -0.00000000000E+00 -0.00000000000E+00 -0.45593999997E+02  0.45594000000E+02  0.51100000000E-03 0.  1.
         23    2    1    2    0    0 -0.49960036108E-15  0.00000000000E+00  0.35527136788E-14  0.91188000000E+02  0.91188000000E+02 0.  0.
    9900012    2    3    3    0    0  0.20411237074E+00  0.24047146667E+02  0.27883206936E+02  0.54367079945E+02  0.39999990351E+02 0.  0.
        -12    1    3    3    0    0 -0.20411237074E+00 -0.24047146667E+02 -0.27883206936E+02  0.36820920055E+02  0.00000000000E+00 0.  1.
         11    1    4    4    0    0 -0.16526263989E+02  0.67622397900E+01  0.32691928990E+01  0.18153041367E+02  0.51100000000E-03 0. -1.
        -11    1    4    4    0    0  0.84572058939E+01  0.20736563232E+01  0.49635133250E+01  0.10023015857E+02  0.51100000000E-03 0.  1.
         12    1    4    4    0    0  0.82731704656E+01  0.15211250554E+02  0.19650500712E+02  0.26191022721E+02  0.00000000000E+00 0. -1.
</event>
<event>
 8    1  0.1229941E-006  0.9118800E+02  0.7816164E-02  0.1184000E+00
        -11   -1    0    0    0    0  0.00000000000E+00  0.00000000000E+00  0.45593999997E+02  0.45594000000E+02  0.51100000000E-03 0.  1.
         11   -1    0    0    0    0 -0.00000000000E+00 -0.00000000000E+00 -0.45593999997E+02  0.45594000000E+02  0.51100000000E-03 0. -1.
         23    2    1    2    0    0  0.53290705182E-14  0.00000000000E+00 -0.88817841970E-15  0.91188000000E+02  0.91188000000E+02 0.  0.
    9900012    2    3    3    0    0 -0.12890871088E+02 -0.34393325486E+02  0.25893453842E+01  0.54367080607E+02  0.39999991861E+02 0.  0.
         12    1    3    3    0    0  0.12890871088E+02  0.34393325486E+02 -0.25893453842E+01  0.36820919393E+02  0.00000000000E+00 0. -1.
         11    1    4    4    0    0  0.42976805972E+01  0.57175809920E+01 -0.17661222325E+01  0.73674947518E+01  0.51100000000E-03 0. -1.
        -11    1    4    4    0    0 -0.15238967819E+02 -0.29047825846E+02 -0.39355560776E+01  0.33037719783E+02  0.51100000000E-03 0.  1.
         12    1    4    4    0    0 -0.19495838659E+01 -0.11063080632E+02  0.82910236943E+01  0.13961866073E+02  0.00000000000E+00 0. -1.
</event>
<event>
 8    1  0.1229941E-006  0.9118800E+02  0.7816164E-02  0.1184000E+00
        -11   -1    0    0    0    0  0.00000000000E+00  0.00000000000E+00  0.45593999997E+02  0.45594000000E+02  0.51100000000E-03 0. -1.
         11   -1    0    0    0    0 -0.00000000000E+00 -0.00000000000E+00 -0.45593999997E+02  0.45594000000E+02  0.51100000000E-03 0.  1.
         23    2    1    2    0    0  0.00000000000E+00  0.17763568394E-14 -0.35527136788E-14  0.91188000000E+02  0.91188000000E+02 0.  0.
    9900012    2    3    3    0    0 -0.24100499136E+02  0.14043267651E+02 -0.24036051072E+02  0.54367093221E+02  0.40000020615E+02 0.  0.
         12    1    3    3    0    0  0.24100499136E+02 -0.14043267651E+02  0.24036051072E+02  0.36820906779E+02  0.00000000000E+00 0. -1.
         11    1    4    4    0    0 -0.18915360772E+02  0.60902990229E+01 -0.23280796291E+02  0.30608464377E+02  0.51100000000E-03 0. -1.
        -11    1    4    4    0    0 -0.12039423176E+02  0.10869351627E+02  0.37523964066E+00  0.16224405081E+02  0.51100000000E-03 0.  1.
         12    1    4    4    0    0  0.68542848114E+01 -0.29163829986E+01 -0.11304944215E+01  0.75342237628E+01  0.00000000000E+00 0. -1.
</event>
<event>
 8    1  0.1229941E-006  0.9118800E+02  0.7816164E-02  0.1184000E+00
        -11   -1    0    0    0    0  0.00000000000E+00  0.00000000000E+00  0.45593999997E+02  0.45594000000E+02  0.51100000000E-03 0.  1.
         11   -1    0    0    0    0 -0.00000000000E+00 -0.00000000000E+00 -0.45593999997E+02  0.45594000000E+02  0.51100000000E-03 0. -1.
         23    2    1    2    0    0  0.00000000000E+00 -0.71054273576E-14 -0.88817841970E-15  0.91188000000E+02  0.91188000000E+02 0.  0.
    9900012    2    3    3    0    0 -0.12029095148E+02  0.34325758074E+02  0.57292640072E+01  0.54367064875E+02  0.39999955996E+02 0.  0.
         12    1    3    3    0    0  0.12029095148E+02 -0.34325758074E+02 -0.57292640072E+01  0.36820935125E+02  0.00000000000E+00 0. -1.
         11    1    4    4    0    0  0.10314997933E+00  0.32188043073E+02  0.13692026706E+02  0.34979313206E+02  0.51100000000E-03 0. -1.
        -11    1    4    4    0    0 -0.96517729405E+01 -0.13347494384E+01 -0.10578846407E+02  0.14382290100E+02  0.51100000000E-03 0.  1.
        -12    1    4    4    0    0 -0.24804721866E+01  0.34724644385E+01  0.26160837087E+01  0.50054615687E+01  0.00000000000E+00 0.  1.
</event>
<event>
 8    1  0.1229941E-006  0.9118800E+02  0.7816164E-02  0.1184000E+00
        -11   -1    0    0    0    0  0.00000000000E+00  0.00000000000E+00  0.45593999997E+02  0.45594000000E+02  0.51100000000E-03 0. -1.
         11   -1    0    0    0    0 -0.00000000000E+00 -0.00000000000E+00 -0.45593999997E+02  0.45594000000E+02  0.51100000000E-03 0.  1.
         23    2    1    2    0    0  0.00000000000E+00  0.00000000000E+00  0.00000000000E+00  0.91188000000E+02  0.91188000000E+02 0.  0.
    9900012    2    3    3    0    0 -0.10679710900E+02  0.11454686754E+02  0.33324375710E+02  0.54367080810E+02  0.39999992323E+02 0.  0.
        -12    1    3    3    0    0  0.10679710900E+02 -0.11454686754E+02 -0.33324375710E+02  0.36820919190E+02  0.00000000000E+00 0.  1.
         11    1    4    4    0    0  0.10880811551E+01 -0.44698794198E+01  0.25548027309E+02  0.25958918357E+02  0.51100000000E-03 0. -1.
        -11    1    4    4    0    0  0.56157483765E+00  0.14310526999E+02  0.70229058249E+01  0.15950791698E+02  0.51100000000E-03 0.  1.
        -12    1    4    4    0    0 -0.12329366892E+02  0.16140391749E+01  0.75344257537E+00  0.12457370755E+02  0.00000000000E+00 0.  1.
</event>
<event>
 8    1  0.1229941E-006  0.9118800E+02  0.7816164E-02  0.1184000E+00
        -11   -1    0    0    0    0  0.00000000000E+00  0.00000000000E+00  0.45593999997E+02  0.45594000000E+02  0.51100000000E-03 0.  1.
         11   -1    0    0    0    0 -0.00000000000E+00 -0.00000000000E+00 -0.45593999997E+02  0.45594000000E+02  0.51100000000E-03 0. -1.
         23    2    1    2    0    0  0.35527136788E-14 -0.17763568394E-14 -0.35527136788E-14  0.91188000000E+02  0.91188000000E+02 0.  0.
    9900012    2    3    3    0    0  0.27548573084E+02 -0.14342571710E+02 -0.19777409783E+02  0.54367093168E+02  0.40000020496E+02 0.  0.
        -12    1    3    3    0    0 -0.27548573084E+02  0.14342571710E+02  0.19777409783E+02  0.36820906832E+02  0.00000000000E+00 0.  1.
         11    1    4    4    0    0  0.10995937580E+02 -0.11433421057E+01 -0.19118113433E+01  0.11219309128E+02  0.51100000000E-03 0. -1.
        -11    1    4    4    0    0 -0.16006973733E+01  0.78315866034E+01  0.28567785023E+01  0.84886491552E+01  0.51100000000E-03 0.  1.
        -12    1    4    4    0    0  0.18153332877E+02 -0.21030816207E+02 -0.20722376942E+02  0.34659134885E+02  0.00000000000E+00 0.  1.
</event>
<event>
 8    1  0.1229941E-006  0.9118800E+02  0.7816164E-02  0.1184000E+00
        -11   -1    0    0    0    0  0.00000000000E+00  0.00000000000E+00  0.45593999997E+02  0.45594000000E+02  0.51100000000E-03 0.  1.
         11   -1    0    0    0    0 -0.00000000000E+00 -0.00000000000E+00 -0.45593999997E+02  0.45594000000E+02  0.51100000000E-03 0. -1.
         23    2    1    2    0    0  0.35527136788E-14  0.17763568394E-14  0.00000000000E+00  0.91188000000E+02  0.91188000000E+02 0.  0.
    9900012    2    3    3    0    0 -0.24867982558E+02 -0.13266468894E+02 -0.23693143577E+02  0.54367071088E+02  0.39999970159E+02 0.  0.
        -12    1    3    3    0    0  0.24867982558E+02  0.13266468894E+02  0.23693143577E+02  0.36820928912E+02  0.00000000000E+00 0.  1.
         11    1    4    4    0    0  0.33949818415E+01  0.41310087774E+01 -0.25826745654E+00  0.53533015572E+01  0.51100000000E-03 0. -1.
        -11    1    4    4    0    0 -0.18009473078E+02  0.24265790398E+01 -0.23736236035E+01  0.18326578940E+02  0.51100000000E-03 0.  1.
         12    1    4    4    0    0 -0.10253491322E+02 -0.19824056711E+02 -0.21061252517E+02  0.30687190590E+02  0.00000000000E+00 0. -1.
</event>
<event>
 8    1  0.1229941E-006  0.9118800E+02  0.7816164E-02  0.1184000E+00
        -11   -1    0    0    0    0  0.00000000000E+00  0.00000000000E+00  0.45593999997E+02  0.45594000000E+02  0.51100000000E-03 0.  1.
         11   -1    0    0    0    0 -0.00000000000E+00 -0.00000000000E+00 -0.45593999997E+02  0.45594000000E+02  0.51100000000E-03 0. -1.
         23    2    1    2    0    0  0.00000000000E+00  0.00000000000E+00  0.35527136788E-14  0.91188000000E+02  0.91188000000E+02 0.  0.
    9900012    2    3    3    0    0  0.24407670889E+02 -0.10573458337E+02 -0.25460749590E+02  0.54367052306E+02  0.39999927342E+02 0.  0.
        -12    1    3    3    0    0 -0.24407670889E+02  0.10573458337E+02  0.25460749590E+02  0.36820947694E+02  0.00000000000E+00 0.  1.
         11    1    4    4    0    0  0.18460071296E+02 -0.13592880649E+02 -0.19738859306E+02  0.30251664476E+02  0.51100000000E-03 0. -1.
        -11    1    4    4    0    0 -0.67122572406E+01 -0.38345603505E+01 -0.58895177689E+01  0.97182647709E+01  0.51100000000E-03 0.  1.
         12    1    4    4    0    0  0.12659856834E+02  0.68539826628E+01  0.16762748589E+00  0.14397123059E+02  0.00000000000E+00 0. -1.
</event>
<event>
 8    1  0.1229941E-006  0.9118800E+02  0.7816164E-02  0.1184000E+00
        -11   -1    0    0    0    0  0.00000000000E+00  0.00000000000E+00  0.45593999997E+02  0.45594000000E+02  0.51100000000E-03 0.  1.
         11   -1    0    0    0    0 -0.00000000000E+00 -0.00000000000E+00 -0.45593999997E+02  0.45594000000E+02  0.51100000000E-03 0. -1.
         23    2    1    2    0    0  0.00000000000E+00  0.17763568394E-14  0.00000000000E+00  0.91188000000E+02  0.91188000000E+02 0.  0.
    9900012    2    3    3    0    0  0.33497353791E+02 -0.92517986625E+01  0.12170106593E+02  0.54367082250E+02  0.39999995605E+02 0.  0.
         12    1    3    3    0    0 -0.33497353791E+02  0.92517986625E+01 -0.12170106593E+02  0.36820917750E+02  0.00000000000E+00 0. -1.
         11    1    4    4    0    0 -0.71268277942E+01 -0.12828250954E+01 -0.21664607550E+00  0.72446014670E+01  0.51100000000E-03 0. -1.
        -11    1    4    4    0    0  0.39063020862E+02 -0.21677701927E+01  0.87162068317E+01  0.40082303929E+02  0.51100000000E-03 0.  1.
        -12    1    4    4    0    0  0.15611607231E+01 -0.58012033744E+01  0.36705458365E+01  0.70401768538E+01  0.00000000000E+00 0.  1.
</event>
<event>
 8    1  0.1229941E-006  0.9118800E+02  0.7816164E-02  0.1184000E+00
        -11   -1    0    0    0    0  0.00000000000E+00  0.00000000000E+00  0.45593999997E+02  0.45594000000E+02  0.51100000000E-03 0. -1.
         11   -1    0    0    0    0 -0.00000000000E+00 -0.00000000000E+00 -0.45593999997E+02  0.45594000000E+02  0.51100000000E-03 0.  1.
         23    2    1    2    0    0  0.00000000000E+00  0.00000000000E+00  0.00000000000E+00  0.91188000000E+02  0.91188000000E+02 0.  0.
    9900012    2    3    3    0    0 -0.13457782741E+02 -0.29812960770E+02  0.16907250941E+02  0.54367086370E+02  0.40000004998E+02 0.  0.
         12    1    3    3    0    0  0.13457782741E+02  0.29812960770E+02 -0.16907250941E+02  0.36820913630E+02  0.00000000000E+00 0. -1.
         11    1    4    4    0    0 -0.16803452412E+02 -0.66346125156E+01 -0.23657258902E-01  0.18065842247E+02  0.51100000000E-03 0. -1.
        -11    1    4    4    0    0  0.72443079877E+01 -0.85451501278E+01 -0.26849950567E+01  0.11519930019E+02  0.51100000000E-03 0.  1.
         12    1    4    4    0    0 -0.38986383172E+01 -0.14633198126E+02  0.19615903256E+02  0.24781314104E+02  0.00000000000E+00 0. -1.
</event>
<event>
 8    1  0.1229941E-006  0.9118800E+02  0.7816164E-02  0.1184000E+00
        -11   -1    0    0    0    0  0.00000000000E+00  0.00000000000E+00  0.45593999997E+02  0.45594000000E+02  0.51100000000E-03 0. -1.
         11   -1    0    0    0    0 -0.00000000000E+00 -0.00000000000E+00 -0.45593999997E+02  0.45594000000E+02  0.51100000000E-03 0.  1.
         23    2    1    2    0    0  0.00000000000E+00  0.00000000000E+00  0.00000000000E+00  0.91188000000E+02  0.91188000000E+02 0.  0.
    9900012    2    3    3    0    0  0.18788511042E+02  0.22308131949E+02 -0.22474969723E+02  0.54367011932E+02  0.39999835302E+02 0.  0.
         12    1    3    3    0    0 -0.18788511042E+02 -0.22308131949E+02  0.22474969723E+02  0.36820988068E+02  0.00000000000E+00 0. -1.
         11    1    4    4    0    0  0.12277833208E+02  0.30935037709E+02 -0.20536999447E+02  0.39108695873E+02  0.51100000000E-03 0. -1.
        -11    1    4    4    0    0 -0.13139168813E+01 -0.63015387786E+01 -0.28595571068E+01  0.70436379562E+01  0.51100000000E-03 0.  1.
         12    1    4    4    0    0  0.78245947153E+01 -0.23253669811E+01  0.92158683106E+00  0.82146781034E+01  0.00000000000E+00 0. -1.
</event>
<event>
 8    1  0.1229941E-006  0.9118800E+02  0.7816164E-02  0.1184000E+00
        -11   -1    0    0    0    0  0.00000000000E+00  0.00000000000E+00  0.45593999997E+02  0.45594000000E+02  0.51100000000E-03 0.  1.
         11   -1    0    0    0    0 -0.00000000000E+00 -0.00000000000E+00 -0.45593999997E+02  0.45594000000E+02  0.51100000000E-03 0. -1.
         23    2    1    2    0    0  0.00000000000E+00 -0.35527136788E-14  0.00000000000E+00  0.91188000000E+02  0.91188000000E+02 0.  0.
    9900012    2    3    3    0    0  0.23011834193E+02  0.27628650028E+02  0.79304685815E+01  0.54367093613E+02  0.40000021509E+02 0.  0.
         12    1    3    3    0    0 -0.23011834193E+02 -0.27628650028E+02 -0.79304685815E+01  0.36820906387E+02  0.00000000000E+00 0. -1.
         11    1    4    4    0    0  0.11287510232E+02  0.11550803405E+02 -0.12165568366E+02  0.20219545012E+02  0.51100000000E-03 0. -1.
        -11    1    4    4    0    0  0.38100735954E+01  0.18214298337E+02  0.99433103027E+01  0.21098501007E+02  0.51100000000E-03 0.  1.
        -12    1    4    4    0    0  0.79142503651E+01 -0.21364517151E+01  0.10152726645E+02  0.13049047593E+02  0.00000000000E+00 0.  1.
</event>
<event>
 8    1  0.1229941E-006  0.9118800E+02  0.7816164E-02  0.1184000E+00
        -11   -1    0    0    0    0  0.00000000000E+00  0.00000000000E+00  0.45593999997E+02  0.45594000000E+02  0.51100000000E-03 0.  1.
         11   -1    0    0    0    0 -0.00000000000E+00 -0.00000000000E+00 -0.45593999997E+02  0.45594000000E+02  0.51100000000E-03 0. -1.
         23    2    1    2    0    0  0.17763568394E-14  0.00000000000E+00  0.00000000000E+00  0.91188000000E+02  0.91188000000E+02 0.  0.
    9900012    2    3    3    0    0  0.43388354725E+01 -0.10267711503E+02  0.35093159408E+02  0.54367065329E+02  0.39999957031E+02 0.  0.
         12    1    3    3    0    0 -0.43388354725E+01  0.10267711503E+02 -0.35093159408E+02  0.36820934671E+02  0.00000000000E+00 0. -1.
         11    1    4    4    0    0 -0.11758153223E+02 -0.11251525155E+02  0.10841636735E+01  0.16310315651E+02  0.51100000000E-03 0. -1.
        -11    1    4    4    0    0  0.36384248754E+01  0.16895161572E+01  0.45620791896E+01  0.60749623219E+01  0.51100000000E-03 0.  1.
         12    1    4    4    0    0  0.12458563820E+02 -0.70570250561E+00  0.29446916545E+02  0.31981787356E+02  0.00000000000E+00 0. -1.
</event>
<event>
 8    1  0.1229941E-006  0.9118800E+02  0.7816164E-02  0.1184000E+00
        -11   -1    0    0    0    0  0.00000000000E+00  0.00000000000E+00  0.45593999997E+02  0.45594000000E+02  0.51100000000E-03 0. -1.
         11   -1    0    0    0    0 -0.00000000000E+00 -0.00000000000E+00 -0.45593999997E+02  0.45594000000E+02  0.51100000000E-03 0.  1.
         23    2    1    2    0    0 -0.44408920985E-15  0.00000000000E+00 -0.71054273576E-14  0.91188000000E+02  0.91188000000E+02 0.  0.
    9900012    2    3    3    0    0  0.27427763277E+01 -0.16677134447E+02 -0.32712864381E+02  0.54367066669E+02  0.39999960086E+02 0.  0.
         12    1    3    3    0    0 -0.27427763277E+01  0.16677134447E+02  0.32712864381E+02  0.36820933331E+02  0.00000000000E+00 0. -1.
         11    1    4    4    0    0 -0.10140087410E+02 -0.15885583056E+02 -0.31749762337E+00  0.18848711540E+02  0.51100000000E-03 0. -1.
        -11    1    4    4    0    0  0.95208008041E+01 -0.29890126567E+01 -0.18089845022E+02  0.20659679034E+02  0.51100000000E-03 0.  1.
         12    1    4    4    0    0  0.33620629337E+01  0.21974612654E+01 -0.14305521735E+02  0.14858676095E+02  0.00000000000E+00 0. -1.
</event>
<event>
 8    1  0.1229941E-006  0.9118800E+02  0.7816164E-02  0.1184000E+00
        -11   -1    0    0    0    0  0.00000000000E+00  0.00000000000E+00  0.45593999997E+02  0.45594000000E+02  0.51100000000E-03 0.  1.
         11   -1    0    0    0    0 -0.00000000000E+00 -0.00000000000E+00 -0.45593999997E+02  0.45594000000E+02  0.51100000000E-03 0. -1.
         23    2    1    2    0    0 -0.17763568394E-14  0.00000000000E+00 -0.71054273576E-14  0.91188000000E+02  0.91188000000E+02 0.  0.
    9900012    2    3    3    0    0  0.11794067066E+02 -0.59513587347E+01 -0.34369478826E+02  0.54367085244E+02  0.40000002430E+02 0.  0.
        -12    1    3    3    0    0 -0.11794067066E+02  0.59513587347E+01  0.34369478826E+02  0.36820914756E+02  0.00000000000E+00 0.  1.
         11    1    4    4    0    0 -0.31411929466E+01 -0.41218960368E+01 -0.17830559371E+02  0.18568413175E+02  0.51100000000E-03 0. -1.
        -11    1    4    4    0    0  0.16813335189E+02  0.99473166490E+01 -0.78981490189E+01  0.21071737158E+02  0.51100000000E-03 0.  1.
        -12    1    4    4    0    0 -0.18780751767E+01 -0.11776779347E+02 -0.86407704354E+01  0.14726934911E+02  0.00000000000E+00 0.  1.
</event>
<event>
 8    1  0.1229941E-006  0.9118800E+02  0.7816164E-02  0.1184000E+00
        -11   -1    0    0    0    0  0.00000000000E+00  0.00000000000E+00  0.45593999997E+02  0.45594000000E+02  0.51100000000E-03 0.  1.
         11   -1    0    0    0    0 -0.00000000000E+00 -0.00000000000E+00 -0.45593999997E+02  0.45594000000E+02  0.51100000000E-03 0. -1.
         23    2    1    2    0    0 -0.35527136788E-14 -0.17763568394E-14  0.00000000000E+00  0.91188000000E+02  0.91188000000E+02 0.  0.
    9900012    2    3    3    0    0 -0.10303002064E+02 -0.13818751891E+02 -0.32537203479E+02  0.54367090647E+02  0.40000014748E+02 0.  0.
        -12    1    3    3    0    0  0.10303002064E+02  0.13818751891E+02  0.32537203479E+02  0.36820909353E+02  0.00000000000E+00 0.  1.
         11    1    4    4    0    0  0.57553589425E+01 -0.72264312912E+01 -0.22067874807E+01  0.94981775625E+01  0.51100000000E-03 0. -1.
        -11    1    4    4    0    0  0.62657018954E+01 -0.22808939798E+01  0.35569653484E+00  0.66774259917E+01  0.51100000000E-03 0.  1.
         12    1    4    4    0    0 -0.22324062901E+02 -0.43114266197E+01 -0.30686112534E+02  0.38191487093E+02  0.00000000000E+00 0. -1.
</event>
<event>
 8    1  0.1229941E-006  0.9118800E+02  0.7816164E-02  0.1184000E+00
        -11   -1    0    0    0    0  0.00000000000E+00  0.00000000000E+00  0.45593999997E+02  0.45594000000E+02  0.51100000000E-03 0. -1.
         11   -1    0    0    0    0 -0.00000000000E+00 -0.00000000000E+00 -0.45593999997E+02  0.45594000000E+02  0.51100000000E-03 0.  1.
         23    2    1    2    0    0  0.00000000000E+00  0.35527136788E-14 -0.35527136788E-14  0.91188000000E+02  0.91188000000E+02 0.  0.
    9900012    2    3    3    0    0 -0.31870109337E+01 -0.23869969429E+02  0.27854038898E+02  0.54367082546E+02  0.39999996281E+02 0.  0.
        -12    1    3    3    0    0  0.31870109337E+01  0.23869969429E+02 -0.27854038898E+02  0.36820917454E+02  0.00000000000E+00 0.  1.
         11    1    4    4    0    0 -0.50380217909E+01  0.18263428535E+01  0.87772586824E+01  0.10283844710E+02  0.51100000000E-03 0. -1.
        -11    1    4    4    0    0 -0.10506613472E+00 -0.89301327273E+01 -0.81223680653E+01  0.12071916694E+02  0.51100000000E-03 0.  1.
         12    1    4    4    0    0  0.19560769919E+01 -0.16766179555E+02  0.27199148281E+02  0.32011321142E+02  0.00000000000E+00 0. -1.
</event>
<event>
 8    1  0.1229941E-006  0.9118800E+02  0.7816164E-02  0.1184000E+00
        -11   -1    0    0    0    0  0.00000000000E+00  0.00000000000E+00  0.45593999997E+02  0.45594000000E+02  0.51100000000E-03 0. -1.
         11   -1    0    0    0    0 -0.00000000000E+00 -0.00000000000E+00 -0.45593999997E+02  0.45594000000E+02  0.51100000000E-03 0.  1.
         23    2    1    2    0    0 -0.35527136788E-14  0.00000000000E+00  0.17763568394E-14  0.91188000000E+02  0.91188000000E+02 0.  0.
    9900012    2    3    3    0    0 -0.30438658551E+02 -0.20544214516E+02 -0.26838976371E+01  0.54367082154E+02  0.39999995387E+02 0.  0.
         12    1    3    3    0    0  0.30438658551E+02  0.20544214516E+02  0.26838976371E+01  0.36820917846E+02  0.00000000000E+00 0. -1.
         11    1    4    4    0    0 -0.22228094112E+01 -0.13617959293E+02  0.11645711613E+02  0.18055810594E+02  0.51100000000E-03 0. -1.
        -11    1    4    4    0    0 -0.13413749910E+02 -0.59714080519E+00  0.17707340409E+01  0.13543292181E+02  0.51100000000E-03 0.  1.
         12    1    4    4    0    0 -0.14802099230E+02 -0.63291144182E+01 -0.16100343291E+02  0.22767979379E+02  0.00000000000E+00 0. -1.
</event>
<event>
 8    1  0.1229941E-006  0.9118800E+02  0.7816164E-02  0.1184000E+00
        -11   -1    0    0    0    0  0.00000000000E+00  0.00000000000E+00  0.45593999997E+02  0.45594000000E+02  0.51100000000E-03 0. -1.
         11   -1    0    0    0    0 -0.00000000000E+00 -0.00000000000E+00 -0.45593999997E+02  0.45594000000E+02  0.51100000000E-03 0.  1.
         23    2    1    2    0    0  0.00000000000E+00  0.88817841970E-15  0.00000000000E+00  0.91188000000E+02  0.91188000000E+02 0.  0.
    9900012    2    3    3    0    0  0.10094886062E+01 -0.58807836986E+01 -0.36334231899E+02  0.54367094364E+02  0.40000023222E+02 0.  0.
         12    1    3    3    0    0 -0.10094886062E+01  0.58807836986E+01  0.36334231899E+02  0.36820905636E+02  0.00000000000E+00 0. -1.
         11    1    4    4    0    0  0.22362202279E+01  0.10485549143E+01  0.35115541448E+01  0.42931528145E+01  0.51100000000E-03 0. -1.
        -11    1    4    4    0    0 -0.65119542171E+01 -0.83001690565E+00  0.24560936620E+01  0.70090564363E+01  0.51100000000E-03 0.  1.
        -12    1    4    4    0    0  0.52852225954E+01 -0.60993217072E+01 -0.42301879706E+02  0.43064885113E+02  0.00000000000E+00 0.  1.
</event>
<event>
 8    1  0.1229941E-006  0.9118800E+02  0.7816164E-02  0.1184000E+00
        -11   -1    0    0    0    0  0.00000000000E+00  0.00000000000E+00  0.45593999997E+02  0.45594000000E+02  0.51100000000E-03 0.  1.
         11   -1    0    0    0    0 -0.00000000000E+00 -0.00000000000E+00 -0.45593999997E+02  0.45594000000E+02  0.51100000000E-03 0. -1.
         23    2    1    2    0    0  0.00000000000E+00  0.17763568394E-14 -0.35527136788E-14  0.91188000000E+02  0.91188000000E+02 0.  0.
    9900012    2    3    3    0    0 -0.28800840209E+02 -0.13313774127E+02  0.18682503527E+02  0.54367069590E+02  0.39999966744E+02 0.  0.
         12    1    3    3    0    0  0.28800840209E+02  0.13313774127E+02 -0.18682503527E+02  0.36820930410E+02  0.00000000000E+00 0. -1.
         11    1    4    4    0    0 -0.12873345629E+02  0.12590223215E+02  0.49058151001E+01  0.18662898230E+02  0.51100000000E-03 0. -1.
        -11    1    4    4    0    0 -0.13078002719E+01 -0.68953465244E+01  0.87249291779E+01  0.11197344983E+02  0.51100000000E-03 0.  1.
         12    1    4    4    0    0 -0.14619694308E+02 -0.19008650818E+02  0.50517592491E+01  0.24506826377E+02  0.00000000000E+00 0. -1.
</event>
<event>
 8    1  0.1229941E-006  0.9118800E+02  0.7816164E-02  0.1184000E+00
        -11   -1    0    0    0    0  0.00000000000E+00  0.00000000000E+00  0.45593999997E+02  0.45594000000E+02  0.51100000000E-03 0.  1.
         11   -1    0    0    0    0 -0.00000000000E+00 -0.00000000000E+00 -0.45593999997E+02  0.45594000000E+02  0.51100000000E-03 0. -1.
         23    2    1    2    0    0 -0.35527136788E-14  0.00000000000E+00 -0.35527136788E-14  0.91188000000E+02  0.91188000000E+02 0.  0.
    9900012    2    3    3    0    0  0.15018240058E+02 -0.26539863580E+02  0.20636560053E+02  0.54367088766E+02  0.40000010461E+02 0.  0.
         12    1    3    3    0    0 -0.15018240058E+02  0.26539863580E+02 -0.20636560053E+02  0.36820911234E+02  0.00000000000E+00 0. -1.
         11    1    4    4    0    0  0.12918348174E+02  0.41016117590E+01  0.16122899517E+02  0.21063115336E+02  0.51100000000E-03 0. -1.
        -11    1    4    4    0    0 -0.55946172373E+00 -0.61308682643E+00  0.30080800409E+01  0.31204837238E+01  0.51100000000E-03 0.  1.
         12    1    4    4    0    0  0.26593536076E+01 -0.30028388512E+02  0.15055804955E+01  0.30183489707E+02  0.00000000000E+00 0. -1.
</event>
<event>
 8    1  0.1229941E-006  0.9118800E+02  0.7816164E-02  0.1184000E+00
        -11   -1    0    0    0    0  0.00000000000E+00  0.00000000000E+00  0.45593999997E+02  0.45594000000E+02  0.51100000000E-03 0.  1.
         11   -1    0    0    0    0 -0.00000000000E+00 -0.00000000000E+00 -0.45593999997E+02  0.45594000000E+02  0.51100000000E-03 0. -1.
         23    2    1    2    0    0  0.00000000000E+00 -0.22204460493E-15  0.00000000000E+00  0.91188000000E+02  0.91188000000E+02 0.  0.
    9900012    2    3    3    0    0 -0.10875388992E+02  0.12359172252E+01  0.35156518234E+02  0.54367050101E+02  0.39999922316E+02 0.  0.
         12    1    3    3    0    0  0.10875388992E+02 -0.12359172252E+01 -0.35156518234E+02  0.36820949899E+02  0.00000000000E+00 0. -1.
         11    1    4    4    0    0  0.32168748958E+01 -0.13116102366E+02  0.22719875541E+02  0.26430534807E+02  0.51100000000E-03 0. -1.
        -11    1    4    4    0    0 -0.12386309368E+02  0.17088243557E+02  0.12813067533E+02  0.24690148390E+02  0.51100000000E-03 0.  1.
         12    1    4    4    0    0 -0.17059545196E+01 -0.27362239663E+01 -0.37642484005E+00  0.32463669042E+01  0.00000000000E+00 0. -1.
</event>
<event>
 8    1  0.1229941E-006  0.9118800E+02  0.7816164E-02  0.1184000E+00
        -11   -1    0    0    0    0  0.00000000000E+00  0.00000000000E+00  0.45593999997E+02  0.45594000000E+02  0.51100000000E-03 0. -1.
         11   -1    0    0    0    0 -0.00000000000E+00 -0.00000000000E+00 -0.45593999997E+02  0.45594000000E+02  0.51100000000E-03 0.  1.
         23    2    1    2    0    0  0.00000000000E+00 -0.88817841970E-15  0.71054273576E-14  0.91188000000E+02  0.91188000000E+02 0.  0.
    9900012    2    3    3    0    0  0.32694229895E+02  0.42137880737E+01 -0.16404535588E+02  0.54367116439E+02  0.40000073545E+02 0.  0.
         12    1    3    3    0    0 -0.32694229895E+02 -0.42137880737E+01  0.16404535588E+02  0.36820883561E+02  0.00000000000E+00 0. -1.
         11    1    4    4    0    0  0.18587676877E+02  0.53154108598E+01  0.88896819245E+01  0.21278669349E+02  0.51100000000E-03 0. -1.
        -11    1    4    4    0    0 -0.16560593628E+01  0.39103290379E+01 -0.25078864134E+01  0.49318049760E+01  0.51100000000E-03 0.  1.
         12    1    4    4    0    0  0.15762612382E+02 -0.50119518240E+01 -0.22786331099E+02  0.28156642114E+02  0.00000000000E+00 0. -1.
</event>
<event>
 8    1  0.1229941E-006  0.9118800E+02  0.7816164E-02  0.1184000E+00
        -11   -1    0    0    0    0  0.00000000000E+00  0.00000000000E+00  0.45593999997E+02  0.45594000000E+02  0.51100000000E-03 0. -1.
         11   -1    0    0    0    0 -0.00000000000E+00 -0.00000000000E+00 -0.45593999997E+02  0.45594000000E+02  0.51100000000E-03 0.  1.
         23    2    1    2    0    0  0.00000000000E+00 -0.17763568394E-14  0.00000000000E+00  0.91188000000E+02  0.91188000000E+02 0.  0.
    9900012    2    3    3    0    0  0.26838897787E+02  0.15692697897E+02 -0.19727983129E+02  0.54367074970E+02  0.39999979009E+02 0.  0.
         12    1    3    3    0    0 -0.26838897787E+02 -0.15692697897E+02  0.19727983129E+02  0.36820925030E+02  0.00000000000E+00 0. -1.
         11    1    4    4    0    0  0.20164407856E+02  0.52937815154E+01 -0.16723361186E+01  0.20914688027E+02  0.51100000000E-03 0. -1.
        -11    1    4    4    0    0  0.82617944171E+01  0.96705182452E+01 -0.24051396908E+02  0.27207459705E+02  0.51100000000E-03 0.  1.
        -12    1    4    4    0    0 -0.15873044857E+01  0.72839813679E+00  0.59957498976E+01  0.62449272382E+01  0.00000000000E+00 0.  1.
</event>
<event>
 8    1  0.1229941E-006  0.9118800E+02  0.7816164E-02  0.1184000E+00
        -11   -1    0    0    0    0  0.00000000000E+00  0.00000000000E+00  0.45593999997E+02  0.45594000000E+02  0.51100000000E-03 0. -1.
         11   -1    0    0    0    0 -0.00000000000E+00 -0.00000000000E+00 -0.45593999997E+02  0.45594000000E+02  0.51100000000E-03 0.  1.
         23    2    1    2    0    0 -0.35527136788E-14  0.35527136788E-14 -0.35527136788E-14  0.91188000000E+02  0.91188000000E+02 0.  0.
    9900012    2    3    3    0    0 -0.25497149201E+02  0.17662239021E+02 -0.19842375314E+02  0.54367093402E+02  0.40000021028E+02 0.  0.
         12    1    3    3    0    0  0.25497149201E+02 -0.17662239021E+02  0.19842375314E+02  0.36820906598E+02  0.00000000000E+00 0. -1.
         11    1    4    4    0    0  0.94774759515E+01  0.79757099656E+01 -0.62405162302E+01  0.13870059226E+02  0.51100000000E-03 0. -1.
        -11    1    4    4    0    0 -0.10096094117E+02  0.85376059687E+01 -0.53007505835E+01  0.14244991720E+02  0.51100000000E-03 0.  1.
        -12    1    4    4    0    0 -0.24878531035E+02  0.11489230871E+01 -0.83011085007E+01  0.26252042455E+02  0.00000000000E+00 0.  1.
</event>
<event>
 8    1  0.1229941E-006  0.9118800E+02  0.7816164E-02  0.1184000E+00
        -11   -1    0    0    0    0  0.00000000000E+00  0.00000000000E+00  0.45593999997E+02  0.45594000000E+02  0.51100000000E-03 0. -1.
         11   -1    0    0    0    0 -0.00000000000E+00 -0.00000000000E+00 -0.45593999997E+02  0.45594000000E+02  0.51100000000E-03 0.  1.
         23    2    1    2    0    0  0.00000000000E+00  0.00000000000E+00  0.00000000000E+00  0.91188000000E+02  0.91188000000E+02 0.  0.
    9900012    2    3    3    0    0 -0.18721297200E+02 -0.24678881400E+02  0.19905907677E+02  0.54367091314E+02  0.40000016268E+02 0.  0.
        -12    1    3    3    0    0  0.18721297200E+02  0.24678881400E+02 -0.19905907677E+02  0.36820908686E+02  0.00000000000E+00 0.  1.
         11    1    4    4    0    0 -0.30239276447E+01  0.54501983535E+01 -0.62618383547E+01  0.88351242399E+01  0.51100000000E-03 0.  1.
        -11    1    4    4    0    0 -0.14395975729E+02 -0.11325937216E+02  0.14530977841E+02  0.23380981337E+02  0.51100000000E-03 0. -1.
        -12    1    4    4    0    0 -0.13013938264E+01 -0.18803142538E+02  0.11636768190E+02  0.22150985737E+02  0.00000000000E+00 0.  1.
</event>
<event>
 8    1  0.1229941E-006  0.9118800E+02  0.7816164E-02  0.1184000E+00
        -11   -1    0    0    0    0  0.00000000000E+00  0.00000000000E+00  0.45593999997E+02  0.45594000000E+02  0.51100000000E-03 0. -1.
         11   -1    0    0    0    0 -0.00000000000E+00 -0.00000000000E+00 -0.45593999997E+02  0.45594000000E+02  0.51100000000E-03 0.  1.
         23    2    1    2    0    0  0.35527136788E-14  0.00000000000E+00  0.17763568394E-14  0.91188000000E+02  0.91188000000E+02 0.  0.
    9900012    2    3    3    0    0  0.30051457868E+02 -0.18259519586E+02  0.10921547912E+02  0.54367076814E+02  0.39999983213E+02 0.  0.
         12    1    3    3    0    0 -0.30051457868E+02  0.18259519586E+02 -0.10921547912E+02  0.36820923186E+02  0.00000000000E+00 0. -1.
         11    1    4    4    0    0 -0.59846587150E+01 -0.38409662677E+01  0.44814692750E+01  0.84055177668E+01  0.51100000000E-03 0. -1.
        -11    1    4    4    0    0  0.74827813254E+01 -0.14896777726E+02 -0.74066551559E-01  0.16670677524E+02  0.51100000000E-03 0.  1.
        -12    1    4    4    0    0  0.28553335257E+02  0.47822440820E+00  0.65141451886E+01  0.29290881524E+02  0.00000000000E+00 0.  1.
</event>
<event>
 8    1  0.1229941E-006  0.9118800E+02  0.7816164E-02  0.1184000E+00
        -11   -1    0    0    0    0  0.00000000000E+00  0.00000000000E+00  0.45593999997E+02  0.45594000000E+02  0.51100000000E-03 0.  1.
         11   -1    0    0    0    0 -0.00000000000E+00 -0.00000000000E+00 -0.45593999997E+02  0.45594000000E+02  0.51100000000E-03 0. -1.
         23    2    1    2    0    0  0.22204460493E-15  0.88817841970E-15  0.00000000000E+00  0.91188000000E+02  0.91188000000E+02 0.  0.
    9900012    2    3    3    0    0  0.17484644722E+01 -0.68225516071E+01 -0.36141060039E+02  0.54367074439E+02  0.39999977798E+02 0.  0.
        -12    1    3    3    0    0 -0.17484644722E+01  0.68225516071E+01  0.36141060039E+02  0.36820925561E+02  0.00000000000E+00 0.  1.
         11    1    4    4    0    0  0.54086149702E+01  0.24826931508E+01 -0.20325431411E+01  0.62887290496E+01  0.51100000000E-03 0. -1.
        -11    1    4    4    0    0  0.10128326200E+02 -0.45408894055E+01 -0.12991995759E+00  0.11100430067E+02  0.51100000000E-03 0.  1.
         12    1    4    4    0    0 -0.13788476698E+02 -0.47643553524E+01 -0.33978596940E+02  0.36977915323E+02  0.00000000000E+00 0. -1.
</event>
<event>
 8    1  0.1229941E-006  0.9118800E+02  0.7816164E-02  0.1184000E+00
        -11   -1    0    0    0    0  0.00000000000E+00  0.00000000000E+00  0.45593999997E+02  0.45594000000E+02  0.51100000000E-03 0. -1.
         11   -1    0    0    0    0 -0.00000000000E+00 -0.00000000000E+00 -0.45593999997E+02  0.45594000000E+02  0.51100000000E-03 0.  1.
         23    2    1    2    0    0  0.00000000000E+00  0.00000000000E+00  0.35527136788E-14  0.91188000000E+02  0.91188000000E+02 0.  0.
    9900012    2    3    3    0    0 -0.14310692491E+02  0.20126142686E+02  0.27311611294E+02  0.54367059620E+02  0.39999944015E+02 0.  0.
        -12    1    3    3    0    0  0.14310692491E+02 -0.20126142686E+02 -0.27311611294E+02  0.36820940380E+02  0.00000000000E+00 0.  1.
         11    1    4    4    0    0 -0.19142740966E+02  0.11061453910E+02  0.74527776345E+01  0.23331184904E+02  0.51100000000E-03 0. -1.
        -11    1    4    4    0    0  0.11750405447E+02  0.25347655622E+01  0.42374999670E+01  0.12745723631E+02  0.51100000000E-03 0.  1.
        -12    1    4    4    0    0 -0.69183569719E+01  0.65299232133E+01  0.15621333693E+02  0.18290151085E+02  0.00000000000E+00 0.  1.
</event>
<event>
 8    1  0.1229941E-006  0.9118800E+02  0.7816164E-02  0.1184000E+00
        -11   -1    0    0    0    0  0.00000000000E+00  0.00000000000E+00  0.45593999997E+02  0.45594000000E+02  0.51100000000E-03 0. -1.
         11   -1    0    0    0    0 -0.00000000000E+00 -0.00000000000E+00 -0.45593999997E+02  0.45594000000E+02  0.51100000000E-03 0.  1.
         23    2    1    2    0    0  0.00000000000E+00  0.00000000000E+00 -0.11102230246E-14  0.91188000000E+02  0.91188000000E+02 0.  0.
    9900012    2    3    3    0    0 -0.20033578673E+02  0.30861603400E+02 -0.14126107334E+01  0.54367105009E+02  0.40000047488E+02 0.  0.
        -12    1    3    3    0    0  0.20033578673E+02 -0.30861603400E+02  0.14126107334E+01  0.36820894991E+02  0.00000000000E+00 0.  1.
         11    1    4    4    0    0  0.31822396380E+01  0.19733746246E+01  0.21989920233E+01  0.43423982662E+01  0.51100000000E-03 0. -1.
        -11    1    4    4    0    0 -0.14937356759E+02  0.13141559817E+02  0.14514354688E+02  0.24627052475E+02  0.51100000000E-03 0.  1.
        -12    1    4    4    0    0 -0.82784615524E+01  0.15746668959E+02 -0.18125957445E+02  0.25397654267E+02  0.00000000000E+00 0.  1.
</event>
<event>
 8    1  0.1229941E-006  0.9118800E+02  0.7816164E-02  0.1184000E+00
        -11   -1    0    0    0    0  0.00000000000E+00  0.00000000000E+00  0.45593999997E+02  0.45594000000E+02  0.51100000000E-03 0.  1.
         11   -1    0    0    0    0 -0.00000000000E+00 -0.00000000000E+00 -0.45593999997E+02  0.45594000000E+02  0.51100000000E-03 0. -1.
         23    2    1    2    0    0  0.00000000000E+00  0.00000000000E+00  0.35527136788E-14  0.91188000000E+02  0.91188000000E+02 0.  0.
    9900012    2    3    3    0    0  0.20982591958E+02 -0.25864597190E+01 -0.30146675166E+02  0.54367068959E+02  0.39999965306E+02 0.  0.
        -12    1    3    3    0    0 -0.20982591958E+02  0.25864597190E+01  0.30146675166E+02  0.36820931041E+02  0.00000000000E+00 0.  1.
         11    1    4    4    0    0  0.92459544728E+01  0.17043479534E+01 -0.22618011659E+02  0.24494222334E+02  0.51100000000E-03 0. -1.
        -11    1    4    4    0    0 -0.65758867532E+01 -0.72413847256E+01  0.18699800767E+00  0.97833996061E+01  0.51100000000E-03 0.  1.
        -12    1    4    4    0    0  0.18312524238E+02  0.29505770532E+01 -0.77156615150E+01  0.20089447019E+02  0.00000000000E+00 0.  1.
</event>
<event>
 8    1  0.1229941E-006  0.9118800E+02  0.7816164E-02  0.1184000E+00
        -11   -1    0    0    0    0  0.00000000000E+00  0.00000000000E+00  0.45593999997E+02  0.45594000000E+02  0.51100000000E-03 0. -1.
         11   -1    0    0    0    0 -0.00000000000E+00 -0.00000000000E+00 -0.45593999997E+02  0.45594000000E+02  0.51100000000E-03 0.  1.
         23    2    1    2    0    0  0.00000000000E+00  0.00000000000E+00 -0.17763568394E-14  0.91188000000E+02  0.91188000000E+02 0.  0.
    9900012    2    3    3    0    0  0.12157485527E+02 -0.32939276286E+02  0.11089625910E+02  0.54367079596E+02  0.39999989555E+02 0.  0.
        -12    1    3    3    0    0 -0.12157485527E+02  0.32939276286E+02 -0.11089625910E+02  0.36820920404E+02  0.00000000000E+00 0.  1.
         11    1    4    4    0    0  0.57491398348E+01 -0.27049124102E+02  0.17244582032E+02  0.32589620023E+02  0.51100000000E-03 0. -1.
        -11    1    4    4    0    0  0.10066026852E+01 -0.97760379935E+01 -0.10058605567E+02  0.14062706498E+02  0.51100000000E-03 0.  1.
         12    1    4    4    0    0  0.54017430066E+01  0.38858858092E+01  0.39036494453E+01  0.77147530760E+01  0.00000000000E+00 0. -1.
</event>
<event>
 8    1  0.1229941E-006  0.9118800E+02  0.7816164E-02  0.1184000E+00
        -11   -1    0    0    0    0  0.00000000000E+00  0.00000000000E+00  0.45593999997E+02  0.45594000000E+02  0.51100000000E-03 0.  1.
         11   -1    0    0    0    0 -0.00000000000E+00 -0.00000000000E+00 -0.45593999997E+02  0.45594000000E+02  0.51100000000E-03 0. -1.
         23    2    1    2    0    0  0.00000000000E+00 -0.88817841970E-15  0.00000000000E+00  0.91188000000E+02  0.91188000000E+02 0.  0.
    9900012    2    3    3    0    0  0.71124793096E+01  0.31925433546E+01 -0.35986100449E+02  0.54367093975E+02  0.40000022335E+02 0.  0.
        -12    1    3    3    0    0 -0.71124793096E+01 -0.31925433546E+01  0.35986100449E+02  0.36820906025E+02  0.00000000000E+00 0.  1.
         11    1    4    4    0    0 -0.92293934238E+01 -0.76351312284E+01 -0.95730612461E+01  0.15333637329E+02  0.51100000000E-03 0. -1.
        -11    1    4    4    0    0  0.10190785756E+02  0.14220800248E+01  0.42719058903E-01  0.10289618608E+02  0.51100000000E-03 0.  1.
        -12    1    4    4    0    0  0.61510869776E+01  0.94055945582E+01 -0.26455758261E+02  0.28743838038E+02  0.00000000000E+00 0.  1.
</event>
<event>
 8    1  0.1229941E-006  0.9118800E+02  0.7816164E-02  0.1184000E+00
        -11   -1    0    0    0    0  0.00000000000E+00  0.00000000000E+00  0.45593999997E+02  0.45594000000E+02  0.51100000000E-03 0.  1.
         11   -1    0    0    0    0 -0.00000000000E+00 -0.00000000000E+00 -0.45593999997E+02  0.45594000000E+02  0.51100000000E-03 0. -1.
         23    2    1    2    0    0  0.35527136788E-14 -0.35527136788E-14  0.35527136788E-14  0.91188000000E+02  0.91188000000E+02 0.  0.
    9900012    2    3    3    0    0  0.25734781665E+02 -0.19911757174E+02  0.17234353443E+02  0.54367082036E+02  0.39999995118E+02 0.  0.
        -12    1    3    3    0    0 -0.25734781665E+02  0.19911757174E+02 -0.17234353443E+02  0.36820917964E+02  0.00000000000E+00 0.  1.
         11    1    4    4    0    0  0.48070534136E+01  0.48189050532E+01  0.28332645998E+01  0.73727197822E+01  0.51100000000E-03 0. -1.
        -11    1    4    4    0    0  0.40407420416E+01 -0.24267285675E+01  0.18165095611E+02  0.18766654113E+02  0.51100000000E-03 0.  1.
         12    1    4    4    0    0  0.16886986209E+02 -0.22303933660E+02 -0.37640067675E+01  0.28227708141E+02  0.00000000000E+00 0. -1.
</event>
<event>
 8    1  0.1229941E-006  0.9118800E+02  0.7816164E-02  0.1184000E+00
        -11   -1    0    0    0    0  0.00000000000E+00  0.00000000000E+00  0.45593999997E+02  0.45594000000E+02  0.51100000000E-03 0.  1.
         11   -1    0    0    0    0 -0.00000000000E+00 -0.00000000000E+00 -0.45593999997E+02  0.45594000000E+02  0.51100000000E-03 0. -1.
         23    2    1    2    0    0  0.17763568394E-14  0.00000000000E+00  0.00000000000E+00  0.91188000000E+02  0.91188000000E+02 0.  0.
    9900012    2    3    3    0    0 -0.81344911196E+01 -0.24805831156E+02  0.25966925868E+02  0.54367076001E+02  0.39999981359E+02 0.  0.
         12    1    3    3    0    0  0.81344911196E+01  0.24805831156E+02 -0.25966925868E+02  0.36820923999E+02  0.00000000000E+00 0. -1.
         11    1    4    4    0    0  0.60660545025E+01  0.47326806783E+01  0.12832695457E+02  0.14962398089E+02  0.51100000000E-03 0. -1.
        -11    1    4    4    0    0 -0.13725762404E+02 -0.30353636806E+02  0.81007300381E+01  0.34283547779E+02  0.51100000000E-03 0.  1.
        -12    1    4    4    0    0 -0.47478321831E+00  0.81512497170E+00  0.50335003736E+01  0.51211301326E+01  0.00000000000E+00 0.  1.
</event>
<event>
 8    1  0.1229941E-006  0.9118800E+02  0.7816164E-02  0.1184000E+00
        -11   -1    0    0    0    0  0.00000000000E+00  0.00000000000E+00  0.45593999997E+02  0.45594000000E+02  0.51100000000E-03 0.  1.
         11   -1    0    0    0    0 -0.00000000000E+00 -0.00000000000E+00 -0.45593999997E+02  0.45594000000E+02  0.51100000000E-03 0. -1.
         23    2    1    2    0    0  0.17763568394E-14  0.35527136788E-14  0.00000000000E+00  0.91188000000E+02  0.91188000000E+02 0.  0.
    9900012    2    3    3    0    0 -0.11142270398E+02  0.21937983565E+02  0.27392597774E+02  0.54367085762E+02  0.40000003612E+02 0.  0.
         12    1    3    3    0    0  0.11142270398E+02 -0.21937983565E+02 -0.27392597774E+02  0.36820914238E+02  0.00000000000E+00 0. -1.
         11    1    4    4    0    0  0.28604610699E+01  0.13278798998E+02  0.19988114639E+02  0.24166784384E+02  0.51100000000E-03 0. -1.
        -11    1    4    4    0    0 -0.13726178600E+01 -0.54155494146E+01  0.96562131461E+01  0.11155927027E+02  0.51100000000E-03 0.  1.
        -12    1    4    4    0    0 -0.12630113607E+02  0.14074733982E+02 -0.22517300118E+01  0.19044374351E+02  0.00000000000E+00 0.  1.
</event>
<event>
 8    1  0.1229941E-006  0.9118800E+02  0.7816164E-02  0.1184000E+00
        -11   -1    0    0    0    0  0.00000000000E+00  0.00000000000E+00  0.45593999997E+02  0.45594000000E+02  0.51100000000E-03 0. -1.
         11   -1    0    0    0    0 -0.00000000000E+00 -0.00000000000E+00 -0.45593999997E+02  0.45594000000E+02  0.51100000000E-03 0.  1.
         23    2    1    2    0    0  0.00000000000E+00 -0.71054273576E-14  0.00000000000E+00  0.91188000000E+02  0.91188000000E+02 0.  0.
    9900012    2    3    3    0    0  0.12963842683E+02 -0.34034960365E+02  0.54166629032E+01  0.54367082288E+02  0.39999995693E+02 0.  0.
        -12    1    3    3    0    0 -0.12963842683E+02  0.34034960365E+02 -0.54166629032E+01  0.36820917712E+02  0.00000000000E+00 0.  1.
         11    1    4    4    0    0  0.10411427413E+02  0.20269390679E+01 -0.46218681907E+01  0.11570132609E+02  0.51100000000E-03 0. -1.
        -11    1    4    4    0    0  0.93147903472E+01 -0.32703052295E+02  0.90052272746E+01  0.35175972867E+02  0.51100000000E-03 0.  1.
        -12    1    4    4    0    0 -0.67623750775E+01 -0.33588471373E+01  0.10333038193E+01  0.76209768117E+01  0.00000000000E+00 0.  1.
</event>
<event>
 8    1  0.1229941E-006  0.9118800E+02  0.7816164E-02  0.1184000E+00
        -11   -1    0    0    0    0  0.00000000000E+00  0.00000000000E+00  0.45593999997E+02  0.45594000000E+02  0.51100000000E-03 0. -1.
         11   -1    0    0    0    0 -0.00000000000E+00 -0.00000000000E+00 -0.45593999997E+02  0.45594000000E+02  0.51100000000E-03 0.  1.
         23    2    1    2    0    0  0.00000000000E+00  0.35527136788E-14  0.00000000000E+00  0.91188000000E+02  0.91188000000E+02 0.  0.
    9900012    2    3    3    0    0 -0.81076931197E+01 -0.29992754439E+02  0.19760577246E+02  0.54367076334E+02  0.39999982118E+02 0.  0.
        -12    1    3    3    0    0  0.81076931197E+01  0.29992754439E+02 -0.19760577246E+02  0.36820923666E+02  0.00000000000E+00 0.  1.
         11    1    4    4    0    0 -0.10024045428E+02 -0.16448944707E+02  0.21517202616E+02  0.28879738181E+02  0.51100000000E-03 0. -1.
        -11    1    4    4    0    0 -0.61570653005E+00  0.56236283962E+01  0.15659389669E+01  0.58699621787E+01  0.51100000000E-03 0.  1.
        -12    1    4    4    0    0  0.25320588379E+01 -0.19167438128E+02 -0.33225643375E+01  0.19617375974E+02  0.00000000000E+00 0.  1.
</event>
<event>
 8    1  0.1229941E-006  0.9118800E+02  0.7816164E-02  0.1184000E+00
        -11   -1    0    0    0    0  0.00000000000E+00  0.00000000000E+00  0.45593999997E+02  0.45594000000E+02  0.51100000000E-03 0. -1.
         11   -1    0    0    0    0 -0.00000000000E+00 -0.00000000000E+00 -0.45593999997E+02  0.45594000000E+02  0.51100000000E-03 0.  1.
         23    2    1    2    0    0 -0.88817841970E-15  0.33306690739E-15 -0.71054273576E-14  0.91188000000E+02  0.91188000000E+02 0.  0.
    9900012    2    3    3    0    0  0.55192831195E+01 -0.98861013363E+00 -0.36391488696E+02  0.54367078153E+02  0.39999986265E+02 0.  0.
         12    1    3    3    0    0 -0.55192831195E+01  0.98861013363E+00  0.36391488696E+02  0.36820921847E+02  0.00000000000E+00 0. -1.
         11    1    4    4    0    0  0.90076672495E+01 -0.95170780310E+00  0.13514795110E+01  0.91580737139E+01  0.51100000000E-03 0. -1.
        -11    1    4    4    0    0 -0.47996431082E+01  0.11846496652E+02 -0.21961212990E+02  0.25410055749E+02  0.51100000000E-03 0.  1.
        -12    1    4    4    0    0  0.13112589782E+01 -0.11883398983E+02 -0.15781755217E+02  0.19798948690E+02  0.00000000000E+00 0.  1.
</event>
<event>
 8    1  0.1229941E-006  0.9118800E+02  0.7816164E-02  0.1184000E+00
        -11   -1    0    0    0    0  0.00000000000E+00  0.00000000000E+00  0.45593999997E+02  0.45594000000E+02  0.51100000000E-03 0.  1.
         11   -1    0    0    0    0 -0.00000000000E+00 -0.00000000000E+00 -0.45593999997E+02  0.45594000000E+02  0.51100000000E-03 0. -1.
         23    2    1    2    0    0  0.00000000000E+00  0.35527136788E-14  0.00000000000E+00  0.91188000000E+02  0.91188000000E+02 0.  0.
    9900012    2    3    3    0    0 -0.23328243966E+02 -0.28048406271E+02  0.49857859762E+01  0.54367107525E+02  0.40000053225E+02 0.  0.
        -12    1    3    3    0    0  0.23328243966E+02  0.28048406271E+02 -0.49857859762E+01  0.36820892475E+02  0.00000000000E+00 0.  1.
         11    1    4    4    0    0 -0.99763602178E+01 -0.13997024416E+02 -0.14269652043E+02  0.22339817040E+02  0.51100000000E-03 0. -1.
        -11    1    4    4    0    0 -0.15043440205E+01 -0.10020819713E+02  0.14093108190E+01  0.10230642008E+02  0.51100000000E-03 0.  1.
        -12    1    4    4    0    0 -0.11847539728E+02 -0.40305621411E+01  0.17846127200E+02  0.21796648476E+02  0.00000000000E+00 0.  1.
</event>
<event>
 8    1  0.1229941E-006  0.9118800E+02  0.7816164E-02  0.1184000E+00
        -11   -1    0    0    0    0  0.00000000000E+00  0.00000000000E+00  0.45593999997E+02  0.45594000000E+02  0.51100000000E-03 0.  1.
         11   -1    0    0    0    0 -0.00000000000E+00 -0.00000000000E+00 -0.45593999997E+02  0.45594000000E+02  0.51100000000E-03 0. -1.
         23    2    1    2    0    0 -0.53290705182E-14  0.00000000000E+00  0.00000000000E+00  0.91188000000E+02  0.91188000000E+02 0.  0.
    9900012    2    3    3    0    0 -0.83065510775E+01 -0.35004896661E+02  0.78382288128E+01  0.54367090017E+02  0.40000013312E+02 0.  0.
        -12    1    3    3    0    0  0.83065510775E+01  0.35004896661E+02 -0.78382288128E+01  0.36820909983E+02  0.00000000000E+00 0.  1.
         11    1    4    4    0    0  0.87742812645E+01 -0.28890024581E+02  0.85499180462E+01  0.31380290484E+02  0.51100000000E-03 0. -1.
        -11    1    4    4    0    0 -0.73956838018E+00  0.36596915430E+01 -0.12509384489E+01  0.39376580404E+01  0.51100000000E-03 0.  1.
         12    1    4    4    0    0 -0.16341263962E+02 -0.97745636233E+01  0.53924921544E+00  0.19049141493E+02  0.00000000000E+00 0. -1.
</event>
<event>
 8    1  0.1229941E-006  0.9118800E+02  0.7816164E-02  0.1184000E+00
        -11   -1    0    0    0    0  0.00000000000E+00  0.00000000000E+00  0.45593999997E+02  0.45594000000E+02  0.51100000000E-03 0.  1.
         11   -1    0    0    0    0 -0.00000000000E+00 -0.00000000000E+00 -0.45593999997E+02  0.45594000000E+02  0.51100000000E-03 0. -1.
         23    2    1    2    0    0  0.00000000000E+00  0.00000000000E+00 -0.35527136788E-14  0.91188000000E+02  0.91188000000E+02 0.  0.
    9900012    2    3    3    0    0 -0.87040974704E+01  0.32427690986E+02  0.15115401539E+02  0.54366921537E+02  0.39999629227E+02 0.  0.
        -12    1    3    3    0    0  0.87040974704E+01 -0.32427690986E+02 -0.15115401539E+02  0.36821078463E+02  0.00000000000E+00 0.  1.
         11    1    4    4    0    0 -0.51765922143E+01  0.17483954587E+02 -0.69675449214E+01  0.19520052701E+02  0.51100000000E-03 0. -1.
        -11    1    4    4    0    0  0.55152107847E+01  0.41966565872E+01 -0.17818539642E+01  0.71557305931E+01  0.51100000000E-03 0.  1.
         12    1    4    4    0    0 -0.90427160409E+01  0.10747079812E+02  0.23864800425E+02  0.27691138243E+02  0.00000000000E+00 0. -1.
</event>
<event>
 8    1  0.1229941E-006  0.9118800E+02  0.7816164E-02  0.1184000E+00
        -11   -1    0    0    0    0  0.00000000000E+00  0.00000000000E+00  0.45593999997E+02  0.45594000000E+02  0.51100000000E-03 0. -1.
         11   -1    0    0    0    0 -0.00000000000E+00 -0.00000000000E+00 -0.45593999997E+02  0.45594000000E+02  0.51100000000E-03 0.  1.
         23    2    1    2    0    0  0.00000000000E+00 -0.22204460493E-15 -0.71054273576E-14  0.91188000000E+02  0.91188000000E+02 0.  0.
    9900012    2    3    3    0    0 -0.15771657836E+02 -0.16839676197E+01 -0.33229523651E+02  0.54367052430E+02  0.39999927626E+02 0.  0.
         12    1    3    3    0    0  0.15771657836E+02  0.16839676197E+01  0.33229523651E+02  0.36820947570E+02  0.00000000000E+00 0. -1.
         11    1    4    4    0    0 -0.34015260378E+01 -0.14790798422E+02 -0.13780133406E+02  0.20499516441E+02  0.51100000000E-03 0. -1.
        -11    1    4    4    0    0  0.13699889115E+00  0.82121298266E+01  0.20980559550E+01  0.84770091445E+01  0.51100000000E-03 0.  1.
        -12    1    4    4    0    0 -0.12507130689E+02  0.48947009762E+01 -0.21547446200E+02  0.25390526845E+02  0.00000000000E+00 0.  1.
</event>
<event>
 8    1  0.1229941E-006  0.9118800E+02  0.7816164E-02  0.1184000E+00
        -11   -1    0    0    0    0  0.00000000000E+00  0.00000000000E+00  0.45593999997E+02  0.45594000000E+02  0.51100000000E-03 0.  1.
         11   -1    0    0    0    0 -0.00000000000E+00 -0.00000000000E+00 -0.45593999997E+02  0.45594000000E+02  0.51100000000E-03 0. -1.
         23    2    1    2    0    0 -0.17763568394E-14  0.44408920985E-15  0.00000000000E+00  0.91188000000E+02  0.91188000000E+02 0.  0.
    9900012    2    3    3    0    0  0.12591000299E+02 -0.21742768606E+01 -0.34532767218E+02  0.54367180073E+02  0.40000218611E+02 0.  0.
        -12    1    3    3    0    0 -0.12591000299E+02  0.21742768606E+01  0.34532767218E+02  0.36820819927E+02  0.00000000000E+00 0.  1.
         11    1    4    4    0    0  0.10627529444E+01 -0.55489807079E+01  0.93025699564E+00  0.57259068326E+01  0.51100000000E-03 0. -1.
        -11    1    4    4    0    0  0.75926480785E+01  0.23964636772E+01  0.40416748719E+01  0.89289685312E+01  0.51100000000E-03 0.  1.
         12    1    4    4    0    0  0.39355992764E+01  0.97824017001E+00 -0.39504699085E+02  0.39712304709E+02  0.00000000000E+00 0. -1.
</event>
<event>
 8    1  0.1229941E-006  0.9118800E+02  0.7816164E-02  0.1184000E+00
        -11   -1    0    0    0    0  0.00000000000E+00  0.00000000000E+00  0.45593999997E+02  0.45594000000E+02  0.51100000000E-03 0.  1.
         11   -1    0    0    0    0 -0.00000000000E+00 -0.00000000000E+00 -0.45593999997E+02  0.45594000000E+02  0.51100000000E-03 0. -1.
         23    2    1    2    0    0 -0.13322676296E-14 -0.35527136788E-14  0.00000000000E+00  0.91188000000E+02  0.91188000000E+02 0.  0.
    9900012    2    3    3    0    0  0.38818887546E+01  0.29310250283E+02 -0.21945846387E+02  0.54367081956E+02  0.39999994936E+02 0.  0.
        -12    1    3    3    0    0 -0.38818887546E+01 -0.29310250283E+02  0.21945846387E+02  0.36820918044E+02  0.00000000000E+00 0.  1.
         11    1    4    4    0    0 -0.20896630984E+00  0.35375627566E+01 -0.14151267683E+02  0.14588227941E+02  0.51100000000E-03 0. -1.
        -11    1    4    4    0    0 -0.67394108166E+01 -0.35068784702E+01 -0.31178181793E+01  0.82121035807E+01  0.51100000000E-03 0.  1.
        -12    1    4    4    0    0  0.10830265881E+02  0.29279565996E+02 -0.46767605254E+01  0.31566750434E+02  0.00000000000E+00 0.  1.
</event>
<event>
 8    1  0.1229941E-006  0.9118800E+02  0.7816164E-02  0.1184000E+00
        -11   -1    0    0    0    0  0.00000000000E+00  0.00000000000E+00  0.45593999997E+02  0.45594000000E+02  0.51100000000E-03 0.  1.
         11   -1    0    0    0    0 -0.00000000000E+00 -0.00000000000E+00 -0.45593999997E+02  0.45594000000E+02  0.51100000000E-03 0. -1.
         23    2    1    2    0    0 -0.17763568394E-14  0.17763568394E-14 -0.71054273576E-14  0.91188000000E+02  0.91188000000E+02 0.  0.
    9900012    2    3    3    0    0 -0.69656853679E+01  0.14382284890E+02 -0.33172461272E+02  0.54367040234E+02  0.39999899820E+02 0.  0.
        -12    1    3    3    0    0  0.69656853679E+01 -0.14382284890E+02  0.33172461272E+02  0.36820959766E+02  0.00000000000E+00 0.  1.
         11    1    4    4    0    0 -0.86529361529E+01  0.26723806280E+02 -0.22027721011E+02  0.35696717207E+02  0.51100000000E-03 0. -1.
        -11    1    4    4    0    0 -0.98943341900E-01  0.10979921437E+01 -0.21022192463E+01  0.23737528416E+01  0.51100000000E-03 0.  1.
        -12    1    4    4    0    0  0.17861941269E+01 -0.13439513534E+02 -0.90425210147E+01  0.16296570185E+02  0.00000000000E+00 0.  1.
</event>
<event>
 8    1  0.1229941E-006  0.9118800E+02  0.7816164E-02  0.1184000E+00
        -11   -1    0    0    0    0  0.00000000000E+00  0.00000000000E+00  0.45593999997E+02  0.45594000000E+02  0.51100000000E-03 0.  1.
         11   -1    0    0    0    0 -0.00000000000E+00 -0.00000000000E+00 -0.45593999997E+02  0.45594000000E+02  0.51100000000E-03 0. -1.
         23    2    1    2    0    0  0.00000000000E+00  0.00000000000E+00 -0.17763568394E-14  0.91188000000E+02  0.91188000000E+02 0.  0.
    9900012    2    3    3    0    0  0.80577492028E+01 -0.34544361014E+02 -0.98763023690E+01  0.54367061004E+02  0.39999947170E+02 0.  0.
        -12    1    3    3    0    0 -0.80577492028E+01  0.34544361014E+02  0.98763023690E+01  0.36820938996E+02  0.00000000000E+00 0.  1.
         11    1    4    4    0    0  0.59155428246E+01 -0.46880678478E+01 -0.11568278509E+02  0.13812917685E+02  0.51100000000E-03 0. -1.
        -11    1    4    4    0    0  0.38598811760E+01 -0.33997612716E+02 -0.26427024594E+01  0.34317928691E+02  0.51100000000E-03 0.  1.
        -12    1    4    4    0    0 -0.17176747979E+01  0.41413195501E+01  0.43346785990E+01  0.62362146278E+01  0.00000000000E+00 0.  1.
</event>
<event>
 8    1  0.1229941E-006  0.9118800E+02  0.7816164E-02  0.1184000E+00
        -11   -1    0    0    0    0  0.00000000000E+00  0.00000000000E+00  0.45593999997E+02  0.45594000000E+02  0.51100000000E-03 0.  1.
         11   -1    0    0    0    0 -0.00000000000E+00 -0.00000000000E+00 -0.45593999997E+02  0.45594000000E+02  0.51100000000E-03 0. -1.
         23    2    1    2    0    0  0.88817841970E-15  0.00000000000E+00  0.00000000000E+00  0.91188000000E+02  0.91188000000E+02 0.  0.
    9900012    2    3    3    0    0  0.32960266742E+01 -0.16988893753E+02 -0.32500696805E+02  0.54367060365E+02  0.39999945715E+02 0.  0.
        -12    1    3    3    0    0 -0.32960266742E+01  0.16988893753E+02  0.32500696805E+02  0.36820939635E+02  0.00000000000E+00 0.  1.
         11    1    4    4    0    0  0.86294602112E+01 -0.39513773646E+01 -0.34899562624E+02  0.36167118191E+02  0.51100000000E-03 0. -1.
        -11    1    4    4    0    0 -0.26479262283E+01 -0.93290307401E+00  0.48094024756E+01  0.55688575030E+01  0.51100000000E-03 0.  1.
         12    1    4    4    0    0 -0.26855073088E+01 -0.12104613315E+02 -0.24105366558E+01  0.12631084671E+02  0.00000000000E+00 0. -1.
</event>
<event>
 8    1  0.1229941E-006  0.9118800E+02  0.7816164E-02  0.1184000E+00
        -11   -1    0    0    0    0  0.00000000000E+00  0.00000000000E+00  0.45593999997E+02  0.45594000000E+02  0.51100000000E-03 0. -1.
         11   -1    0    0    0    0 -0.00000000000E+00 -0.00000000000E+00 -0.45593999997E+02  0.45594000000E+02  0.51100000000E-03 0.  1.
         23    2    1    2    0    0 -0.35527136788E-14  0.00000000000E+00  0.17763568394E-14  0.91188000000E+02  0.91188000000E+02 0.  0.
    9900012    2    3    3    0    0  0.26331315902E+02 -0.25164940919E+02  0.54006972814E+01  0.54367082308E+02  0.39999995737E+02 0.  0.
         12    1    3    3    0    0 -0.26331315902E+02  0.25164940919E+02 -0.54006972814E+01  0.36820917692E+02  0.00000000000E+00 0. -1.
         11    1    4    4    0    0 -0.39917536044E+01 -0.74145610153E+01 -0.55446180868E+01  0.10082291499E+02  0.51100000000E-03 0. -1.
        -11    1    4    4    0    0  0.19181657153E+02 -0.20034714416E+01 -0.42261476196E+01  0.19743611445E+02  0.51100000000E-03 0.  1.
        -12    1    4    4    0    0  0.11141412354E+02 -0.15746908462E+02  0.15171462988E+02  0.24541179363E+02  0.00000000000E+00 0.  1.
</event>
<event>
 8    1  0.1229941E-006  0.9118800E+02  0.7816164E-02  0.1184000E+00
        -11   -1    0    0    0    0  0.00000000000E+00  0.00000000000E+00  0.45593999997E+02  0.45594000000E+02  0.51100000000E-03 0.  1.
         11   -1    0    0    0    0 -0.00000000000E+00 -0.00000000000E+00 -0.45593999997E+02  0.45594000000E+02  0.51100000000E-03 0. -1.
         23    2    1    2    0    0  0.88817841970E-15  0.35527136788E-14  0.00000000000E+00  0.91188000000E+02  0.91188000000E+02 0.  0.
    9900012    2    3    3    0    0  0.62220139277E+00  0.17909890793E+02  0.32165638433E+02  0.54367087211E+02  0.40000006916E+02 0.  0.
         12    1    3    3    0    0 -0.62220139277E+00 -0.17909890793E+02 -0.32165638433E+02  0.36820912789E+02  0.00000000000E+00 0. -1.
         11    1    4    4    0    0 -0.30312368286E+01 -0.64041245644E+01  0.83408238436E+01  0.10943973264E+02  0.51100000000E-03 0. -1.
        -11    1    4    4    0    0 -0.11232036828E+02  0.10319579905E+02  0.14195896034E+02  0.20836886649E+02  0.51100000000E-03 0.  1.
         12    1    4    4    0    0  0.14885475049E+02  0.13994435452E+02  0.96289185549E+01  0.22586227299E+02  0.00000000000E+00 0. -1.
</event>
<event>
 8    1  0.1229941E-006  0.9118800E+02  0.7816164E-02  0.1184000E+00
        -11   -1    0    0    0    0  0.00000000000E+00  0.00000000000E+00  0.45593999997E+02  0.45594000000E+02  0.51100000000E-03 0.  1.
         11   -1    0    0    0    0 -0.00000000000E+00 -0.00000000000E+00 -0.45593999997E+02  0.45594000000E+02  0.51100000000E-03 0. -1.
         23    2    1    2    0    0  0.00000000000E+00  0.00000000000E+00  0.17763568394E-14  0.91188000000E+02  0.91188000000E+02 0.  0.
    9900012    2    3    3    0    0  0.22717056616E+02 -0.26434776209E+02 -0.11870898573E+02  0.54367078129E+02  0.39999986211E+02 0.  0.
        -12    1    3    3    0    0 -0.22717056616E+02  0.26434776209E+02  0.11870898573E+02  0.36820921871E+02  0.00000000000E+00 0.  1.
         11    1    4    4    0    0 -0.12714220020E+01  0.77196955485E+00  0.15165908886E+01  0.21242643633E+01  0.51100000000E-03 0. -1.
        -11    1    4    4    0    0 -0.42927055647E+01 -0.15117339483E+02 -0.14616254982E+02  0.21461504702E+02  0.51100000000E-03 0.  1.
         12    1    4    4    0    0  0.28281184182E+02 -0.12089406281E+02  0.12287655201E+01  0.30781309064E+02  0.00000000000E+00 0. -1.
</event>
<event>
 8    1  0.1229941E-006  0.9118800E+02  0.7816164E-02  0.1184000E+00
        -11   -1    0    0    0    0  0.00000000000E+00  0.00000000000E+00  0.45593999997E+02  0.45594000000E+02  0.51100000000E-03 0.  1.
         11   -1    0    0    0    0 -0.00000000000E+00 -0.00000000000E+00 -0.45593999997E+02  0.45594000000E+02  0.51100000000E-03 0. -1.
         23    2    1    2    0    0  0.35527136788E-14  0.00000000000E+00  0.00000000000E+00  0.91188000000E+02  0.91188000000E+02 0.  0.
    9900012    2    3    3    0    0  0.23907919546E+02 -0.13676040881E+02 -0.24436845482E+02  0.54367053131E+02  0.39999929223E+02 0.  0.
        -12    1    3    3    0    0 -0.23907919546E+02  0.13676040881E+02  0.24436845482E+02  0.36820946869E+02  0.00000000000E+00 0.  1.
         11    1    4    4    0    0  0.18328523053E+02 -0.10534563815E+02 -0.27924378990E+02  0.35024030812E+02  0.51100000000E-03 0. -1.
        -11    1    4    4    0    0  0.19991851894E+00  0.60746208198E+01  0.58252822586E+01  0.84187231319E+01  0.51100000000E-03 0.  1.
         12    1    4    4    0    0  0.53794779741E+01 -0.92160978859E+01 -0.23377487512E+01  0.10924299188E+02  0.00000000000E+00 0. -1.
</event>
<event>
 8    1  0.1229941E-006  0.9118800E+02  0.7816164E-02  0.1184000E+00
        -11   -1    0    0    0    0  0.00000000000E+00  0.00000000000E+00  0.45593999997E+02  0.45594000000E+02  0.51100000000E-03 0.  1.
         11   -1    0    0    0    0 -0.00000000000E+00 -0.00000000000E+00 -0.45593999997E+02  0.45594000000E+02  0.51100000000E-03 0. -1.
         23    2    1    2    0    0  0.00000000000E+00  0.11102230246E-15  0.17763568394E-14  0.91188000000E+02  0.91188000000E+02 0.  0.
    9900012    2    3    3    0    0 -0.35770215374E+02 -0.70364924483E+00 -0.87048541029E+01  0.54367110343E+02  0.40000059650E+02 0.  0.
        -12    1    3    3    0    0  0.35770215374E+02  0.70364924483E+00  0.87048541029E+01  0.36820889657E+02  0.00000000000E+00 0.  1.
         11    1    4    4    0    0 -0.40009373964E+01 -0.53219873705E+01 -0.11785584916E+02  0.13536286850E+02  0.51100000000E-03 0. -1.
        -11    1    4    4    0    0 -0.14579057871E+02 -0.53120089874E+01  0.11452591745E+02  0.19285440773E+02  0.51100000000E-03 0.  1.
         12    1    4    4    0    0 -0.17190220106E+02  0.99303471131E+01 -0.83718609318E+01  0.21545382720E+02  0.00000000000E+00 0. -1.
</event>
<event>
 8    1  0.1229941E-006  0.9118800E+02  0.7816164E-02  0.1184000E+00
        -11   -1    0    0    0    0  0.00000000000E+00  0.00000000000E+00  0.45593999997E+02  0.45594000000E+02  0.51100000000E-03 0.  1.
         11   -1    0    0    0    0 -0.00000000000E+00 -0.00000000000E+00 -0.45593999997E+02  0.45594000000E+02  0.51100000000E-03 0. -1.
         23    2    1    2    0    0  0.35527136788E-14  0.35527136788E-14 -0.22204460493E-15  0.91188000000E+02  0.91188000000E+02 0.  0.
    9900012    2    3    3    0    0  0.28874959453E+02  0.22765486349E+02 -0.19379057873E+01  0.54366998779E+02  0.39999805315E+02 0.  0.
        -12    1    3    3    0    0 -0.28874959453E+02 -0.22765486349E+02  0.19379057873E+01  0.36821001221E+02  0.00000000000E+00 0.  1.
         11    1    4    4    0    0  0.27184740892E+02  0.33384306356E+02 -0.31914305682E+01  0.43170676130E+02  0.51100000000E-03 0. -1.
        -11    1    4    4    0    0  0.14534104396E+01 -0.81349066114E+01 -0.27839123675E+00  0.82684103323E+01  0.51100000000E-03 0.  1.
         12    1    4    4    0    0  0.23680812156E+00 -0.24839133957E+01  0.15319160176E+01  0.29279123158E+01  0.00000000000E+00 0. -1.
</event>
<event>
 8    1  0.1229941E-006  0.9118800E+02  0.7816164E-02  0.1184000E+00
        -11   -1    0    0    0    0  0.00000000000E+00  0.00000000000E+00  0.45593999997E+02  0.45594000000E+02  0.51100000000E-03 0.  1.
         11   -1    0    0    0    0 -0.00000000000E+00 -0.00000000000E+00 -0.45593999997E+02  0.45594000000E+02  0.51100000000E-03 0. -1.
         23    2    1    2    0    0 -0.17763568394E-14 -0.35527136788E-14  0.00000000000E+00  0.91188000000E+02  0.91188000000E+02 0.  0.
    9900012    2    3    3    0    0  0.11942195442E+02 -0.30180256382E+02 -0.17387234828E+02  0.54367084175E+02  0.39999999993E+02 0.  0.
        -12    1    3    3    0    0 -0.11942195442E+02  0.30180256382E+02  0.17387234828E+02  0.36820915825E+02  0.00000000000E+00 0.  1.
         11    1    4    4    0    0 -0.90054771202E+01 -0.65988308707E+00 -0.10105804973E+02  0.13552171718E+02  0.51100000000E-03 0.  1.
        -11    1    4    4    0    0  0.23514088977E+02 -0.27968684538E+02 -0.86008947107E+01  0.37538448094E+02  0.51100000000E-03 0. -1.
         12    1    4    4    0    0 -0.25664164156E+01 -0.15516887570E+01  0.13194648559E+01  0.32764643631E+01  0.00000000000E+00 0. -1.
</event>
<event>
 8    1  0.1229941E-006  0.9118800E+02  0.7816164E-02  0.1184000E+00
        -11   -1    0    0    0    0  0.00000000000E+00  0.00000000000E+00  0.45593999997E+02  0.45594000000E+02  0.51100000000E-03 0. -1.
         11   -1    0    0    0    0 -0.00000000000E+00 -0.00000000000E+00 -0.45593999997E+02  0.45594000000E+02  0.51100000000E-03 0.  1.
         23    2    1    2    0    0  0.22204460493E-15  0.00000000000E+00  0.35527136788E-14  0.91188000000E+02  0.91188000000E+02 0.  0.
    9900012    2    3    3    0    0  0.10433773205E+01 -0.33917727461E+02  0.14292744641E+02  0.54367035567E+02  0.39999889182E+02 0.  0.
        -12    1    3    3    0    0 -0.10433773205E+01  0.33917727461E+02 -0.14292744641E+02  0.36820964433E+02  0.00000000000E+00 0.  1.
         11    1    4    4    0    0 -0.21155497390E+00 -0.60777711661E+01  0.35270946623E+01  0.70302528313E+01  0.51100000000E-03 0. -1.
        -11    1    4    4    0    0  0.25873553850E+01  0.68587433619E+01 -0.53300631052E+01  0.90634618860E+01  0.51100000000E-03 0.  1.
        -12    1    4    4    0    0 -0.13324230907E+01 -0.34698699657E+02  0.16095713084E+02  0.38273320850E+02  0.00000000000E+00 0.  1.
</event>
<event>
 8    1  0.1229941E-006  0.9118800E+02  0.7816164E-02  0.1184000E+00
        -11   -1    0    0    0    0  0.00000000000E+00  0.00000000000E+00  0.45593999997E+02  0.45594000000E+02  0.51100000000E-03 0.  1.
         11   -1    0    0    0    0 -0.00000000000E+00 -0.00000000000E+00 -0.45593999997E+02  0.45594000000E+02  0.51100000000E-03 0. -1.
         23    2    1    2    0    0  0.00000000000E+00 -0.88817841970E-15  0.00000000000E+00  0.91188000000E+02  0.91188000000E+02 0.  0.
    9900012    2    3    3    0    0 -0.96034380539E+01 -0.70447992782E+01  0.34841430269E+02  0.54367075479E+02  0.39999980171E+02 0.  0.
         12    1    3    3    0    0  0.96034380539E+01  0.70447992782E+01 -0.34841430269E+02  0.36820924521E+02  0.00000000000E+00 0. -1.
         11    1    4    4    0    0 -0.11145076405E+02  0.51540916255E+01  0.46490925631E+00  0.12287942441E+02  0.51100000000E-03 0. -1.
        -11    1    4    4    0    0 -0.65819813777E+01 -0.52248103265E+01  0.29948701276E+01  0.89213434609E+01  0.51100000000E-03 0.  1.
        -12    1    4    4    0    0  0.81236197284E+01 -0.69740805771E+01  0.31381650886E+02  0.33157789578E+02  0.00000000000E+00 0.  1.
</event>
<event>
 8    1  0.1229941E-006  0.9118800E+02  0.7816164E-02  0.1184000E+00
        -11   -1    0    0    0    0  0.00000000000E+00  0.00000000000E+00  0.45593999997E+02  0.45594000000E+02  0.51100000000E-03 0. -1.
         11   -1    0    0    0    0 -0.00000000000E+00 -0.00000000000E+00 -0.45593999997E+02  0.45594000000E+02  0.51100000000E-03 0.  1.
         23    2    1    2    0    0  0.00000000000E+00  0.44408920985E-15 -0.71054273576E-14  0.91188000000E+02  0.91188000000E+02 0.  0.
    9900012    2    3    3    0    0  0.58062505349E+01 -0.30313758640E+01  0.36233651637E+02  0.54367091594E+02  0.40000016906E+02 0.  0.
        -12    1    3    3    0    0 -0.58062505349E+01  0.30313758640E+01 -0.36233651637E+02  0.36820908406E+02  0.00000000000E+00 0.  1.
         11    1    4    4    0    0  0.26354760368E+01 -0.56209982489E+00  0.44139380525E+00  0.27306627229E+01  0.51100000000E-03 0. -1.
        -11    1    4    4    0    0  0.14457658981E+02 -0.55203150809E+01  0.16687366205E+01  0.15565425275E+02  0.51100000000E-03 0.  1.
         12    1    4    4    0    0 -0.11286884483E+02  0.30510390418E+01  0.34123521211E+02  0.36071003596E+02  0.00000000000E+00 0. -1.
</event>
<event>
 8    1  0.1229941E-006  0.9118800E+02  0.7816164E-02  0.1184000E+00
        -11   -1    0    0    0    0  0.00000000000E+00  0.00000000000E+00  0.45593999997E+02  0.45594000000E+02  0.51100000000E-03 0. -1.
         11   -1    0    0    0    0 -0.00000000000E+00 -0.00000000000E+00 -0.45593999997E+02  0.45594000000E+02  0.51100000000E-03 0.  1.
         23    2    1    2    0    0  0.00000000000E+00  0.22204460493E-15  0.00000000000E+00  0.91188000000E+02  0.91188000000E+02 0.  0.
    9900012    2    3    3    0    0  0.34221467585E+02  0.11357127608E+01  0.13541821332E+02  0.54367087299E+02  0.40000007115E+02 0.  0.
        -12    1    3    3    0    0 -0.34221467585E+02 -0.11357127608E+01 -0.13541821332E+02  0.36820912701E+02  0.00000000000E+00 0.  1.
         11    1    4    4    0    0  0.68281166238E+00  0.17605770977E+01 -0.52104783247E+01  0.55421068301E+01  0.51100000000E-03 0.  1.
        -11    1    4    4    0    0  0.48643525953E+01  0.41809140787E+01  0.18680107395E+02  0.19750655211E+02  0.51100000000E-03 0. -1.
         12    1    4    4    0    0  0.28674303327E+02 -0.48057784156E+01  0.72192262096E-01  0.29074325258E+02  0.00000000000E+00 0. -1.
</event>
<event>
 8    1  0.1229941E-006  0.9118800E+02  0.7816164E-02  0.1184000E+00
        -11   -1    0    0    0    0  0.00000000000E+00  0.00000000000E+00  0.45593999997E+02  0.45594000000E+02  0.51100000000E-03 0. -1.
         11   -1    0    0    0    0 -0.00000000000E+00 -0.00000000000E+00 -0.45593999997E+02  0.45594000000E+02  0.51100000000E-03 0.  1.
         23    2    1    2    0    0 -0.35527136788E-14  0.35527136788E-14  0.35527136788E-14  0.91188000000E+02  0.91188000000E+02 0.  0.
    9900012    2    3    3    0    0  0.21937685990E+02 -0.18410497051E+02 -0.23142427239E+02  0.54367076509E+02  0.39999982517E+02 0.  0.
         12    1    3    3    0    0 -0.21937685990E+02  0.18410497051E+02  0.23142427239E+02  0.36820923491E+02  0.00000000000E+00 0. -1.
         11    1    4    4    0    0  0.84054736807E+00  0.50614747080E+01 -0.65275760805E+01  0.83026679956E+01  0.51100000000E-03 0. -1.
        -11    1    4    4    0    0 -0.34262732520E+01 -0.16595475662E+02 -0.10277327750E+02  0.19818492041E+02  0.51100000000E-03 0.  1.
         12    1    4    4    0    0  0.24523411874E+02 -0.68764960972E+01 -0.63375234087E+01  0.26245916472E+02  0.00000000000E+00 0. -1.
</event>
<event>
 8    1  0.1229941E-006  0.9118800E+02  0.7816164E-02  0.1184000E+00
        -11   -1    0    0    0    0  0.00000000000E+00  0.00000000000E+00  0.45593999997E+02  0.45594000000E+02  0.51100000000E-03 0.  1.
         11   -1    0    0    0    0 -0.00000000000E+00 -0.00000000000E+00 -0.45593999997E+02  0.45594000000E+02  0.51100000000E-03 0. -1.
         23    2    1    2    0    0  0.00000000000E+00 -0.44408920985E-15  0.00000000000E+00  0.91188000000E+02  0.91188000000E+02 0.  0.
    9900012    2    3    3    0    0 -0.25121893993E+02  0.31292216869E+01  0.26737211240E+02  0.54367081339E+02  0.39999993528E+02 0.  0.
         12    1    3    3    0    0  0.25121893993E+02 -0.31292216869E+01 -0.26737211240E+02  0.36820918661E+02  0.00000000000E+00 0. -1.
         11    1    4    4    0    0  0.58246005536E+01  0.27891787168E+01 -0.35702910714E+01  0.73791915626E+01  0.51100000000E-03 0. -1.
        -11    1    4    4    0    0 -0.61683797072E+01 -0.76535321505E+01  0.73130222724E+01  0.12251765489E+02  0.51100000000E-03 0.  1.
         12    1    4    4    0    0 -0.24778114839E+02  0.79935751206E+01  0.22994480039E+02  0.34736124287E+02  0.00000000000E+00 0. -1.
</event>
<event>
 8    1  0.1229941E-006  0.9118800E+02  0.7816164E-02  0.1184000E+00
        -11   -1    0    0    0    0  0.00000000000E+00  0.00000000000E+00  0.45593999997E+02  0.45594000000E+02  0.51100000000E-03 0.  1.
         11   -1    0    0    0    0 -0.00000000000E+00 -0.00000000000E+00 -0.45593999997E+02  0.45594000000E+02  0.51100000000E-03 0. -1.
         23    2    1    2    0    0  0.00000000000E+00 -0.17763568394E-14 -0.35527136788E-14  0.91188000000E+02  0.91188000000E+02 0.  0.
    9900012    2    3    3    0    0 -0.16374075925E+02  0.95610686330E+01 -0.31563505999E+02  0.54367091446E+02  0.40000016569E+02 0.  0.
        -12    1    3    3    0    0  0.16374075925E+02 -0.95610686330E+01  0.31563505999E+02  0.36820908554E+02  0.00000000000E+00 0.  1.
         11    1    4    4    0    0 -0.21055970744E+02  0.84320014250E+01 -0.32521965222E+02  0.39650104340E+02  0.51100000000E-03 0. -1.
        -11    1    4    4    0    0  0.15146377798E+01  0.65225784758E+01  0.39599057411E+01  0.77793965908E+01  0.51100000000E-03 0.  1.
        -12    1    4    4    0    0  0.31672570393E+01 -0.53935112678E+01 -0.30014465180E+01  0.69375905147E+01  0.00000000000E+00 0.  1.
</event>
<event>
 8    1  0.1229941E-006  0.9118800E+02  0.7816164E-02  0.1184000E+00
        -11   -1    0    0    0    0  0.00000000000E+00  0.00000000000E+00  0.45593999997E+02  0.45594000000E+02  0.51100000000E-03 0.  1.
         11   -1    0    0    0    0 -0.00000000000E+00 -0.00000000000E+00 -0.45593999997E+02  0.45594000000E+02  0.51100000000E-03 0. -1.
         23    2    1    2    0    0  0.35527136788E-14  0.00000000000E+00 -0.71054273576E-14  0.91188000000E+02  0.91188000000E+02 0.  0.
    9900012    2    3    3    0    0 -0.15456426389E+02 -0.18894541061E+02  0.27565818855E+02  0.54367093333E+02  0.40000020872E+02 0.  0.
         12    1    3    3    0    0  0.15456426389E+02  0.18894541061E+02 -0.27565818855E+02  0.36820906667E+02  0.00000000000E+00 0. -1.
         11    1    4    4    0    0 -0.26854422264E+01 -0.17897280005E+02  0.10663248849E+02  0.21005454239E+02  0.51100000000E-03 0. -1.
        -11    1    4    4    0    0 -0.10561152237E+02  0.63703995525E+00  0.23740802522E+02  0.25991719088E+02  0.51100000000E-03 0.  1.
         12    1    4    4    0    0 -0.22098319259E+01 -0.16343010115E+01 -0.68382325169E+01  0.73699200058E+01  0.00000000000E+00 0. -1.
</event>
<event>
 8    1  0.1229941E-006  0.9118800E+02  0.7816164E-02  0.1184000E+00
        -11   -1    0    0    0    0  0.00000000000E+00  0.00000000000E+00  0.45593999997E+02  0.45594000000E+02  0.51100000000E-03 0.  1.
         11   -1    0    0    0    0 -0.00000000000E+00 -0.00000000000E+00 -0.45593999997E+02  0.45594000000E+02  0.51100000000E-03 0. -1.
         23    2    1    2    0    0 -0.17763568394E-14  0.00000000000E+00 -0.35527136788E-14  0.91188000000E+02  0.91188000000E+02 0.  0.
    9900012    2    3    3    0    0  0.12451470374E+02 -0.17429263336E+02 -0.29949311252E+02  0.54367087744E+02  0.40000008130E+02 0.  0.
        -12    1    3    3    0    0 -0.12451470374E+02  0.17429263336E+02  0.29949311252E+02  0.36820912256E+02  0.00000000000E+00 0.  1.
         11    1    4    4    0    0 -0.19531602052E+01 -0.67365382870E+01  0.57650924690E+01  0.90792111065E+01  0.51100000000E-03 0.  1.
        -11    1    4    4    0    0  0.17601085995E+02 -0.14550955792E+02 -0.29281472226E+02  0.37133989264E+02  0.51100000000E-03 0. -1.
        -12    1    4    4    0    0 -0.31964554159E+01  0.38582307429E+01 -0.64329314945E+01  0.81538873737E+01  0.00000000000E+00 0.  1.
</event>
<event>
 8    1  0.1229941E-006  0.9118800E+02  0.7816164E-02  0.1184000E+00
        -11   -1    0    0    0    0  0.00000000000E+00  0.00000000000E+00  0.45593999997E+02  0.45594000000E+02  0.51100000000E-03 0.  1.
         11   -1    0    0    0    0 -0.00000000000E+00 -0.00000000000E+00 -0.45593999997E+02  0.45594000000E+02  0.51100000000E-03 0. -1.
         23    2    1    2    0    0  0.35527136788E-14 -0.17763568394E-14  0.00000000000E+00  0.91188000000E+02  0.91188000000E+02 0.  0.
    9900012    2    3    3    0    0 -0.29388799777E+02  0.13987256096E+02 -0.17217334283E+02  0.54367061864E+02  0.39999949132E+02 0.  0.
         12    1    3    3    0    0  0.29388799777E+02 -0.13987256096E+02  0.17217334283E+02  0.36820938136E+02  0.00000000000E+00 0. -1.
         11    1    4    4    0    0 -0.12861791438E+02 -0.39446766600E+01 -0.99636068676E+01  0.16740956216E+02  0.51100000000E-03 0. -1.
        -11    1    4    4    0    0 -0.21617946386E+02  0.38721853914E+01 -0.46258284171E+01  0.22443879221E+02  0.51100000000E-03 0.  1.
         12    1    4    4    0    0  0.50909380477E+01  0.14059747364E+02 -0.26278989981E+01  0.15182226428E+02  0.00000000000E+00 0. -1.
</event>
<event>
 8    1  0.1229941E-006  0.9118800E+02  0.7816164E-02  0.1184000E+00
        -11   -1    0    0    0    0  0.00000000000E+00  0.00000000000E+00  0.45593999997E+02  0.45594000000E+02  0.51100000000E-03 0.  1.
         11   -1    0    0    0    0 -0.00000000000E+00 -0.00000000000E+00 -0.45593999997E+02  0.45594000000E+02  0.51100000000E-03 0. -1.
         23    2    1    2    0    0  0.00000000000E+00  0.00000000000E+00  0.13322676296E-14  0.91188000000E+02  0.91188000000E+02 0.  0.
    9900012    2    3    3    0    0  0.14098384429E+02 -0.33939455659E+02  0.22646441200E+01  0.54367086011E+02  0.40000004180E+02 0.  0.
        -12    1    3    3    0    0 -0.14098384429E+02  0.33939455659E+02 -0.22646441200E+01  0.36820913989E+02  0.00000000000E+00 0.  1.
         11    1    4    4    0    0  0.31797835136E+01 -0.28493194805E+01 -0.10689742402E+02  0.11510874753E+02  0.51100000000E-03 0. -1.
        -11    1    4    4    0    0  0.11213327674E+02 -0.25771859867E+02 -0.78903437108E+00  0.28116721964E+02  0.51100000000E-03 0.  1.
        -12    1    4    4    0    0 -0.29472675805E+00 -0.53182763124E+01  0.13743420893E+02  0.14739489294E+02  0.00000000000E+00 0.  1.
</event>
<event>
 8    1  0.1229941E-006  0.9118800E+02  0.7816164E-02  0.1184000E+00
        -11   -1    0    0    0    0  0.00000000000E+00  0.00000000000E+00  0.45593999997E+02  0.45594000000E+02  0.51100000000E-03 0. -1.
         11   -1    0    0    0    0 -0.00000000000E+00 -0.00000000000E+00 -0.45593999997E+02  0.45594000000E+02  0.51100000000E-03 0.  1.
         23    2    1    2    0    0  0.00000000000E+00 -0.88817841970E-15  0.71054273576E-14  0.91188000000E+02  0.91188000000E+02 0.  0.
    9900012    2    3    3    0    0 -0.16836322037E+02 -0.58028018918E+01 -0.32228024358E+02  0.54367084700E+02  0.40000001190E+02 0.  0.
         12    1    3    3    0    0  0.16836322037E+02  0.58028018918E+01  0.32228024358E+02  0.36820915300E+02  0.00000000000E+00 0. -1.
         11    1    4    4    0    0 -0.38096482332E+01 -0.15500121246E+01 -0.34047198049E+01  0.53392953148E+01  0.51100000000E-03 0.  1.
        -11    1    4    4    0    0  0.62886834298E+00 -0.13052870773E+02 -0.30017273864E+02  0.32738503957E+02  0.51100000000E-03 0. -1.
         12    1    4    4    0    0 -0.13655542147E+02  0.88000810061E+01  0.11939693115E+01  0.16289285428E+02  0.00000000000E+00 0. -1.
</event>
<event>
 8    1  0.1229941E-006  0.9118800E+02  0.7816164E-02  0.1184000E+00
        -11   -1    0    0    0    0  0.00000000000E+00  0.00000000000E+00  0.45593999997E+02  0.45594000000E+02  0.51100000000E-03 0. -1.
         11   -1    0    0    0    0 -0.00000000000E+00 -0.00000000000E+00 -0.45593999997E+02  0.45594000000E+02  0.51100000000E-03 0.  1.
         23    2    1    2    0    0  0.35527136788E-14  0.00000000000E+00 -0.35527136788E-14  0.91188000000E+02  0.91188000000E+02 0.  0.
    9900012    2    3    3    0    0 -0.30620187805E+02  0.10087775748E+02 -0.17788302057E+02  0.54367043863E+02  0.39999908094E+02 0.  0.
         12    1    3    3    0    0  0.30620187805E+02 -0.10087775748E+02  0.17788302057E+02  0.36820956137E+02  0.00000000000E+00 0. -1.
         11    1    4    4    0    0 -0.17497880679E+02 -0.54767021946E+01 -0.11970187073E+02  0.21896471725E+02  0.51100000000E-03 0. -1.
        -11    1    4    4    0    0 -0.17891133754E+02  0.82869866019E+01  0.31592935517E+01  0.19968674216E+02  0.51100000000E-03 0.  1.
        -12    1    4    4    0    0  0.47688266275E+01  0.72774913409E+01 -0.89774085356E+01  0.12501897921E+02  0.00000000000E+00 0.  1.
</event>
<event>
 8    1  0.1229941E-006  0.9118800E+02  0.7816164E-02  0.1184000E+00
        -11   -1    0    0    0    0  0.00000000000E+00  0.00000000000E+00  0.45593999997E+02  0.45594000000E+02  0.51100000000E-03 0.  1.
         11   -1    0    0    0    0 -0.00000000000E+00 -0.00000000000E+00 -0.45593999997E+02  0.45594000000E+02  0.51100000000E-03 0. -1.
         23    2    1    2    0    0  0.71054273576E-14  0.00000000000E+00  0.00000000000E+00  0.91188000000E+02  0.91188000000E+02 0.  0.
    9900012    2    3    3    0    0 -0.34788932665E+02 -0.91719532229E+01  0.78349311546E+01  0.54367072417E+02  0.39999973189E+02 0.  0.
         12    1    3    3    0    0  0.34788932665E+02  0.91719532229E+01 -0.78349311546E+01  0.36820927583E+02  0.00000000000E+00 0. -1.
         11    1    4    4    0    0 -0.35810902712E+02 -0.71140621282E+01  0.11167852407E+02  0.38180512839E+02  0.51100000000E-03 0.  1.
        -11    1    4    4    0    0 -0.12099890935E+00 -0.16882261545E+00  0.63002116310E+01  0.63036345602E+01  0.51100000000E-03 0. -1.
        -12    1    4    4    0    0  0.11429689560E+01 -0.18890684793E+01 -0.96331328837E+01  0.98829250179E+01  0.00000000000E+00 0.  1.
</event>
<event>
 8    1  0.1229941E-006  0.9118800E+02  0.7816164E-02  0.1184000E+00
        -11   -1    0    0    0    0  0.00000000000E+00  0.00000000000E+00  0.45593999997E+02  0.45594000000E+02  0.51100000000E-03 0. -1.
         11   -1    0    0    0    0 -0.00000000000E+00 -0.00000000000E+00 -0.45593999997E+02  0.45594000000E+02  0.51100000000E-03 0.  1.
         23    2    1    2    0    0  0.17763568394E-14  0.00000000000E+00  0.66613381478E-15  0.91188000000E+02  0.91188000000E+02 0.  0.
    9900012    2    3    3    0    0  0.97337900356E+01  0.35505277479E+02 -0.63909116730E+00  0.54367084275E+02  0.40000000221E+02 0.  0.
        -12    1    3    3    0    0 -0.97337900356E+01 -0.35505277479E+02  0.63909116730E+00  0.36820915725E+02  0.00000000000E+00 0.  1.
         11    1    4    4    0    0  0.20081046313E+01  0.74865447100E+01  0.36728002558E+01  0.85773129758E+01  0.51100000000E-03 0. -1.
        -11    1    4    4    0    0  0.40328852740E+00 -0.27425348883E+01 -0.12761846892E+02  0.13059436267E+02  0.51100000000E-03 0.  1.
        -12    1    4    4    0    0  0.73223968770E+01  0.30761267657E+02  0.84499554687E+01  0.32730335032E+02  0.00000000000E+00 0.  1.
</event>
<event>
 8    1  0.1229941E-006  0.9118800E+02  0.7816164E-02  0.1184000E+00
        -11   -1    0    0    0    0  0.00000000000E+00  0.00000000000E+00  0.45593999997E+02  0.45594000000E+02  0.51100000000E-03 0. -1.
         11   -1    0    0    0    0 -0.00000000000E+00 -0.00000000000E+00 -0.45593999997E+02  0.45594000000E+02  0.51100000000E-03 0.  1.
         23    2    1    2    0    0  0.34000580129E-15 -0.35527136788E-14 -0.35527136788E-14  0.91188000000E+02  0.91188000000E+02 0.  0.
    9900012    2    3    3    0    0 -0.46210359197E-01  0.24889502557E+02  0.27134618797E+02  0.54367122631E+02  0.40000087662E+02 0.  0.
        -12    1    3    3    0    0  0.46210359197E-01 -0.24889502557E+02 -0.27134618797E+02  0.36820877369E+02  0.00000000000E+00 0.  1.
         11    1    4    4    0    0 -0.50924032169E+01  0.43030842987E+01  0.14125152401E+02  0.15619508175E+02  0.51100000000E-03 0. -1.
        -11    1    4    4    0    0 -0.76784885734E+01  0.19241765950E+02  0.15292435931E+02  0.25750016322E+02  0.51100000000E-03 0.  1.
        -12    1    4    4    0    0  0.12724681431E+02  0.13446523087E+01 -0.22829695346E+01  0.12997598134E+02  0.00000000000E+00 0.  1.
</event>
<event>
 8    1  0.1229941E-006  0.9118800E+02  0.7816164E-02  0.1184000E+00
        -11   -1    0    0    0    0  0.00000000000E+00  0.00000000000E+00  0.45593999997E+02  0.45594000000E+02  0.51100000000E-03 0.  1.
         11   -1    0    0    0    0 -0.00000000000E+00 -0.00000000000E+00 -0.45593999997E+02  0.45594000000E+02  0.51100000000E-03 0. -1.
         23    2    1    2    0    0  0.00000000000E+00  0.00000000000E+00  0.00000000000E+00  0.91188000000E+02  0.91188000000E+02 0.  0.
    9900012    2    3    3    0    0 -0.24905338706E+02 -0.22728981032E+02  0.14795170805E+02  0.54367088089E+02  0.40000008916E+02 0.  0.
         12    1    3    3    0    0  0.24905338706E+02  0.22728981032E+02 -0.14795170805E+02  0.36820911911E+02  0.00000000000E+00 0. -1.
         11    1    4    4    0    0 -0.12459719713E+02 -0.22269055754E+01  0.21827627676E+02  0.25231905477E+02  0.51100000000E-03 0. -1.
        -11    1    4    4    0    0 -0.12657367549E+02 -0.18731122753E+02 -0.76583734382E+00  0.22619690978E+02  0.51100000000E-03 0.  1.
         12    1    4    4    0    0  0.21174855616E+00 -0.17709527039E+01 -0.62666195272E+01  0.65154916337E+01  0.00000000000E+00 0. -1.
</event>
<event>
 8    1  0.1229941E-006  0.9118800E+02  0.7816164E-02  0.1184000E+00
        -11   -1    0    0    0    0  0.00000000000E+00  0.00000000000E+00  0.45593999997E+02  0.45594000000E+02  0.51100000000E-03 0.  1.
         11   -1    0    0    0    0 -0.00000000000E+00 -0.00000000000E+00 -0.45593999997E+02  0.45594000000E+02  0.51100000000E-03 0. -1.
         23    2    1    2    0    0  0.35527136788E-14 -0.35527136788E-14  0.26645352591E-14  0.91188000000E+02  0.91188000000E+02 0.  0.
    9900012    2    3    3    0    0  0.18815588448E+02  0.30824160552E+02 -0.71850677128E+01  0.54367076052E+02  0.39999981476E+02 0.  0.
         12    1    3    3    0    0 -0.18815588448E+02 -0.30824160552E+02  0.71850677128E+01  0.36820923948E+02  0.00000000000E+00 0. -1.
         11    1    4    4    0    0  0.16992987985E+00  0.17277814611E+01  0.71659277056E+01  0.73732370832E+01  0.51100000000E-03 0. -1.
        -11    1    4    4    0    0  0.19375175165E+02  0.16159089838E+02  0.29251365342E+01  0.25398228699E+02  0.51100000000E-03 0.  1.
         12    1    4    4    0    0 -0.72951659689E+00  0.12937289252E+02 -0.17276131953E+02  0.21595610269E+02  0.00000000000E+00 0. -1.
</event>
<event>
 8    1  0.1229941E-006  0.9118800E+02  0.7816164E-02  0.1184000E+00
        -11   -1    0    0    0    0  0.00000000000E+00  0.00000000000E+00  0.45593999997E+02  0.45594000000E+02  0.51100000000E-03 0. -1.
         11   -1    0    0    0    0 -0.00000000000E+00 -0.00000000000E+00 -0.45593999997E+02  0.45594000000E+02  0.51100000000E-03 0.  1.
         23    2    1    2    0    0 -0.17763568394E-14  0.35527136788E-14  0.35527136788E-14  0.91188000000E+02  0.91188000000E+02 0.  0.
    9900012    2    3    3    0    0 -0.11575261946E+02  0.27726584568E+02 -0.21284479962E+02  0.54367091970E+02  0.40000017763E+02 0.  0.
        -12    1    3    3    0    0  0.11575261946E+02 -0.27726584568E+02  0.21284479962E+02  0.36820908030E+02  0.00000000000E+00 0.  1.
         11    1    4    4    0    0 -0.94258841984E+01  0.17033000085E+02 -0.12691476729E+01  0.19508488432E+02  0.51100000000E-03 0. -1.
        -11    1    4    4    0    0  0.27359240925E+01  0.89928495992E+01  0.40561148572E+01  0.10237611662E+02  0.51100000000E-03 0.  1.
        -12    1    4    4    0    0 -0.48853018401E+01  0.17007348838E+01 -0.24071447146E+02  0.24620991875E+02  0.00000000000E+00 0.  1.
</event>
<event>
 8    1  0.1229941E-006  0.9118800E+02  0.7816164E-02  0.1184000E+00
        -11   -1    0    0    0    0  0.00000000000E+00  0.00000000000E+00  0.45593999997E+02  0.45594000000E+02  0.51100000000E-03 0. -1.
         11   -1    0    0    0    0 -0.00000000000E+00 -0.00000000000E+00 -0.45593999997E+02  0.45594000000E+02  0.51100000000E-03 0.  1.
         23    2    1    2    0    0  0.00000000000E+00 -0.17763568394E-14  0.00000000000E+00  0.91188000000E+02  0.91188000000E+02 0.  0.
    9900012    2    3    3    0    0  0.22956960598E+02  0.96905437827E+01 -0.27108144346E+02  0.54367079743E+02  0.39999989890E+02 0.  0.
         12    1    3    3    0    0 -0.22956960598E+02 -0.96905437827E+01  0.27108144346E+02  0.36820920257E+02  0.00000000000E+00 0. -1.
         11    1    4    4    0    0  0.25196503436E+02  0.12096549816E+02 -0.16261047734E+01  0.27997044841E+02  0.51100000000E-03 0. -1.
        -11    1    4    4    0    0  0.19740147433E+00 -0.10616313686E+01 -0.42747815383E+00  0.11613639989E+01  0.51100000000E-03 0.  1.
        -12    1    4    4    0    0 -0.24369443124E+01 -0.13443746646E+01 -0.25054561419E+02  0.25208670903E+02  0.00000000000E+00 0.  1.
</event>
<event>
 8    1  0.1229941E-006  0.9118800E+02  0.7816164E-02  0.1184000E+00
        -11   -1    0    0    0    0  0.00000000000E+00  0.00000000000E+00  0.45593999997E+02  0.45594000000E+02  0.51100000000E-03 0. -1.
         11   -1    0    0    0    0 -0.00000000000E+00 -0.00000000000E+00 -0.45593999997E+02  0.45594000000E+02  0.51100000000E-03 0.  1.
         23    2    1    2    0    0  0.35527136788E-14  0.35527136788E-14  0.44408920985E-15  0.91188000000E+02  0.91188000000E+02 0.  0.
    9900012    2    3    3    0    0 -0.21496715497E+02 -0.29792041360E+02  0.24709104469E+01  0.54367083336E+02  0.39999998080E+02 0.  0.
         12    1    3    3    0    0  0.21496715497E+02  0.29792041360E+02 -0.24709104469E+01  0.36820916664E+02  0.00000000000E+00 0. -1.
         11    1    4    4    0    0  0.31274525531E+01 -0.19130111716E+02 -0.44118957090E+01  0.19879812820E+02  0.51100000000E-03 0. -1.
        -11    1    4    4    0    0 -0.17697544484E+01 -0.82766821302E+01 -0.36407303385E+01  0.92135994894E+01  0.51100000000E-03 0.  1.
         12    1    4    4    0    0 -0.22854413602E+02 -0.23852475134E+01  0.10523536494E+02  0.25273671026E+02  0.00000000000E+00 0. -1.
</event>
<event>
 8    1  0.1229941E-006  0.9118800E+02  0.7816164E-02  0.1184000E+00
        -11   -1    0    0    0    0  0.00000000000E+00  0.00000000000E+00  0.45593999997E+02  0.45594000000E+02  0.51100000000E-03 0.  1.
         11   -1    0    0    0    0 -0.00000000000E+00 -0.00000000000E+00 -0.45593999997E+02  0.45594000000E+02  0.51100000000E-03 0. -1.
         23    2    1    2    0    0  0.00000000000E+00  0.00000000000E+00 -0.17763568394E-14  0.91188000000E+02  0.91188000000E+02 0.  0.
    9900012    2    3    3    0    0  0.34958319995E+02  0.41575249348E+01 -0.10789406208E+02  0.54367076101E+02  0.39999981587E+02 0.  0.
        -12    1    3    3    0    0 -0.34958319995E+02 -0.41575249348E+01  0.10789406208E+02  0.36820923899E+02  0.00000000000E+00 0.  1.
         11    1    4    4    0    0  0.16242001222E+02  0.26878388158E+01 -0.10608007337E+02  0.19584608781E+02  0.51100000000E-03 0. -1.
        -11    1    4    4    0    0  0.25111706116E+02  0.64961780102E+01 -0.31380917372E+01  0.26127489983E+02  0.51100000000E-03 0.  1.
        -12    1    4    4    0    0 -0.63953873425E+01 -0.50264918912E+01  0.29566928657E+01  0.86549773365E+01  0.00000000000E+00 0.  1.
</event>
<event>
 8    1  0.1229941E-006  0.9118800E+02  0.7816164E-02  0.1184000E+00
        -11   -1    0    0    0    0  0.00000000000E+00  0.00000000000E+00  0.45593999997E+02  0.45594000000E+02  0.51100000000E-03 0.  1.
         11   -1    0    0    0    0 -0.00000000000E+00 -0.00000000000E+00 -0.45593999997E+02  0.45594000000E+02  0.51100000000E-03 0. -1.
         23    2    1    2    0    0  0.00000000000E+00  0.35527136788E-14  0.00000000000E+00  0.91188000000E+02  0.91188000000E+02 0.  0.
    9900012    2    3    3    0    0 -0.20597518251E+02 -0.17967296515E+02  0.24671832566E+02  0.54367070838E+02  0.39999969589E+02 0.  0.
         12    1    3    3    0    0  0.20597518251E+02  0.17967296515E+02 -0.24671832566E+02  0.36820929162E+02  0.00000000000E+00 0. -1.
         11    1    4    4    0    0 -0.17051769705E+02 -0.20818080888E+02  0.14855467921E+02  0.30738254169E+02  0.51100000000E-03 0.  1.
        -11    1    4    4    0    0  0.33004873258E+01  0.28209162371E+01 -0.54084092934E+01  0.69355372070E+01  0.51100000000E-03 0. -1.
         12    1    4    4    0    0 -0.68462358719E+01  0.29868135446E-01  0.15224773938E+02  0.16693279462E+02  0.00000000000E+00 0. -1.
</event>
<event>
 8    1  0.1229941E-006  0.9118800E+02  0.7816164E-02  0.1184000E+00
        -11   -1    0    0    0    0  0.00000000000E+00  0.00000000000E+00  0.45593999997E+02  0.45594000000E+02  0.51100000000E-03 0. -1.
         11   -1    0    0    0    0 -0.00000000000E+00 -0.00000000000E+00 -0.45593999997E+02  0.45594000000E+02  0.51100000000E-03 0.  1.
         23    2    1    2    0    0  0.00000000000E+00  0.00000000000E+00 -0.26645352591E-14  0.91188000000E+02  0.91188000000E+02 0.  0.
    9900012    2    3    3    0    0 -0.24439768304E+02 -0.27191599645E+02 -0.43695574979E+01  0.54367103776E+02  0.40000044678E+02 0.  0.
         12    1    3    3    0    0  0.24439768304E+02  0.27191599645E+02  0.43695574979E+01  0.36820896224E+02  0.00000000000E+00 0. -1.
         11    1    4    4    0    0 -0.15637281077E+02 -0.12259984666E+02  0.10117184727E+02  0.22297740032E+02  0.51100000000E-03 0. -1.
        -11    1    4    4    0    0 -0.77173213702E+01 -0.17979097194E+02 -0.25845278948E+01  0.19735368498E+02  0.51100000000E-03 0.  1.
         12    1    4    4    0    0 -0.10851658572E+01  0.30474822147E+01 -0.11902214330E+02  0.12333995247E+02  0.00000000000E+00 0. -1.
</event>
<event>
 8    1  0.1229941E-006  0.9118800E+02  0.7816164E-02  0.1184000E+00
        -11   -1    0    0    0    0  0.00000000000E+00  0.00000000000E+00  0.45593999997E+02  0.45594000000E+02  0.51100000000E-03 0.  1.
         11   -1    0    0    0    0 -0.00000000000E+00 -0.00000000000E+00 -0.45593999997E+02  0.45594000000E+02  0.51100000000E-03 0. -1.
         23    2    1    2    0    0  0.00000000000E+00  0.00000000000E+00  0.00000000000E+00  0.91188000000E+02  0.91188000000E+02 0.  0.
    9900012    2    3    3    0    0  0.94685764919E+01  0.19421029168E+02  0.29815244814E+02  0.54367093737E+02  0.40000021792E+02 0.  0.
         12    1    3    3    0    0 -0.94685764919E+01 -0.19421029168E+02 -0.29815244814E+02  0.36820906263E+02  0.00000000000E+00 0. -1.
         11    1    4    4    0    0  0.18971741513E+01  0.35568938047E+01  0.20285356542E+02  0.20682032144E+02  0.51100000000E-03 0. -1.
        -11    1    4    4    0    0 -0.76028403853E+01  0.16451653437E+01  0.10262018566E+02  0.12877063960E+02  0.51100000000E-03 0.  1.
        -12    1    4    4    0    0  0.15174242726E+02  0.14218970020E+02 -0.73213029360E+00  0.20807997633E+02  0.00000000000E+00 0.  1.
</event>
<event>
 8    1  0.1229941E-006  0.9118800E+02  0.7816164E-02  0.1184000E+00
        -11   -1    0    0    0    0  0.00000000000E+00  0.00000000000E+00  0.45593999997E+02  0.45594000000E+02  0.51100000000E-03 0.  1.
         11   -1    0    0    0    0 -0.00000000000E+00 -0.00000000000E+00 -0.45593999997E+02  0.45594000000E+02  0.51100000000E-03 0. -1.
         23    2    1    2    0    0  0.35527136788E-14 -0.35527136788E-14  0.00000000000E+00  0.91188000000E+02  0.91188000000E+02 0.  0.
    9900012    2    3    3    0    0  0.22412922158E+02 -0.21062583906E+02 -0.20243714954E+02  0.54367088610E+02  0.40000010104E+02 0.  0.
        -12    1    3    3    0    0 -0.22412922158E+02  0.21062583906E+02  0.20243714954E+02  0.36820911390E+02  0.00000000000E+00 0.  1.
         11    1    4    4    0    0  0.16299975462E+02  0.34783396101E+01 -0.42956758334E+01  0.17211649475E+02  0.51100000000E-03 0. -1.
        -11    1    4    4    0    0  0.42950736109E+01 -0.21687950807E+02 -0.21380256009E+02  0.30755978521E+02  0.51100000000E-03 0.  1.
        -12    1    4    4    0    0  0.18178730842E+01 -0.28529727099E+01  0.54322168879E+01  0.63994606140E+01  0.00000000000E+00 0.  1.
</event>
<event>
 8    1  0.1229941E-006  0.9118800E+02  0.7816164E-02  0.1184000E+00
        -11   -1    0    0    0    0  0.00000000000E+00  0.00000000000E+00  0.45593999997E+02  0.45594000000E+02  0.51100000000E-03 0.  1.
         11   -1    0    0    0    0 -0.00000000000E+00 -0.00000000000E+00 -0.45593999997E+02  0.45594000000E+02  0.51100000000E-03 0. -1.
         23    2    1    2    0    0 -0.71054273576E-14  0.00000000000E+00  0.35527136788E-14  0.91188000000E+02  0.91188000000E+02 0.  0.
    9900012    2    3    3    0    0  0.34171891843E+02 -0.22987281326E+01 -0.13519510565E+02  0.54367088699E+02  0.40000010306E+02 0.  0.
         12    1    3    3    0    0 -0.34171891843E+02  0.22987281326E+01  0.13519510565E+02  0.36820911301E+02  0.00000000000E+00 0. -1.
         11    1    4    4    0    0  0.31219309541E+02 -0.83333112804E+00 -0.15223149246E+02  0.34743114458E+02  0.51100000000E-03 0. -1.
        -11    1    4    4    0    0  0.85923012420E+01 -0.74166799849E+01  0.93487651377E+00  0.11388976117E+02  0.51100000000E-03 0.  1.
        -12    1    4    4    0    0 -0.56397189405E+01  0.59512829803E+01  0.76876216653E+00  0.82349981244E+01  0.00000000000E+00 0.  1.
</event>
<event>
 8    1  0.1229941E-006  0.9118800E+02  0.7816164E-02  0.1184000E+00
        -11   -1    0    0    0    0  0.00000000000E+00  0.00000000000E+00  0.45593999997E+02  0.45594000000E+02  0.51100000000E-03 0. -1.
         11   -1    0    0    0    0 -0.00000000000E+00 -0.00000000000E+00 -0.45593999997E+02  0.45594000000E+02  0.51100000000E-03 0.  1.
         23    2    1    2    0    0  0.00000000000E+00 -0.88817841970E-15  0.00000000000E+00  0.91188000000E+02  0.91188000000E+02 0.  0.
    9900012    2    3    3    0    0  0.10119088755E+02 -0.49170571115E+01  0.35060052704E+02  0.54367072479E+02  0.39999973331E+02 0.  0.
        -12    1    3    3    0    0 -0.10119088755E+02  0.49170571115E+01 -0.35060052704E+02  0.36820927521E+02  0.00000000000E+00 0.  1.
         11    1    4    4    0    0  0.10713568570E+02 -0.40273192259E+00  0.22477907893E+02  0.24903796658E+02  0.51100000000E-03 0. -1.
        -11    1    4    4    0    0  0.12329387625E+00  0.84527391319E+01 -0.31872558696E+01  0.90345227019E+01  0.51100000000E-03 0.  1.
         12    1    4    4    0    0 -0.71777369083E+00 -0.12967064321E+02  0.15769400681E+02  0.20428753119E+02  0.00000000000E+00 0. -1.
</event>
<event>
 8    1  0.1229941E-006  0.9118800E+02  0.7816164E-02  0.1184000E+00
        -11   -1    0    0    0    0  0.00000000000E+00  0.00000000000E+00  0.45593999997E+02  0.45594000000E+02  0.51100000000E-03 0.  1.
         11   -1    0    0    0    0 -0.00000000000E+00 -0.00000000000E+00 -0.45593999997E+02  0.45594000000E+02  0.51100000000E-03 0. -1.
         23    2    1    2    0    0  0.35527136788E-14 -0.35527136788E-14  0.00000000000E+00  0.91188000000E+02  0.91188000000E+02 0.  0.
    9900012    2    3    3    0    0  0.20011574295E+02  0.22976885610E+02  0.20673168662E+02  0.54367078221E+02  0.39999986421E+02 0.  0.
         12    1    3    3    0    0 -0.20011574295E+02 -0.22976885610E+02 -0.20673168662E+02  0.36820921779E+02  0.00000000000E+00 0. -1.
         11    1    4    4    0    0  0.24949960887E+02  0.11041113008E+01  0.10668034114E+02  0.27157440272E+02  0.51100000000E-03 0. -1.
        -11    1    4    4    0    0 -0.15303111408E+00 -0.14474838270E+01  0.22519257472E+00  0.14728679195E+01  0.51100000000E-03 0.  1.
        -12    1    4    4    0    0 -0.47853554774E+01  0.23320258136E+02  0.97799419735E+01  0.25736770030E+02  0.00000000000E+00 0.  1.
</event>
<event>
 8    1  0.1229941E-006  0.9118800E+02  0.7816164E-02  0.1184000E+00
        -11   -1    0    0    0    0  0.00000000000E+00  0.00000000000E+00  0.45593999997E+02  0.45594000000E+02  0.51100000000E-03 0.  1.
         11   -1    0    0    0    0 -0.00000000000E+00 -0.00000000000E+00 -0.45593999997E+02  0.45594000000E+02  0.51100000000E-03 0. -1.
         23    2    1    2    0    0 -0.17763568394E-14  0.00000000000E+00 -0.35527136788E-14  0.91188000000E+02  0.91188000000E+02 0.  0.
    9900012    2    3    3    0    0  0.84149931273E+01 -0.31571927045E+02  0.16975900028E+02  0.54367083819E+02  0.39999999182E+02 0.  0.
         12    1    3    3    0    0 -0.84149931273E+01  0.31571927045E+02 -0.16975900028E+02  0.36820916181E+02  0.00000000000E+00 0. -1.
         11    1    4    4    0    0  0.14657803887E+02 -0.26820388875E+02  0.99682532281E+01  0.32148880958E+02  0.51100000000E-03 0.  1.
        -11    1    4    4    0    0 -0.12533563866E+02 -0.70010749209E+01  0.40866540557E+01  0.14926688007E+02  0.51100000000E-03 0. -1.
         12    1    4    4    0    0  0.62907531068E+01  0.22495367508E+01  0.29209927437E+01  0.72915148531E+01  0.00000000000E+00 0. -1.
</event>
<event>
 8    1  0.1229941E-006  0.9118800E+02  0.7816164E-02  0.1184000E+00
        -11   -1    0    0    0    0  0.00000000000E+00  0.00000000000E+00  0.45593999997E+02  0.45594000000E+02  0.51100000000E-03 0.  1.
         11   -1    0    0    0    0 -0.00000000000E+00 -0.00000000000E+00 -0.45593999997E+02  0.45594000000E+02  0.51100000000E-03 0. -1.
         23    2    1    2    0    0  0.00000000000E+00  0.00000000000E+00  0.00000000000E+00  0.91188000000E+02  0.91188000000E+02 0.  0.
    9900012    2    3    3    0    0  0.22974589158E+02 -0.22921074125E+02 -0.17394696520E+02  0.54367043290E+02  0.39999906789E+02 0.  0.
        -12    1    3    3    0    0 -0.22974589158E+02  0.22921074125E+02  0.17394696520E+02  0.36820956710E+02  0.00000000000E+00 0.  1.
         11    1    4    4    0    0 -0.75143516766E+01 -0.16246689409E+02 -0.17952332448E+01  0.17990087841E+02  0.51100000000E-03 0. -1.
        -11    1    4    4    0    0  0.28398960809E+02 -0.57739155697E+01 -0.17102037220E+02  0.33649944330E+02  0.51100000000E-03 0.  1.
        -12    1    4    4    0    0  0.20899800249E+01 -0.90046914660E+00  0.15025739446E+01  0.27270111198E+01  0.00000000000E+00 0.  1.
</event>
<event>
 8    1  0.1229941E-006  0.9118800E+02  0.7816164E-02  0.1184000E+00
        -11   -1    0    0    0    0  0.00000000000E+00  0.00000000000E+00  0.45593999997E+02  0.45594000000E+02  0.51100000000E-03 0.  1.
         11   -1    0    0    0    0 -0.00000000000E+00 -0.00000000000E+00 -0.45593999997E+02  0.45594000000E+02  0.51100000000E-03 0. -1.
         23    2    1    2    0    0  0.35527136788E-14 -0.88817841970E-15  0.35527136788E-14  0.91188000000E+02  0.91188000000E+02 0.  0.
    9900012    2    3    3    0    0  0.19453053444E+02 -0.52086827974E+01  0.30825765904E+02  0.54367088709E+02  0.40000010329E+02 0.  0.
         12    1    3    3    0    0 -0.19453053444E+02  0.52086827974E+01 -0.30825765904E+02  0.36820911291E+02  0.00000000000E+00 0. -1.
         11    1    4    4    0    0  0.19985877637E+02 -0.87774117689E+01  0.12444963422E+02  0.25126786048E+02  0.51100000000E-03 0. -1.
        -11    1    4    4    0    0 -0.10884241970E+02 -0.96953611232E-01  0.51368963057E+01  0.12035938982E+02  0.51100000000E-03 0.  1.
        -12    1    4    4    0    0  0.10351417777E+02  0.36656825827E+01  0.13243906176E+02  0.17204363679E+02  0.00000000000E+00 0.  1.
</event>
<event>
 8    1  0.1229941E-006  0.9118800E+02  0.7816164E-02  0.1184000E+00
        -11   -1    0    0    0    0  0.00000000000E+00  0.00000000000E+00  0.45593999997E+02  0.45594000000E+02  0.51100000000E-03 0.  1.
         11   -1    0    0    0    0 -0.00000000000E+00 -0.00000000000E+00 -0.45593999997E+02  0.45594000000E+02  0.51100000000E-03 0. -1.
         23    2    1    2    0    0 -0.35527136788E-14  0.17763568394E-14  0.00000000000E+00  0.91188000000E+02  0.91188000000E+02 0.  0.
    9900012    2    3    3    0    0 -0.27677034370E+02  0.15590231155E+02  0.18620394139E+02  0.54366910705E+02  0.39999604533E+02 0.  0.
         12    1    3    3    0    0  0.27677034370E+02 -0.15590231155E+02 -0.18620394139E+02  0.36821089295E+02  0.00000000000E+00 0. -1.
         11    1    4    4    0    0 -0.10557802954E+02  0.16717593511E+01  0.27519667955E+01  0.11037903064E+02  0.51100000000E-03 0. -1.
        -11    1    4    4    0    0  0.27773527693E+01  0.18426553701E+02  0.21809547585E+01  0.18761879800E+02  0.51100000000E-03 0.  1.
        -12    1    4    4    0    0 -0.19896584185E+02 -0.45080818975E+01  0.13687472584E+02  0.24567127842E+02  0.00000000000E+00 0.  1.
</event>
<event>
 8    1  0.1229941E-006  0.9118800E+02  0.7816164E-02  0.1184000E+00
        -11   -1    0    0    0    0  0.00000000000E+00  0.00000000000E+00  0.45593999997E+02  0.45594000000E+02  0.51100000000E-03 0. -1.
         11   -1    0    0    0    0 -0.00000000000E+00 -0.00000000000E+00 -0.45593999997E+02  0.45594000000E+02  0.51100000000E-03 0.  1.
         23    2    1    2    0    0  0.71054273576E-14 -0.88817841970E-15 -0.11102230246E-15  0.91188000000E+02  0.91188000000E+02 0.  0.
    9900012    2    3    3    0    0  0.36495750630E+02  0.47887763078E+01  0.95331044142E+00  0.54367068543E+02  0.39999964357E+02 0.  0.
        -12    1    3    3    0    0 -0.36495750630E+02 -0.47887763078E+01 -0.95331044142E+00  0.36820931457E+02  0.00000000000E+00 0.  1.
         11    1    4    4    0    0 -0.10539733217E+01  0.88811257236E+01  0.86010530730E+00  0.89847111964E+01  0.51100000000E-03 0. -1.
        -11    1    4    4    0    0 -0.10453860488E+01  0.28001048291E+01 -0.50222216971E+01  0.58443246043E+01  0.51100000000E-03 0.  1.
         12    1    4    4    0    0  0.38595110000E+02 -0.68924542449E+01  0.51154268312E+01  0.39538032742E+02  0.00000000000E+00 0. -1.
</event>
<event>
 8    1  0.1229941E-006  0.9118800E+02  0.7816164E-02  0.1184000E+00
        -11   -1    0    0    0    0  0.00000000000E+00  0.00000000000E+00  0.45593999997E+02  0.45594000000E+02  0.51100000000E-03 0.  1.
         11   -1    0    0    0    0 -0.00000000000E+00 -0.00000000000E+00 -0.45593999997E+02  0.45594000000E+02  0.51100000000E-03 0. -1.
         23    2    1    2    0    0  0.35527136788E-14  0.00000000000E+00  0.00000000000E+00  0.91188000000E+02  0.91188000000E+02 0.  0.
    9900012    2    3    3    0    0  0.29420023078E+02  0.10327460393E+02  0.19585340419E+02  0.54367085354E+02  0.40000002681E+02 0.  0.
         12    1    3    3    0    0 -0.29420023078E+02 -0.10327460393E+02 -0.19585340419E+02  0.36820914646E+02  0.00000000000E+00 0. -1.
         11    1    4    4    0    0  0.76929221663E+01 -0.12449854004E+02  0.71792179620E+01  0.16300953561E+02  0.51100000000E-03 0. -1.
        -11    1    4    4    0    0  0.22837745052E+02  0.13611182148E+02  0.75691249936E+01  0.27642694007E+02  0.51100000000E-03 0.  1.
        -12    1    4    4    0    0 -0.11106441405E+01  0.91661322488E+01  0.48369974631E+01  0.10423437785E+02  0.00000000000E+00 0.  1.
</event>
<event>
 8    1  0.1229941E-006  0.9118800E+02  0.7816164E-02  0.1184000E+00
        -11   -1    0    0    0    0  0.00000000000E+00  0.00000000000E+00  0.45593999997E+02  0.45594000000E+02  0.51100000000E-03 0.  1.
         11   -1    0    0    0    0 -0.00000000000E+00 -0.00000000000E+00 -0.45593999997E+02  0.45594000000E+02  0.51100000000E-03 0. -1.
         23    2    1    2    0    0 -0.17763568394E-14  0.00000000000E+00  0.00000000000E+00  0.91188000000E+02  0.91188000000E+02 0.  0.
    9900012    2    3    3    0    0 -0.13394349264E+02 -0.32314638181E+02 -0.11495031972E+02  0.54367079411E+02  0.39999989133E+02 0.  0.
        -12    1    3    3    0    0  0.13394349264E+02  0.32314638181E+02  0.11495031972E+02  0.36820920589E+02  0.00000000000E+00 0.  1.
         11    1    4    4    0    0 -0.11834514511E+02 -0.14066667102E+02 -0.62646384089E+01  0.19420930763E+02  0.51100000000E-03 0. -1.
        -11    1    4    4    0    0  0.15470940451E+01 -0.16595831859E+02 -0.16310590242E+02  0.23320602252E+02  0.51100000000E-03 0.  1.
         12    1    4    4    0    0 -0.31069287987E+01 -0.16521392202E+01  0.11080196679E+02  0.11625546396E+02  0.00000000000E+00 0. -1.
</event>
<event>
 8    1  0.1229941E-006  0.9118800E+02  0.7816164E-02  0.1184000E+00
        -11   -1    0    0    0    0  0.00000000000E+00  0.00000000000E+00  0.45593999997E+02  0.45594000000E+02  0.51100000000E-03 0.  1.
         11   -1    0    0    0    0 -0.00000000000E+00 -0.00000000000E+00 -0.45593999997E+02  0.45594000000E+02  0.51100000000E-03 0. -1.
         23    2    1    2    0    0  0.35527136788E-14  0.00000000000E+00  0.00000000000E+00  0.91188000000E+02  0.91188000000E+02 0.  0.
    9900012    2    3    3    0    0 -0.18781636893E+02 -0.30615882093E+02  0.81053828166E+01  0.54367090841E+02  0.40000015190E+02 0.  0.
         12    1    3    3    0    0  0.18781636893E+02  0.30615882093E+02 -0.81053828166E+01  0.36820909159E+02  0.00000000000E+00 0. -1.
         11    1    4    4    0    0 -0.42027869284E+01 -0.25532139442E+02 -0.46425266257E+01  0.26288906714E+02  0.51100000000E-03 0. -1.
        -11    1    4    4    0    0 -0.17228717285E+02 -0.58067554438E+01  0.15717517359E+02  0.24033049334E+02  0.51100000000E-03 0.  1.
         12    1    4    4    0    0  0.26498673202E+01  0.72301279374E+00 -0.29696079170E+01  0.40451347932E+01  0.00000000000E+00 0. -1.
</event>
<event>
 8    1  0.1229941E-006  0.9118800E+02  0.7816164E-02  0.1184000E+00
        -11   -1    0    0    0    0  0.00000000000E+00  0.00000000000E+00  0.45593999997E+02  0.45594000000E+02  0.51100000000E-03 0.  1.
         11   -1    0    0    0    0 -0.00000000000E+00 -0.00000000000E+00 -0.45593999997E+02  0.45594000000E+02  0.51100000000E-03 0. -1.
         23    2    1    2    0    0  0.00000000000E+00  0.00000000000E+00  0.00000000000E+00  0.91188000000E+02  0.91188000000E+02 0.  0.
    9900012    2    3    3    0    0 -0.34619872343E+02  0.12187895449E+02  0.29488215447E+01  0.54367137639E+02  0.40000121874E+02 0.  0.
         12    1    3    3    0    0  0.34619872343E+02 -0.12187895449E+02 -0.29488215447E+01  0.36820862361E+02  0.00000000000E+00 0. -1.
         11    1    4    4    0    0 -0.82178971970E+01  0.24785191330E+01  0.11112208903E+02  0.14041299028E+02  0.51100000000E-03 0. -1.
        -11    1    4    4    0    0 -0.30567829731E+02  0.72943552859E+01 -0.68777589335E+00  0.31433626413E+02  0.51100000000E-03 0.  1.
         12    1    4    4    0    0  0.41658545850E+01  0.24150210298E+01 -0.74756114647E+01  0.88922121977E+01  0.00000000000E+00 0. -1.
</event>
<event>
 8    1  0.1229941E-006  0.9118800E+02  0.7816164E-02  0.1184000E+00
        -11   -1    0    0    0    0  0.00000000000E+00  0.00000000000E+00  0.45593999997E+02  0.45594000000E+02  0.51100000000E-03 0.  1.
         11   -1    0    0    0    0 -0.00000000000E+00 -0.00000000000E+00 -0.45593999997E+02  0.45594000000E+02  0.51100000000E-03 0. -1.
         23    2    1    2    0    0  0.17763568394E-14  0.88817841970E-15  0.00000000000E+00  0.91188000000E+02  0.91188000000E+02 0.  0.
    9900012    2    3    3    0    0 -0.13800498241E+02 -0.50526353746E+01  0.33760941483E+02  0.54367027094E+02  0.39999869866E+02 0.  0.
         12    1    3    3    0    0  0.13800498241E+02  0.50526353746E+01 -0.33760941483E+02  0.36820972906E+02  0.00000000000E+00 0. -1.
         11    1    4    4    0    0 -0.14869877330E+02  0.14429784874E+02  0.10762453086E+02  0.23348711742E+02  0.51100000000E-03 0. -1.
        -11    1    4    4    0    0  0.37269813729E+01 -0.66296159314E+01  0.98002407767E+01  0.12405116569E+02  0.51100000000E-03 0.  1.
         12    1    4    4    0    0 -0.26576022844E+01 -0.12852804317E+02  0.13198247620E+02  0.18613198783E+02  0.00000000000E+00 0. -1.
</event>
<event>
 8    1  0.1229941E-006  0.9118800E+02  0.7816164E-02  0.1184000E+00
        -11   -1    0    0    0    0  0.00000000000E+00  0.00000000000E+00  0.45593999997E+02  0.45594000000E+02  0.51100000000E-03 0. -1.
         11   -1    0    0    0    0 -0.00000000000E+00 -0.00000000000E+00 -0.45593999997E+02  0.45594000000E+02  0.51100000000E-03 0.  1.
         23    2    1    2    0    0  0.00000000000E+00 -0.17763568394E-14  0.00000000000E+00  0.91188000000E+02  0.91188000000E+02 0.  0.
    9900012    2    3    3    0    0  0.19637351077E+02  0.83281181268E+01 -0.30013293418E+02  0.54367069938E+02  0.39999967537E+02 0.  0.
         12    1    3    3    0    0 -0.19637351077E+02 -0.83281181268E+01  0.30013293418E+02  0.36820930062E+02  0.00000000000E+00 0. -1.
         11    1    4    4    0    0 -0.44992235105E+01 -0.86077491837E+01 -0.74368652673E-01  0.97129752993E+01  0.51100000000E-03 0. -1.
        -11    1    4    4    0    0  0.42362738926E+01  0.11232019007E+02 -0.76510630847E+01  0.14235274288E+02  0.51100000000E-03 0.  1.
        -12    1    4    4    0    0  0.19900300695E+02  0.57038483030E+01 -0.22287861680E+02  0.30418820350E+02  0.00000000000E+00 0.  1.
</event>
<event>
 8    1  0.1229941E-006  0.9118800E+02  0.7816164E-02  0.1184000E+00
        -11   -1    0    0    0    0  0.00000000000E+00  0.00000000000E+00  0.45593999997E+02  0.45594000000E+02  0.51100000000E-03 0. -1.
         11   -1    0    0    0    0 -0.00000000000E+00 -0.00000000000E+00 -0.45593999997E+02  0.45594000000E+02  0.51100000000E-03 0.  1.
         23    2    1    2    0    0 -0.17763568394E-14  0.00000000000E+00 -0.71054273576E-14  0.91188000000E+02  0.91188000000E+02 0.  0.
    9900012    2    3    3    0    0  0.12901891132E+02 -0.90812250407E+01  0.33269394130E+02  0.54367081641E+02  0.39999994217E+02 0.  0.
        -12    1    3    3    0    0 -0.12901891132E+02  0.90812250407E+01 -0.33269394130E+02  0.36820918359E+02  0.00000000000E+00 0.  1.
         11    1    4    4    0    0  0.21204793001E+02 -0.12239344628E+02  0.22505789551E+02  0.33255907246E+02  0.51100000000E-03 0. -1.
        -11    1    4    4    0    0  0.15557352637E+01  0.24238756354E+01 -0.30041327819E+01  0.41617663725E+01  0.51100000000E-03 0.  1.
        -12    1    4    4    0    0 -0.98586371328E+01  0.73424395216E+00  0.13767737361E+02  0.16949408023E+02  0.00000000000E+00 0.  1.
</event>
<event>
 8    1  0.1229941E-006  0.9118800E+02  0.7816164E-02  0.1184000E+00
        -11   -1    0    0    0    0  0.00000000000E+00  0.00000000000E+00  0.45593999997E+02  0.45594000000E+02  0.51100000000E-03 0.  1.
         11   -1    0    0    0    0 -0.00000000000E+00 -0.00000000000E+00 -0.45593999997E+02  0.45594000000E+02  0.51100000000E-03 0. -1.
         23    2    1    2    0    0 -0.22204460493E-14  0.00000000000E+00 -0.71054273576E-14  0.91188000000E+02  0.91188000000E+02 0.  0.
    9900012    2    3    3    0    0 -0.41201066585E+00 -0.58985759445E+01  0.36343032759E+02  0.54367095868E+02  0.40000026651E+02 0.  0.
         12    1    3    3    0    0  0.41201066585E+00  0.58985759445E+01 -0.36343032759E+02  0.36820904132E+02  0.00000000000E+00 0. -1.
         11    1    4    4    0    0 -0.15432477024E+02 -0.65852657578E+01  0.18858686340E+02  0.25242367618E+02  0.51100000000E-03 0. -1.
        -11    1    4    4    0    0  0.46932296040E+01 -0.64842047066E+01  0.53635304893E+00  0.80224054776E+01  0.51100000000E-03 0.  1.
         12    1    4    4    0    0  0.10327236754E+02  0.71708945199E+01  0.16947993369E+02  0.21102322773E+02  0.00000000000E+00 0. -1.
</event>
<event>
 8    1  0.1229941E-006  0.9118800E+02  0.7816164E-02  0.1184000E+00
        -11   -1    0    0    0    0  0.00000000000E+00  0.00000000000E+00  0.45593999997E+02  0.45594000000E+02  0.51100000000E-03 0.  1.
         11   -1    0    0    0    0 -0.00000000000E+00 -0.00000000000E+00 -0.45593999997E+02  0.45594000000E+02  0.51100000000E-03 0. -1.
         23    2    1    2    0    0  0.35527136788E-14  0.35527136788E-14  0.00000000000E+00  0.91188000000E+02  0.91188000000E+02 0.  0.
    9900012    2    3    3    0    0  0.23719919979E+02  0.25834652058E+02 -0.11212341545E+02  0.54367075872E+02  0.39999981065E+02 0.  0.
        -12    1    3    3    0    0 -0.23719919979E+02 -0.25834652058E+02  0.11212341545E+02  0.36820924128E+02  0.00000000000E+00 0.  1.
         11    1    4    4    0    0 -0.12228755323E+01  0.46258216554E+00  0.21790949689E+01  0.25412323727E+01  0.51100000000E-03 0. -1.
        -11    1    4    4    0    0  0.11785875779E+02  0.50475894096E+01  0.11412123620E+02  0.17164544634E+02  0.51100000000E-03 0.  1.
         12    1    4    4    0    0  0.13156919732E+02  0.20324480482E+02 -0.24803560133E+02  0.34661298865E+02  0.00000000000E+00 0. -1.
</event>
<event>
 8    1  0.1229941E-006  0.9118800E+02  0.7816164E-02  0.1184000E+00
        -11   -1    0    0    0    0  0.00000000000E+00  0.00000000000E+00  0.45593999997E+02  0.45594000000E+02  0.51100000000E-03 0. -1.
         11   -1    0    0    0    0 -0.00000000000E+00 -0.00000000000E+00 -0.45593999997E+02  0.45594000000E+02  0.51100000000E-03 0.  1.
         23    2    1    2    0    0  0.44408920985E-15  0.00000000000E+00 -0.44408920985E-15  0.91188000000E+02  0.91188000000E+02 0.  0.
    9900012    2    3    3    0    0 -0.21375396780E+01  0.36558370475E+02 -0.38335132767E+01  0.54367090836E+02  0.40000015178E+02 0.  0.
         12    1    3    3    0    0  0.21375396780E+01 -0.36558370475E+02  0.38335132767E+01  0.36820909164E+02  0.00000000000E+00 0. -1.
         11    1    4    4    0    0 -0.25853039534E+01  0.21717963687E+02  0.91703554306E+01  0.23716010673E+02  0.51100000000E-03 0. -1.
        -11    1    4    4    0    0 -0.94042589821E+01  0.54765591857E+01  0.12514812001E+01  0.10954405186E+02  0.51100000000E-03 0.  1.
         12    1    4    4    0    0  0.98520232574E+01  0.93638476018E+01 -0.14255349907E+02  0.19696674977E+02  0.00000000000E+00 0. -1.
</event>
<event>
 8    1  0.1229941E-006  0.9118800E+02  0.7816164E-02  0.1184000E+00
        -11   -1    0    0    0    0  0.00000000000E+00  0.00000000000E+00  0.45593999997E+02  0.45594000000E+02  0.51100000000E-03 0. -1.
         11   -1    0    0    0    0 -0.00000000000E+00 -0.00000000000E+00 -0.45593999997E+02  0.45594000000E+02  0.51100000000E-03 0.  1.
         23    2    1    2    0    0  0.00000000000E+00 -0.35527136788E-14 -0.35527136788E-14  0.91188000000E+02  0.91188000000E+02 0.  0.
    9900012    2    3    3    0    0 -0.43344869729E+01  0.21287927379E+02 -0.29729033948E+02  0.54367094404E+02  0.40000023314E+02 0.  0.
         12    1    3    3    0    0  0.43344869729E+01 -0.21287927379E+02  0.29729033948E+02  0.36820905596E+02  0.00000000000E+00 0. -1.
         11    1    4    4    0    0  0.23610971193E+01  0.10243112008E+02  0.22109309897E+01  0.10741710260E+02  0.51100000000E-03 0. -1.
        -11    1    4    4    0    0  0.71549430410E+01  0.67382318574E+00 -0.23105832171E+02  0.24197659560E+02  0.51100000000E-03 0.  1.
        -12    1    4    4    0    0 -0.13850527133E+02  0.10370992185E+02 -0.88341327663E+01  0.19427724584E+02  0.00000000000E+00 0.  1.
</event>
<event>
 8    1  0.1229941E-006  0.9118800E+02  0.7816164E-02  0.1184000E+00
        -11   -1    0    0    0    0  0.00000000000E+00  0.00000000000E+00  0.45593999997E+02  0.45594000000E+02  0.51100000000E-03 0.  1.
         11   -1    0    0    0    0 -0.00000000000E+00 -0.00000000000E+00 -0.45593999997E+02  0.45594000000E+02  0.51100000000E-03 0. -1.
         23    2    1    2    0    0  0.17763568394E-14  0.00000000000E+00 -0.35527136788E-14  0.91188000000E+02  0.91188000000E+02 0.  0.
    9900012    2    3    3    0    0 -0.12080013752E+02 -0.28176891557E+02  0.20394030658E+02  0.54367076104E+02  0.39999981595E+02 0.  0.
         12    1    3    3    0    0  0.12080013752E+02  0.28176891557E+02 -0.20394030658E+02  0.36820923896E+02  0.00000000000E+00 0. -1.
         11    1    4    4    0    0  0.76141950685E+01  0.15970313283E+00 -0.32604050634E+01  0.82844259349E+01  0.51100000000E-03 0. -1.
        -11    1    4    4    0    0  0.14913412171E+01 -0.43006925959E+01  0.10506170677E+02  0.11449876768E+02  0.51100000000E-03 0.  1.
         12    1    4    4    0    0 -0.21185550037E+02 -0.24035902094E+02  0.13148265044E+02  0.34632773402E+02  0.00000000000E+00 0. -1.
</event>
<event>
 8    1  0.1229941E-006  0.9118800E+02  0.7816164E-02  0.1184000E+00
        -11   -1    0    0    0    0  0.00000000000E+00  0.00000000000E+00  0.45593999997E+02  0.45594000000E+02  0.51100000000E-03 0.  1.
         11   -1    0    0    0    0 -0.00000000000E+00 -0.00000000000E+00 -0.45593999997E+02  0.45594000000E+02  0.51100000000E-03 0. -1.
         23    2    1    2    0    0 -0.88817841970E-15 -0.71054273576E-14 -0.88817841970E-15  0.91188000000E+02  0.91188000000E+02 0.  0.
    9900012    2    3    3    0    0  0.79321252047E+01 -0.35727051585E+02 -0.40546232600E+01  0.54367071237E+02  0.39999970499E+02 0.  0.
        -12    1    3    3    0    0 -0.79321252047E+01  0.35727051585E+02  0.40546232600E+01  0.36820928763E+02  0.00000000000E+00 0.  1.
         11    1    4    4    0    0  0.68110060852E+01 -0.49848880793E+01  0.21821373818E+01  0.87178344140E+01  0.51100000000E-03 0. -1.
        -11    1    4    4    0    0 -0.31451803000E+01  0.33989646490E+01 -0.10016896991E+02  0.11035549166E+02  0.51100000000E-03 0.  1.
        -12    1    4    4    0    0  0.42662994195E+01 -0.34141128154E+02  0.37801363494E+01  0.34613687657E+02  0.00000000000E+00 0.  1.
</event>
<event>
 8    1  0.1229941E-006  0.9118800E+02  0.7816164E-02  0.1184000E+00
        -11   -1    0    0    0    0  0.00000000000E+00  0.00000000000E+00  0.45593999997E+02  0.45594000000E+02  0.51100000000E-03 0.  1.
         11   -1    0    0    0    0 -0.00000000000E+00 -0.00000000000E+00 -0.45593999997E+02  0.45594000000E+02  0.51100000000E-03 0. -1.
         23    2    1    2    0    0 -0.44408920985E-15  0.71054273576E-14 -0.88817841970E-15  0.91188000000E+02  0.91188000000E+02 0.  0.
    9900012    2    3    3    0    0  0.34112935560E+01  0.35916432209E+02  0.73595717236E+01  0.54366941864E+02  0.39999675565E+02 0.  0.
        -12    1    3    3    0    0 -0.34112935560E+01 -0.35916432209E+02 -0.73595717236E+01  0.36821058136E+02  0.00000000000E+00 0.  1.
         11    1    4    4    0    0  0.65941022387E+01  0.27946642371E+02 -0.38155635095E+01  0.28966455242E+02  0.51100000000E-03 0.  1.
        -11    1    4    4    0    0 -0.20048860274E+01 -0.70963509398E+01  0.17128975466E+01  0.75704546039E+01  0.51100000000E-03 0. -1.
        -12    1    4    4    0    0 -0.11779226554E+01  0.15066140777E+02  0.94622376866E+01  0.17830032017E+02  0.00000000000E+00 0.  1.
</event>
<event>
 8    1  0.1229941E-006  0.9118800E+02  0.7816164E-02  0.1184000E+00
        -11   -1    0    0    0    0  0.00000000000E+00  0.00000000000E+00  0.45593999997E+02  0.45594000000E+02  0.51100000000E-03 0.  1.
         11   -1    0    0    0    0 -0.00000000000E+00 -0.00000000000E+00 -0.45593999997E+02  0.45594000000E+02  0.51100000000E-03 0. -1.
         23    2    1    2    0    0  0.00000000000E+00  0.00000000000E+00 -0.35527136788E-14  0.91188000000E+02  0.91188000000E+02 0.  0.
    9900012    2    3    3    0    0  0.19324669867E+02  0.20211686705E+02 -0.23954636376E+02  0.54367085443E+02  0.40000002883E+02 0.  0.
        -12    1    3    3    0    0 -0.19324669867E+02 -0.20211686705E+02  0.23954636376E+02  0.36820914557E+02  0.00000000000E+00 0.  1.
         11    1    4    4    0    0  0.10245521055E+01  0.48491271378E+01 -0.20080590731E+02  0.20683178319E+02  0.51100000000E-03 0. -1.
        -11    1    4    4    0    0  0.94483686278E+01 -0.36426188430E+01 -0.72423823979E+01  0.12449596171E+02  0.51100000000E-03 0.  1.
        -12    1    4    4    0    0  0.88517491342E+01  0.19005178410E+02  0.33683367531E+01  0.21234310952E+02  0.00000000000E+00 0.  1.
</event>
<event>
 8    1  0.1229941E-006  0.9118800E+02  0.7816164E-02  0.1184000E+00
        -11   -1    0    0    0    0  0.00000000000E+00  0.00000000000E+00  0.45593999997E+02  0.45594000000E+02  0.51100000000E-03 0. -1.
         11   -1    0    0    0    0 -0.00000000000E+00 -0.00000000000E+00 -0.45593999997E+02  0.45594000000E+02  0.51100000000E-03 0.  1.
         23    2    1    2    0    0  0.00000000000E+00 -0.88817841970E-15 -0.13322676296E-14  0.91188000000E+02  0.91188000000E+02 0.  0.
    9900012    2    3    3    0    0 -0.36249222964E+02  0.58129639696E+01  0.28257317312E+01  0.54367061997E+02  0.39999949434E+02 0.  0.
         12    1    3    3    0    0  0.36249222964E+02 -0.58129639696E+01 -0.28257317312E+01  0.36820938003E+02  0.00000000000E+00 0. -1.
         11    1    4    4    0    0 -0.21988309857E+02 -0.13741103897E+02  0.80954631466E+01  0.27163214657E+02  0.51100000000E-03 0. -1.
        -11    1    4    4    0    0 -0.13128420581E+02  0.96300573450E+01 -0.55779766334E+01  0.17210672707E+02  0.51100000000E-03 0.  1.
        -12    1    4    4    0    0 -0.11324925258E+01  0.99240105211E+01  0.30824521792E+00  0.99931746337E+01  0.00000000000E+00 0.  1.
</event>
<event>
 8    1  0.1229941E-006  0.9118800E+02  0.7816164E-02  0.1184000E+00
        -11   -1    0    0    0    0  0.00000000000E+00  0.00000000000E+00  0.45593999997E+02  0.45594000000E+02  0.51100000000E-03 0. -1.
         11   -1    0    0    0    0 -0.00000000000E+00 -0.00000000000E+00 -0.45593999997E+02  0.45594000000E+02  0.51100000000E-03 0.  1.
         23    2    1    2    0    0  0.00000000000E+00  0.17763568394E-14  0.35527136788E-14  0.91188000000E+02  0.91188000000E+02 0.  0.
    9900012    2    3    3    0    0  0.14005762569E+02 -0.13038793790E+02  0.31458005042E+02  0.54367114488E+02  0.40000069099E+02 0.  0.
        -12    1    3    3    0    0 -0.14005762569E+02  0.13038793790E+02 -0.31458005042E+02  0.36820885512E+02  0.00000000000E+00 0.  1.
         11    1    4    4    0    0  0.11583087075E+02 -0.16937183277E+02  0.36792435933E+01  0.20846412575E+02  0.51100000000E-03 0. -1.
        -11    1    4    4    0    0 -0.27217467982E+01  0.10173993263E+02  0.17502256991E+02  0.20426625874E+02  0.51100000000E-03 0.  1.
        -12    1    4    4    0    0  0.51444222917E+01 -0.62756037754E+01  0.10276504458E+02  0.13094076040E+02  0.00000000000E+00 0.  1.
</event>
<event>
 8    1  0.1229941E-006  0.9118800E+02  0.7816164E-02  0.1184000E+00
        -11   -1    0    0    0    0  0.00000000000E+00  0.00000000000E+00  0.45593999997E+02  0.45594000000E+02  0.51100000000E-03 0. -1.
         11   -1    0    0    0    0 -0.00000000000E+00 -0.00000000000E+00 -0.45593999997E+02  0.45594000000E+02  0.51100000000E-03 0.  1.
         23    2    1    2    0    0  0.00000000000E+00  0.35527136788E-14 -0.35527136788E-14  0.91188000000E+02  0.91188000000E+02 0.  0.
    9900012    2    3    3    0    0 -0.19001338884E+02  0.17437163504E+02 -0.26280672291E+02  0.54367091721E+02  0.40000017196E+02 0.  0.
         12    1    3    3    0    0  0.19001338884E+02 -0.17437163504E+02  0.26280672291E+02  0.36820908279E+02  0.00000000000E+00 0. -1.
         11    1    4    4    0    0  0.54173036989E+01 -0.32362609698E+01  0.44679915899E+01  0.77319799236E+01  0.51100000000E-03 0. -1.
        -11    1    4    4    0    0 -0.77451927140E+01  0.15838999716E+02 -0.14013135289E+02  0.22521764652E+02  0.51100000000E-03 0.  1.
        -12    1    4    4    0    0 -0.16673449869E+02  0.48344247576E+01 -0.16735528592E+02  0.24113347145E+02  0.00000000000E+00 0.  1.
</event>
<event>
 8    1  0.1229941E-006  0.9118800E+02  0.7816164E-02  0.1184000E+00
        -11   -1    0    0    0    0  0.00000000000E+00  0.00000000000E+00  0.45593999997E+02  0.45594000000E+02  0.51100000000E-03 0.  1.
         11   -1    0    0    0    0 -0.00000000000E+00 -0.00000000000E+00 -0.45593999997E+02  0.45594000000E+02  0.51100000000E-03 0. -1.
         23    2    1    2    0    0  0.35527136788E-14  0.88817841970E-15  0.35527136788E-14  0.91188000000E+02  0.91188000000E+02 0.  0.
    9900012    2    3    3    0    0  0.22228993795E+02 -0.77729099734E+01  0.28306112327E+02  0.54367050940E+02  0.39999924227E+02 0.  0.
         12    1    3    3    0    0 -0.22228993795E+02  0.77729099734E+01 -0.28306112327E+02  0.36820949060E+02  0.00000000000E+00 0. -1.
         11    1    4    4    0    0  0.54355925602E+01  0.12522971972E+01 -0.29590045725E+01  0.63142397065E+01  0.51100000000E-03 0. -1.
        -11    1    4    4    0    0  0.14130833432E+02 -0.17793335171E+02  0.31555342175E+02  0.38884738009E+02  0.51100000000E-03 0.  1.
        -12    1    4    4    0    0  0.26625678036E+01  0.87681280001E+01 -0.29022527530E+00  0.91680732242E+01  0.00000000000E+00 0.  1.
</event>
<event>
 8    1  0.1229941E-006  0.9118800E+02  0.7816164E-02  0.1184000E+00
        -11   -1    0    0    0    0  0.00000000000E+00  0.00000000000E+00  0.45593999997E+02  0.45594000000E+02  0.51100000000E-03 0.  1.
         11   -1    0    0    0    0 -0.00000000000E+00 -0.00000000000E+00 -0.45593999997E+02  0.45594000000E+02  0.51100000000E-03 0. -1.
         23    2    1    2    0    0  0.00000000000E+00  0.35527136788E-14 -0.71054273576E-14  0.91188000000E+02  0.91188000000E+02 0.  0.
    9900012    2    3    3    0    0 -0.17910545779E+02  0.24816292130E+02 -0.20473052721E+02  0.54367056328E+02  0.39999936511E+02 0.  0.
        -12    1    3    3    0    0  0.17910545779E+02 -0.24816292130E+02  0.20473052721E+02  0.36820943672E+02  0.00000000000E+00 0.  1.
         11    1    4    4    0    0  0.53452902296E+00  0.22765834373E+01  0.62711000619E+01  0.66929253447E+01  0.51100000000E-03 0.  1.
        -11    1    4    4    0    0 -0.18564412719E+02  0.68431616776E+01 -0.42373573247E+01  0.20234166123E+02  0.51100000000E-03 0. -1.
         12    1    4    4    0    0  0.11933791652E+00  0.15696547015E+02 -0.22506795458E+02  0.27439964860E+02  0.00000000000E+00 0. -1.
</event>
<event>
 8    1  0.1229941E-006  0.9118800E+02  0.7816164E-02  0.1184000E+00
        -11   -1    0    0    0    0  0.00000000000E+00  0.00000000000E+00  0.45593999997E+02  0.45594000000E+02  0.51100000000E-03 0.  1.
         11   -1    0    0    0    0 -0.00000000000E+00 -0.00000000000E+00 -0.45593999997E+02  0.45594000000E+02  0.51100000000E-03 0. -1.
         23    2    1    2    0    0  0.71054273576E-14  0.17763568394E-14  0.00000000000E+00  0.91188000000E+02  0.91188000000E+02 0.  0.
    9900012    2    3    3    0    0  0.34682165564E+02  0.11507515642E+02  0.45281955104E+01  0.54367080958E+02  0.39999992661E+02 0.  0.
         12    1    3    3    0    0 -0.34682165564E+02 -0.11507515642E+02 -0.45281955104E+01  0.36820919042E+02  0.00000000000E+00 0. -1.
         11    1    4    4    0    0  0.61394330203E+01 -0.50713657101E+01 -0.68051590788E+01  0.10474806839E+02  0.51100000000E-03 0. -1.
        -11    1    4    4    0    0  0.29175403000E+02  0.36830900248E+01  0.65827217335E+01  0.30134722796E+02  0.51100000000E-03 0.  1.
         12    1    4    4    0    0 -0.63267045586E+00  0.12895791327E+02  0.47506328556E+01  0.13757551323E+02  0.00000000000E+00 0. -1.
</event>
<event>
 8    1  0.1229941E-006  0.9118800E+02  0.7816164E-02  0.1184000E+00
        -11   -1    0    0    0    0  0.00000000000E+00  0.00000000000E+00  0.45593999997E+02  0.45594000000E+02  0.51100000000E-03 0.  1.
         11   -1    0    0    0    0 -0.00000000000E+00 -0.00000000000E+00 -0.45593999997E+02  0.45594000000E+02  0.51100000000E-03 0. -1.
         23    2    1    2    0    0 -0.88817841970E-15  0.35527136788E-14  0.00000000000E+00  0.91188000000E+02  0.91188000000E+02 0.  0.
    9900012    2    3    3    0    0  0.64169852456E+00  0.26425389937E+02  0.25633300691E+02  0.54367094055E+02  0.40000022516E+02 0.  0.
         12    1    3    3    0    0 -0.64169852456E+00 -0.26425389937E+02 -0.25633300691E+02  0.36820905945E+02  0.00000000000E+00 0. -1.
         11    1    4    4    0    0  0.49197022385E+01  0.75157632603E+01  0.50155355092E+01  0.10288137062E+02  0.51100000000E-03 0.  1.
        -11    1    4    4    0    0 -0.14539825152E+02  0.10918858024E+01  0.18283153610E+02  0.23385303852E+02  0.51100000000E-03 0. -1.
         12    1    4    4    0    0  0.10261821438E+02  0.17817740875E+02  0.23346115713E+01  0.20693653140E+02  0.00000000000E+00 0. -1.
</event>
<event>
 8    1  0.1229941E-006  0.9118800E+02  0.7816164E-02  0.1184000E+00
        -11   -1    0    0    0    0  0.00000000000E+00  0.00000000000E+00  0.45593999997E+02  0.45594000000E+02  0.51100000000E-03 0. -1.
         11   -1    0    0    0    0 -0.00000000000E+00 -0.00000000000E+00 -0.45593999997E+02  0.45594000000E+02  0.51100000000E-03 0.  1.
         23    2    1    2    0    0  0.17763568394E-14  0.00000000000E+00  0.71054273576E-14  0.91188000000E+02  0.91188000000E+02 0.  0.
    9900012    2    3    3    0    0 -0.90144159783E+01  0.96968378188E+01 -0.34358284701E+02  0.54367080855E+02  0.39999992425E+02 0.  0.
         12    1    3    3    0    0  0.90144159783E+01 -0.96968378188E+01  0.34358284701E+02  0.36820919145E+02  0.00000000000E+00 0. -1.
         11    1    4    4    0    0  0.33254704079E+00  0.58119119473E+01  0.16480297975E+01  0.60501992109E+01  0.51100000000E-03 0. -1.
        -11    1    4    4    0    0 -0.18030178589E+02 -0.33103353906E+01 -0.30920536970E+02  0.35946143981E+02  0.51100000000E-03 0.  1.
        -12    1    4    4    0    0  0.86832155694E+01  0.71952612621E+01 -0.50857775284E+01  0.12370737663E+02  0.00000000000E+00 0.  1.
</event>
<event>
 8    1  0.1229941E-006  0.9118800E+02  0.7816164E-02  0.1184000E+00
        -11   -1    0    0    0    0  0.00000000000E+00  0.00000000000E+00  0.45593999997E+02  0.45594000000E+02  0.51100000000E-03 0.  1.
         11   -1    0    0    0    0 -0.00000000000E+00 -0.00000000000E+00 -0.45593999997E+02  0.45594000000E+02  0.51100000000E-03 0. -1.
         23    2    1    2    0    0  0.00000000000E+00 -0.35527136788E-14  0.00000000000E+00  0.91188000000E+02  0.91188000000E+02 0.  0.
    9900012    2    3    3    0    0  0.32136392355E+02  0.17297660433E+02  0.48809280843E+01  0.54367078922E+02  0.39999988018E+02 0.  0.
         12    1    3    3    0    0 -0.32136392355E+02 -0.17297660433E+02 -0.48809280843E+01  0.36820921078E+02  0.00000000000E+00 0. -1.
         11    1    4    4    0    0  0.94229456694E+01 -0.83624232185E+01 -0.36363057201E+01  0.13112770368E+02  0.51100000000E-03 0. -1.
        -11    1    4    4    0    0 -0.27260442812E+01  0.23936304655E+01  0.55789805272E+01  0.66547583136E+01  0.51100000000E-03 0.  1.
        -12    1    4    4    0    0  0.25439490967E+02  0.23266453186E+02  0.29382532772E+01  0.34599550240E+02  0.00000000000E+00 0.  1.
</event>
<event>
 8    1  0.1229941E-006  0.9118800E+02  0.7816164E-02  0.1184000E+00
        -11   -1    0    0    0    0  0.00000000000E+00  0.00000000000E+00  0.45593999997E+02  0.45594000000E+02  0.51100000000E-03 0. -1.
         11   -1    0    0    0    0 -0.00000000000E+00 -0.00000000000E+00 -0.45593999997E+02  0.45594000000E+02  0.51100000000E-03 0.  1.
         23    2    1    2    0    0  0.35527136788E-14  0.00000000000E+00  0.00000000000E+00  0.91188000000E+02  0.91188000000E+02 0.  0.
    9900012    2    3    3    0    0  0.96168150992E+01 -0.26310130126E+02 -0.23897179446E+02  0.54367064849E+02  0.39999955937E+02 0.  0.
         12    1    3    3    0    0 -0.96168150992E+01  0.26310130126E+02  0.23897179446E+02  0.36820935151E+02  0.00000000000E+00 0. -1.
         11    1    4    4    0    0 -0.12891011198E+02 -0.20496974138E+02 -0.18379545272E+02  0.30399207279E+02  0.51100000000E-03 0. -1.
        -11    1    4    4    0    0  0.20894505968E+02 -0.58897247743E+01 -0.51627007714E+01  0.22314181972E+02  0.51100000000E-03 0.  1.
         12    1    4    4    0    0  0.16133203295E+01  0.76568786786E-01 -0.35493340241E+00  0.16536755984E+01  0.00000000000E+00 0. -1.
</event>
<event>
 8    1  0.1229941E-006  0.9118800E+02  0.7816164E-02  0.1184000E+00
        -11   -1    0    0    0    0  0.00000000000E+00  0.00000000000E+00  0.45593999997E+02  0.45594000000E+02  0.51100000000E-03 0.  1.
         11   -1    0    0    0    0 -0.00000000000E+00 -0.00000000000E+00 -0.45593999997E+02  0.45594000000E+02  0.51100000000E-03 0. -1.
         23    2    1    2    0    0 -0.88817841970E-15  0.00000000000E+00  0.00000000000E+00  0.91188000000E+02  0.91188000000E+02 0.  0.
    9900012    2    3    3    0    0  0.62842270874E+01  0.16353093302E+02 -0.32386170571E+02  0.54367092693E+02  0.40000019413E+02 0.  0.
        -12    1    3    3    0    0 -0.62842270874E+01 -0.16353093302E+02  0.32386170571E+02  0.36820907307E+02  0.00000000000E+00 0.  1.
         11    1    4    4    0    0  0.35369779584E+01  0.13306987218E+01 -0.24279606788E+02  0.24571940872E+02  0.51100000000E-03 0. -1.
        -11    1    4    4    0    0 -0.51289757624E+01  0.19095494738E+02 -0.62415725612E+01  0.20734067135E+02  0.51100000000E-03 0.  1.
         12    1    4    4    0    0  0.78762248915E+01 -0.40731001577E+01 -0.18649912219E+01  0.90610846864E+01  0.00000000000E+00 0. -1.
</event>
<event>
 8    1  0.1229941E-006  0.9118800E+02  0.7816164E-02  0.1184000E+00
        -11   -1    0    0    0    0  0.00000000000E+00  0.00000000000E+00  0.45593999997E+02  0.45594000000E+02  0.51100000000E-03 0. -1.
         11   -1    0    0    0    0 -0.00000000000E+00 -0.00000000000E+00 -0.45593999997E+02  0.45594000000E+02  0.51100000000E-03 0.  1.
         23    2    1    2    0    0 -0.35527136788E-14  0.00000000000E+00  0.00000000000E+00  0.91188000000E+02  0.91188000000E+02 0.  0.
    9900012    2    3    3    0    0  0.17600763327E+02 -0.16460643523E+02 -0.27839556874E+02  0.54367074131E+02  0.39999977097E+02 0.  0.
        -12    1    3    3    0    0 -0.17600763327E+02  0.16460643523E+02  0.27839556874E+02  0.36820925869E+02  0.00000000000E+00 0.  1.
         11    1    4    4    0    0  0.24600574849E+02 -0.55148296402E+01 -0.13061465682E+02  0.28393723159E+02  0.51100000000E-03 0. -1.
        -11    1    4    4    0    0  0.28530197691E+01 -0.44264417676E+01 -0.12999640340E+02  0.14025824673E+02  0.51100000000E-03 0.  1.
         12    1    4    4    0    0 -0.98528312911E+01 -0.65193721156E+01 -0.17784508523E+01  0.11947526299E+02  0.00000000000E+00 0. -1.
</event>
<event>
 8    1  0.1229941E-006  0.9118800E+02  0.7816164E-02  0.1184000E+00
        -11   -1    0    0    0    0  0.00000000000E+00  0.00000000000E+00  0.45593999997E+02  0.45594000000E+02  0.51100000000E-03 0.  1.
         11   -1    0    0    0    0 -0.00000000000E+00 -0.00000000000E+00 -0.45593999997E+02  0.45594000000E+02  0.51100000000E-03 0. -1.
         23    2    1    2    0    0  0.00000000000E+00  0.00000000000E+00 -0.35527136788E-14  0.91188000000E+02  0.91188000000E+02 0.  0.
    9900012    2    3    3    0    0 -0.47149828548E+01 -0.30429638465E+02 -0.20188758522E+02  0.54367082967E+02  0.39999997241E+02 0.  0.
        -12    1    3    3    0    0  0.47149828548E+01  0.30429638465E+02  0.20188758522E+02  0.36820917033E+02  0.00000000000E+00 0.  1.
         11    1    4    4    0    0  0.57991758898E+00 -0.33679795068E+02 -0.22658631406E+02  0.40596532829E+02  0.51100000000E-03 0. -1.
        -11    1    4    4    0    0  0.25739706355E+01 -0.25084163969E+01 -0.37372258258E+00  0.36134673767E+01  0.51100000000E-03 0.  1.
         12    1    4    4    0    0 -0.78688710793E+01  0.57585730001E+01  0.28435954660E+01  0.10157082762E+02  0.00000000000E+00 0. -1.
</event>
<event>
 8    1  0.1229941E-006  0.9118800E+02  0.7816164E-02  0.1184000E+00
        -11   -1    0    0    0    0  0.00000000000E+00  0.00000000000E+00  0.45593999997E+02  0.45594000000E+02  0.51100000000E-03 0.  1.
         11   -1    0    0    0    0 -0.00000000000E+00 -0.00000000000E+00 -0.45593999997E+02  0.45594000000E+02  0.51100000000E-03 0. -1.
         23    2    1    2    0    0  0.35527136788E-14  0.00000000000E+00  0.00000000000E+00  0.91188000000E+02  0.91188000000E+02 0.  0.
    9900012    2    3    3    0    0  0.31530690203E+02  0.16704696610E+02 -0.90855671973E+01  0.54367097718E+02  0.40000030869E+02 0.  0.
        -12    1    3    3    0    0 -0.31530690203E+02 -0.16704696610E+02  0.90855671973E+01  0.36820902282E+02  0.00000000000E+00 0.  1.
         11    1    4    4    0    0  0.63837602713E+01  0.95392028384E+01 -0.10107064841E+02  0.15293840131E+02  0.51100000000E-03 0. -1.
        -11    1    4    4    0    0  0.69517650761E+01 -0.32871660968E+00  0.13907352729E+02  0.15551512868E+02  0.51100000000E-03 0.  1.
        -12    1    4    4    0    0  0.18195164856E+02  0.74942103815E+01 -0.12885855086E+02  0.23521744720E+02  0.00000000000E+00 0.  1.
</event>
<event>
 8    1  0.1229941E-006  0.9118800E+02  0.7816164E-02  0.1184000E+00
        -11   -1    0    0    0    0  0.00000000000E+00  0.00000000000E+00  0.45593999997E+02  0.45594000000E+02  0.51100000000E-03 0. -1.
         11   -1    0    0    0    0 -0.00000000000E+00 -0.00000000000E+00 -0.45593999997E+02  0.45594000000E+02  0.51100000000E-03 0.  1.
         23    2    1    2    0    0  0.35527136788E-14  0.00000000000E+00  0.00000000000E+00  0.91188000000E+02  0.91188000000E+02 0.  0.
    9900012    2    3    3    0    0  0.16199420378E+02 -0.28094232892E+02 -0.17437682313E+02  0.54367083297E+02  0.39999997992E+02 0.  0.
         12    1    3    3    0    0 -0.16199420378E+02  0.28094232892E+02  0.17437682313E+02  0.36820916703E+02  0.00000000000E+00 0. -1.
         11    1    4    4    0    0  0.51906351602E+01 -0.88693483459E+01 -0.83283196669E+01  0.13227582628E+02  0.51100000000E-03 0. -1.
        -11    1    4    4    0    0  0.30186063457E+01 -0.17975787633E+02 -0.20332188267E+02  0.27306387628E+02  0.51100000000E-03 0.  1.
         12    1    4    4    0    0  0.79901788720E+01 -0.12490969133E+01  0.11222825620E+02  0.13833113041E+02  0.00000000000E+00 0. -1.
</event>
<event>
 8    1  0.1229941E-006  0.9118800E+02  0.7816164E-02  0.1184000E+00
        -11   -1    0    0    0    0  0.00000000000E+00  0.00000000000E+00  0.45593999997E+02  0.45594000000E+02  0.51100000000E-03 0. -1.
         11   -1    0    0    0    0 -0.00000000000E+00 -0.00000000000E+00 -0.45593999997E+02  0.45594000000E+02  0.51100000000E-03 0.  1.
         23    2    1    2    0    0 -0.53290705182E-14  0.00000000000E+00  0.00000000000E+00  0.91188000000E+02  0.91188000000E+02 0.  0.
    9900012    2    3    3    0    0  0.88305829325E+01  0.29460271535E+02 -0.20245813182E+02  0.54367085491E+02  0.40000002994E+02 0.  0.
         12    1    3    3    0    0 -0.88305829325E+01 -0.29460271535E+02  0.20245813182E+02  0.36820914509E+02  0.00000000000E+00 0. -1.
         11    1    4    4    0    0 -0.11164273019E+02  0.16931318174E+02 -0.95351878083E+01  0.22410496067E+02  0.51100000000E-03 0.  1.
        -11    1    4    4    0    0  0.12433424895E+02  0.17079774033E+02 -0.90190466370E+01  0.22970675613E+02  0.51100000000E-03 0. -1.
         12    1    4    4    0    0  0.75614310566E+01 -0.45508206710E+01 -0.16915787366E+01  0.89859138113E+01  0.00000000000E+00 0. -1.
</event>
<event>
 8    1  0.1229941E-006  0.9118800E+02  0.7816164E-02  0.1184000E+00
        -11   -1    0    0    0    0  0.00000000000E+00  0.00000000000E+00  0.45593999997E+02  0.45594000000E+02  0.51100000000E-03 0.  1.
         11   -1    0    0    0    0 -0.00000000000E+00 -0.00000000000E+00 -0.45593999997E+02  0.45594000000E+02  0.51100000000E-03 0. -1.
         23    2    1    2    0    0  0.00000000000E+00  0.00000000000E+00 -0.17763568394E-14  0.91188000000E+02  0.91188000000E+02 0.  0.
    9900012    2    3    3    0    0 -0.34916712466E+02  0.97421582803E+01 -0.64568102331E+01  0.54367124728E+02  0.40000092443E+02 0.  0.
        -12    1    3    3    0    0  0.34916712466E+02 -0.97421582803E+01  0.64568102331E+01  0.36820875272E+02  0.00000000000E+00 0.  1.
         11    1    4    4    0    0 -0.11719132050E+02 -0.74580667446E+01  0.82379619797E+00  0.13915439483E+02  0.51100000000E-03 0. -1.
        -11    1    4    4    0    0 -0.68070163505E+00  0.12179327780E+02  0.62504004271E+01  0.13706454160E+02  0.51100000000E-03 0.  1.
         12    1    4    4    0    0 -0.22516878781E+02  0.50208972453E+01 -0.13531006858E+02  0.26745231085E+02  0.00000000000E+00 0. -1.
</event>
<event>
 8    1  0.1229941E-006  0.9118800E+02  0.7816164E-02  0.1184000E+00
        -11   -1    0    0    0    0  0.00000000000E+00  0.00000000000E+00  0.45593999997E+02  0.45594000000E+02  0.51100000000E-03 0.  1.
         11   -1    0    0    0    0 -0.00000000000E+00 -0.00000000000E+00 -0.45593999997E+02  0.45594000000E+02  0.51100000000E-03 0. -1.
         23    2    1    2    0    0  0.00000000000E+00  0.00000000000E+00  0.00000000000E+00  0.91188000000E+02  0.91188000000E+02 0.  0.
    9900012    2    3    3    0    0 -0.30932879156E+02  0.17472031148E+02  0.96780707802E+01  0.54367082856E+02  0.39999996986E+02 0.  0.
         12    1    3    3    0    0  0.30932879156E+02 -0.17472031148E+02 -0.96780707802E+01  0.36820917144E+02  0.00000000000E+00 0. -1.
         11    1    4    4    0    0 -0.13252443104E+02  0.17248942030E+01 -0.60323841801E+01  0.14662611206E+02  0.51100000000E-03 0. -1.
        -11    1    4    4    0    0 -0.62266144994E+01 -0.33479052959E+01  0.15939010810E+02  0.17436492304E+02  0.51100000000E-03 0.  1.
         12    1    4    4    0    0 -0.11453821553E+02  0.19095042241E+02 -0.22855584987E+00  0.22267979346E+02  0.00000000000E+00 0. -1.
</event>
<event>
 8    1  0.1229941E-006  0.9118800E+02  0.7816164E-02  0.1184000E+00
        -11   -1    0    0    0    0  0.00000000000E+00  0.00000000000E+00  0.45593999997E+02  0.45594000000E+02  0.51100000000E-03 0.  1.
         11   -1    0    0    0    0 -0.00000000000E+00 -0.00000000000E+00 -0.45593999997E+02  0.45594000000E+02  0.51100000000E-03 0. -1.
         23    2    1    2    0    0 -0.35527136788E-14 -0.17763568394E-14  0.71054273576E-14  0.91188000000E+02  0.91188000000E+02 0.  0.
    9900012    2    3    3    0    0 -0.20965798557E+02 -0.15784871789E+02  0.25827359324E+02  0.54367090503E+02  0.40000014420E+02 0.  0.
         12    1    3    3    0    0  0.20965798557E+02  0.15784871789E+02 -0.25827359324E+02  0.36820909497E+02  0.00000000000E+00 0. -1.
         11    1    4    4    0    0  0.74098071369E+01  0.20023706499E+01 -0.25176329507E+01  0.80779456523E+01  0.51100000000E-03 0. -1.
        -11    1    4    4    0    0 -0.16274083614E+02 -0.14807309865E+02  0.10139271767E+02  0.24226164680E+02  0.51100000000E-03 0.  1.
         12    1    4    4    0    0 -0.12101522079E+02 -0.29799325742E+01  0.18205720508E+02  0.22062980170E+02  0.00000000000E+00 0. -1.
</event>
<event>
 8    1  0.1229941E-006  0.9118800E+02  0.7816164E-02  0.1184000E+00
        -11   -1    0    0    0    0  0.00000000000E+00  0.00000000000E+00  0.45593999997E+02  0.45594000000E+02  0.51100000000E-03 0. -1.
         11   -1    0    0    0    0 -0.00000000000E+00 -0.00000000000E+00 -0.45593999997E+02  0.45594000000E+02  0.51100000000E-03 0.  1.
         23    2    1    2    0    0  0.00000000000E+00  0.00000000000E+00  0.00000000000E+00  0.91188000000E+02  0.91188000000E+02 0.  0.
    9900012    2    3    3    0    0  0.99352639176E+01  0.26934539691E+02 -0.23056556892E+02  0.54367031609E+02  0.39999880160E+02 0.  0.
        -12    1    3    3    0    0 -0.99352639176E+01 -0.26934539691E+02  0.23056556892E+02  0.36820968391E+02  0.00000000000E+00 0.  1.
         11    1    4    4    0    0  0.10374902054E+02  0.85792609855E+01 -0.22129937586E+02  0.25903213111E+02  0.51100000000E-03 0. -1.
        -11    1    4    4    0    0 -0.30457042919E+01 -0.84826509622E+00 -0.73875209184E+01  0.80356290288E+01  0.51100000000E-03 0.  1.
         12    1    4    4    0    0  0.26060661558E+01  0.19203543802E+02  0.64609016117E+01  0.20428189470E+02  0.00000000000E+00 0. -1.
</event>
<event>
 8    1  0.1229941E-006  0.9118800E+02  0.7816164E-02  0.1184000E+00
        -11   -1    0    0    0    0  0.00000000000E+00  0.00000000000E+00  0.45593999997E+02  0.45594000000E+02  0.51100000000E-03 0.  1.
         11   -1    0    0    0    0 -0.00000000000E+00 -0.00000000000E+00 -0.45593999997E+02  0.45594000000E+02  0.51100000000E-03 0. -1.
         23    2    1    2    0    0  0.00000000000E+00 -0.11102230246E-15  0.00000000000E+00  0.91188000000E+02  0.91188000000E+02 0.  0.
    9900012    2    3    3    0    0  0.24596531401E+02 -0.18321838280E+00 -0.27399967571E+02  0.54367066432E+02  0.39999959545E+02 0.  0.
        -12    1    3    3    0    0 -0.24596531401E+02  0.18321838280E+00  0.27399967571E+02  0.36820933568E+02  0.00000000000E+00 0.  1.
         11    1    4    4    0    0 -0.44014074998E+01 -0.83709351369E+01 -0.10590737191E+02  0.14198896350E+02  0.51100000000E-03 0. -1.
        -11    1    4    4    0    0  0.14255970892E+02  0.11613944934E+02 -0.12012939590E+01  0.18427141136E+02  0.51100000000E-03 0.  1.
        -12    1    4    4    0    0  0.14741968009E+02 -0.34262281801E+01 -0.15607936421E+02  0.21741028946E+02  0.00000000000E+00 0.  1.
</event>
<event>
 8    1  0.1229941E-006  0.9118800E+02  0.7816164E-02  0.1184000E+00
        -11   -1    0    0    0    0  0.00000000000E+00  0.00000000000E+00  0.45593999997E+02  0.45594000000E+02  0.51100000000E-03 0.  1.
         11   -1    0    0    0    0 -0.00000000000E+00 -0.00000000000E+00 -0.45593999997E+02  0.45594000000E+02  0.51100000000E-03 0. -1.
         23    2    1    2    0    0 -0.17763568394E-14  0.00000000000E+00 -0.35527136788E-14  0.91188000000E+02  0.91188000000E+02 0.  0.
    9900012    2    3    3    0    0  0.12623263751E+02  0.26352906125E+02  0.22404388852E+02  0.54367094406E+02  0.40000023316E+02 0.  0.
         12    1    3    3    0    0 -0.12623263751E+02 -0.26352906125E+02 -0.22404388852E+02  0.36820905594E+02  0.00000000000E+00 0. -1.
         11    1    4    4    0    0  0.23023377563E+01  0.25905277369E+02  0.19344392116E+02  0.32412800886E+02  0.51100000000E-03 0. -1.
        -11    1    4    4    0    0  0.10823315056E+02  0.67157122577E+01  0.69994603289E+01  0.14534007881E+02  0.51100000000E-03 0.  1.
        -12    1    4    4    0    0 -0.50238906201E+00 -0.62680835012E+01 -0.39394635930E+01  0.74202856379E+01  0.00000000000E+00 0.  1.
</event>
<event>
 8    1  0.1229941E-006  0.9118800E+02  0.7816164E-02  0.1184000E+00
        -11   -1    0    0    0    0  0.00000000000E+00  0.00000000000E+00  0.45593999997E+02  0.45594000000E+02  0.51100000000E-03 0.  1.
         11   -1    0    0    0    0 -0.00000000000E+00 -0.00000000000E+00 -0.45593999997E+02  0.45594000000E+02  0.51100000000E-03 0. -1.
         23    2    1    2    0    0 -0.35527136788E-14  0.35527136788E-14  0.17763568394E-14  0.91188000000E+02  0.91188000000E+02 0.  0.
    9900012    2    3    3    0    0 -0.29290273158E+02  0.17763147842E+02  0.13503097349E+02  0.54367039109E+02  0.39999897256E+02 0.  0.
         12    1    3    3    0    0  0.29290273158E+02 -0.17763147842E+02 -0.13503097349E+02  0.36820960891E+02  0.00000000000E+00 0. -1.
         11    1    4    4    0    0 -0.34604289069E+02  0.11635381519E+02 -0.51647739407E+00  0.36511719683E+02  0.51100000000E-03 0. -1.
        -11    1    4    4    0    0 -0.15971447024E+01  0.15954310253E+01  0.10824377616E+01  0.25035860532E+01  0.51100000000E-03 0.  1.
         12    1    4    4    0    0  0.69111606132E+01  0.45323352973E+01  0.12937136981E+02  0.15351733372E+02  0.00000000000E+00 0. -1.
</event>
<event>
 8    1  0.1229941E-006  0.9118800E+02  0.7816164E-02  0.1184000E+00
        -11   -1    0    0    0    0  0.00000000000E+00  0.00000000000E+00  0.45593999997E+02  0.45594000000E+02  0.51100000000E-03 0.  1.
         11   -1    0    0    0    0 -0.00000000000E+00 -0.00000000000E+00 -0.45593999997E+02  0.45594000000E+02  0.51100000000E-03 0. -1.
         23    2    1    2    0    0  0.00000000000E+00  0.00000000000E+00  0.00000000000E+00  0.91188000000E+02  0.91188000000E+02 0.  0.
    9900012    2    3    3    0    0  0.23358087800E+02 -0.20141742157E+02  0.20111930070E+02  0.54367085102E+02  0.40000002106E+02 0.  0.
         12    1    3    3    0    0 -0.23358087800E+02  0.20141742157E+02 -0.20111930070E+02  0.36820914898E+02  0.00000000000E+00 0. -1.
         11    1    4    4    0    0  0.66678042965E+01 -0.36075829497E+01 -0.56595685609E+01  0.94607074488E+01  0.51100000000E-03 0. -1.
        -11    1    4    4    0    0  0.22497398070E+02 -0.39357155838E+01  0.14740998149E+02  0.27183079365E+02  0.51100000000E-03 0.  1.
        -12    1    4    4    0    0 -0.58071145663E+01 -0.12598443623E+02  0.11030500482E+02  0.17723298288E+02  0.00000000000E+00 0.  1.
</event>
<event>
 8    1  0.1229941E-006  0.9118800E+02  0.7816164E-02  0.1184000E+00
        -11   -1    0    0    0    0  0.00000000000E+00  0.00000000000E+00  0.45593999997E+02  0.45594000000E+02  0.51100000000E-03 0. -1.
         11   -1    0    0    0    0 -0.00000000000E+00 -0.00000000000E+00 -0.45593999997E+02  0.45594000000E+02  0.51100000000E-03 0.  1.
         23    2    1    2    0    0  0.35527136788E-14  0.00000000000E+00  0.00000000000E+00  0.91188000000E+02  0.91188000000E+02 0.  0.
    9900012    2    3    3    0    0 -0.30619050146E+02  0.14391169183E+02  0.14530936185E+02  0.54367080828E+02  0.39999992363E+02 0.  0.
        -12    1    3    3    0    0  0.30619050146E+02 -0.14391169183E+02 -0.14530936185E+02  0.36820919172E+02  0.00000000000E+00 0.  1.
         11    1    4    4    0    0  0.68601489094E+00  0.39041227664E+01  0.99018174525E+00  0.40857375290E+01  0.51100000000E-03 0. -1.
        -11    1    4    4    0    0 -0.61020033835E+01  0.20204661996E+02  0.31482716079E+01  0.21339503885E+02  0.51100000000E-03 0.  1.
         12    1    4    4    0    0 -0.25203061653E+02 -0.97176155796E+01  0.10392482832E+02  0.28941839414E+02  0.00000000000E+00 0. -1.
</event>
<event>
 8    1  0.1229941E-006  0.9118800E+02  0.7816164E-02  0.1184000E+00
        -11   -1    0    0    0    0  0.00000000000E+00  0.00000000000E+00  0.45593999997E+02  0.45594000000E+02  0.51100000000E-03 0.  1.
         11   -1    0    0    0    0 -0.00000000000E+00 -0.00000000000E+00 -0.45593999997E+02  0.45594000000E+02  0.51100000000E-03 0. -1.
         23    2    1    2    0    0  0.71054273576E-14 -0.66613381478E-15  0.00000000000E+00  0.91188000000E+02  0.91188000000E+02 0.  0.
    9900012    2    3    3    0    0 -0.36029854649E+02 -0.17432568735E+01  0.73885669181E+01  0.54367078072E+02  0.39999986080E+02 0.  0.
         12    1    3    3    0    0  0.36029854649E+02  0.17432568735E+01 -0.73885669181E+01  0.36820921928E+02  0.00000000000E+00 0. -1.
         11    1    4    4    0    0 -0.29268009916E+02  0.60179463812E+01 -0.10308640682E+02  0.31608545617E+02  0.51100000000E-03 0. -1.
        -11    1    4    4    0    0 -0.41109465063E+01  0.94486542813E+00  0.21278194288E+01  0.47244330493E+01  0.51100000000E-03 0.  1.
         12    1    4    4    0    0 -0.26508982267E+01 -0.87060686829E+01  0.15569388171E+02  0.18034099405E+02  0.00000000000E+00 0. -1.
</event>
<event>
 8    1  0.1229941E-006  0.9118800E+02  0.7816164E-02  0.1184000E+00
        -11   -1    0    0    0    0  0.00000000000E+00  0.00000000000E+00  0.45593999997E+02  0.45594000000E+02  0.51100000000E-03 0. -1.
         11   -1    0    0    0    0 -0.00000000000E+00 -0.00000000000E+00 -0.45593999997E+02  0.45594000000E+02  0.51100000000E-03 0.  1.
         23    2    1    2    0    0 -0.35527136788E-14  0.00000000000E+00  0.00000000000E+00  0.91188000000E+02  0.91188000000E+02 0.  0.
    9900012    2    3    3    0    0 -0.20379178577E+02 -0.27471271440E+02 -0.13630792762E+02  0.54367079516E+02  0.39999989372E+02 0.  0.
        -12    1    3    3    0    0  0.20379178577E+02  0.27471271440E+02  0.13630792762E+02  0.36820920484E+02  0.00000000000E+00 0.  1.
         11    1    4    4    0    0 -0.14249231799E+01 -0.16234694221E+02  0.32621367619E+01  0.16620386248E+02  0.51100000000E-03 0. -1.
        -11    1    4    4    0    0 -0.21729293292E+02 -0.11373384916E+02 -0.21335249466E+02  0.32507059871E+02  0.51100000000E-03 0.  1.
         12    1    4    4    0    0  0.27750378950E+01  0.13680769731E+00  0.44423199419E+01  0.52396333967E+01  0.00000000000E+00 0. -1.
</event>
<event>
 8    1  0.1229941E-006  0.9118800E+02  0.7816164E-02  0.1184000E+00
        -11   -1    0    0    0    0  0.00000000000E+00  0.00000000000E+00  0.45593999997E+02  0.45594000000E+02  0.51100000000E-03 0.  1.
         11   -1    0    0    0    0 -0.00000000000E+00 -0.00000000000E+00 -0.45593999997E+02  0.45594000000E+02  0.51100000000E-03 0. -1.
         23    2    1    2    0    0  0.00000000000E+00 -0.22204460493E-15  0.88817841970E-15  0.91188000000E+02  0.91188000000E+02 0.  0.
    9900012    2    3    3    0    0 -0.36198411250E+02  0.12768232343E+01 -0.66200690136E+01  0.54367074315E+02  0.39999977515E+02 0.  0.
        -12    1    3    3    0    0  0.36198411250E+02 -0.12768232343E+01  0.66200690136E+01  0.36820925685E+02  0.00000000000E+00 0.  1.
         11    1    4    4    0    0 -0.32117055911E+02  0.46792625338E+01 -0.35110922858E+01  0.32645498121E+02  0.51100000000E-03 0. -1.
        -11    1    4    4    0    0 -0.46452831349E+01  0.23158129055E+01  0.78131939168E+01  0.93801729333E+01  0.51100000000E-03 0.  1.
         12    1    4    4    0    0  0.56392779644E+00 -0.57182522049E+01 -0.10922170645E+02  0.12341403260E+02  0.00000000000E+00 0. -1.
</event>
<event>
 8    1  0.1229941E-006  0.9118800E+02  0.7816164E-02  0.1184000E+00
        -11   -1    0    0    0    0  0.00000000000E+00  0.00000000000E+00  0.45593999997E+02  0.45594000000E+02  0.51100000000E-03 0. -1.
         11   -1    0    0    0    0 -0.00000000000E+00 -0.00000000000E+00 -0.45593999997E+02  0.45594000000E+02  0.51100000000E-03 0.  1.
         23    2    1    2    0    0  0.00000000000E+00  0.00000000000E+00  0.00000000000E+00  0.91188000000E+02  0.91188000000E+02 0.  0.
    9900012    2    3    3    0    0  0.35101959070E+02 -0.95290226874E+01 -0.57297390693E+01  0.54367085919E+02  0.40000003970E+02 0.  0.
        -12    1    3    3    0    0 -0.35101959070E+02  0.95290226874E+01  0.57297390693E+01  0.36820914081E+02  0.00000000000E+00 0.  1.
         11    1    4    4    0    0  0.41197076475E+02 -0.15092414933E+02 -0.28817186812E+01  0.43969130096E+02  0.51100000000E-03 0. -1.
        -11    1    4    4    0    0 -0.47020045337E+01  0.48059552668E+00 -0.14850504645E+01  0.49543106320E+01  0.51100000000E-03 0.  1.
         12    1    4    4    0    0 -0.13931128713E+01  0.50827967185E+01 -0.13629699236E+01  0.54436451911E+01  0.00000000000E+00 0. -1.
</event>
<event>
 8    1  0.1229941E-006  0.9118800E+02  0.7816164E-02  0.1184000E+00
        -11   -1    0    0    0    0  0.00000000000E+00  0.00000000000E+00  0.45593999997E+02  0.45594000000E+02  0.51100000000E-03 0. -1.
         11   -1    0    0    0    0 -0.00000000000E+00 -0.00000000000E+00 -0.45593999997E+02  0.45594000000E+02  0.51100000000E-03 0.  1.
         23    2    1    2    0    0  0.00000000000E+00  0.88817841970E-15  0.00000000000E+00  0.91188000000E+02  0.91188000000E+02 0.  0.
    9900012    2    3    3    0    0  0.99039950236E+01 -0.48897324598E+01 -0.35125213620E+02  0.54367092450E+02  0.40000018857E+02 0.  0.
         12    1    3    3    0    0 -0.99039950236E+01  0.48897324598E+01  0.35125213620E+02  0.36820907550E+02  0.00000000000E+00 0. -1.
         11    1    4    4    0    0  0.51160693614E+01  0.39432750600E+01 -0.32725469121E+02  0.33356857066E+02  0.51100000000E-03 0. -1.
        -11    1    4    4    0    0 -0.52086047217E+01 -0.68652045598E+00 -0.56461317878E+01  0.77123069123E+01  0.51100000000E-03 0.  1.
         12    1    4    4    0    0  0.99965303838E+01 -0.81464870638E+01  0.32463872880E+01  0.13297928471E+02  0.00000000000E+00 0. -1.
</event>
<event>
 8    1  0.1229941E-006  0.9118800E+02  0.7816164E-02  0.1184000E+00
        -11   -1    0    0    0    0  0.00000000000E+00  0.00000000000E+00  0.45593999997E+02  0.45594000000E+02  0.51100000000E-03 0. -1.
         11   -1    0    0    0    0 -0.00000000000E+00 -0.00000000000E+00 -0.45593999997E+02  0.45594000000E+02  0.51100000000E-03 0.  1.
         23    2    1    2    0    0  0.00000000000E+00  0.00000000000E+00  0.00000000000E+00  0.91188000000E+02  0.91188000000E+02 0.  0.
    9900012    2    3    3    0    0  0.92439764841E+01 -0.34972368667E+02 -0.68747964907E+01  0.54367075267E+02  0.39999979686E+02 0.  0.
         12    1    3    3    0    0 -0.92439764841E+01  0.34972368667E+02  0.68747964907E+01  0.36820924733E+02  0.00000000000E+00 0. -1.
         11    1    4    4    0    0 -0.29877130464E+01 -0.54534780684E+01 -0.32329351806E+01  0.70084750434E+01  0.51100000000E-03 0.  1.
        -11    1    4    4    0    0  0.45148051275E+01 -0.22114044455E+02  0.14121663549E+02  0.26623970574E+02  0.51100000000E-03 0. -1.
        -12    1    4    4    0    0  0.77168844031E+01 -0.74048461433E+01 -0.17763524859E+02  0.20734629649E+02  0.00000000000E+00 0.  1.
</event>
<event>
 8    1  0.1229941E-006  0.9118800E+02  0.7816164E-02  0.1184000E+00
        -11   -1    0    0    0    0  0.00000000000E+00  0.00000000000E+00  0.45593999997E+02  0.45594000000E+02  0.51100000000E-03 0. -1.
         11   -1    0    0    0    0 -0.00000000000E+00 -0.00000000000E+00 -0.45593999997E+02  0.45594000000E+02  0.51100000000E-03 0.  1.
         23    2    1    2    0    0  0.00000000000E+00 -0.71054273576E-14  0.35527136788E-14  0.91188000000E+02  0.91188000000E+02 0.  0.
    9900012    2    3    3    0    0 -0.22812001820E+02 -0.23510416480E+02  0.16812302827E+02  0.54367073389E+02  0.39999975406E+02 0.  0.
        -12    1    3    3    0    0  0.22812001820E+02  0.23510416480E+02 -0.16812302827E+02  0.36820926611E+02  0.00000000000E+00 0.  1.
         11    1    4    4    0    0 -0.56020798137E+00 -0.72067455344E+01  0.98411874527E+01  0.12210650471E+02  0.51100000000E-03 0. -1.
        -11    1    4    4    0    0 -0.15597434418E+02 -0.58189360466E+01  0.18726754879E+02  0.25056562528E+02  0.51100000000E-03 0.  1.
         12    1    4    4    0    0 -0.66543594211E+01 -0.10484734899E+02 -0.11755639505E+02  0.17099860391E+02  0.00000000000E+00 0. -1.
</event>
<event>
 8    1  0.1229941E-006  0.9118800E+02  0.7816164E-02  0.1184000E+00
        -11   -1    0    0    0    0  0.00000000000E+00  0.00000000000E+00  0.45593999997E+02  0.45594000000E+02  0.51100000000E-03 0. -1.
         11   -1    0    0    0    0 -0.00000000000E+00 -0.00000000000E+00 -0.45593999997E+02  0.45594000000E+02  0.51100000000E-03 0.  1.
         23    2    1    2    0    0 -0.44408920985E-15  0.88817841970E-15 -0.71054273576E-14  0.91188000000E+02  0.91188000000E+02 0.  0.
    9900012    2    3    3    0    0  0.25502624557E+01 -0.54601184039E+01  0.36324399636E+02  0.54367099135E+02  0.40000034099E+02 0.  0.
        -12    1    3    3    0    0 -0.25502624557E+01  0.54601184039E+01 -0.36324399636E+02  0.36820900865E+02  0.00000000000E+00 0.  1.
         11    1    4    4    0    0  0.14572034921E+02  0.48054927874E+01  0.21565631363E+02  0.26467214040E+02  0.51100000000E-03 0. -1.
        -11    1    4    4    0    0  0.15822434427E+01 -0.40562623840E+01 -0.25342901464E+01  0.50377957131E+01  0.51100000000E-03 0.  1.
         12    1    4    4    0    0 -0.13604015908E+02 -0.62093488074E+01  0.17293058419E+02  0.22862089382E+02  0.00000000000E+00 0. -1.
</event>
<event>
 8    1  0.1229941E-006  0.9118800E+02  0.7816164E-02  0.1184000E+00
        -11   -1    0    0    0    0  0.00000000000E+00  0.00000000000E+00  0.45593999997E+02  0.45594000000E+02  0.51100000000E-03 0. -1.
         11   -1    0    0    0    0 -0.00000000000E+00 -0.00000000000E+00 -0.45593999997E+02  0.45594000000E+02  0.51100000000E-03 0.  1.
         23    2    1    2    0    0  0.44408920985E-15  0.00000000000E+00 -0.88817841970E-15  0.91188000000E+02  0.91188000000E+02 0.  0.
    9900012    2    3    3    0    0  0.35145097665E+01 -0.35987426064E+02 -0.69523144661E+01  0.54367064514E+02  0.39999955173E+02 0.  0.
         12    1    3    3    0    0 -0.35145097665E+01  0.35987426064E+02  0.69523144661E+01  0.36820935486E+02  0.00000000000E+00 0. -1.
         11    1    4    4    0    0 -0.10654190418E+02 -0.11974951266E+02  0.65386551848E+01  0.17310841782E+02  0.51100000000E-03 0. -1.
        -11    1    4    4    0    0 -0.18835841003E+01  0.25595652130E+01 -0.27612933158E+01  0.42099886199E+01  0.51100000000E-03 0.  1.
        -12    1    4    4    0    0  0.16052284285E+02 -0.26572040011E+02 -0.10729676335E+02  0.32846234112E+02  0.00000000000E+00 0.  1.
</event>
<event>
 8    1  0.1229941E-006  0.9118800E+02  0.7816164E-02  0.1184000E+00
        -11   -1    0    0    0    0  0.00000000000E+00  0.00000000000E+00  0.45593999997E+02  0.45594000000E+02  0.51100000000E-03 0.  1.
         11   -1    0    0    0    0 -0.00000000000E+00 -0.00000000000E+00 -0.45593999997E+02  0.45594000000E+02  0.51100000000E-03 0. -1.
         23    2    1    2    0    0  0.00000000000E+00  0.88817841970E-15  0.00000000000E+00  0.91188000000E+02  0.91188000000E+02 0.  0.
    9900012    2    3    3    0    0  0.21534537757E+01 -0.65213907662E+01 -0.36174729686E+02  0.54367123197E+02  0.40000088952E+02 0.  0.
        -12    1    3    3    0    0 -0.21534537757E+01  0.65213907662E+01  0.36174729686E+02  0.36820876803E+02  0.00000000000E+00 0.  1.
         11    1    4    4    0    0  0.89364430410E+01  0.35841721379E+01 -0.95541592148E+01  0.13564227317E+02  0.51100000000E-03 0. -1.
        -11    1    4    4    0    0  0.82678519538E+01 -0.12592279613E+02 -0.92172538208E+01  0.17660142979E+02  0.51100000000E-03 0.  1.
         12    1    4    4    0    0 -0.15050841219E+02  0.24867167090E+01 -0.17403316651E+02  0.23142752901E+02  0.00000000000E+00 0. -1.
</event>
<event>
 8    1  0.1229941E-006  0.9118800E+02  0.7816164E-02  0.1184000E+00
        -11   -1    0    0    0    0  0.00000000000E+00  0.00000000000E+00  0.45593999997E+02  0.45594000000E+02  0.51100000000E-03 0.  1.
         11   -1    0    0    0    0 -0.00000000000E+00 -0.00000000000E+00 -0.45593999997E+02  0.45594000000E+02  0.51100000000E-03 0. -1.
         23    2    1    2    0    0  0.00000000000E+00 -0.17763568394E-14 -0.88817841970E-15  0.91188000000E+02  0.91188000000E+02 0.  0.
    9900012    2    3    3    0    0  0.36249717880E+02 -0.39617329753E+01  0.51035891948E+01  0.54367027753E+02  0.39999871369E+02 0.  0.
        -12    1    3    3    0    0 -0.36249717880E+02  0.39617329753E+01 -0.51035891948E+01  0.36820972247E+02  0.00000000000E+00 0.  1.
         11    1    4    4    0    0  0.16817365441E+02 -0.10053903501E+02  0.10685085133E+02  0.22317611891E+02  0.51100000000E-03 0. -1.
        -11    1    4    4    0    0  0.66199256318E+00  0.89934351802E+01  0.49962064547E+01  0.10309325375E+02  0.51100000000E-03 0.  1.
         12    1    4    4    0    0  0.18770359876E+02 -0.29012646541E+01 -0.10577702393E+02  0.21740090487E+02  0.00000000000E+00 0. -1.
</event>
<event>
 8    1  0.1229941E-006  0.9118800E+02  0.7816164E-02  0.1184000E+00
        -11   -1    0    0    0    0  0.00000000000E+00  0.00000000000E+00  0.45593999997E+02  0.45594000000E+02  0.51100000000E-03 0.  1.
         11   -1    0    0    0    0 -0.00000000000E+00 -0.00000000000E+00 -0.45593999997E+02  0.45594000000E+02  0.51100000000E-03 0. -1.
         23    2    1    2    0    0 -0.13322676296E-14  0.00000000000E+00  0.35527136788E-14  0.91188000000E+02  0.91188000000E+02 0.  0.
    9900012    2    3    3    0    0 -0.37525579268E+01 -0.27227529402E+02 -0.24502228980E+02  0.54367091900E+02  0.40000017604E+02 0.  0.
        -12    1    3    3    0    0  0.37525579268E+01  0.27227529402E+02  0.24502228980E+02  0.36820908100E+02  0.00000000000E+00 0.  1.
         11    1    4    4    0    0  0.24367870587E+01 -0.17189149213E+01 -0.24365216273E+02  0.24547023526E+02  0.51100000000E-03 0. -1.
        -11    1    4    4    0    0 -0.71588171265E+01 -0.25855752470E+02 -0.27910216102E+01  0.26973290499E+02  0.51100000000E-03 0.  1.
         12    1    4    4    0    0  0.96947214104E+00  0.34713798922E+00  0.26540089031E+01  0.28467778757E+01  0.00000000000E+00 0. -1.
</event>
<event>
 8    1  0.1229941E-006  0.9118800E+02  0.7816164E-02  0.1184000E+00
        -11   -1    0    0    0    0  0.00000000000E+00  0.00000000000E+00  0.45593999997E+02  0.45594000000E+02  0.51100000000E-03 0. -1.
         11   -1    0    0    0    0 -0.00000000000E+00 -0.00000000000E+00 -0.45593999997E+02  0.45594000000E+02  0.51100000000E-03 0.  1.
         23    2    1    2    0    0  0.88817841970E-15  0.00000000000E+00 -0.35527136788E-14  0.91188000000E+02  0.91188000000E+02 0.  0.
    9900012    2    3    3    0    0 -0.43603011168E+01 -0.29437388345E+02  0.21684291840E+02  0.54367074278E+02  0.39999977431E+02 0.  0.
        -12    1    3    3    0    0  0.43603011168E+01  0.29437388345E+02 -0.21684291840E+02  0.36820925722E+02  0.00000000000E+00 0.  1.
         11    1    4    4    0    0  0.99495413625E+01 -0.24210155062E+02  0.13768543376E+02  0.29575289828E+02  0.51100000000E-03 0. -1.
        -11    1    4    4    0    0 -0.14395395544E+02 -0.48157410564E+01 -0.16028230822E+01  0.15263938446E+02  0.51100000000E-03 0.  1.
        -12    1    4    4    0    0  0.85553065043E-01 -0.41149222677E+00  0.95185715464E+01  0.95278460034E+01  0.00000000000E+00 0.  1.
</event>
<event>
 8    1  0.1229941E-006  0.9118800E+02  0.7816164E-02  0.1184000E+00
        -11   -1    0    0    0    0  0.00000000000E+00  0.00000000000E+00  0.45593999997E+02  0.45594000000E+02  0.51100000000E-03 0. -1.
         11   -1    0    0    0    0 -0.00000000000E+00 -0.00000000000E+00 -0.45593999997E+02  0.45594000000E+02  0.51100000000E-03 0.  1.
         23    2    1    2    0    0 -0.17763568394E-14  0.00000000000E+00  0.00000000000E+00  0.91188000000E+02  0.91188000000E+02 0.  0.
    9900012    2    3    3    0    0 -0.10317949821E+02 -0.23958188175E+02  0.25987009174E+02  0.54367088619E+02  0.40000010125E+02 0.  0.
        -12    1    3    3    0    0  0.10317949821E+02  0.23958188175E+02 -0.25987009174E+02  0.36820911381E+02  0.00000000000E+00 0.  1.
         11    1    4    4    0    0 -0.48176209946E+01 -0.71176446734E+01  0.16383302448E+02  0.18500890171E+02  0.51100000000E-03 0. -1.
        -11    1    4    4    0    0 -0.17405084175E+02 -0.13619450766E+02  0.76062319514E+01  0.23372658365E+02  0.51100000000E-03 0.  1.
        -12    1    4    4    0    0  0.11904755349E+02 -0.32210927354E+01  0.19974747740E+01  0.12493540083E+02  0.00000000000E+00 0.  1.
</event>
<event>
 8    1  0.1229941E-006  0.9118800E+02  0.7816164E-02  0.1184000E+00
        -11   -1    0    0    0    0  0.00000000000E+00  0.00000000000E+00  0.45593999997E+02  0.45594000000E+02  0.51100000000E-03 0.  1.
         11   -1    0    0    0    0 -0.00000000000E+00 -0.00000000000E+00 -0.45593999997E+02  0.45594000000E+02  0.51100000000E-03 0. -1.
         23    2    1    2    0    0  0.00000000000E+00  0.35527136788E-14 -0.35527136788E-14  0.91188000000E+02  0.91188000000E+02 0.  0.
    9900012    2    3    3    0    0  0.86635817332E+01 -0.30819025191E+02  0.18190930981E+02  0.54367082953E+02  0.39999997209E+02 0.  0.
         12    1    3    3    0    0 -0.86635817332E+01  0.30819025191E+02 -0.18190930981E+02  0.36820917047E+02  0.00000000000E+00 0. -1.
         11    1    4    4    0    0  0.10698944119E+02 -0.16779178547E+02 -0.59011212111E+01  0.20756480188E+02  0.51100000000E-03 0. -1.
        -11    1    4    4    0    0 -0.21394034791E+01 -0.15175725231E+01  0.20381700364E+02  0.20549787921E+02  0.51100000000E-03 0.  1.
         12    1    4    4    0    0  0.10404109361E+00 -0.12522274121E+02  0.37103518281E+01  0.13060814844E+02  0.00000000000E+00 0. -1.
</event>
<event>
 8    1  0.1229941E-006  0.9118800E+02  0.7816164E-02  0.1184000E+00
        -11   -1    0    0    0    0  0.00000000000E+00  0.00000000000E+00  0.45593999997E+02  0.45594000000E+02  0.51100000000E-03 0.  1.
         11   -1    0    0    0    0 -0.00000000000E+00 -0.00000000000E+00 -0.45593999997E+02  0.45594000000E+02  0.51100000000E-03 0. -1.
         23    2    1    2    0    0 -0.71054273576E-14  0.00000000000E+00  0.00000000000E+00  0.91188000000E+02  0.91188000000E+02 0.  0.
    9900012    2    3    3    0    0  0.34338828995E+02  0.71275213085E+01 -0.11217089611E+02  0.54367084258E+02  0.40000000183E+02 0.  0.
        -12    1    3    3    0    0 -0.34338828995E+02 -0.71275213085E+01  0.11217089611E+02  0.36820915742E+02  0.00000000000E+00 0.  1.
         11    1    4    4    0    0  0.19027068288E+02 -0.98692146396E+01 -0.15306859444E+02  0.26338767464E+02  0.51100000000E-03 0. -1.
        -11    1    4    4    0    0  0.11115396057E+02  0.10221767387E+01  0.24719504023E+01  0.11432734312E+02  0.51100000000E-03 0.  1.
        -12    1    4    4    0    0  0.41963646499E+01  0.15974559209E+02  0.16178194300E+01  0.16595582482E+02  0.00000000000E+00 0.  1.
</event>
<event>
 8    1  0.1229941E-006  0.9118800E+02  0.7816164E-02  0.1184000E+00
        -11   -1    0    0    0    0  0.00000000000E+00  0.00000000000E+00  0.45593999997E+02  0.45594000000E+02  0.51100000000E-03 0.  1.
         11   -1    0    0    0    0 -0.00000000000E+00 -0.00000000000E+00 -0.45593999997E+02  0.45594000000E+02  0.51100000000E-03 0. -1.
         23    2    1    2    0    0  0.35527136788E-14  0.00000000000E+00  0.00000000000E+00  0.91188000000E+02  0.91188000000E+02 0.  0.
    9900012    2    3    3    0    0 -0.31672175786E+02  0.12843949492E+02  0.13699871189E+02  0.54367078933E+02  0.39999988044E+02 0.  0.
         12    1    3    3    0    0  0.31672175786E+02 -0.12843949492E+02 -0.13699871189E+02  0.36820921067E+02  0.00000000000E+00 0. -1.
         11    1    4    4    0    0 -0.55100745594E+01  0.45955695437E+01  0.51749235408E+01  0.88464690693E+01  0.51100000000E-03 0. -1.
        -11    1    4    4    0    0 -0.16389343090E+02  0.10129085009E+02  0.21693713334E+02  0.29014240099E+02  0.51100000000E-03 0.  1.
         12    1    4    4    0    0 -0.97727581366E+01 -0.18807050597E+01 -0.13168765686E+02  0.16506369765E+02  0.00000000000E+00 0. -1.
</event>
<event>
 8    1  0.1229941E-006  0.9118800E+02  0.7816164E-02  0.1184000E+00
        -11   -1    0    0    0    0  0.00000000000E+00  0.00000000000E+00  0.45593999997E+02  0.45594000000E+02  0.51100000000E-03 0. -1.
         11   -1    0    0    0    0 -0.00000000000E+00 -0.00000000000E+00 -0.45593999997E+02  0.45594000000E+02  0.51100000000E-03 0.  1.
         23    2    1    2    0    0 -0.17763568394E-14 -0.17763568394E-14 -0.71054273576E-14  0.91188000000E+02  0.91188000000E+02 0.  0.
    9900012    2    3    3    0    0  0.11552061387E+02 -0.77364252474E+01 -0.34095199181E+02  0.54367014067E+02  0.39999840168E+02 0.  0.
         12    1    3    3    0    0 -0.11552061387E+02  0.77364252474E+01  0.34095199181E+02  0.36820985933E+02  0.00000000000E+00 0. -1.
         11    1    4    4    0    0  0.16429260321E+02  0.45092901463E+01 -0.62370185144E+01  0.18142620883E+02  0.51100000000E-03 0. -1.
        -11    1    4    4    0    0  0.68921945720E+01 -0.38924367563E+01 -0.55978073760E+01  0.96947850724E+01  0.51100000000E-03 0.  1.
        -12    1    4    4    0    0 -0.11769393505E+02 -0.83532786373E+01 -0.22260373291E+02  0.26529608111E+02  0.00000000000E+00 0.  1.
</event>
<event>
 8    1  0.1229941E-006  0.9118800E+02  0.7816164E-02  0.1184000E+00
        -11   -1    0    0    0    0  0.00000000000E+00  0.00000000000E+00  0.45593999997E+02  0.45594000000E+02  0.51100000000E-03 0.  1.
         11   -1    0    0    0    0 -0.00000000000E+00 -0.00000000000E+00 -0.45593999997E+02  0.45594000000E+02  0.51100000000E-03 0. -1.
         23    2    1    2    0    0  0.00000000000E+00  0.35527136788E-14  0.35527136788E-14  0.91188000000E+02  0.91188000000E+02 0.  0.
    9900012    2    3    3    0    0 -0.17742160406E+02  0.25578207439E+02 -0.19666167214E+02  0.54366985829E+02  0.39999775794E+02 0.  0.
        -12    1    3    3    0    0  0.17742160406E+02 -0.25578207439E+02  0.19666167214E+02  0.36821014171E+02  0.00000000000E+00 0.  1.
         11    1    4    4    0    0 -0.18850525592E+02  0.59712428431E+00 -0.11251806828E+02  0.21961375860E+02  0.51100000000E-03 0. -1.
        -11    1    4    4    0    0  0.82746951819E+01  0.19013428041E+02 -0.98731081897E+01  0.22966481921E+02  0.51100000000E-03 0.  1.
         12    1    4    4    0    0 -0.71663299960E+01  0.59676551141E+01  0.14587478031E+01  0.94391280490E+01  0.00000000000E+00 0. -1.
</event>
<event>
 8    1  0.1229941E-006  0.9118800E+02  0.7816164E-02  0.1184000E+00
        -11   -1    0    0    0    0  0.00000000000E+00  0.00000000000E+00  0.45593999997E+02  0.45594000000E+02  0.51100000000E-03 0.  1.
         11   -1    0    0    0    0 -0.00000000000E+00 -0.00000000000E+00 -0.45593999997E+02  0.45594000000E+02  0.51100000000E-03 0. -1.
         23    2    1    2    0    0  0.00000000000E+00  0.88817841970E-15 -0.88817841970E-15  0.91188000000E+02  0.91188000000E+02 0.  0.
    9900012    2    3    3    0    0  0.35811158371E+02  0.69851953471E+01 -0.49547138124E+01  0.54367065644E+02  0.39999957748E+02 0.  0.
        -12    1    3    3    0    0 -0.35811158371E+02 -0.69851953471E+01  0.49547138124E+01  0.36820934356E+02  0.00000000000E+00 0.  1.
         11    1    4    4    0    0  0.29554635507E+02  0.89781495333E+01 -0.16829507208E+02  0.35175502301E+02  0.51100000000E-03 0. -1.
        -11    1    4    4    0    0  0.13244897808E+01 -0.48056535130E+01 -0.10325486362E+01  0.50906518063E+01  0.51100000000E-03 0.  1.
        -12    1    4    4    0    0  0.49320330827E+01  0.28126993268E+01  0.12907342032E+02  0.14100911536E+02  0.00000000000E+00 0.  1.
</event>
<event>
 8    1  0.1229941E-006  0.9118800E+02  0.7816164E-02  0.1184000E+00
        -11   -1    0    0    0    0  0.00000000000E+00  0.00000000000E+00  0.45593999997E+02  0.45594000000E+02  0.51100000000E-03 0. -1.
         11   -1    0    0    0    0 -0.00000000000E+00 -0.00000000000E+00 -0.45593999997E+02  0.45594000000E+02  0.51100000000E-03 0.  1.
         23    2    1    2    0    0  0.17763568394E-14  0.00000000000E+00  0.00000000000E+00  0.91188000000E+02  0.91188000000E+02 0.  0.
    9900012    2    3    3    0    0 -0.89503560999E+01  0.34054447613E+01 -0.35553804136E+02  0.54367096740E+02  0.40000028638E+02 0.  0.
         12    1    3    3    0    0  0.89503560999E+01 -0.34054447613E+01  0.35553804136E+02  0.36820903260E+02  0.00000000000E+00 0. -1.
         11    1    4    4    0    0 -0.13046849966E+02 -0.88825891143E+01 -0.12506366174E+02  0.20137772433E+02  0.51100000000E-03 0. -1.
        -11    1    4    4    0    0 -0.25092514786E+00 -0.58995250434E+00  0.39509303193E+01  0.40026064054E+01  0.51100000000E-03 0.  1.
        -12    1    4    4    0    0  0.43474190138E+01  0.12877986380E+02 -0.26998368281E+02  0.30226717902E+02  0.00000000000E+00 0.  1.
</event>
<event>
 8    1  0.1229941E-006  0.9118800E+02  0.7816164E-02  0.1184000E+00
        -11   -1    0    0    0    0  0.00000000000E+00  0.00000000000E+00  0.45593999997E+02  0.45594000000E+02  0.51100000000E-03 0. -1.
         11   -1    0    0    0    0 -0.00000000000E+00 -0.00000000000E+00 -0.45593999997E+02  0.45594000000E+02  0.51100000000E-03 0.  1.
         23    2    1    2    0    0  0.35527136788E-14  0.35527136788E-14 -0.35527136788E-14  0.91188000000E+02  0.91188000000E+02 0.  0.
    9900012    2    3    3    0    0  0.19865259495E+02 -0.27802509206E+02 -0.13717489730E+02  0.54367114929E+02  0.40000070103E+02 0.  0.
        -12    1    3    3    0    0 -0.19865259495E+02  0.27802509206E+02  0.13717489730E+02  0.36820885071E+02  0.00000000000E+00 0.  1.
         11    1    4    4    0    0  0.20250605909E+02 -0.11351294299E+02 -0.12294524129E+02  0.26269644949E+02  0.51100000000E-03 0. -1.
        -11    1    4    4    0    0 -0.74097853833E+01  0.19597931473E+01  0.23856237132E+01  0.80272603900E+01  0.51100000000E-03 0.  1.
        -12    1    4    4    0    0  0.70244389697E+01 -0.18411008054E+02 -0.38085893136E+01  0.20070209590E+02  0.00000000000E+00 0.  1.
</event>
<event>
 8    1  0.1229941E-006  0.9118800E+02  0.7816164E-02  0.1184000E+00
        -11   -1    0    0    0    0  0.00000000000E+00  0.00000000000E+00  0.45593999997E+02  0.45594000000E+02  0.51100000000E-03 0. -1.
         11   -1    0    0    0    0 -0.00000000000E+00 -0.00000000000E+00 -0.45593999997E+02  0.45594000000E+02  0.51100000000E-03 0.  1.
         23    2    1    2    0    0 -0.35527136788E-14 -0.44408920985E-15  0.35527136788E-14  0.91188000000E+02  0.91188000000E+02 0.  0.
    9900012    2    3    3    0    0  0.18302875293E+02  0.34379702872E+00 -0.31947864409E+02  0.54367089084E+02  0.40000011185E+02 0.  0.
         12    1    3    3    0    0 -0.18302875293E+02 -0.34379702872E+00  0.31947864409E+02  0.36820910916E+02  0.00000000000E+00 0. -1.
         11    1    4    4    0    0 -0.15346157560E+01 -0.44866627164E+01 -0.14008413253E+02  0.14789213298E+02  0.51100000000E-03 0. -1.
        -11    1    4    4    0    0  0.81683703649E+01  0.65361680866E+01 -0.24099946291E+02  0.26272631752E+02  0.51100000000E-03 0.  1.
         12    1    4    4    0    0  0.11669120684E+02 -0.17057083415E+01  0.61604951352E+01  0.13305244034E+02  0.00000000000E+00 0. -1.
</event>
<event>
 8    1  0.1229941E-006  0.9118800E+02  0.7816164E-02  0.1184000E+00
        -11   -1    0    0    0    0  0.00000000000E+00  0.00000000000E+00  0.45593999997E+02  0.45594000000E+02  0.51100000000E-03 0.  1.
         11   -1    0    0    0    0 -0.00000000000E+00 -0.00000000000E+00 -0.45593999997E+02  0.45594000000E+02  0.51100000000E-03 0. -1.
         23    2    1    2    0    0 -0.17763568394E-14  0.00000000000E+00  0.00000000000E+00  0.91188000000E+02  0.91188000000E+02 0.  0.
    9900012    2    3    3    0    0  0.13540909842E+02 -0.24521631860E+02 -0.23897977689E+02  0.54367081950E+02  0.39999994921E+02 0.  0.
        -12    1    3    3    0    0 -0.13540909842E+02  0.24521631860E+02  0.23897977689E+02  0.36820918050E+02  0.00000000000E+00 0.  1.
         11    1    4    4    0    0  0.11821479046E+02 -0.20426674257E+01 -0.52108240270E+01  0.13079470339E+02  0.51100000000E-03 0. -1.
        -11    1    4    4    0    0  0.37911875895E+01  0.62723798836E+01 -0.71487506673E+01  0.10238187784E+02  0.51100000000E-03 0.  1.
        -12    1    4    4    0    0 -0.20717567932E+01 -0.28751344318E+02 -0.11538402995E+02  0.31049423827E+02  0.00000000000E+00 0.  1.
</event>
<event>
 8    1  0.1229941E-006  0.9118800E+02  0.7816164E-02  0.1184000E+00
        -11   -1    0    0    0    0  0.00000000000E+00  0.00000000000E+00  0.45593999997E+02  0.45594000000E+02  0.51100000000E-03 0. -1.
         11   -1    0    0    0    0 -0.00000000000E+00 -0.00000000000E+00 -0.45593999997E+02  0.45594000000E+02  0.51100000000E-03 0.  1.
         23    2    1    2    0    0 -0.35527136788E-14  0.00000000000E+00  0.88817841970E-15  0.91188000000E+02  0.91188000000E+02 0.  0.
    9900012    2    3    3    0    0 -0.21712470520E+02  0.29155015332E+02 -0.58596319180E+01  0.54367060559E+02  0.39999946157E+02 0.  0.
        -12    1    3    3    0    0  0.21712470520E+02 -0.29155015332E+02  0.58596319180E+01  0.36820939441E+02  0.00000000000E+00 0.  1.
         11    1    4    4    0    0 -0.85848761562E+00  0.32151553264E+01  0.45461484533E+01  0.56339764625E+01  0.51100000000E-03 0. -1.
        -11    1    4    4    0    0 -0.96429668423E+01  0.29437728472E+02 -0.16926979918E+02  0.35299990318E+02  0.51100000000E-03 0.  1.
        -12    1    4    4    0    0 -0.11211016062E+02 -0.34978684656E+01  0.65211995463E+01  0.13433093778E+02  0.00000000000E+00 0.  1.
</event>
<event>
 8    1  0.1229941E-006  0.9118800E+02  0.7816164E-02  0.1184000E+00
        -11   -1    0    0    0    0  0.00000000000E+00  0.00000000000E+00  0.45593999997E+02  0.45594000000E+02  0.51100000000E-03 0. -1.
         11   -1    0    0    0    0 -0.00000000000E+00 -0.00000000000E+00 -0.45593999997E+02  0.45594000000E+02  0.51100000000E-03 0.  1.
         23    2    1    2    0    0 -0.35527136788E-14 -0.17763568394E-14 -0.35527136788E-14  0.91188000000E+02  0.91188000000E+02 0.  0.
    9900012    2    3    3    0    0  0.25660784817E+02  0.12797630767E+02  0.23098163320E+02  0.54367076880E+02  0.39999983363E+02 0.  0.
        -12    1    3    3    0    0 -0.25660784817E+02 -0.12797630767E+02 -0.23098163320E+02  0.36820923120E+02  0.00000000000E+00 0.  1.
         11    1    4    4    0    0  0.33547771987E+02  0.12045743160E+02  0.20805823658E+02  0.41272693538E+02  0.51100000000E-03 0. -1.
        -11    1    4    4    0    0 -0.69351398743E+01  0.35811934450E+01 -0.18182968701E+01  0.80141946155E+01  0.51100000000E-03 0.  1.
        -12    1    4    4    0    0 -0.95184729543E+00 -0.28293058380E+01  0.41106365314E+01  0.50801887260E+01  0.00000000000E+00 0.  1.
</event>
<event>
 8    1  0.1229941E-006  0.9118800E+02  0.7816164E-02  0.1184000E+00
        -11   -1    0    0    0    0  0.00000000000E+00  0.00000000000E+00  0.45593999997E+02  0.45594000000E+02  0.51100000000E-03 0.  1.
         11   -1    0    0    0    0 -0.00000000000E+00 -0.00000000000E+00 -0.45593999997E+02  0.45594000000E+02  0.51100000000E-03 0. -1.
         23    2    1    2    0    0  0.17763568394E-14  0.17763568394E-14 -0.14210854715E-13  0.91188000000E+02  0.91188000000E+02 0.  0.
    9900012    2    3    3    0    0  0.14205339881E+02  0.54187503516E+01 -0.33535433569E+02  0.54367084189E+02  0.40000000025E+02 0.  0.
        -12    1    3    3    0    0 -0.14205339881E+02 -0.54187503516E+01  0.33535433569E+02  0.36820915811E+02  0.00000000000E+00 0.  1.
         11    1    4    4    0    0  0.20148591321E+02  0.13881179444E+02 -0.21624245532E+02  0.32653650180E+02  0.51100000000E-03 0. -1.
        -11    1    4    4    0    0  0.32204118059E+01  0.19698256157E+01 -0.63937273594E+00  0.38288461594E+01  0.51100000000E-03 0.  1.
        -12    1    4    4    0    0 -0.91636632457E+01 -0.10432254708E+02 -0.11271815301E+02  0.17884587849E+02  0.00000000000E+00 0.  1.
</event>
<event>
 8    1  0.1229941E-006  0.9118800E+02  0.7816164E-02  0.1184000E+00
        -11   -1    0    0    0    0  0.00000000000E+00  0.00000000000E+00  0.45593999997E+02  0.45594000000E+02  0.51100000000E-03 0.  1.
         11   -1    0    0    0    0 -0.00000000000E+00 -0.00000000000E+00 -0.45593999997E+02  0.45594000000E+02  0.51100000000E-03 0. -1.
         23    2    1    2    0    0  0.00000000000E+00  0.88817841970E-15  0.17763568394E-14  0.91188000000E+02  0.91188000000E+02 0.  0.
    9900012    2    3    3    0    0  0.33758523231E+02 -0.70713022725E+01 -0.12889618073E+02  0.54367035039E+02  0.39999887979E+02 0.  0.
        -12    1    3    3    0    0 -0.33758523231E+02  0.70713022725E+01  0.12889618073E+02  0.36820964961E+02  0.00000000000E+00 0.  1.
         11    1    4    4    0    0  0.17294700572E+02  0.68087711986E+01 -0.11518803705E+02  0.21866615471E+02  0.51100000000E-03 0. -1.
        -11    1    4    4    0    0  0.12210954207E+02 -0.14859034265E+02 -0.10837677041E+02  0.22076085384E+02  0.51100000000E-03 0.  1.
        -12    1    4    4    0    0  0.42528684520E+01  0.97896079428E+00  0.94668626735E+01  0.10424334184E+02  0.00000000000E+00 0.  1.
</event>
<event>
 8    1  0.1229941E-006  0.9118800E+02  0.7816164E-02  0.1184000E+00
        -11   -1    0    0    0    0  0.00000000000E+00  0.00000000000E+00  0.45593999997E+02  0.45594000000E+02  0.51100000000E-03 0. -1.
         11   -1    0    0    0    0 -0.00000000000E+00 -0.00000000000E+00 -0.45593999997E+02  0.45594000000E+02  0.51100000000E-03 0.  1.
         23    2    1    2    0    0 -0.35527136788E-14  0.35527136788E-14  0.00000000000E+00  0.91188000000E+02  0.91188000000E+02 0.  0.
    9900012    2    3    3    0    0  0.17347397701E+02 -0.30218168263E+02  0.11904223019E+02  0.54367076250E+02  0.39999981926E+02 0.  0.
        -12    1    3    3    0    0 -0.17347397701E+02  0.30218168263E+02 -0.11904223019E+02  0.36820923750E+02  0.00000000000E+00 0.  1.
         11    1    4    4    0    0  0.67005435059E+01 -0.11177644125E+02 -0.56010876880E+01  0.14184822699E+02  0.51100000000E-03 0. -1.
        -11    1    4    4    0    0  0.18408495593E+02 -0.18944830593E+02  0.73859225414E+01  0.27428655969E+02  0.51100000000E-03 0.  1.
        -12    1    4    4    0    0 -0.77616413971E+01 -0.95693543847E-01  0.10119388165E+02  0.12753597582E+02  0.00000000000E+00 0.  1.
</event>
<event>
 8    1  0.1229941E-006  0.9118800E+02  0.7816164E-02  0.1184000E+00
        -11   -1    0    0    0    0  0.00000000000E+00  0.00000000000E+00  0.45593999997E+02  0.45594000000E+02  0.51100000000E-03 0.  1.
         11   -1    0    0    0    0 -0.00000000000E+00 -0.00000000000E+00 -0.45593999997E+02  0.45594000000E+02  0.51100000000E-03 0. -1.
         23    2    1    2    0    0  0.00000000000E+00  0.00000000000E+00  0.17763568394E-14  0.91188000000E+02  0.91188000000E+02 0.  0.
    9900012    2    3    3    0    0  0.32843759324E+02  0.13279012537E+02  0.10036646142E+02  0.54367096069E+02  0.40000027108E+02 0.  0.
         12    1    3    3    0    0 -0.32843759324E+02 -0.13279012537E+02 -0.10036646142E+02  0.36820903931E+02  0.00000000000E+00 0. -1.
         11    1    4    4    0    0  0.43289243731E+01 -0.28657550420E+01  0.11014071373E+02  0.12176284600E+02  0.51100000000E-03 0.  1.
        -11    1    4    4    0    0  0.12006603835E+02 -0.99594941147E+00 -0.11051358557E+02  0.16348791304E+02  0.51100000000E-03 0. -1.
        -12    1    4    4    0    0  0.16508231117E+02  0.17140716991E+02  0.10073933326E+02  0.25842020165E+02  0.00000000000E+00 0.  1.
</event>
<event>
 8    1  0.1229941E-006  0.9118800E+02  0.7816164E-02  0.1184000E+00
        -11   -1    0    0    0    0  0.00000000000E+00  0.00000000000E+00  0.45593999997E+02  0.45594000000E+02  0.51100000000E-03 0. -1.
         11   -1    0    0    0    0 -0.00000000000E+00 -0.00000000000E+00 -0.45593999997E+02  0.45594000000E+02  0.51100000000E-03 0.  1.
         23    2    1    2    0    0  0.35527136788E-14  0.35527136788E-14  0.00000000000E+00  0.91188000000E+02  0.91188000000E+02 0.  0.
    9900012    2    3    3    0    0 -0.12968906577E+02 -0.29473816105E+02 -0.17857261031E+02  0.54367080061E+02  0.39999990616E+02 0.  0.
        -12    1    3    3    0    0  0.12968906577E+02  0.29473816105E+02  0.17857261031E+02  0.36820919939E+02  0.00000000000E+00 0.  1.
         11    1    4    4    0    0 -0.26170159533E+02 -0.23972392537E+02 -0.16890330547E+02  0.39304403318E+02  0.51100000000E-03 0. -1.
        -11    1    4    4    0    0  0.67821201401E+01 -0.32491807568E+01  0.17769871160E+01  0.77273548292E+01  0.51100000000E-03 0.  1.
         12    1    4    4    0    0  0.64191328161E+01 -0.22522428111E+01 -0.27439175993E+01  0.73353219140E+01  0.00000000000E+00 0. -1.
</event>
<event>
 8    1  0.1229941E-006  0.9118800E+02  0.7816164E-02  0.1184000E+00
        -11   -1    0    0    0    0  0.00000000000E+00  0.00000000000E+00  0.45593999997E+02  0.45594000000E+02  0.51100000000E-03 0. -1.
         11   -1    0    0    0    0 -0.00000000000E+00 -0.00000000000E+00 -0.45593999997E+02  0.45594000000E+02  0.51100000000E-03 0.  1.
         23    2    1    2    0    0  0.00000000000E+00 -0.17763568394E-14 -0.17763568394E-14  0.91188000000E+02  0.91188000000E+02 0.  0.
    9900012    2    3    3    0    0 -0.33126675656E+02 -0.94448874682E+01  0.13007712670E+02  0.54367039553E+02  0.39999898270E+02 0.  0.
        -12    1    3    3    0    0  0.33126675656E+02  0.94448874682E+01 -0.13007712670E+02  0.36820960447E+02  0.00000000000E+00 0.  1.
         11    1    4    4    0    0 -0.11267779402E+01 -0.55894962075E+01  0.21210120729E+01  0.60836493040E+01  0.51100000000E-03 0. -1.
        -11    1    4    4    0    0 -0.12788457672E+02  0.92596392578E+00 -0.12318521725E+02  0.17780552201E+02  0.51100000000E-03 0.  1.
        -12    1    4    4    0    0 -0.19211440044E+02 -0.47813551865E+01  0.23205222322E+02  0.30502838049E+02  0.00000000000E+00 0.  1.
</event>
<event>
 8    1  0.1229941E-006  0.9118800E+02  0.7816164E-02  0.1184000E+00
        -11   -1    0    0    0    0  0.00000000000E+00  0.00000000000E+00  0.45593999997E+02  0.45594000000E+02  0.51100000000E-03 0. -1.
         11   -1    0    0    0    0 -0.00000000000E+00 -0.00000000000E+00 -0.45593999997E+02  0.45594000000E+02  0.51100000000E-03 0.  1.
         23    2    1    2    0    0 -0.17763568394E-14  0.00000000000E+00  0.00000000000E+00  0.91188000000E+02  0.91188000000E+02 0.  0.
    9900012    2    3    3    0    0  0.80977084415E+01 -0.86783225537E+01  0.34855327452E+02  0.54367081813E+02  0.39999994609E+02 0.  0.
        -12    1    3    3    0    0 -0.80977084415E+01  0.86783225537E+01 -0.34855327452E+02  0.36820918187E+02  0.00000000000E+00 0.  1.
         11    1    4    4    0    0 -0.22481383689E+00  0.77175992329E+01  0.80543955486E+01  0.11157292104E+02  0.51100000000E-03 0. -1.
        -11    1    4    4    0    0 -0.16059977312E+01 -0.12035992376E+02  0.29614371829E+02  0.32007114213E+02  0.51100000000E-03 0.  1.
        -12    1    4    4    0    0  0.99285200096E+01 -0.43599294102E+01 -0.28134399251E+01  0.11202675495E+02  0.00000000000E+00 0.  1.
</event>
<event>
 8    1  0.1229941E-006  0.9118800E+02  0.7816164E-02  0.1184000E+00
        -11   -1    0    0    0    0  0.00000000000E+00  0.00000000000E+00  0.45593999997E+02  0.45594000000E+02  0.51100000000E-03 0.  1.
         11   -1    0    0    0    0 -0.00000000000E+00 -0.00000000000E+00 -0.45593999997E+02  0.45594000000E+02  0.51100000000E-03 0. -1.
         23    2    1    2    0    0 -0.71054273576E-14  0.35527136788E-14 -0.53290705182E-14  0.91188000000E+02  0.91188000000E+02 0.  0.
    9900012    2    3    3    0    0  0.31002419073E+02 -0.18024698934E+02  0.83510459105E+01  0.54367085728E+02  0.40000003534E+02 0.  0.
         12    1    3    3    0    0 -0.31002419073E+02  0.18024698934E+02 -0.83510459105E+01  0.36820914272E+02  0.00000000000E+00 0. -1.
         11    1    4    4    0    0  0.96394308736E+01 -0.10223502290E+02  0.72988721628E+00  0.14070229644E+02  0.51100000000E-03 0. -1.
        -11    1    4    4    0    0  0.14157081487E+02 -0.42322578376E+01 -0.12036462978E+02  0.19058105990E+02  0.51100000000E-03 0.  1.
        -12    1    4    4    0    0  0.72059067120E+01 -0.35689388066E+01  0.19657621672E+02  0.21238750094E+02  0.00000000000E+00 0.  1.
</event>
<event>
 8    1  0.1229941E-006  0.9118800E+02  0.7816164E-02  0.1184000E+00
        -11   -1    0    0    0    0  0.00000000000E+00  0.00000000000E+00  0.45593999997E+02  0.45594000000E+02  0.51100000000E-03 0.  1.
         11   -1    0    0    0    0 -0.00000000000E+00 -0.00000000000E+00 -0.45593999997E+02  0.45594000000E+02  0.51100000000E-03 0. -1.
         23    2    1    2    0    0  0.00000000000E+00  0.17763568394E-14  0.00000000000E+00  0.91188000000E+02  0.91188000000E+02 0.  0.
    9900012    2    3    3    0    0 -0.16783047645E+02  0.90644765413E+01  0.31495176172E+02  0.54367061047E+02  0.39999947270E+02 0.  0.
         12    1    3    3    0    0  0.16783047645E+02 -0.90644765413E+01 -0.31495176172E+02  0.36820938953E+02  0.00000000000E+00 0. -1.
         11    1    4    4    0    0 -0.84291075939E+01  0.11729830588E+02 -0.22076020148E+00  0.14446020759E+02  0.51100000000E-03 0. -1.
        -11    1    4    4    0    0 -0.69231207463E+01 -0.89850237449E+01  0.31453341007E+02  0.33436101946E+02  0.51100000000E-03 0.  1.
        -12    1    4    4    0    0 -0.14308193050E+01  0.63196696981E+01  0.26259536688E+00  0.64849383423E+01  0.00000000000E+00 0.  1.
</event>
<event>
 8    1  0.1229941E-006  0.9118800E+02  0.7816164E-02  0.1184000E+00
        -11   -1    0    0    0    0  0.00000000000E+00  0.00000000000E+00  0.45593999997E+02  0.45594000000E+02  0.51100000000E-03 0.  1.
         11   -1    0    0    0    0 -0.00000000000E+00 -0.00000000000E+00 -0.45593999997E+02  0.45594000000E+02  0.51100000000E-03 0. -1.
         23    2    1    2    0    0  0.00000000000E+00  0.00000000000E+00  0.00000000000E+00  0.91188000000E+02  0.91188000000E+02 0.  0.
    9900012    2    3    3    0    0 -0.25653976319E+02 -0.26741907098E+01 -0.26277410290E+02  0.54367080831E+02  0.39999992370E+02 0.  0.
        -12    1    3    3    0    0  0.25653976319E+02  0.26741907098E+01  0.26277410290E+02  0.36820919169E+02  0.00000000000E+00 0.  1.
         11    1    4    4    0    0 -0.15775090768E+02  0.11325475419E+02 -0.57917871868E+01  0.20264863219E+02  0.51100000000E-03 0. -1.
        -11    1    4    4    0    0 -0.14576374646E+02 -0.98286746055E+01 -0.64525675745E+01  0.18727230732E+02  0.51100000000E-03 0.  1.
        -12    1    4    4    0    0  0.46974890953E+01 -0.41709915236E+01 -0.14033055528E+02  0.15374986880E+02  0.00000000000E+00 0.  1.
</event>
<event>
 8    1  0.1229941E-006  0.9118800E+02  0.7816164E-02  0.1184000E+00
        -11   -1    0    0    0    0  0.00000000000E+00  0.00000000000E+00  0.45593999997E+02  0.45594000000E+02  0.51100000000E-03 0.  1.
         11   -1    0    0    0    0 -0.00000000000E+00 -0.00000000000E+00 -0.45593999997E+02  0.45594000000E+02  0.51100000000E-03 0. -1.
         23    2    1    2    0    0  0.33306690739E-15  0.17763568394E-14  0.71054273576E-14  0.91188000000E+02  0.91188000000E+02 0.  0.
    9900012    2    3    3    0    0  0.28864449203E+00  0.55000944919E+01  0.36406667441E+02  0.54367084894E+02  0.40000001634E+02 0.  0.
         12    1    3    3    0    0 -0.28864449203E+00 -0.55000944919E+01 -0.36406667441E+02  0.36820915106E+02  0.00000000000E+00 0. -1.
         11    1    4    4    0    0  0.42017803508E+01  0.77327603223E+01 -0.21742610788E+01  0.90652055585E+01  0.51100000000E-03 0. -1.
        -11    1    4    4    0    0 -0.47241303847E+01 -0.49280885238E+01  0.21212675497E+00  0.68299679657E+01  0.51100000000E-03 0.  1.
        -12    1    4    4    0    0  0.81099452599E+00  0.26954226934E+01  0.38368801765E+02  0.38471911370E+02  0.00000000000E+00 0.  1.
</event>
<event>
 8    1  0.1229941E-006  0.9118800E+02  0.7816164E-02  0.1184000E+00
        -11   -1    0    0    0    0  0.00000000000E+00  0.00000000000E+00  0.45593999997E+02  0.45594000000E+02  0.51100000000E-03 0.  1.
         11   -1    0    0    0    0 -0.00000000000E+00 -0.00000000000E+00 -0.45593999997E+02  0.45594000000E+02  0.51100000000E-03 0. -1.
         23    2    1    2    0    0  0.00000000000E+00 -0.17763568394E-14  0.00000000000E+00  0.91188000000E+02  0.91188000000E+02 0.  0.
    9900012    2    3    3    0    0  0.25336768609E+02 -0.97663597143E+01 -0.24868566227E+02  0.54367092735E+02  0.40000019509E+02 0.  0.
        -12    1    3    3    0    0 -0.25336768609E+02  0.97663597143E+01  0.24868566227E+02  0.36820907265E+02  0.00000000000E+00 0.  1.
         11    1    4    4    0    0  0.98360865691E+01 -0.18524710077E+02 -0.38953156747E+01  0.21332767446E+02  0.51100000000E-03 0. -1.
        -11    1    4    4    0    0  0.48566773050E+00  0.79720053839E+01 -0.10220069427E+01  0.80519091797E+01  0.51100000000E-03 0.  1.
         12    1    4    4    0    0  0.15015014310E+02  0.78634497836E+00 -0.19951243609E+02  0.24982416110E+02  0.00000000000E+00 0. -1.
</event>
<event>
 8    1  0.1229941E-006  0.9118800E+02  0.7816164E-02  0.1184000E+00
        -11   -1    0    0    0    0  0.00000000000E+00  0.00000000000E+00  0.45593999997E+02  0.45594000000E+02  0.51100000000E-03 0.  1.
         11   -1    0    0    0    0 -0.00000000000E+00 -0.00000000000E+00 -0.45593999997E+02  0.45594000000E+02  0.51100000000E-03 0. -1.
         23    2    1    2    0    0 -0.17763568394E-14  0.00000000000E+00  0.00000000000E+00  0.91188000000E+02  0.91188000000E+02 0.  0.
    9900012    2    3    3    0    0  0.12833832566E+02  0.32769980947E+02 -0.10825893658E+02  0.54367097198E+02  0.40000029683E+02 0.  0.
        -12    1    3    3    0    0 -0.12833832566E+02 -0.32769980947E+02  0.10825893658E+02  0.36820902802E+02  0.00000000000E+00 0.  1.
         11    1    4    4    0    0  0.15796125982E+02  0.15644306995E+02 -0.36790221328E+01  0.22534354695E+02  0.51100000000E-03 0. -1.
        -11    1    4    4    0    0 -0.36202953644E+01  0.70474328912E+01 -0.16350216755E+02  0.18168721394E+02  0.51100000000E-03 0.  1.
        -12    1    4    4    0    0  0.65800194841E+00  0.10078241061E+02  0.92033452305E+01  0.13664021110E+02  0.00000000000E+00 0.  1.
</event>
<event>
 8    1  0.1229941E-006  0.9118800E+02  0.7816164E-02  0.1184000E+00
        -11   -1    0    0    0    0  0.00000000000E+00  0.00000000000E+00  0.45593999997E+02  0.45594000000E+02  0.51100000000E-03 0.  1.
         11   -1    0    0    0    0 -0.00000000000E+00 -0.00000000000E+00 -0.45593999997E+02  0.45594000000E+02  0.51100000000E-03 0. -1.
         23    2    1    2    0    0  0.35527136788E-14  0.00000000000E+00 -0.88817841970E-15  0.91188000000E+02  0.91188000000E+02 0.  0.
    9900012    2    3    3    0    0  0.30430131816E+02 -0.20355081942E+02  0.39315488303E+01  0.54367090731E+02  0.40000014939E+02 0.  0.
         12    1    3    3    0    0 -0.30430131816E+02  0.20355081942E+02 -0.39315488303E+01  0.36820909269E+02  0.00000000000E+00 0. -1.
         11    1    4    4    0    0 -0.27497055484E+01 -0.42869369783E+01 -0.30398103968E+01  0.59312019665E+01  0.51100000000E-03 0. -1.
        -11    1    4    4    0    0  0.14960344034E+01 -0.96010625330E+01  0.12286928517E+02  0.15664837482E+02  0.51100000000E-03 0.  1.
        -12    1    4    4    0    0  0.31683802961E+02 -0.64670824310E+01 -0.53155692902E+01  0.32771051282E+02  0.00000000000E+00 0.  1.
</event>
<event>
 8    1  0.1229941E-006  0.9118800E+02  0.7816164E-02  0.1184000E+00
        -11   -1    0    0    0    0  0.00000000000E+00  0.00000000000E+00  0.45593999997E+02  0.45594000000E+02  0.51100000000E-03 0.  1.
         11   -1    0    0    0    0 -0.00000000000E+00 -0.00000000000E+00 -0.45593999997E+02  0.45594000000E+02  0.51100000000E-03 0. -1.
         23    2    1    2    0    0  0.17763568394E-14 -0.35527136788E-14  0.35527136788E-14  0.91188000000E+02  0.91188000000E+02 0.  0.
    9900012    2    3    3    0    0  0.15013213300E+02 -0.24900775208E+02 -0.22590583732E+02  0.54367086745E+02  0.40000005854E+02 0.  0.
        -12    1    3    3    0    0 -0.15013213300E+02  0.24900775208E+02  0.22590583732E+02  0.36820913255E+02  0.00000000000E+00 0.  1.
         11    1    4    4    0    0  0.13218371660E+02 -0.21447525079E+02 -0.59474775908E+01  0.25886177225E+02  0.51100000000E-03 0. -1.
        -11    1    4    4    0    0 -0.80850977025E+01  0.48434983752E+01 -0.34727146540E+01  0.10044303296E+02  0.51100000000E-03 0.  1.
        -12    1    4    4    0    0  0.98799393421E+01 -0.82967485033E+01 -0.13170391488E+02  0.18436606224E+02  0.00000000000E+00 0.  1.
</event>
<event>
 8    1  0.1229941E-006  0.9118800E+02  0.7816164E-02  0.1184000E+00
        -11   -1    0    0    0    0  0.00000000000E+00  0.00000000000E+00  0.45593999997E+02  0.45594000000E+02  0.51100000000E-03 0.  1.
         11   -1    0    0    0    0 -0.00000000000E+00 -0.00000000000E+00 -0.45593999997E+02  0.45594000000E+02  0.51100000000E-03 0. -1.
         23    2    1    2    0    0  0.00000000000E+00 -0.19428902931E-15  0.00000000000E+00  0.91188000000E+02  0.91188000000E+02 0.  0.
    9900012    2    3    3    0    0 -0.32799514650E+02 -0.17570046658E+00  0.16731418630E+02  0.54367090162E+02  0.40000013643E+02 0.  0.
        -12    1    3    3    0    0  0.32799514650E+02  0.17570046658E+00 -0.16731418630E+02  0.36820909838E+02  0.00000000000E+00 0.  1.
         11    1    4    4    0    0 -0.19988687587E+02  0.13333145094E+02  0.81278525477E+01  0.25364983281E+02  0.51100000000E-03 0. -1.
        -11    1    4    4    0    0 -0.38980993870E+01  0.53392175479E+01  0.37317785915E+01  0.75913499835E+01  0.51100000000E-03 0.  1.
         12    1    4    4    0    0 -0.89127276760E+01 -0.18848063109E+02  0.48717874906E+01  0.21410756898E+02  0.00000000000E+00 0. -1.
</event>
<event>
 8    1  0.1229941E-006  0.9118800E+02  0.7816164E-02  0.1184000E+00
        -11   -1    0    0    0    0  0.00000000000E+00  0.00000000000E+00  0.45593999997E+02  0.45594000000E+02  0.51100000000E-03 0. -1.
         11   -1    0    0    0    0 -0.00000000000E+00 -0.00000000000E+00 -0.45593999997E+02  0.45594000000E+02  0.51100000000E-03 0.  1.
         23    2    1    2    0    0  0.00000000000E+00  0.00000000000E+00 -0.35527136788E-14  0.91188000000E+02  0.91188000000E+02 0.  0.
    9900012    2    3    3    0    0 -0.17454302907E+02 -0.17133743072E+02 -0.27523851391E+02  0.54367078813E+02  0.39999987771E+02 0.  0.
         12    1    3    3    0    0  0.17454302907E+02  0.17133743072E+02  0.27523851391E+02  0.36820921187E+02  0.00000000000E+00 0. -1.
         11    1    4    4    0    0 -0.32124502914E+01  0.64528348864E+01 -0.25329680649E+02  0.26335368556E+02  0.51100000000E-03 0. -1.
        -11    1    4    4    0    0 -0.45432872739E+01 -0.11696277689E+02 -0.12163473220E+00  0.12548273439E+02  0.51100000000E-03 0.  1.
         12    1    4    4    0    0 -0.96985653421E+01 -0.11890300270E+02 -0.20725360097E+01  0.15483436819E+02  0.00000000000E+00 0. -1.
</event>
<event>
 8    1  0.1229941E-006  0.9118800E+02  0.7816164E-02  0.1184000E+00
        -11   -1    0    0    0    0  0.00000000000E+00  0.00000000000E+00  0.45593999997E+02  0.45594000000E+02  0.51100000000E-03 0. -1.
         11   -1    0    0    0    0 -0.00000000000E+00 -0.00000000000E+00 -0.45593999997E+02  0.45594000000E+02  0.51100000000E-03 0.  1.
         23    2    1    2    0    0  0.00000000000E+00 -0.35527136788E-14  0.00000000000E+00  0.91188000000E+02  0.91188000000E+02 0.  0.
    9900012    2    3    3    0    0  0.95703885089E+01  0.15379594108E+02  0.32057045691E+02  0.54367103358E+02  0.40000043724E+02 0.  0.
        -12    1    3    3    0    0 -0.95703885089E+01 -0.15379594108E+02 -0.32057045691E+02  0.36820896642E+02  0.00000000000E+00 0.  1.
         11    1    4    4    0    0 -0.11790869309E+02  0.12183185092E+00  0.22507736957E+02  0.25409401119E+02  0.51100000000E-03 0. -1.
        -11    1    4    4    0    0  0.62127571670E+01  0.38707161086E+01 -0.80238093677E+00  0.73637361603E+01  0.51100000000E-03 0.  1.
         12    1    4    4    0    0  0.15148500651E+02  0.11387046148E+02  0.10351689671E+02  0.21593966078E+02  0.00000000000E+00 0. -1.
</event>
<event>
 8    1  0.1229941E-006  0.9118800E+02  0.7816164E-02  0.1184000E+00
        -11   -1    0    0    0    0  0.00000000000E+00  0.00000000000E+00  0.45593999997E+02  0.45594000000E+02  0.51100000000E-03 0. -1.
         11   -1    0    0    0    0 -0.00000000000E+00 -0.00000000000E+00 -0.45593999997E+02  0.45594000000E+02  0.51100000000E-03 0.  1.
         23    2    1    2    0    0  0.35527136788E-14 -0.35527136788E-14 -0.44408920985E-15  0.91188000000E+02  0.91188000000E+02 0.  0.
    9900012    2    3    3    0    0  0.31410774106E+02 -0.19010091975E+02 -0.27854917780E+01  0.54367091656E+02  0.40000017048E+02 0.  0.
        -12    1    3    3    0    0 -0.31410774106E+02  0.19010091975E+02  0.27854917780E+01  0.36820908344E+02  0.00000000000E+00 0.  1.
         11    1    4    4    0    0  0.39127846912E+01 -0.42997085614E+01  0.42116391189E+01  0.71788078455E+01  0.51100000000E-03 0. -1.
        -11    1    4    4    0    0  0.14308965360E+02 -0.24129880666E+02 -0.11573803129E+02  0.30347167080E+02  0.51100000000E-03 0.  1.
         12    1    4    4    0    0  0.13189024055E+02  0.94194972522E+01  0.45766722326E+01  0.16841116731E+02  0.00000000000E+00 0. -1.
</event>
<event>
 8    1  0.1229941E-006  0.9118800E+02  0.7816164E-02  0.1184000E+00
        -11   -1    0    0    0    0  0.00000000000E+00  0.00000000000E+00  0.45593999997E+02  0.45594000000E+02  0.51100000000E-03 0. -1.
         11   -1    0    0    0    0 -0.00000000000E+00 -0.00000000000E+00 -0.45593999997E+02  0.45594000000E+02  0.51100000000E-03 0.  1.
         23    2    1    2    0    0  0.00000000000E+00  0.00000000000E+00 -0.35527136788E-14  0.91188000000E+02  0.91188000000E+02 0.  0.
    9900012    2    3    3    0    0 -0.17780893053E+02  0.77519523243E+01 -0.31297396654E+02  0.54367082576E+02  0.39999996349E+02 0.  0.
         12    1    3    3    0    0  0.17780893053E+02 -0.77519523243E+01  0.31297396654E+02  0.36820917424E+02  0.00000000000E+00 0. -1.
         11    1    4    4    0    0 -0.16738986883E+02 -0.53820041806E+01 -0.16617974399E+02  0.24193319827E+02  0.51100000000E-03 0. -1.
        -11    1    4    4    0    0 -0.43582964994E+00  0.40029895916E+01  0.61909819222E+01  0.73852644216E+01  0.51100000000E-03 0.  1.
        -12    1    4    4    0    0 -0.60607652041E+00  0.91309669133E+01 -0.20870404177E+02  0.22788498328E+02  0.00000000000E+00 0.  1.
</event>
<event>
 8    1  0.1229941E-006  0.9118800E+02  0.7816164E-02  0.1184000E+00
        -11   -1    0    0    0    0  0.00000000000E+00  0.00000000000E+00  0.45593999997E+02  0.45594000000E+02  0.51100000000E-03 0. -1.
         11   -1    0    0    0    0 -0.00000000000E+00 -0.00000000000E+00 -0.45593999997E+02  0.45594000000E+02  0.51100000000E-03 0.  1.
         23    2    1    2    0    0  0.17763568394E-14  0.17763568394E-14  0.00000000000E+00  0.91188000000E+02  0.91188000000E+02 0.  0.
    9900012    2    3    3    0    0 -0.11058880127E+02 -0.45522422931E+00  0.35117999614E+02  0.54367082635E+02  0.39999996482E+02 0.  0.
        -12    1    3    3    0    0  0.11058880127E+02  0.45522422931E+00 -0.35117999614E+02  0.36820917365E+02  0.00000000000E+00 0.  1.
         11    1    4    4    0    0 -0.91632772691E+00 -0.16221664169E+02  0.29151177914E+02  0.33373241061E+02  0.51100000000E-03 0. -1.
        -11    1    4    4    0    0 -0.28678231874E+01  0.28655276870E+01 -0.16045994207E+01  0.43600915497E+01  0.51100000000E-03 0.  1.
         12    1    4    4    0    0 -0.72747292123E+01  0.12900912253E+02  0.75714211209E+01  0.16633750024E+02  0.00000000000E+00 0. -1.
</event>
<event>
 8    1  0.1229941E-006  0.9118800E+02  0.7816164E-02  0.1184000E+00
        -11   -1    0    0    0    0  0.00000000000E+00  0.00000000000E+00  0.45593999997E+02  0.45594000000E+02  0.51100000000E-03 0. -1.
         11   -1    0    0    0    0 -0.00000000000E+00 -0.00000000000E+00 -0.45593999997E+02  0.45594000000E+02  0.51100000000E-03 0.  1.
         23    2    1    2    0    0  0.00000000000E+00 -0.35527136788E-14  0.00000000000E+00  0.91188000000E+02  0.91188000000E+02 0.  0.
    9900012    2    3    3    0    0  0.15045749821E+02 -0.20519438934E+02 -0.26614924736E+02  0.54367133897E+02  0.40000113346E+02 0.  0.
         12    1    3    3    0    0 -0.15045749821E+02  0.20519438934E+02  0.26614924736E+02  0.36820866103E+02  0.00000000000E+00 0. -1.
         11    1    4    4    0    0  0.43811404885E+01 -0.29361646482E+02 -0.12576846825E+02  0.32240932872E+02  0.51100000000E-03 0. -1.
        -11    1    4    4    0    0  0.76081834736E+01 -0.12604210908E+00 -0.67679315818E+01  0.10183577001E+02  0.51100000000E-03 0.  1.
         12    1    4    4    0    0  0.30564258588E+01  0.89682496570E+01 -0.72701463291E+01  0.11942624024E+02  0.00000000000E+00 0. -1.
</event>
<event>
 8    1  0.1229941E-006  0.9118800E+02  0.7816164E-02  0.1184000E+00
        -11   -1    0    0    0    0  0.00000000000E+00  0.00000000000E+00  0.45593999997E+02  0.45594000000E+02  0.51100000000E-03 0. -1.
         11   -1    0    0    0    0 -0.00000000000E+00 -0.00000000000E+00 -0.45593999997E+02  0.45594000000E+02  0.51100000000E-03 0.  1.
         23    2    1    2    0    0  0.35527136788E-14  0.88817841970E-15 -0.71054273576E-14  0.91188000000E+02  0.91188000000E+02 0.  0.
    9900012    2    3    3    0    0 -0.11917643622E+02 -0.75071230117E+01  0.34020465518E+02  0.54367092903E+02  0.40000019891E+02 0.  0.
        -12    1    3    3    0    0  0.11917643622E+02  0.75071230117E+01 -0.34020465518E+02  0.36820907097E+02  0.00000000000E+00 0.  1.
         11    1    4    4    0    0 -0.47244767058E+01 -0.34112708472E+01  0.29513496698E+01  0.65320681312E+01  0.51100000000E-03 0. -1.
        -11    1    4    4    0    0 -0.12811210922E+02  0.60048454422E+01 -0.56054245890E+00  0.14159784680E+02  0.51100000000E-03 0.  1.
         12    1    4    4    0    0  0.56180440063E+01 -0.10100697607E+02  0.31629658307E+02  0.33675240091E+02  0.00000000000E+00 0. -1.
</event>
<event>
 8    1  0.1229941E-006  0.9118800E+02  0.7816164E-02  0.1184000E+00
        -11   -1    0    0    0    0  0.00000000000E+00  0.00000000000E+00  0.45593999997E+02  0.45594000000E+02  0.51100000000E-03 0.  1.
         11   -1    0    0    0    0 -0.00000000000E+00 -0.00000000000E+00 -0.45593999997E+02  0.45594000000E+02  0.51100000000E-03 0. -1.
         23    2    1    2    0    0  0.00000000000E+00  0.00000000000E+00  0.00000000000E+00  0.91188000000E+02  0.91188000000E+02 0.  0.
    9900012    2    3    3    0    0 -0.23873720512E+02 -0.12211721328E+02  0.25232903619E+02  0.54367080756E+02  0.39999992200E+02 0.  0.
         12    1    3    3    0    0  0.23873720512E+02  0.12211721328E+02 -0.25232903619E+02  0.36820919244E+02  0.00000000000E+00 0. -1.
         11    1    4    4    0    0 -0.11997039405E+02 -0.36614267065E+01 -0.92486820733E+01  0.15584387071E+02  0.51100000000E-03 0. -1.
        -11    1    4    4    0    0 -0.11764084190E+02 -0.92991034851E+01  0.24173835651E+02  0.28447167395E+02  0.51100000000E-03 0.  1.
        -12    1    4    4    0    0 -0.11259691682E+00  0.74880886388E+00  0.10307750041E+02  0.10335526290E+02  0.00000000000E+00 0.  1.
</event>
<event>
 8    1  0.1229941E-006  0.9118800E+02  0.7816164E-02  0.1184000E+00
        -11   -1    0    0    0    0  0.00000000000E+00  0.00000000000E+00  0.45593999997E+02  0.45594000000E+02  0.51100000000E-03 0. -1.
         11   -1    0    0    0    0 -0.00000000000E+00 -0.00000000000E+00 -0.45593999997E+02  0.45594000000E+02  0.51100000000E-03 0.  1.
         23    2    1    2    0    0 -0.88817841970E-15  0.00000000000E+00  0.00000000000E+00  0.91188000000E+02  0.91188000000E+02 0.  0.
    9900012    2    3    3    0    0 -0.40065251375E+01  0.28127855595E+02  0.23421161472E+02  0.54367091419E+02  0.40000016507E+02 0.  0.
        -12    1    3    3    0    0  0.40065251375E+01 -0.28127855595E+02 -0.23421161472E+02  0.36820908581E+02  0.00000000000E+00 0.  1.
         11    1    4    4    0    0 -0.72284119133E+01  0.12570163913E+02  0.94981696772E+01  0.17334191272E+02  0.51100000000E-03 0. -1.
        -11    1    4    4    0    0  0.18709308802E+01  0.17137877027E+02  0.22421927006E+02  0.28283387744E+02  0.51100000000E-03 0.  1.
         12    1    4    4    0    0  0.13509558957E+01 -0.15801853444E+01 -0.84989352115E+01  0.87495124027E+01  0.00000000000E+00 0. -1.
</event>
<event>
 8    1  0.1229941E-006  0.9118800E+02  0.7816164E-02  0.1184000E+00
        -11   -1    0    0    0    0  0.00000000000E+00  0.00000000000E+00  0.45593999997E+02  0.45594000000E+02  0.51100000000E-03 0.  1.
         11   -1    0    0    0    0 -0.00000000000E+00 -0.00000000000E+00 -0.45593999997E+02  0.45594000000E+02  0.51100000000E-03 0. -1.
         23    2    1    2    0    0 -0.17763568394E-14 -0.17763568394E-14  0.00000000000E+00  0.91188000000E+02  0.91188000000E+02 0.  0.
    9900012    2    3    3    0    0 -0.10379246956E+02  0.45539141384E+01 -0.35033024336E+02  0.54367086167E+02  0.40000004536E+02 0.  0.
        -12    1    3    3    0    0  0.10379246956E+02 -0.45539141384E+01  0.35033024336E+02  0.36820913833E+02  0.00000000000E+00 0.  1.
         11    1    4    4    0    0 -0.13713116980E+02  0.82061688051E+01 -0.65174088560E+01  0.17258835483E+02  0.51100000000E-03 0. -1.
        -11    1    4    4    0    0 -0.14402873886E+01 -0.59438806741E+01 -0.30755988541E+02  0.31358172405E+02  0.51100000000E-03 0.  1.
        -12    1    4    4    0    0  0.47741574131E+01  0.22916260074E+01  0.22403730609E+01  0.57500782790E+01  0.00000000000E+00 0.  1.
</event>
<event>
 8    1  0.1229941E-006  0.9118800E+02  0.7816164E-02  0.1184000E+00
        -11   -1    0    0    0    0  0.00000000000E+00  0.00000000000E+00  0.45593999997E+02  0.45594000000E+02  0.51100000000E-03 0.  1.
         11   -1    0    0    0    0 -0.00000000000E+00 -0.00000000000E+00 -0.45593999997E+02  0.45594000000E+02  0.51100000000E-03 0. -1.
         23    2    1    2    0    0  0.00000000000E+00 -0.44408920985E-15  0.00000000000E+00  0.91188000000E+02  0.91188000000E+02 0.  0.
    9900012    2    3    3    0    0 -0.35569838889E+02  0.33559414287E+01 -0.89052551156E+01  0.54367090856E+02  0.40000015225E+02 0.  0.
         12    1    3    3    0    0  0.35569838889E+02 -0.33559414287E+01  0.89052551156E+01  0.36820909144E+02  0.00000000000E+00 0. -1.
         11    1    4    4    0    0 -0.58029935446E+01 -0.76019689569E+01 -0.70176421144E+01  0.11862207518E+02  0.51100000000E-03 0. -1.
        -11    1    4    4    0    0 -0.31421851303E+02  0.24990820484E+01  0.44127974332E+01  0.31828461035E+02  0.51100000000E-03 0.  1.
        -12    1    4    4    0    0  0.16550059582E+01  0.84588283372E+01 -0.63004104344E+01  0.10676422303E+02  0.00000000000E+00 0.  1.
</event>
<event>
 8    1  0.1229941E-006  0.9118800E+02  0.7816164E-02  0.1184000E+00
        -11   -1    0    0    0    0  0.00000000000E+00  0.00000000000E+00  0.45593999997E+02  0.45594000000E+02  0.51100000000E-03 0.  1.
         11   -1    0    0    0    0 -0.00000000000E+00 -0.00000000000E+00 -0.45593999997E+02  0.45594000000E+02  0.51100000000E-03 0. -1.
         23    2    1    2    0    0  0.00000000000E+00  0.00000000000E+00  0.00000000000E+00  0.91188000000E+02  0.91188000000E+02 0.  0.
    9900012    2    3    3    0    0  0.48591020055E+01 -0.20300216978E+02  0.30332664394E+02  0.54367079169E+02  0.39999988580E+02 0.  0.
         12    1    3    3    0    0 -0.48591020055E+01  0.20300216978E+02 -0.30332664394E+02  0.36820920831E+02  0.00000000000E+00 0. -1.
         11    1    4    4    0    0  0.19132224820E+02 -0.21157681240E+02  0.12590394704E+02  0.31180242800E+02  0.51100000000E-03 0. -1.
        -11    1    4    4    0    0 -0.11696646196E+02 -0.96426312583E+00  0.13298926892E+02  0.17737045761E+02  0.51100000000E-03 0.  1.
         12    1    4    4    0    0 -0.25764766190E+01  0.18217273875E+01  0.44433427978E+01  0.54497906071E+01  0.00000000000E+00 0. -1.
</event>
<event>
 8    1  0.1229941E-006  0.9118800E+02  0.7816164E-02  0.1184000E+00
        -11   -1    0    0    0    0  0.00000000000E+00  0.00000000000E+00  0.45593999997E+02  0.45594000000E+02  0.51100000000E-03 0. -1.
         11   -1    0    0    0    0 -0.00000000000E+00 -0.00000000000E+00 -0.45593999997E+02  0.45594000000E+02  0.51100000000E-03 0.  1.
         23    2    1    2    0    0 -0.17763568394E-14  0.00000000000E+00  0.00000000000E+00  0.91188000000E+02  0.91188000000E+02 0.  0.
    9900012    2    3    3    0    0  0.87223998309E+01  0.58461001167E+01  0.35291947686E+02  0.54367099457E+02  0.40000034831E+02 0.  0.
        -12    1    3    3    0    0 -0.87223998309E+01 -0.58461001167E+01 -0.35291947686E+02  0.36820900543E+02  0.00000000000E+00 0.  1.
         11    1    4    4    0    0  0.10649649186E+02 -0.47874526148E+01  0.77740356717E+01  0.14027485919E+02  0.51100000000E-03 0. -1.
        -11    1    4    4    0    0 -0.95615242569E+01  0.85426273894E+01  0.29511907548E+02  0.32176884812E+02  0.51100000000E-03 0.  1.
        -12    1    4    4    0    0  0.76342749022E+01  0.20909253421E+01 -0.19939955337E+01  0.81627287262E+01  0.00000000000E+00 0.  1.
</event>
<event>
 8    1  0.1229941E-006  0.9118800E+02  0.7816164E-02  0.1184000E+00
        -11   -1    0    0    0    0  0.00000000000E+00  0.00000000000E+00  0.45593999997E+02  0.45594000000E+02  0.51100000000E-03 0.  1.
         11   -1    0    0    0    0 -0.00000000000E+00 -0.00000000000E+00 -0.45593999997E+02  0.45594000000E+02  0.51100000000E-03 0. -1.
         23    2    1    2    0    0 -0.88817841970E-15 -0.13322676296E-14 -0.71054273576E-14  0.91188000000E+02  0.91188000000E+02 0.  0.
    9900012    2    3    3    0    0  0.53414709454E+01  0.32388025126E+01  0.36287150672E+02  0.54367102978E+02  0.40000042859E+02 0.  0.
         12    1    3    3    0    0 -0.53414709454E+01 -0.32388025126E+01 -0.36287150672E+02  0.36820897022E+02  0.00000000000E+00 0. -1.
         11    1    4    4    0    0  0.88571371424E+01  0.16678216478E+02  0.66371000260E+01  0.20016565147E+02  0.51100000000E-03 0. -1.
        -11    1    4    4    0    0  0.28107953014E+01 -0.56179607654E+01  0.17400095615E+02  0.18499334612E+02  0.51100000000E-03 0.  1.
         12    1    4    4    0    0 -0.63264614985E+01 -0.78214532003E+01  0.12249955031E+02  0.15851203220E+02  0.00000000000E+00 0. -1.
</event>
<event>
 8    1  0.1229941E-006  0.9118800E+02  0.7816164E-02  0.1184000E+00
        -11   -1    0    0    0    0  0.00000000000E+00  0.00000000000E+00  0.45593999997E+02  0.45594000000E+02  0.51100000000E-03 0.  1.
         11   -1    0    0    0    0 -0.00000000000E+00 -0.00000000000E+00 -0.45593999997E+02  0.45594000000E+02  0.51100000000E-03 0. -1.
         23    2    1    2    0    0  0.00000000000E+00  0.00000000000E+00  0.17763568394E-14  0.91188000000E+02  0.91188000000E+02 0.  0.
    9900012    2    3    3    0    0  0.29814511048E+02 -0.16481745034E+02  0.13972361209E+02  0.54367083850E+02  0.39999999252E+02 0.  0.
         12    1    3    3    0    0 -0.29814511048E+02  0.16481745034E+02 -0.13972361209E+02  0.36820916150E+02  0.00000000000E+00 0. -1.
         11    1    4    4    0    0  0.77481850048E+01 -0.31233258876E+01  0.11354369657E+02  0.14096497652E+02  0.51100000000E-03 0. -1.
        -11    1    4    4    0    0  0.69422881051E+01 -0.10525325033E+02  0.15656374017E+02  0.20102235667E+02  0.51100000000E-03 0.  1.
         12    1    4    4    0    0  0.15124037938E+02 -0.28330941128E+01 -0.13038382466E+02  0.20168350531E+02  0.00000000000E+00 0. -1.
</event>
<event>
 8    1  0.1229941E-006  0.9118800E+02  0.7816164E-02  0.1184000E+00
        -11   -1    0    0    0    0  0.00000000000E+00  0.00000000000E+00  0.45593999997E+02  0.45594000000E+02  0.51100000000E-03 0.  1.
         11   -1    0    0    0    0 -0.00000000000E+00 -0.00000000000E+00 -0.45593999997E+02  0.45594000000E+02  0.51100000000E-03 0. -1.
         23    2    1    2    0    0  0.71054273576E-14  0.00000000000E+00 -0.17763568394E-14  0.91188000000E+02  0.91188000000E+02 0.  0.
    9900012    2    3    3    0    0  0.33379179729E+02  0.56576977254E+01 -0.14477583909E+02  0.54367087209E+02  0.40000006909E+02 0.  0.
        -12    1    3    3    0    0 -0.33379179729E+02 -0.56576977254E+01  0.14477583909E+02  0.36820912791E+02  0.00000000000E+00 0.  1.
         11    1    4    4    0    0  0.18182916983E+02 -0.11167662048E+02  0.54863563042E+00  0.21345635314E+02  0.51100000000E-03 0. -1.
        -11    1    4    4    0    0  0.15380777660E+02  0.19705476282E+02 -0.94153349934E+01  0.26711844755E+02  0.51100000000E-03 0.  1.
        -12    1    4    4    0    0 -0.18451491429E+00 -0.28801165084E+01 -0.56108845464E+01  0.63096071391E+01  0.00000000000E+00 0.  1.
</event>
<event>
 8    1  0.1229941E-006  0.9118800E+02  0.7816164E-02  0.1184000E+00
        -11   -1    0    0    0    0  0.00000000000E+00  0.00000000000E+00  0.45593999997E+02  0.45594000000E+02  0.51100000000E-03 0.  1.
         11   -1    0    0    0    0 -0.00000000000E+00 -0.00000000000E+00 -0.45593999997E+02  0.45594000000E+02  0.51100000000E-03 0. -1.
         23    2    1    2    0    0  0.00000000000E+00  0.00000000000E+00  0.17763568394E-14  0.91188000000E+02  0.91188000000E+02 0.  0.
    9900012    2    3    3    0    0 -0.11055452434E+02 -0.34184149378E+02 -0.80622800736E+01  0.54367089403E+02  0.40000011912E+02 0.  0.
         12    1    3    3    0    0  0.11055452434E+02  0.34184149378E+02  0.80622800736E+01  0.36820910597E+02  0.00000000000E+00 0. -1.
         11    1    4    4    0    0 -0.61769349648E+01 -0.32426478215E+00 -0.97718616971E+01  0.11564988305E+02  0.51100000000E-03 0.  1.
        -11    1    4    4    0    0 -0.44911657733E+01 -0.41250715972E+01 -0.92756157460E+01  0.11100623109E+02  0.51100000000E-03 0. -1.
        -12    1    4    4    0    0 -0.38735169592E+00 -0.29734812999E+02  0.10985197370E+02  0.31701477988E+02  0.00000000000E+00 0.  1.
</event>
<event>
 8    1  0.1229941E-006  0.9118800E+02  0.7816164E-02  0.1184000E+00
        -11   -1    0    0    0    0  0.00000000000E+00  0.00000000000E+00  0.45593999997E+02  0.45594000000E+02  0.51100000000E-03 0.  1.
         11   -1    0    0    0    0 -0.00000000000E+00 -0.00000000000E+00 -0.45593999997E+02  0.45594000000E+02  0.51100000000E-03 0. -1.
         23    2    1    2    0    0  0.00000000000E+00  0.00000000000E+00  0.00000000000E+00  0.91188000000E+02  0.91188000000E+02 0.  0.
    9900012    2    3    3    0    0 -0.10919704935E+02  0.80134855634E+01 -0.34239203941E+02  0.54367095702E+02  0.40000026273E+02 0.  0.
        -12    1    3    3    0    0  0.10919704935E+02 -0.80134855634E+01  0.34239203941E+02  0.36820904298E+02  0.00000000000E+00 0.  1.
         11    1    4    4    0    0 -0.14809792673E+02  0.64873736089E+01 -0.73667771831E+01  0.17767537299E+02  0.51100000000E-03 0. -1.
        -11    1    4    4    0    0 -0.98038438139E+00 -0.22468841277E+00 -0.30348387044E+02  0.30365049561E+02  0.51100000000E-03 0.  1.
         12    1    4    4    0    0  0.48704721191E+01  0.17508003673E+01  0.34759602860E+01  0.62345088418E+01  0.00000000000E+00 0. -1.
</event>
<event>
 8    1  0.1229941E-006  0.9118800E+02  0.7816164E-02  0.1184000E+00
        -11   -1    0    0    0    0  0.00000000000E+00  0.00000000000E+00  0.45593999997E+02  0.45594000000E+02  0.51100000000E-03 0. -1.
         11   -1    0    0    0    0 -0.00000000000E+00 -0.00000000000E+00 -0.45593999997E+02  0.45594000000E+02  0.51100000000E-03 0.  1.
         23    2    1    2    0    0  0.00000000000E+00  0.35527136788E-14 -0.35527136788E-14  0.91188000000E+02  0.91188000000E+02 0.  0.
    9900012    2    3    3    0    0  0.24901436819E+02 -0.23095775032E+02 -0.14222644834E+02  0.54367081950E+02  0.39999994921E+02 0.  0.
         12    1    3    3    0    0 -0.24901436819E+02  0.23095775032E+02  0.14222644834E+02  0.36820918050E+02  0.00000000000E+00 0. -1.
         11    1    4    4    0    0 -0.28913222763E+01 -0.44822334484E+01  0.50215264336E+01  0.73257005928E+01  0.51100000000E-03 0. -1.
        -11    1    4    4    0    0  0.21498232804E+02 -0.25659583685E+02 -0.14838270821E+02  0.36616424318E+02  0.51100000000E-03 0.  1.
         12    1    4    4    0    0  0.62945262915E+01  0.70460421017E+01 -0.44059004462E+01  0.10424957039E+02  0.00000000000E+00 0. -1.
</event>
<event>
 8    1  0.1229941E-006  0.9118800E+02  0.7816164E-02  0.1184000E+00
        -11   -1    0    0    0    0  0.00000000000E+00  0.00000000000E+00  0.45593999997E+02  0.45594000000E+02  0.51100000000E-03 0.  1.
         11   -1    0    0    0    0 -0.00000000000E+00 -0.00000000000E+00 -0.45593999997E+02  0.45594000000E+02  0.51100000000E-03 0. -1.
         23    2    1    2    0    0  0.00000000000E+00 -0.66613381478E-15  0.35527136788E-14  0.91188000000E+02  0.91188000000E+02 0.  0.
    9900012    2    3    3    0    0  0.24277599484E+02  0.16501023418E+01 -0.27634319069E+02  0.54367078436E+02  0.39999986910E+02 0.  0.
        -12    1    3    3    0    0 -0.24277599484E+02 -0.16501023418E+01  0.27634319069E+02  0.36820921564E+02  0.00000000000E+00 0.  1.
         11    1    4    4    0    0  0.15174163442E+02  0.94571454892E+01 -0.88814554402E+01  0.19964295329E+02  0.51100000000E-03 0. -1.
        -11    1    4    4    0    0  0.79751916277E+01  0.27421754035E+00  0.49121193387E+01  0.93705812743E+01  0.51100000000E-03 0.  1.
         12    1    4    4    0    0  0.11282444137E+01 -0.80812606878E+01 -0.23664982967E+02  0.25032201833E+02  0.00000000000E+00 0. -1.
</event>
<event>
 8    1  0.1229941E-006  0.9118800E+02  0.7816164E-02  0.1184000E+00
        -11   -1    0    0    0    0  0.00000000000E+00  0.00000000000E+00  0.45593999997E+02  0.45594000000E+02  0.51100000000E-03 0. -1.
         11   -1    0    0    0    0 -0.00000000000E+00 -0.00000000000E+00 -0.45593999997E+02  0.45594000000E+02  0.51100000000E-03 0.  1.
         23    2    1    2    0    0  0.00000000000E+00  0.00000000000E+00 -0.35527136788E-14  0.91188000000E+02  0.91188000000E+02 0.  0.
    9900012    2    3    3    0    0  0.87857384697E+01  0.33885959292E+02 -0.11416456717E+02  0.54367042359E+02  0.39999904666E+02 0.  0.
         12    1    3    3    0    0 -0.87857384697E+01 -0.33885959292E+02  0.11416456717E+02  0.36820957641E+02  0.00000000000E+00 0. -1.
         11    1    4    4    0    0  0.72193032596E+01  0.57790179781E+01 -0.13503747125E+01  0.93455283676E+01  0.51100000000E-03 0. -1.
        -11    1    4    4    0    0  0.11922069235E+02  0.53380286588E+00  0.37211094942E+01  0.12500693440E+02  0.51100000000E-03 0.  1.
        -12    1    4    4    0    0 -0.10355634025E+02  0.27573138448E+02 -0.13787191498E+02  0.32520820552E+02  0.00000000000E+00 0.  1.
</event>
<event>
 8    1  0.1229941E-006  0.9118800E+02  0.7816164E-02  0.1184000E+00
        -11   -1    0    0    0    0  0.00000000000E+00  0.00000000000E+00  0.45593999997E+02  0.45594000000E+02  0.51100000000E-03 0.  1.
         11   -1    0    0    0    0 -0.00000000000E+00 -0.00000000000E+00 -0.45593999997E+02  0.45594000000E+02  0.51100000000E-03 0. -1.
         23    2    1    2    0    0  0.00000000000E+00  0.00000000000E+00  0.28796409701E-15  0.91188000000E+02  0.91188000000E+02 0.  0.
    9900012    2    3    3    0    0  0.36289042530E+02  0.62368237456E+01  0.46394144488E-02  0.54366910938E+02  0.39999605064E+02 0.  0.
         12    1    3    3    0    0 -0.36289042530E+02 -0.62368237456E+01 -0.46394144488E-02  0.36821089062E+02  0.00000000000E+00 0. -1.
         11    1    4    4    0    0  0.14933233296E+02 -0.11883052617E+02 -0.16050998352E+01  0.19151625046E+02  0.51100000000E-03 0. -1.
        -11    1    4    4    0    0 -0.20210582927E+01 -0.88532691984E+00 -0.40015227467E+01  0.45695366211E+01  0.51100000000E-03 0.  1.
        -12    1    4    4    0    0  0.23376867527E+02  0.19005203283E+02  0.56112619963E+01  0.30645749271E+02  0.00000000000E+00 0.  1.
</event>
<event>
 8    1  0.1229941E-006  0.9118800E+02  0.7816164E-02  0.1184000E+00
        -11   -1    0    0    0    0  0.00000000000E+00  0.00000000000E+00  0.45593999997E+02  0.45594000000E+02  0.51100000000E-03 0. -1.
         11   -1    0    0    0    0 -0.00000000000E+00 -0.00000000000E+00 -0.45593999997E+02  0.45594000000E+02  0.51100000000E-03 0.  1.
         23    2    1    2    0    0  0.00000000000E+00  0.71054273576E-14  0.17763568394E-14  0.91188000000E+02  0.91188000000E+02 0.  0.
    9900012    2    3    3    0    0  0.25364018760E+02  0.23412701628E+02  0.12817680040E+02  0.54367068904E+02  0.39999965181E+02 0.  0.
         12    1    3    3    0    0 -0.25364018760E+02 -0.23412701628E+02 -0.12817680040E+02  0.36820931096E+02  0.00000000000E+00 0. -1.
         11    1    4    4    0    0 -0.13633322125E+01  0.19624543685E+01 -0.16045158110E+01  0.28782586956E+01  0.51100000000E-03 0. -1.
        -11    1    4    4    0    0  0.32915779878E+02  0.22591784829E+02  0.18488863393E+02  0.43996310943E+02  0.51100000000E-03 0.  1.
         12    1    4    4    0    0 -0.61884289064E+01 -0.11415375697E+01 -0.40666675420E+01  0.74924992659E+01  0.00000000000E+00 0. -1.
</event>
<event>
 8    1  0.1229941E-006  0.9118800E+02  0.7816164E-02  0.1184000E+00
        -11   -1    0    0    0    0  0.00000000000E+00  0.00000000000E+00  0.45593999997E+02  0.45594000000E+02  0.51100000000E-03 0.  1.
         11   -1    0    0    0    0 -0.00000000000E+00 -0.00000000000E+00 -0.45593999997E+02  0.45594000000E+02  0.51100000000E-03 0. -1.
         23    2    1    2    0    0  0.00000000000E+00  0.35527136788E-14  0.00000000000E+00  0.91188000000E+02  0.91188000000E+02 0.  0.
    9900012    2    3    3    0    0  0.22956887391E+02 -0.26596473638E+02  0.11017657589E+02  0.54367083833E+02  0.39999999214E+02 0.  0.
        -12    1    3    3    0    0 -0.22956887391E+02  0.26596473638E+02 -0.11017657589E+02  0.36820916167E+02  0.00000000000E+00 0.  1.
         11    1    4    4    0    0  0.19762357779E+01 -0.10827040046E+02  0.10752141712E+02  0.15386320406E+02  0.51100000000E-03 0. -1.
        -11    1    4    4    0    0 -0.57845873019E+01 -0.72191330310E+01  0.49551193690E+01  0.10494309896E+02  0.51100000000E-03 0.  1.
         12    1    4    4    0    0  0.26765238915E+02 -0.85503005609E+01 -0.46896034914E+01  0.28486453530E+02  0.00000000000E+00 0. -1.
</event>
<event>
 8    1  0.1229941E-006  0.9118800E+02  0.7816164E-02  0.1184000E+00
        -11   -1    0    0    0    0  0.00000000000E+00  0.00000000000E+00  0.45593999997E+02  0.45594000000E+02  0.51100000000E-03 0. -1.
         11   -1    0    0    0    0 -0.00000000000E+00 -0.00000000000E+00 -0.45593999997E+02  0.45594000000E+02  0.51100000000E-03 0.  1.
         23    2    1    2    0    0  0.00000000000E+00 -0.19428902931E-14 -0.35527136788E-14  0.91188000000E+02  0.91188000000E+02 0.  0.
    9900012    2    3    3    0    0  0.28882982786E+02  0.29910302905E+00 -0.22835587168E+02  0.54367079336E+02  0.39999988962E+02 0.  0.
         12    1    3    3    0    0 -0.28882982786E+02 -0.29910302905E+00  0.22835587168E+02  0.36820920664E+02  0.00000000000E+00 0. -1.
         11    1    4    4    0    0  0.14491206063E+02 -0.94702415129E+01 -0.33189565414E+01  0.17626570860E+02  0.51100000000E-03 0. -1.
        -11    1    4    4    0    0 -0.32611867341E+00 -0.78574464747E+01 -0.28436283569E+01  0.83625379512E+01  0.51100000000E-03 0.  1.
        -12    1    4    4    0    0  0.14717895396E+02  0.17626791017E+02 -0.16673002269E+02  0.28377970525E+02  0.00000000000E+00 0.  1.
</event>
<event>
 8    1  0.1229941E-006  0.9118800E+02  0.7816164E-02  0.1184000E+00
        -11   -1    0    0    0    0  0.00000000000E+00  0.00000000000E+00  0.45593999997E+02  0.45594000000E+02  0.51100000000E-03 0.  1.
         11   -1    0    0    0    0 -0.00000000000E+00 -0.00000000000E+00 -0.45593999997E+02  0.45594000000E+02  0.51100000000E-03 0. -1.
         23    2    1    2    0    0  0.17763568394E-14  0.00000000000E+00  0.88817841970E-15  0.91188000000E+02  0.91188000000E+02 0.  0.
    9900012    2    3    3    0    0 -0.10051796272E+02  0.35123350917E+02 -0.45925085136E+01  0.54367088518E+02  0.40000009894E+02 0.  0.
        -12    1    3    3    0    0  0.10051796272E+02 -0.35123350917E+02  0.45925085136E+01  0.36820911482E+02  0.00000000000E+00 0.  1.
         11    1    4    4    0    0  0.32360441200E+01  0.69078338271E+01 -0.95482835235E-01  0.76288444054E+01  0.51100000000E-03 0. -1.
        -11    1    4    4    0    0  0.92617221980E+01  0.18801321705E+02  0.30134157611E+01  0.21174273795E+02  0.51100000000E-03 0.  1.
         12    1    4    4    0    0 -0.22549562590E+02  0.94141953848E+01 -0.75104414395E+01  0.25563970317E+02  0.00000000000E+00 0. -1.
</event>
<event>
 8    1  0.1229941E-006  0.9118800E+02  0.7816164E-02  0.1184000E+00
        -11   -1    0    0    0    0  0.00000000000E+00  0.00000000000E+00  0.45593999997E+02  0.45594000000E+02  0.51100000000E-03 0.  1.
         11   -1    0    0    0    0 -0.00000000000E+00 -0.00000000000E+00 -0.45593999997E+02  0.45594000000E+02  0.51100000000E-03 0. -1.
         23    2    1    2    0    0  0.00000000000E+00  0.00000000000E+00  0.00000000000E+00  0.91188000000E+02  0.91188000000E+02 0.  0.
    9900012    2    3    3    0    0 -0.15392871085E+02  0.59329449749E+01 -0.32918705682E+02  0.54367061662E+02  0.39999948671E+02 0.  0.
        -12    1    3    3    0    0  0.15392871085E+02 -0.59329449749E+01  0.32918705682E+02  0.36820938338E+02  0.00000000000E+00 0.  1.
         11    1    4    4    0    0 -0.15689517583E+02  0.10160643996E+01 -0.34609044245E+02  0.38012883246E+02  0.51100000000E-03 0. -1.
        -11    1    4    4    0    0  0.18218962001E+01 -0.37802978745E+01 -0.40422184262E+01  0.58266189038E+01  0.51100000000E-03 0.  1.
         12    1    4    4    0    0 -0.15252497022E+01  0.86971784498E+01  0.57325569899E+01  0.10527559512E+02  0.00000000000E+00 0. -1.
</event>
<event>
 8    1  0.1229941E-006  0.9118800E+02  0.7816164E-02  0.1184000E+00
        -11   -1    0    0    0    0  0.00000000000E+00  0.00000000000E+00  0.45593999997E+02  0.45594000000E+02  0.51100000000E-03 0.  1.
         11   -1    0    0    0    0 -0.00000000000E+00 -0.00000000000E+00 -0.45593999997E+02  0.45594000000E+02  0.51100000000E-03 0. -1.
         23    2    1    2    0    0 -0.35527136788E-14  0.00000000000E+00 -0.35527136788E-14  0.91188000000E+02  0.91188000000E+02 0.  0.
    9900012    2    3    3    0    0 -0.29071342840E+02  0.10610473203E+02 -0.19951377065E+02  0.54367047230E+02  0.39999915770E+02 0.  0.
        -12    1    3    3    0    0  0.29071342840E+02 -0.10610473203E+02  0.19951377065E+02  0.36820952770E+02  0.00000000000E+00 0.  1.
         11    1    4    4    0    0 -0.44765344679E+01 -0.13209725698E+02 -0.32960376501E+01  0.14331785594E+02  0.51100000000E-03 0.  1.
        -11    1    4    4    0    0 -0.56243839410E+01 -0.40193408908E+00 -0.26837466604E+01  0.62448172211E+01  0.51100000000E-03 0. -1.
        -12    1    4    4    0    0 -0.18970424431E+02  0.24222132990E+02 -0.13971592754E+02  0.33790444415E+02  0.00000000000E+00 0.  1.
</event>
<event>
 8    1  0.1229941E-006  0.9118800E+02  0.7816164E-02  0.1184000E+00
        -11   -1    0    0    0    0  0.00000000000E+00  0.00000000000E+00  0.45593999997E+02  0.45594000000E+02  0.51100000000E-03 0. -1.
         11   -1    0    0    0    0 -0.00000000000E+00 -0.00000000000E+00 -0.45593999997E+02  0.45594000000E+02  0.51100000000E-03 0.  1.
         23    2    1    2    0    0  0.00000000000E+00 -0.44408920985E-15  0.00000000000E+00  0.91188000000E+02  0.91188000000E+02 0.  0.
    9900012    2    3    3    0    0 -0.10445089495E+02  0.19719975343E+01 -0.35253243709E+02  0.54367083922E+02  0.39999999416E+02 0.  0.
         12    1    3    3    0    0  0.10445089495E+02 -0.19719975343E+01  0.35253243709E+02  0.36820916078E+02  0.00000000000E+00 0. -1.
         11    1    4    4    0    0 -0.17540660656E+02  0.88116169238E+01 -0.16053585327E+02  0.25358173656E+02  0.51100000000E-03 0. -1.
        -11    1    4    4    0    0 -0.35651201673E+00 -0.17362496315E+01 -0.19872915202E+02  0.19951802487E+02  0.51100000000E-03 0.  1.
         12    1    4    4    0    0  0.74520831771E+01 -0.51033697580E+01  0.67325681974E+00  0.90571077785E+01  0.00000000000E+00 0. -1.
</event>
<event>
 8    1  0.1229941E-006  0.9118800E+02  0.7816164E-02  0.1184000E+00
        -11   -1    0    0    0    0  0.00000000000E+00  0.00000000000E+00  0.45593999997E+02  0.45594000000E+02  0.51100000000E-03 0. -1.
         11   -1    0    0    0    0 -0.00000000000E+00 -0.00000000000E+00 -0.45593999997E+02  0.45594000000E+02  0.51100000000E-03 0.  1.
         23    2    1    2    0    0  0.35527136788E-14  0.00000000000E+00  0.66613381478E-15  0.91188000000E+02  0.91188000000E+02 0.  0.
    9900012    2    3    3    0    0  0.15025742102E+02  0.33587254579E+02  0.13795466092E+01  0.54367085498E+02  0.40000003011E+02 0.  0.
         12    1    3    3    0    0 -0.15025742102E+02 -0.33587254579E+02 -0.13795466092E+01  0.36820914502E+02  0.00000000000E+00 0. -1.
         11    1    4    4    0    0  0.10038773696E+02  0.16002081527E+01  0.81206137620E+01  0.13010842078E+02  0.51100000000E-03 0. -1.
        -11    1    4    4    0    0  0.45384042270E+01  0.25734772697E+02  0.63055734785E+01  0.26881887878E+02  0.51100000000E-03 0.  1.
        -12    1    4    4    0    0  0.44856417923E+00  0.62522737290E+01 -0.13046640631E+02  0.14474355542E+02  0.00000000000E+00 0.  1.
</event>
<event>
 8    1  0.1229941E-006  0.9118800E+02  0.7816164E-02  0.1184000E+00
        -11   -1    0    0    0    0  0.00000000000E+00  0.00000000000E+00  0.45593999997E+02  0.45594000000E+02  0.51100000000E-03 0.  1.
         11   -1    0    0    0    0 -0.00000000000E+00 -0.00000000000E+00 -0.45593999997E+02  0.45594000000E+02  0.51100000000E-03 0. -1.
         23    2    1    2    0    0 -0.71054273576E-14  0.00000000000E+00  0.35527136788E-14  0.91188000000E+02  0.91188000000E+02 0.  0.
    9900012    2    3    3    0    0 -0.26975275491E+02 -0.36278063190E+01  0.24798269691E+02  0.54367073258E+02  0.39999975106E+02 0.  0.
         12    1    3    3    0    0  0.26975275491E+02  0.36278063190E+01 -0.24798269691E+02  0.36820926742E+02  0.00000000000E+00 0. -1.
         11    1    4    4    0    0 -0.23338241191E+02 -0.12042618257E+01  0.76004243503E+01  0.24574177484E+02  0.51100000000E-03 0. -1.
        -11    1    4    4    0    0 -0.21045971169E+01 -0.13105013373E+02  0.72886535754E+01  0.15142495691E+02  0.51100000000E-03 0.  1.
        -12    1    4    4    0    0 -0.15324371829E+01  0.10681468880E+02  0.99091917649E+01  0.14650400083E+02  0.00000000000E+00 0.  1.
</event>
<event>
 8    1  0.1229941E-006  0.9118800E+02  0.7816164E-02  0.1184000E+00
        -11   -1    0    0    0    0  0.00000000000E+00  0.00000000000E+00  0.45593999997E+02  0.45594000000E+02  0.51100000000E-03 0. -1.
         11   -1    0    0    0    0 -0.00000000000E+00 -0.00000000000E+00 -0.45593999997E+02  0.45594000000E+02  0.51100000000E-03 0.  1.
         23    2    1    2    0    0 -0.17763568394E-14  0.00000000000E+00  0.00000000000E+00  0.91188000000E+02  0.91188000000E+02 0.  0.
    9900012    2    3    3    0    0 -0.49149387599E+01 -0.15188399142E+02  0.33180347516E+02  0.54367088104E+02  0.40000008952E+02 0.  0.
        -12    1    3    3    0    0  0.49149387599E+01  0.15188399142E+02 -0.33180347516E+02  0.36820911896E+02  0.00000000000E+00 0.  1.
         11    1    4    4    0    0  0.46353102346E+01 -0.13911639902E+02  0.11242334257E+02  0.18477280794E+02  0.51100000000E-03 0. -1.
        -11    1    4    4    0    0 -0.16193767053E+02 -0.82380150183E+01  0.17733887243E+02  0.25388850699E+02  0.51100000000E-03 0.  1.
        -12    1    4    4    0    0  0.66435180584E+01  0.69612557780E+01  0.42041260165E+01  0.10500956612E+02  0.00000000000E+00 0.  1.
</event>
<event>
 8    1  0.1229941E-006  0.9118800E+02  0.7816164E-02  0.1184000E+00
        -11   -1    0    0    0    0  0.00000000000E+00  0.00000000000E+00  0.45593999997E+02  0.45594000000E+02  0.51100000000E-03 0.  1.
         11   -1    0    0    0    0 -0.00000000000E+00 -0.00000000000E+00 -0.45593999997E+02  0.45594000000E+02  0.51100000000E-03 0. -1.
         23    2    1    2    0    0  0.00000000000E+00  0.00000000000E+00  0.00000000000E+00  0.91188000000E+02  0.91188000000E+02 0.  0.
    9900012    2    3    3    0    0  0.32327146089E+02 -0.43647701781E+01 -0.17078776283E+02  0.54367079420E+02  0.39999989155E+02 0.  0.
        -12    1    3    3    0    0 -0.32327146089E+02  0.43647701781E+01  0.17078776283E+02  0.36820920580E+02  0.00000000000E+00 0.  1.
         11    1    4    4    0    0  0.36418964043E+02 -0.61912981875E+01 -0.55696713399E+01  0.37358992951E+02  0.51100000000E-03 0. -1.
        -11    1    4    4    0    0  0.37925506705E+01 -0.91726123086E+00 -0.21062183578E+01  0.44340686492E+01  0.51100000000E-03 0.  1.
        -12    1    4    4    0    0 -0.78843686244E+01  0.27437892403E+01 -0.94028865856E+01  0.12574017820E+02  0.00000000000E+00 0.  1.
</event>
<event>
 8    1  0.1229941E-006  0.9118800E+02  0.7816164E-02  0.1184000E+00
        -11   -1    0    0    0    0  0.00000000000E+00  0.00000000000E+00  0.45593999997E+02  0.45594000000E+02  0.51100000000E-03 0.  1.
         11   -1    0    0    0    0 -0.00000000000E+00 -0.00000000000E+00 -0.45593999997E+02  0.45594000000E+02  0.51100000000E-03 0. -1.
         23    2    1    2    0    0 -0.88817841970E-15 -0.71054273576E-14  0.35527136788E-14  0.91188000000E+02  0.91188000000E+02 0.  0.
    9900012    2    3    3    0    0  0.68514373673E+01  0.18197098604E+02  0.31268260795E+02  0.54367072191E+02  0.39999972673E+02 0.  0.
         12    1    3    3    0    0 -0.68514373673E+01 -0.18197098604E+02 -0.31268260795E+02  0.36820927809E+02  0.00000000000E+00 0. -1.
         11    1    4    4    0    0  0.26935927720E+01 -0.97414160536E+01  0.14440237241E+02  0.17625863967E+02  0.51100000000E-03 0. -1.
        -11    1    4    4    0    0 -0.43274059332E+01  0.21656122169E+02  0.11964937504E+02  0.25117201262E+02  0.51100000000E-03 0.  1.
         12    1    4    4    0    0  0.84852505285E+01  0.62823924889E+01  0.48630860496E+01  0.11624006962E+02  0.00000000000E+00 0. -1.
</event>
<event>
 8    1  0.1229941E-006  0.9118800E+02  0.7816164E-02  0.1184000E+00
        -11   -1    0    0    0    0  0.00000000000E+00  0.00000000000E+00  0.45593999997E+02  0.45594000000E+02  0.51100000000E-03 0.  1.
         11   -1    0    0    0    0 -0.00000000000E+00 -0.00000000000E+00 -0.45593999997E+02  0.45594000000E+02  0.51100000000E-03 0. -1.
         23    2    1    2    0    0  0.00000000000E+00  0.00000000000E+00 -0.17763568394E-14  0.91188000000E+02  0.91188000000E+02 0.  0.
    9900012    2    3    3    0    0 -0.21128706459E+02  0.25895510758E+02 -0.15452495332E+02  0.54367091184E+02  0.40000015973E+02 0.  0.
        -12    1    3    3    0    0  0.21128706459E+02 -0.25895510758E+02  0.15452495332E+02  0.36820908816E+02  0.00000000000E+00 0.  1.
         11    1    4    4    0    0 -0.10224276666E+02  0.17362690072E+02 -0.18048452768E+02  0.27050794581E+02  0.51100000000E-03 0. -1.
        -11    1    4    4    0    0  0.52434017836E+01 -0.34966836044E+00 -0.51197617342E+01  0.73367220680E+01  0.51100000000E-03 0.  1.
         12    1    4    4    0    0 -0.16147831576E+02  0.88824890471E+01  0.77157191709E+01  0.19979574535E+02  0.00000000000E+00 0. -1.
</event>
<event>
 8    1  0.1229941E-006  0.9118800E+02  0.7816164E-02  0.1184000E+00
        -11   -1    0    0    0    0  0.00000000000E+00  0.00000000000E+00  0.45593999997E+02  0.45594000000E+02  0.51100000000E-03 0.  1.
         11   -1    0    0    0    0 -0.00000000000E+00 -0.00000000000E+00 -0.45593999997E+02  0.45594000000E+02  0.51100000000E-03 0. -1.
         23    2    1    2    0    0  0.17763568394E-14  0.35527136788E-14  0.00000000000E+00  0.91188000000E+02  0.91188000000E+02 0.  0.
    9900012    2    3    3    0    0  0.10005804573E+02  0.29327765787E+02 -0.19888337188E+02  0.54367083019E+02  0.39999997358E+02 0.  0.
        -12    1    3    3    0    0 -0.10005804573E+02 -0.29327765787E+02  0.19888337188E+02  0.36820916981E+02  0.00000000000E+00 0.  1.
         11    1    4    4    0    0 -0.91273200073E+01  0.97138308213E+01 -0.17008841784E+02  0.21609423380E+02  0.51100000000E-03 0. -1.
        -11    1    4    4    0    0  0.10673977623E+02 -0.32899382767E+00  0.10886916670E+01  0.10734397284E+02  0.51100000000E-03 0.  1.
        -12    1    4    4    0    0  0.84591469573E+01  0.19942928794E+02 -0.39681870707E+01  0.22023262355E+02  0.00000000000E+00 0.  1.
</event>
<event>
 8    1  0.1229941E-006  0.9118800E+02  0.7816164E-02  0.1184000E+00
        -11   -1    0    0    0    0  0.00000000000E+00  0.00000000000E+00  0.45593999997E+02  0.45594000000E+02  0.51100000000E-03 0. -1.
         11   -1    0    0    0    0 -0.00000000000E+00 -0.00000000000E+00 -0.45593999997E+02  0.45594000000E+02  0.51100000000E-03 0.  1.
         23    2    1    2    0    0 -0.17763568394E-14  0.00000000000E+00 -0.35527136788E-14  0.91188000000E+02  0.91188000000E+02 0.  0.
    9900012    2    3    3    0    0  0.14813547532E+02  0.21865449813E+02 -0.25656174751E+02  0.54367103911E+02  0.40000044985E+02 0.  0.
         12    1    3    3    0    0 -0.14813547532E+02 -0.21865449813E+02  0.25656174751E+02  0.36820896089E+02  0.00000000000E+00 0. -1.
         11    1    4    4    0    0 -0.93714899208E+00  0.23579770045E+01 -0.97630117985E+00  0.27187254444E+01  0.51100000000E-03 0. -1.
        -11    1    4    4    0    0  0.22039698509E+02  0.23264340184E+02 -0.28935032775E+02  0.43176544055E+02  0.51100000000E-03 0.  1.
         12    1    4    4    0    0 -0.62890019846E+01 -0.37568673757E+01  0.42551592044E+01  0.84718344115E+01  0.00000000000E+00 0. -1.
</event>
<event>
 8    1  0.1229941E-006  0.9118800E+02  0.7816164E-02  0.1184000E+00
        -11   -1    0    0    0    0  0.00000000000E+00  0.00000000000E+00  0.45593999997E+02  0.45594000000E+02  0.51100000000E-03 0. -1.
         11   -1    0    0    0    0 -0.00000000000E+00 -0.00000000000E+00 -0.45593999997E+02  0.45594000000E+02  0.51100000000E-03 0.  1.
         23    2    1    2    0    0  0.00000000000E+00  0.00000000000E+00  0.17763568394E-14  0.91188000000E+02  0.91188000000E+02 0.  0.
    9900012    2    3    3    0    0  0.27765117647E+02  0.18174982434E+02  0.15954531824E+02  0.54367097918E+02  0.40000031324E+02 0.  0.
        -12    1    3    3    0    0 -0.27765117647E+02 -0.18174982434E+02 -0.15954531824E+02  0.36820902082E+02  0.00000000000E+00 0.  1.
         11    1    4    4    0    0 -0.39662351858E+01  0.10701892582E+02  0.14593075470E+02  0.18526180888E+02  0.51100000000E-03 0. -1.
        -11    1    4    4    0    0  0.17249252851E+02  0.90759946405E+01 -0.47160043028E+01  0.20053705380E+02  0.51100000000E-03 0.  1.
         12    1    4    4    0    0  0.14482099981E+02 -0.16029047888E+01  0.60774606573E+01  0.15787211650E+02  0.00000000000E+00 0. -1.
</event>
<event>
 8    1  0.1229941E-006  0.9118800E+02  0.7816164E-02  0.1184000E+00
        -11   -1    0    0    0    0  0.00000000000E+00  0.00000000000E+00  0.45593999997E+02  0.45594000000E+02  0.51100000000E-03 0. -1.
         11   -1    0    0    0    0 -0.00000000000E+00 -0.00000000000E+00 -0.45593999997E+02  0.45594000000E+02  0.51100000000E-03 0.  1.
         23    2    1    2    0    0  0.00000000000E+00  0.00000000000E+00 -0.22204460493E-15  0.91188000000E+02  0.91188000000E+02 0.  0.
    9900012    2    3    3    0    0 -0.27897399384E+02  0.23952670356E+02 -0.19453445397E+01  0.54367086446E+02  0.40000005171E+02 0.  0.
        -12    1    3    3    0    0  0.27897399384E+02 -0.23952670356E+02  0.19453445397E+01  0.36820913554E+02  0.00000000000E+00 0.  1.
         11    1    4    4    0    0 -0.46412007880E+01 -0.42750326677E+01 -0.55282761088E+01  0.83891886414E+01  0.51100000000E-03 0. -1.
        -11    1    4    4    0    0 -0.37402758487E+01  0.19505491767E+02 -0.82946310061E+01  0.21523354206E+02  0.51100000000E-03 0.  1.
         12    1    4    4    0    0 -0.19515922747E+02  0.87222112566E+01  0.11877562575E+02  0.24454543598E+02  0.00000000000E+00 0. -1.
</event>
<event>
 8    1  0.1229941E-006  0.9118800E+02  0.7816164E-02  0.1184000E+00
        -11   -1    0    0    0    0  0.00000000000E+00  0.00000000000E+00  0.45593999997E+02  0.45594000000E+02  0.51100000000E-03 0.  1.
         11   -1    0    0    0    0 -0.00000000000E+00 -0.00000000000E+00 -0.45593999997E+02  0.45594000000E+02  0.51100000000E-03 0. -1.
         23    2    1    2    0    0  0.20122792321E-15  0.35527136788E-14  0.00000000000E+00  0.91188000000E+02  0.91188000000E+02 0.  0.
    9900012    2    3    3    0    0  0.57435135570E-01 -0.29313844820E+02  0.22281768731E+02  0.54367054674E+02  0.39999932740E+02 0.  0.
         12    1    3    3    0    0 -0.57435135570E-01  0.29313844820E+02 -0.22281768731E+02  0.36820945326E+02  0.00000000000E+00 0. -1.
         11    1    4    4    0    0 -0.70818762191E+01 -0.17370730040E+02  0.13664897266E+02  0.23208288400E+02  0.51100000000E-03 0. -1.
        -11    1    4    4    0    0  0.24203610055E+01 -0.16866690887E+02  0.14328439036E+02  0.22263143856E+02  0.51100000000E-03 0.  1.
         12    1    4    4    0    0  0.47189503491E+01  0.49235761077E+01 -0.57115675709E+01  0.88956224180E+01  0.00000000000E+00 0. -1.
</event>
<event>
 8    1  0.1229941E-006  0.9118800E+02  0.7816164E-02  0.1184000E+00
        -11   -1    0    0    0    0  0.00000000000E+00  0.00000000000E+00  0.45593999997E+02  0.45594000000E+02  0.51100000000E-03 0. -1.
         11   -1    0    0    0    0 -0.00000000000E+00 -0.00000000000E+00 -0.45593999997E+02  0.45594000000E+02  0.51100000000E-03 0.  1.
         23    2    1    2    0    0  0.88817841970E-15  0.00000000000E+00  0.00000000000E+00  0.91188000000E+02  0.91188000000E+02 0.  0.
    9900012    2    3    3    0    0 -0.54324176138E+01  0.69243012269E+01  0.35753639723E+02  0.54367083905E+02  0.39999999379E+02 0.  0.
        -12    1    3    3    0    0  0.54324176138E+01 -0.69243012269E+01 -0.35753639723E+02  0.36820916095E+02  0.00000000000E+00 0.  1.
         11    1    4    4    0    0  0.13642427861E+02  0.46283475443E+01  0.23863925497E+02  0.27875157027E+02  0.51100000000E-03 0. -1.
        -11    1    4    4    0    0  0.16260518093E+01  0.17584851129E+01 -0.37544762646E+00  0.24243092955E+01  0.51100000000E-03 0.  1.
         12    1    4    4    0    0 -0.20700897284E+02  0.53746856965E+00  0.12265161853E+02  0.24067617583E+02  0.00000000000E+00 0. -1.
</event>
<event>
 8    1  0.1229941E-006  0.9118800E+02  0.7816164E-02  0.1184000E+00
        -11   -1    0    0    0    0  0.00000000000E+00  0.00000000000E+00  0.45593999997E+02  0.45594000000E+02  0.51100000000E-03 0. -1.
         11   -1    0    0    0    0 -0.00000000000E+00 -0.00000000000E+00 -0.45593999997E+02  0.45594000000E+02  0.51100000000E-03 0.  1.
         23    2    1    2    0    0  0.00000000000E+00 -0.35527136788E-14  0.17763568394E-14  0.91188000000E+02  0.91188000000E+02 0.  0.
    9900012    2    3    3    0    0  0.18241389713E+02  0.28731624980E+02 -0.14054338218E+02  0.54367095674E+02  0.40000026208E+02 0.  0.
         12    1    3    3    0    0 -0.18241389713E+02 -0.28731624980E+02  0.14054338218E+02  0.36820904326E+02  0.00000000000E+00 0. -1.
         11    1    4    4    0    0  0.23633339709E+02  0.67718021425E+01 -0.75667334862E+01  0.25722509714E+02  0.51100000000E-03 0. -1.
        -11    1    4    4    0    0  0.52658122153E+01  0.58861269850E+01 -0.48976116764E+01  0.92931087137E+01  0.51100000000E-03 0.  1.
        -12    1    4    4    0    0 -0.10657762212E+02  0.16073695852E+02 -0.15899930558E+01  0.19351477247E+02  0.00000000000E+00 0.  1.
</event>
<event>
 8    1  0.1229941E-006  0.9118800E+02  0.7816164E-02  0.1184000E+00
        -11   -1    0    0    0    0  0.00000000000E+00  0.00000000000E+00  0.45593999997E+02  0.45594000000E+02  0.51100000000E-03 0.  1.
         11   -1    0    0    0    0 -0.00000000000E+00 -0.00000000000E+00 -0.45593999997E+02  0.45594000000E+02  0.51100000000E-03 0. -1.
         23    2    1    2    0    0  0.00000000000E+00  0.17763568394E-14  0.71054273576E-14  0.91188000000E+02  0.91188000000E+02 0.  0.
    9900012    2    3    3    0    0  0.15914617312E+02  0.47919600196E+01 -0.32856403281E+02  0.54367066259E+02  0.39999959151E+02 0.  0.
        -12    1    3    3    0    0 -0.15914617312E+02 -0.47919600196E+01  0.32856403281E+02  0.36820933741E+02  0.00000000000E+00 0.  1.
         11    1    4    4    0    0 -0.16781310204E+01  0.11111577616E+02  0.24378242639E+01  0.11498968138E+02  0.51100000000E-03 0. -1.
        -11    1    4    4    0    0  0.32675089677E+01  0.64249818760E+00  0.79221279508E+00  0.34230133141E+01  0.51100000000E-03 0.  1.
         12    1    4    4    0    0  0.14325239365E+02 -0.69621157839E+01 -0.36086440340E+02  0.39445084807E+02  0.00000000000E+00 0. -1.
</event>
<event>
 8    1  0.1229941E-006  0.9118800E+02  0.7816164E-02  0.1184000E+00
        -11   -1    0    0    0    0  0.00000000000E+00  0.00000000000E+00  0.45593999997E+02  0.45594000000E+02  0.51100000000E-03 0.  1.
         11   -1    0    0    0    0 -0.00000000000E+00 -0.00000000000E+00 -0.45593999997E+02  0.45594000000E+02  0.51100000000E-03 0. -1.
         23    2    1    2    0    0  0.00000000000E+00  0.00000000000E+00  0.00000000000E+00  0.91188000000E+02  0.91188000000E+02 0.  0.
    9900012    2    3    3    0    0  0.31570747777E+02  0.18376012513E+02  0.46248128430E+01  0.54367097717E+02  0.40000030866E+02 0.  0.
        -12    1    3    3    0    0 -0.31570747777E+02 -0.18376012513E+02 -0.46248128430E+01  0.36820902283E+02  0.00000000000E+00 0.  1.
         11    1    4    4    0    0  0.18916070096E+02  0.21726833374E+02 -0.33118447788E+00  0.28809419983E+02  0.51100000000E-03 0. -1.
        -11    1    4    4    0    0  0.49722820476E+01  0.90505478205E+01  0.34708234672E+01  0.10894155333E+02  0.51100000000E-03 0.  1.
        -12    1    4    4    0    0  0.76823956337E+01 -0.12401368681E+02  0.14851738537E+01  0.14663522401E+02  0.00000000000E+00 0.  1.
</event>
<event>
 8    1  0.1229941E-006  0.9118800E+02  0.7816164E-02  0.1184000E+00
        -11   -1    0    0    0    0  0.00000000000E+00  0.00000000000E+00  0.45593999997E+02  0.45594000000E+02  0.51100000000E-03 0.  1.
         11   -1    0    0    0    0 -0.00000000000E+00 -0.00000000000E+00 -0.45593999997E+02  0.45594000000E+02  0.51100000000E-03 0. -1.
         23    2    1    2    0    0  0.00000000000E+00  0.00000000000E+00  0.00000000000E+00  0.91188000000E+02  0.91188000000E+02 0.  0.
    9900012    2    3    3    0    0  0.19135066141E+02 -0.21894760988E+02 -0.22588675936E+02  0.54367087525E+02  0.40000007630E+02 0.  0.
        -12    1    3    3    0    0 -0.19135066141E+02  0.21894760988E+02  0.22588675936E+02  0.36820912475E+02  0.00000000000E+00 0.  1.
         11    1    4    4    0    0  0.10132825499E+02 -0.68430879253E+01 -0.13899558017E+02  0.18512150558E+02  0.51100000000E-03 0. -1.
        -11    1    4    4    0    0  0.19242824743E+02 -0.89745207999E+01 -0.20507557355E+00  0.21233708671E+02  0.51100000000E-03 0.  1.
        -12    1    4    4    0    0 -0.10240584101E+02 -0.60771522631E+01 -0.84840423457E+01  0.14621228296E+02  0.00000000000E+00 0.  1.
</event>
<event>
 8    1  0.1229941E-006  0.9118800E+02  0.7816164E-02  0.1184000E+00
        -11   -1    0    0    0    0  0.00000000000E+00  0.00000000000E+00  0.45593999997E+02  0.45594000000E+02  0.51100000000E-03 0.  1.
         11   -1    0    0    0    0 -0.00000000000E+00 -0.00000000000E+00 -0.45593999997E+02  0.45594000000E+02  0.51100000000E-03 0. -1.
         23    2    1    2    0    0  0.00000000000E+00  0.17763568394E-14  0.00000000000E+00  0.91188000000E+02  0.91188000000E+02 0.  0.
    9900012    2    3    3    0    0  0.29547427494E+01 -0.13481445459E+02  0.34136516200E+02  0.54367060106E+02  0.39999945124E+02 0.  0.
         12    1    3    3    0    0 -0.29547427494E+01  0.13481445459E+02 -0.34136516200E+02  0.36820939894E+02  0.00000000000E+00 0. -1.
         11    1    4    4    0    0  0.13467734441E+02  0.12180597011E+01  0.85507294414E+01  0.15999328569E+02  0.51100000000E-03 0. -1.
        -11    1    4    4    0    0  0.49626709818E+01  0.48194698387E+00  0.11446925506E+02  0.12485691009E+02  0.51100000000E-03 0.  1.
         12    1    4    4    0    0 -0.15475662674E+02 -0.15181452144E+02  0.14138861253E+02  0.25882040528E+02  0.00000000000E+00 0. -1.
</event>
<event>
 8    1  0.1229941E-006  0.9118800E+02  0.7816164E-02  0.1184000E+00
        -11   -1    0    0    0    0  0.00000000000E+00  0.00000000000E+00  0.45593999997E+02  0.45594000000E+02  0.51100000000E-03 0.  1.
         11   -1    0    0    0    0 -0.00000000000E+00 -0.00000000000E+00 -0.45593999997E+02  0.45594000000E+02  0.51100000000E-03 0. -1.
         23    2    1    2    0    0  0.00000000000E+00  0.00000000000E+00  0.00000000000E+00  0.91188000000E+02  0.91188000000E+02 0.  0.
    9900012    2    3    3    0    0 -0.23856220139E+02 -0.97749061650E+01 -0.26289041772E+02  0.54367058307E+02  0.39999941023E+02 0.  0.
        -12    1    3    3    0    0  0.23856220139E+02  0.97749061650E+01  0.26289041772E+02  0.36820941693E+02  0.00000000000E+00 0.  1.
         11    1    4    4    0    0 -0.13663448351E+02 -0.13396333714E+02 -0.19655483582E+02  0.27431544122E+02  0.51100000000E-03 0. -1.
        -11    1    4    4    0    0  0.35575129292E+01 -0.75692669732E+01 -0.25353764924E+01  0.87394413421E+01  0.51100000000E-03 0.  1.
        -12    1    4    4    0    0 -0.13750284717E+02  0.11190694522E+02 -0.40981816978E+01  0.18196072843E+02  0.00000000000E+00 0.  1.
</event>
<event>
 8    1  0.1229941E-006  0.9118800E+02  0.7816164E-02  0.1184000E+00
        -11   -1    0    0    0    0  0.00000000000E+00  0.00000000000E+00  0.45593999997E+02  0.45594000000E+02  0.51100000000E-03 0. -1.
         11   -1    0    0    0    0 -0.00000000000E+00 -0.00000000000E+00 -0.45593999997E+02  0.45594000000E+02  0.51100000000E-03 0.  1.
         23    2    1    2    0    0 -0.13322676296E-14  0.00000000000E+00  0.00000000000E+00  0.91188000000E+02  0.91188000000E+02 0.  0.
    9900012    2    3    3    0    0 -0.37496043059E+01  0.35214185860E+02  0.10083679999E+02  0.54367095332E+02  0.40000025428E+02 0.  0.
         12    1    3    3    0    0  0.37496043059E+01 -0.35214185860E+02 -0.10083679999E+02  0.36820904668E+02  0.00000000000E+00 0. -1.
         11    1    4    4    0    0 -0.11365140459E+02  0.11439138083E+02  0.19772056868E+02  0.25513810589E+02  0.51100000000E-03 0. -1.
        -11    1    4    4    0    0  0.51879634249E+01  0.22670285559E+02 -0.55164041212E+01  0.23901621838E+02  0.51100000000E-03 0.  1.
         12    1    4    4    0    0  0.24275727278E+01  0.11047622186E+01 -0.41719727481E+01  0.49516629045E+01  0.00000000000E+00 0. -1.
</event>
<event>
 8    1  0.1229941E-006  0.9118800E+02  0.7816164E-02  0.1184000E+00
        -11   -1    0    0    0    0  0.00000000000E+00  0.00000000000E+00  0.45593999997E+02  0.45594000000E+02  0.51100000000E-03 0. -1.
         11   -1    0    0    0    0 -0.00000000000E+00 -0.00000000000E+00 -0.45593999997E+02  0.45594000000E+02  0.51100000000E-03 0.  1.
         23    2    1    2    0    0  0.71054273576E-14 -0.53290705182E-14 -0.26645352591E-14  0.91188000000E+02  0.91188000000E+02 0.  0.
    9900012    2    3    3    0    0  0.32745939151E+02 -0.15325772385E+02 -0.69707220187E+01  0.54367261339E+02  0.40000403872E+02 0.  0.
         12    1    3    3    0    0 -0.32745939151E+02  0.15325772385E+02  0.69707220187E+01  0.36820738661E+02  0.00000000000E+00 0. -1.
         11    1    4    4    0    0 -0.96593697809E+00 -0.16739827793E+02  0.11713337511E+01  0.16808536278E+02  0.51100000000E-03 0. -1.
        -11    1    4    4    0    0  0.53423716207E+01 -0.51082284520E+01 -0.23911140538E+00  0.73954112108E+01  0.51100000000E-03 0.  1.
        -12    1    4    4    0    0  0.28369504509E+02  0.65222838602E+01 -0.79029443644E+01  0.30163313851E+02  0.00000000000E+00 0.  1.
</event>
<event>
 8    1  0.1229941E-006  0.9118800E+02  0.7816164E-02  0.1184000E+00
        -11   -1    0    0    0    0  0.00000000000E+00  0.00000000000E+00  0.45593999997E+02  0.45594000000E+02  0.51100000000E-03 0. -1.
         11   -1    0    0    0    0 -0.00000000000E+00 -0.00000000000E+00 -0.45593999997E+02  0.45594000000E+02  0.51100000000E-03 0.  1.
         23    2    1    2    0    0 -0.44408920985E-15  0.00000000000E+00 -0.35527136788E-14  0.91188000000E+02  0.91188000000E+02 0.  0.
    9900012    2    3    3    0    0 -0.15656647644E+01  0.19298755523E+02  0.31319128741E+02  0.54367067150E+02  0.39999961181E+02 0.  0.
        -12    1    3    3    0    0  0.15656647644E+01 -0.19298755523E+02 -0.31319128741E+02  0.36820932850E+02  0.00000000000E+00 0.  1.
         11    1    4    4    0    0 -0.77210486768E+01  0.43117097804E+01  0.98168334185E+01  0.13212707994E+02  0.51100000000E-03 0. -1.
        -11    1    4    4    0    0 -0.53126750317E+01  0.14591488470E+02 -0.13456721182E+01  0.15586753526E+02  0.51100000000E-03 0.  1.
        -12    1    4    4    0    0  0.11468058944E+02  0.39555727238E+00  0.22847967441E+02  0.25567605630E+02  0.00000000000E+00 0.  1.
</event>
<event>
 8    1  0.1229941E-006  0.9118800E+02  0.7816164E-02  0.1184000E+00
        -11   -1    0    0    0    0  0.00000000000E+00  0.00000000000E+00  0.45593999997E+02  0.45594000000E+02  0.51100000000E-03 0. -1.
         11   -1    0    0    0    0 -0.00000000000E+00 -0.00000000000E+00 -0.45593999997E+02  0.45594000000E+02  0.51100000000E-03 0.  1.
         23    2    1    2    0    0  0.00000000000E+00  0.35527136788E-14  0.00000000000E+00  0.91188000000E+02  0.91188000000E+02 0.  0.
    9900012    2    3    3    0    0  0.22736072093E+02  0.28148231677E+02  0.68211837519E+01  0.54367075670E+02  0.39999980604E+02 0.  0.
        -12    1    3    3    0    0 -0.22736072093E+02 -0.28148231677E+02 -0.68211837519E+01  0.36820924330E+02  0.00000000000E+00 0.  1.
         11    1    4    4    0    0  0.16197928838E+02 -0.14147960724E+00  0.91277990100E+01  0.18593268410E+02  0.51100000000E-03 0.  1.
        -11    1    4    4    0    0  0.35413680229E+01  0.23872697988E+02  0.69270492018E+01  0.25108385205E+02  0.51100000000E-03 0. -1.
         12    1    4    4    0    0  0.29967752325E+01  0.44170132961E+01 -0.92336644599E+01  0.10665422055E+02  0.00000000000E+00 0. -1.
</event>
<event>
 8    1  0.1229941E-006  0.9118800E+02  0.7816164E-02  0.1184000E+00
        -11   -1    0    0    0    0  0.00000000000E+00  0.00000000000E+00  0.45593999997E+02  0.45594000000E+02  0.51100000000E-03 0.  1.
         11   -1    0    0    0    0 -0.00000000000E+00 -0.00000000000E+00 -0.45593999997E+02  0.45594000000E+02  0.51100000000E-03 0. -1.
         23    2    1    2    0    0  0.00000000000E+00  0.00000000000E+00  0.17763568394E-14  0.91188000000E+02  0.91188000000E+02 0.  0.
    9900012    2    3    3    0    0  0.34789499474E+02  0.54885949859E+01  0.10739989506E+02  0.54367064064E+02  0.39999954148E+02 0.  0.
         12    1    3    3    0    0 -0.34789499474E+02 -0.54885949859E+01 -0.10739989506E+02  0.36820935936E+02  0.00000000000E+00 0. -1.
         11    1    4    4    0    0  0.75268950136E+01 -0.25120126362E+01 -0.10741712174E+02  0.13354727130E+02  0.51100000000E-03 0. -1.
        -11    1    4    4    0    0 -0.15659724221E+01 -0.35463134198E+01  0.21774089506E+01  0.44463151595E+01  0.51100000000E-03 0.  1.
         12    1    4    4    0    0  0.28828576883E+02  0.11546921042E+02  0.19304292730E+02  0.36566021775E+02  0.00000000000E+00 0. -1.
</event>
<event>
 8    1  0.1229941E-006  0.9118800E+02  0.7816164E-02  0.1184000E+00
        -11   -1    0    0    0    0  0.00000000000E+00  0.00000000000E+00  0.45593999997E+02  0.45594000000E+02  0.51100000000E-03 0. -1.
         11   -1    0    0    0    0 -0.00000000000E+00 -0.00000000000E+00 -0.45593999997E+02  0.45594000000E+02  0.51100000000E-03 0.  1.
         23    2    1    2    0    0 -0.44408920985E-15  0.71054273576E-14 -0.20816681712E-15  0.91188000000E+02  0.91188000000E+02 0.  0.
    9900012    2    3    3    0    0  0.19262719440E+01  0.36770517997E+02  0.18739345577E-01  0.54367056659E+02  0.39999937265E+02 0.  0.
        -12    1    3    3    0    0 -0.19262719440E+01 -0.36770517997E+02 -0.18739345577E-01  0.36820943341E+02  0.00000000000E+00 0.  1.
         11    1    4    4    0    0 -0.69066660272E+01  0.17188397341E+02 -0.43883308258E+01  0.19036819232E+02  0.51100000000E-03 0. -1.
        -11    1    4    4    0    0  0.68358909937E+01 -0.61700188475E+01  0.68610180625E+00  0.92341363540E+01  0.51100000000E-03 0.  1.
        -12    1    4    4    0    0  0.19970469776E+01  0.25752139503E+02  0.37209683651E+01  0.26096101073E+02  0.00000000000E+00 0.  1.
</event>
<event>
 8    1  0.1229941E-006  0.9118800E+02  0.7816164E-02  0.1184000E+00
        -11   -1    0    0    0    0  0.00000000000E+00  0.00000000000E+00  0.45593999997E+02  0.45594000000E+02  0.51100000000E-03 0. -1.
         11   -1    0    0    0    0 -0.00000000000E+00 -0.00000000000E+00 -0.45593999997E+02  0.45594000000E+02  0.51100000000E-03 0.  1.
         23    2    1    2    0    0  0.00000000000E+00  0.17763568394E-14  0.35527136788E-14  0.91188000000E+02  0.91188000000E+02 0.  0.
    9900012    2    3    3    0    0 -0.15358021476E+02 -0.15005605624E+02 -0.29912280283E+02  0.54367061180E+02  0.39999947573E+02 0.  0.
         12    1    3    3    0    0  0.15358021476E+02  0.15005605624E+02  0.29912280283E+02  0.36820938820E+02  0.00000000000E+00 0. -1.
         11    1    4    4    0    0  0.37443944313E+00 -0.45838448385E+01  0.33351162025E+01  0.56810948545E+01  0.51100000000E-03 0. -1.
        -11    1    4    4    0    0 -0.81685167531E+00 -0.17879360528E+02 -0.22884305943E+02  0.29052198511E+02  0.51100000000E-03 0.  1.
        -12    1    4    4    0    0 -0.14915609244E+02  0.74575997420E+01 -0.10363090542E+02  0.19633767815E+02  0.00000000000E+00 0.  1.
</event>
<event>
 8    1  0.1229941E-006  0.9118800E+02  0.7816164E-02  0.1184000E+00
        -11   -1    0    0    0    0  0.00000000000E+00  0.00000000000E+00  0.45593999997E+02  0.45594000000E+02  0.51100000000E-03 0. -1.
         11   -1    0    0    0    0 -0.00000000000E+00 -0.00000000000E+00 -0.45593999997E+02  0.45594000000E+02  0.51100000000E-03 0.  1.
         23    2    1    2    0    0  0.00000000000E+00 -0.17763568394E-14  0.19984014443E-14  0.91188000000E+02  0.91188000000E+02 0.  0.
    9900012    2    3    3    0    0  0.33540270953E+02 -0.15188726121E+02 -0.36599441463E+00  0.54367066705E+02  0.39999960168E+02 0.  0.
         12    1    3    3    0    0 -0.33540270953E+02  0.15188726121E+02  0.36599441463E+00  0.36820933295E+02  0.00000000000E+00 0. -1.
         11    1    4    4    0    0  0.47412625063E+01  0.60527829647E+01  0.60811217251E+01  0.98028461921E+01  0.51100000000E-03 0. -1.
        -11    1    4    4    0    0  0.13400581962E+02 -0.12731446335E+01  0.78444058371E+01  0.15579833034E+02  0.51100000000E-03 0.  1.
        -12    1    4    4    0    0  0.15398426485E+02 -0.19968364452E+02 -0.14291521977E+02  0.28984387479E+02  0.00000000000E+00 0.  1.
</event>
<event>
 8    1  0.1229941E-006  0.9118800E+02  0.7816164E-02  0.1184000E+00
        -11   -1    0    0    0    0  0.00000000000E+00  0.00000000000E+00  0.45593999997E+02  0.45594000000E+02  0.51100000000E-03 0.  1.
         11   -1    0    0    0    0 -0.00000000000E+00 -0.00000000000E+00 -0.45593999997E+02  0.45594000000E+02  0.51100000000E-03 0. -1.
         23    2    1    2    0    0 -0.17763568394E-14  0.00000000000E+00  0.00000000000E+00  0.91188000000E+02  0.91188000000E+02 0.  0.
    9900012    2    3    3    0    0 -0.11923311365E+02 -0.14593126043E+02  0.31633134874E+02  0.54367083341E+02  0.39999998093E+02 0.  0.
         12    1    3    3    0    0  0.11923311365E+02  0.14593126043E+02 -0.31633134874E+02  0.36820916659E+02  0.00000000000E+00 0. -1.
         11    1    4    4    0    0 -0.31304081991E+01 -0.74723038520E+00  0.29212587517E+02  0.29389336135E+02  0.51100000000E-03 0. -1.
        -11    1    4    4    0    0 -0.59184371617E+01 -0.16382939314E+02  0.72017199258E+01  0.18849227283E+02  0.51100000000E-03 0.  1.
        -12    1    4    4    0    0 -0.28744660043E+01  0.25370436565E+01 -0.47811725684E+01  0.61285199236E+01  0.00000000000E+00 0.  1.
</event>
<event>
 8    1  0.1229941E-006  0.9118800E+02  0.7816164E-02  0.1184000E+00
        -11   -1    0    0    0    0  0.00000000000E+00  0.00000000000E+00  0.45593999997E+02  0.45594000000E+02  0.51100000000E-03 0. -1.
         11   -1    0    0    0    0 -0.00000000000E+00 -0.00000000000E+00 -0.45593999997E+02  0.45594000000E+02  0.51100000000E-03 0.  1.
         23    2    1    2    0    0  0.00000000000E+00  0.35527136788E-14  0.00000000000E+00  0.91188000000E+02  0.91188000000E+02 0.  0.
    9900012    2    3    3    0    0  0.17379390225E+02 -0.31056537470E+02  0.94460458271E+01  0.54367088740E+02  0.40000010402E+02 0.  0.
        -12    1    3    3    0    0 -0.17379390225E+02  0.31056537470E+02 -0.94460458271E+01  0.36820911260E+02  0.00000000000E+00 0.  1.
         11    1    4    4    0    0  0.41338986477E+01 -0.18629791784E+02  0.33800052072E+01  0.19379956021E+02  0.51100000000E-03 0. -1.
        -11    1    4    4    0    0  0.23475349018E+01  0.70921954423E+01 -0.60015909803E+01  0.95827579988E+01  0.51100000000E-03 0.  1.
        -12    1    4    4    0    0  0.10897956676E+02 -0.19518941129E+02  0.12067631600E+02  0.25404374720E+02  0.00000000000E+00 0.  1.
</event>
<event>
 8    1  0.1229941E-006  0.9118800E+02  0.7816164E-02  0.1184000E+00
        -11   -1    0    0    0    0  0.00000000000E+00  0.00000000000E+00  0.45593999997E+02  0.45594000000E+02  0.51100000000E-03 0.  1.
         11   -1    0    0    0    0 -0.00000000000E+00 -0.00000000000E+00 -0.45593999997E+02  0.45594000000E+02  0.51100000000E-03 0. -1.
         23    2    1    2    0    0 -0.71054273576E-14  0.00000000000E+00  0.00000000000E+00  0.91188000000E+02  0.91188000000E+02 0.  0.
    9900012    2    3    3    0    0  0.32032905242E+02 -0.16712532362E+02 -0.70967009572E+01  0.54367096689E+02  0.40000028522E+02 0.  0.
         12    1    3    3    0    0 -0.32032905242E+02  0.16712532362E+02  0.70967009572E+01  0.36820903311E+02  0.00000000000E+00 0. -1.
         11    1    4    4    0    0  0.78556469313E+01 -0.40577166378E+01 -0.12253689241E+02  0.15110564295E+02  0.51100000000E-03 0. -1.
        -11    1    4    4    0    0  0.28372852820E+02 -0.46431890174E+01 -0.18897652907E+00  0.28750890312E+02  0.51100000000E-03 0.  1.
        -12    1    4    4    0    0 -0.41955945092E+01 -0.80116267063E+01  0.53459648133E+01  0.10505642082E+02  0.00000000000E+00 0.  1.
</event>
<event>
 8    1  0.1229941E-006  0.9118800E+02  0.7816164E-02  0.1184000E+00
        -11   -1    0    0    0    0  0.00000000000E+00  0.00000000000E+00  0.45593999997E+02  0.45594000000E+02  0.51100000000E-03 0. -1.
         11   -1    0    0    0    0 -0.00000000000E+00 -0.00000000000E+00 -0.45593999997E+02  0.45594000000E+02  0.51100000000E-03 0.  1.
         23    2    1    2    0    0  0.00000000000E+00  0.35527136788E-14  0.00000000000E+00  0.91188000000E+02  0.91188000000E+02 0.  0.
    9900012    2    3    3    0    0  0.21384586481E+02 -0.26535648751E+02  0.13940583764E+02  0.54367067512E+02  0.39999962006E+02 0.  0.
        -12    1    3    3    0    0 -0.21384586481E+02  0.26535648751E+02 -0.13940583764E+02  0.36820932488E+02  0.00000000000E+00 0.  1.
         11    1    4    4    0    0  0.12363772237E+02 -0.52702985865E+01  0.68338737416E+01  0.15077822843E+02  0.51100000000E-03 0. -1.
        -11    1    4    4    0    0  0.11176790367E+02 -0.27377689632E+02  0.11202597786E+02  0.31622092434E+02  0.51100000000E-03 0.  1.
        -12    1    4    4    0    0 -0.21559761226E+01  0.61123394672E+01 -0.40958877641E+01  0.76671522341E+01  0.00000000000E+00 0.  1.
</event>
<event>
 8    1  0.1229941E-006  0.9118800E+02  0.7816164E-02  0.1184000E+00
        -11   -1    0    0    0    0  0.00000000000E+00  0.00000000000E+00  0.45593999997E+02  0.45594000000E+02  0.51100000000E-03 0. -1.
         11   -1    0    0    0    0 -0.00000000000E+00 -0.00000000000E+00 -0.45593999997E+02  0.45594000000E+02  0.51100000000E-03 0.  1.
         23    2    1    2    0    0  0.00000000000E+00  0.00000000000E+00  0.00000000000E+00  0.91188000000E+02  0.91188000000E+02 0.  0.
    9900012    2    3    3    0    0 -0.19642595464E+02  0.29746364821E+02  0.92259059222E+01  0.54366876759E+02  0.39999527144E+02 0.  0.
        -12    1    3    3    0    0  0.19642595464E+02 -0.29746364821E+02 -0.92259059222E+01  0.36821123241E+02  0.00000000000E+00 0.  1.
         11    1    4    4    0    0 -0.11988547145E+01 -0.45642625220E+01  0.18937734320E+00  0.47228814336E+01  0.51100000000E-03 0. -1.
        -11    1    4    4    0    0 -0.13981060514E+02  0.34554236572E+02 -0.24125270348E+01  0.37353521990E+02  0.51100000000E-03 0.  1.
        -12    1    4    4    0    0 -0.44626802362E+01 -0.24360922835E+00  0.11449055614E+02  0.12290473335E+02  0.00000000000E+00 0.  1.
</event>
<event>
 8    1  0.1229941E-006  0.9118800E+02  0.7816164E-02  0.1184000E+00
        -11   -1    0    0    0    0  0.00000000000E+00  0.00000000000E+00  0.45593999997E+02  0.45594000000E+02  0.51100000000E-03 0.  1.
         11   -1    0    0    0    0 -0.00000000000E+00 -0.00000000000E+00 -0.45593999997E+02  0.45594000000E+02  0.51100000000E-03 0. -1.
         23    2    1    2    0    0  0.00000000000E+00  0.00000000000E+00 -0.11102230246E-15  0.91188000000E+02  0.91188000000E+02 0.  0.
    9900012    2    3    3    0    0 -0.41564579213E+01  0.36585045114E+02 -0.19651943412E+00  0.54367078117E+02  0.39999986183E+02 0.  0.
         12    1    3    3    0    0  0.41564579213E+01 -0.36585045114E+02  0.19651943412E+00  0.36820921883E+02  0.00000000000E+00 0. -1.
         11    1    4    4    0    0 -0.15665184749E+02  0.77605670851E+01  0.10338607562E+01  0.17512660650E+02  0.51100000000E-03 0. -1.
        -11    1    4    4    0    0 -0.44665509492E+01  0.10999536820E+02  0.36612963929E+01  0.12423565478E+02  0.51100000000E-03 0.  1.
         12    1    4    4    0    0  0.15975277777E+02  0.17824941208E+02 -0.48916765832E+01  0.24430851989E+02  0.00000000000E+00 0. -1.
</event>
<event>
 8    1  0.1229941E-006  0.9118800E+02  0.7816164E-02  0.1184000E+00
        -11   -1    0    0    0    0  0.00000000000E+00  0.00000000000E+00  0.45593999997E+02  0.45594000000E+02  0.51100000000E-03 0. -1.
         11   -1    0    0    0    0 -0.00000000000E+00 -0.00000000000E+00 -0.45593999997E+02  0.45594000000E+02  0.51100000000E-03 0.  1.
         23    2    1    2    0    0  0.00000000000E+00  0.00000000000E+00 -0.35527136788E-14  0.91188000000E+02  0.91188000000E+02 0.  0.
    9900012    2    3    3    0    0  0.15336343649E+02 -0.11165476828E+02 -0.31558035590E+02  0.54367069544E+02  0.39999966640E+02 0.  0.
         12    1    3    3    0    0 -0.15336343649E+02  0.11165476828E+02  0.31558035590E+02  0.36820930456E+02  0.00000000000E+00 0. -1.
         11    1    4    4    0    0 -0.19849355128E+01  0.30781602496E+01 -0.81076103221E+01  0.88965378046E+01  0.51100000000E-03 0. -1.
        -11    1    4    4    0    0  0.11715744360E+02 -0.17999201020E+02 -0.29444963870E+02  0.36444969486E+02  0.51100000000E-03 0.  1.
        -12    1    4    4    0    0  0.56055348023E+01  0.37555639430E+01  0.59945386019E+01  0.90255622539E+01  0.00000000000E+00 0.  1.
</event>
<event>
 8    1  0.1229941E-006  0.9118800E+02  0.7816164E-02  0.1184000E+00
        -11   -1    0    0    0    0  0.00000000000E+00  0.00000000000E+00  0.45593999997E+02  0.45594000000E+02  0.51100000000E-03 0. -1.
         11   -1    0    0    0    0 -0.00000000000E+00 -0.00000000000E+00 -0.45593999997E+02  0.45594000000E+02  0.51100000000E-03 0.  1.
         23    2    1    2    0    0  0.00000000000E+00  0.00000000000E+00  0.00000000000E+00  0.91188000000E+02  0.91188000000E+02 0.  0.
    9900012    2    3    3    0    0  0.95830856655E+01  0.11314420941E+02  0.33703512211E+02  0.54367103929E+02  0.40000045028E+02 0.  0.
        -12    1    3    3    0    0 -0.95830856655E+01 -0.11314420941E+02 -0.33703512211E+02  0.36820896071E+02  0.00000000000E+00 0.  1.
         11    1    4    4    0    0  0.37897811098E+01  0.19804274582E+01  0.51946415193E+01  0.67282118391E+01  0.51100000000E-03 0. -1.
        -11    1    4    4    0    0 -0.15535096090E+02  0.42905551390E+01  0.14063696160E+02  0.21390082371E+02  0.51100000000E-03 0.  1.
        -12    1    4    4    0    0  0.21328400645E+02  0.50434383438E+01  0.14445174532E+02  0.26248809719E+02  0.00000000000E+00 0.  1.
</event>
<event>
 8    1  0.1229941E-006  0.9118800E+02  0.7816164E-02  0.1184000E+00
        -11   -1    0    0    0    0  0.00000000000E+00  0.00000000000E+00  0.45593999997E+02  0.45594000000E+02  0.51100000000E-03 0.  1.
         11   -1    0    0    0    0 -0.00000000000E+00 -0.00000000000E+00 -0.45593999997E+02  0.45594000000E+02  0.51100000000E-03 0. -1.
         23    2    1    2    0    0  0.35527136788E-14 -0.22204460493E-15  0.00000000000E+00  0.91188000000E+02  0.91188000000E+02 0.  0.
    9900012    2    3    3    0    0 -0.30194866055E+02  0.12394750752E+01  0.21036027227E+02  0.54367072852E+02  0.39999974181E+02 0.  0.
         12    1    3    3    0    0  0.30194866055E+02 -0.12394750752E+01 -0.21036027227E+02  0.36820927148E+02  0.00000000000E+00 0. -1.
         11    1    4    4    0    0 -0.26847759011E+02  0.71274651318E+00 -0.11665020905E+01  0.26882538922E+02  0.51100000000E-03 0. -1.
        -11    1    4    4    0    0 -0.89163267733E+01 -0.22073231844E+01  0.88227805852E+01  0.12736350195E+02  0.51100000000E-03 0.  1.
         12    1    4    4    0    0  0.55692197293E+01  0.27340517464E+01  0.13379748733E+02  0.14748183736E+02  0.00000000000E+00 0. -1.
</event>
<event>
 8    1  0.1229941E-006  0.9118800E+02  0.7816164E-02  0.1184000E+00
        -11   -1    0    0    0    0  0.00000000000E+00  0.00000000000E+00  0.45593999997E+02  0.45594000000E+02  0.51100000000E-03 0.  1.
         11   -1    0    0    0    0 -0.00000000000E+00 -0.00000000000E+00 -0.45593999997E+02  0.45594000000E+02  0.51100000000E-03 0. -1.
         23    2    1    2    0    0  0.00000000000E+00  0.35527136788E-14  0.00000000000E+00  0.91188000000E+02  0.91188000000E+02 0.  0.
    9900012    2    3    3    0    0  0.31541117136E+02  0.17227300612E+02 -0.80098841134E+01  0.54367079315E+02  0.39999988915E+02 0.  0.
        -12    1    3    3    0    0 -0.31541117136E+02 -0.17227300612E+02  0.80098841134E+01  0.36820920685E+02  0.00000000000E+00 0.  1.
         11    1    4    4    0    0  0.23442994724E+02  0.18957374627E+02  0.10052150406E+02  0.31780525207E+02  0.51100000000E-03 0. -1.
        -11    1    4    4    0    0  0.27756037176E+01  0.42262854295E+01 -0.10169649367E+02  0.11357254643E+02  0.51100000000E-03 0.  1.
         12    1    4    4    0    0  0.53225186946E+01 -0.59563594445E+01 -0.78923851530E+01  0.11229299466E+02  0.00000000000E+00 0. -1.
</event>
<event>
 8    1  0.1229941E-006  0.9118800E+02  0.7816164E-02  0.1184000E+00
        -11   -1    0    0    0    0  0.00000000000E+00  0.00000000000E+00  0.45593999997E+02  0.45594000000E+02  0.51100000000E-03 0.  1.
         11   -1    0    0    0    0 -0.00000000000E+00 -0.00000000000E+00 -0.45593999997E+02  0.45594000000E+02  0.51100000000E-03 0. -1.
         23    2    1    2    0    0  0.44408920985E-15  0.71054273576E-14 -0.44408920985E-15  0.91188000000E+02  0.91188000000E+02 0.  0.
    9900012    2    3    3    0    0 -0.15910890946E+01  0.36605190822E+02  0.36480665774E+01  0.54367082719E+02  0.39999996675E+02 0.  0.
        -12    1    3    3    0    0  0.15910890946E+01 -0.36605190822E+02 -0.36480665774E+01  0.36820917281E+02  0.00000000000E+00 0.  1.
         11    1    4    4    0    0 -0.58003153187E+00 -0.10787827348E+01  0.11160395197E+01  0.16570314534E+01  0.51100000000E-03 0. -1.
        -11    1    4    4    0    0  0.11064627163E+02  0.30864881186E+01  0.10095997043E+02  0.15293186055E+02  0.51100000000E-03 0.  1.
         12    1    4    4    0    0 -0.12075684726E+02  0.34597485438E+02 -0.75639699857E+01  0.37416865211E+02  0.00000000000E+00 0. -1.
</event>
<event>
 8    1  0.1229941E-006  0.9118800E+02  0.7816164E-02  0.1184000E+00
        -11   -1    0    0    0    0  0.00000000000E+00  0.00000000000E+00  0.45593999997E+02  0.45594000000E+02  0.51100000000E-03 0. -1.
         11   -1    0    0    0    0 -0.00000000000E+00 -0.00000000000E+00 -0.45593999997E+02  0.45594000000E+02  0.51100000000E-03 0.  1.
         23    2    1    2    0    0  0.44408920985E-15  0.00000000000E+00  0.71054273576E-14  0.91188000000E+02  0.91188000000E+02 0.  0.
    9900012    2    3    3    0    0  0.36761273599E+01  0.18554654369E+02  0.31590985576E+02  0.54367089083E+02  0.40000011182E+02 0.  0.
        -12    1    3    3    0    0 -0.36761273599E+01 -0.18554654369E+02 -0.31590985576E+02  0.36820910917E+02  0.00000000000E+00 0.  1.
         11    1    4    4    0    0 -0.26545875350E+01  0.26078570931E+01  0.19740206075E+02  0.20087894109E+02  0.51100000000E-03 0. -1.
        -11    1    4    4    0    0  0.58085142099E+01  0.44616216192E+01 -0.83060150246E+01  0.11074059357E+02  0.51100000000E-03 0.  1.
        -12    1    4    4    0    0  0.52220068503E+00  0.11485175657E+02  0.20156794526E+02  0.23205135617E+02  0.00000000000E+00 0.  1.
</event>
<event>
 8    1  0.1229941E-006  0.9118800E+02  0.7816164E-02  0.1184000E+00
        -11   -1    0    0    0    0  0.00000000000E+00  0.00000000000E+00  0.45593999997E+02  0.45594000000E+02  0.51100000000E-03 0. -1.
         11   -1    0    0    0    0 -0.00000000000E+00 -0.00000000000E+00 -0.45593999997E+02  0.45594000000E+02  0.51100000000E-03 0.  1.
         23    2    1    2    0    0  0.00000000000E+00  0.88817841970E-15  0.00000000000E+00  0.91188000000E+02  0.91188000000E+02 0.  0.
    9900012    2    3    3    0    0  0.10060118744E+02  0.67177326508E+01  0.34777081008E+02  0.54367091747E+02  0.40000017256E+02 0.  0.
        -12    1    3    3    0    0 -0.10060118744E+02 -0.67177326508E+01 -0.34777081008E+02  0.36820908253E+02  0.00000000000E+00 0.  1.
         11    1    4    4    0    0 -0.34366120098E+01 -0.98377255116E+01  0.42917027597E+01  0.11269865047E+02  0.51100000000E-03 0. -1.
        -11    1    4    4    0    0  0.30241264910E+01  0.60203592539E+01 -0.22874760808E+01  0.71149570386E+01  0.51100000000E-03 0.  1.
         12    1    4    4    0    0  0.10472604262E+02  0.10535098909E+02  0.32772854330E+02  0.35982269661E+02  0.00000000000E+00 0. -1.
</event>
<event>
 8    1  0.1229941E-006  0.9118800E+02  0.7816164E-02  0.1184000E+00
        -11   -1    0    0    0    0  0.00000000000E+00  0.00000000000E+00  0.45593999997E+02  0.45594000000E+02  0.51100000000E-03 0. -1.
         11   -1    0    0    0    0 -0.00000000000E+00 -0.00000000000E+00 -0.45593999997E+02  0.45594000000E+02  0.51100000000E-03 0.  1.
         23    2    1    2    0    0 -0.44408920985E-15  0.00000000000E+00  0.00000000000E+00  0.91188000000E+02  0.91188000000E+02 0.  0.
    9900012    2    3    3    0    0  0.38901433994E+01 -0.65172038889E+01 -0.36030155761E+02  0.54367091722E+02  0.40000017200E+02 0.  0.
         12    1    3    3    0    0 -0.38901433994E+01  0.65172038889E+01  0.36030155761E+02  0.36820908278E+02  0.00000000000E+00 0. -1.
         11    1    4    4    0    0 -0.26400851129E+01  0.86343949166E+01 -0.96401214464E+01  0.13208132599E+02  0.51100000000E-03 0. -1.
        -11    1    4    4    0    0  0.14348483104E+02 -0.11755870245E+02 -0.26836682544E+02  0.32623411576E+02  0.51100000000E-03 0.  1.
         12    1    4    4    0    0 -0.78182545912E+01 -0.33957285602E+01  0.44664822914E+00  0.85355475482E+01  0.00000000000E+00 0. -1.
</event>
<event>
 8    1  0.1229941E-006  0.9118800E+02  0.7816164E-02  0.1184000E+00
        -11   -1    0    0    0    0  0.00000000000E+00  0.00000000000E+00  0.45593999997E+02  0.45594000000E+02  0.51100000000E-03 0. -1.
         11   -1    0    0    0    0 -0.00000000000E+00 -0.00000000000E+00 -0.45593999997E+02  0.45594000000E+02  0.51100000000E-03 0.  1.
         23    2    1    2    0    0  0.00000000000E+00  0.00000000000E+00  0.00000000000E+00  0.91188000000E+02  0.91188000000E+02 0.  0.
    9900012    2    3    3    0    0 -0.14198291098E+02 -0.61040342624E+01 -0.33420571792E+02  0.54367009747E+02  0.39999830319E+02 0.  0.
         12    1    3    3    0    0  0.14198291098E+02  0.61040342624E+01  0.33420571792E+02  0.36820990253E+02  0.00000000000E+00 0. -1.
         11    1    4    4    0    0  0.19060447237E+01 -0.13296871017E+02 -0.51018531845E+01  0.14369018460E+02  0.51100000000E-03 0. -1.
        -11    1    4    4    0    0 -0.24608665402E+01 -0.76643744098E+01 -0.73154508118E+01  0.10877238623E+02  0.51100000000E-03 0.  1.
         12    1    4    4    0    0 -0.13643469281E+02  0.14857211164E+02 -0.21003267795E+02  0.29120752663E+02  0.00000000000E+00 0. -1.
</event>
<event>
 8    1  0.1229941E-006  0.9118800E+02  0.7816164E-02  0.1184000E+00
        -11   -1    0    0    0    0  0.00000000000E+00  0.00000000000E+00  0.45593999997E+02  0.45594000000E+02  0.51100000000E-03 0. -1.
         11   -1    0    0    0    0 -0.00000000000E+00 -0.00000000000E+00 -0.45593999997E+02  0.45594000000E+02  0.51100000000E-03 0.  1.
         23    2    1    2    0    0  0.00000000000E+00  0.00000000000E+00  0.88817841970E-15  0.91188000000E+02  0.91188000000E+02 0.  0.
    9900012    2    3    3    0    0  0.16347043437E+02 -0.32716372366E+02  0.42653982691E+01  0.54367075619E+02  0.39999980488E+02 0.  0.
        -12    1    3    3    0    0 -0.16347043437E+02  0.32716372366E+02 -0.42653982691E+01  0.36820924381E+02  0.00000000000E+00 0.  1.
         11    1    4    4    0    0  0.18901733873E+02 -0.20033969531E+02 -0.53344012387E+01  0.28055147753E+02  0.51100000000E-03 0. -1.
        -11    1    4    4    0    0  0.70397519134E+01 -0.81778407107E+01 -0.15808707880E+01  0.10905702105E+02  0.51100000000E-03 0.  1.
         12    1    4    4    0    0 -0.95944423502E+01 -0.45045621237E+01  0.11180670296E+02  0.15406225761E+02  0.00000000000E+00 0. -1.
</event>
<event>
 8    1  0.1229941E-006  0.9118800E+02  0.7816164E-02  0.1184000E+00
        -11   -1    0    0    0    0  0.00000000000E+00  0.00000000000E+00  0.45593999997E+02  0.45594000000E+02  0.51100000000E-03 0. -1.
         11   -1    0    0    0    0 -0.00000000000E+00 -0.00000000000E+00 -0.45593999997E+02  0.45594000000E+02  0.51100000000E-03 0.  1.
         23    2    1    2    0    0  0.17763568394E-14 -0.17763568394E-14 -0.71054273576E-14  0.91188000000E+02  0.91188000000E+02 0.  0.
    9900012    2    3    3    0    0  0.12376880821E+02 -0.13150347306E+02 -0.32088335975E+02  0.54367080419E+02  0.39999991431E+02 0.  0.
         12    1    3    3    0    0 -0.12376880821E+02  0.13150347306E+02  0.32088335975E+02  0.36820919581E+02  0.00000000000E+00 0. -1.
         11    1    4    4    0    0 -0.53936587660E+01  0.83203223178E+01 -0.30825553998E+01  0.10383711591E+02  0.51100000000E-03 0. -1.
        -11    1    4    4    0    0  0.92981360603E+01 -0.94251710694E+01 -0.22317462873E+01  0.13426461769E+02  0.51100000000E-03 0.  1.
        -12    1    4    4    0    0  0.84724035262E+01 -0.12045498554E+02 -0.26774034288E+02  0.30556907059E+02  0.00000000000E+00 0.  1.
</event>
<event>
 8    1  0.1229941E-006  0.9118800E+02  0.7816164E-02  0.1184000E+00
        -11   -1    0    0    0    0  0.00000000000E+00  0.00000000000E+00  0.45593999997E+02  0.45594000000E+02  0.51100000000E-03 0. -1.
         11   -1    0    0    0    0 -0.00000000000E+00 -0.00000000000E+00 -0.45593999997E+02  0.45594000000E+02  0.51100000000E-03 0.  1.
         23    2    1    2    0    0  0.00000000000E+00  0.00000000000E+00  0.71054273576E-14  0.91188000000E+02  0.91188000000E+02 0.  0.
    9900012    2    3    3    0    0 -0.95408068394E+01  0.18926442907E+02  0.30108930837E+02  0.54367014782E+02  0.39999841798E+02 0.  0.
        -12    1    3    3    0    0  0.95408068394E+01 -0.18926442907E+02 -0.30108930837E+02  0.36820985218E+02  0.00000000000E+00 0.  1.
         11    1    4    4    0    0 -0.14688752993E+02  0.26404937538E+01  0.52761719359E+00  0.14933521083E+02  0.51100000000E-03 0. -1.
        -11    1    4    4    0    0 -0.49633107601E+01 -0.18429748820E+01  0.53558968890E+01  0.75310452039E+01  0.51100000000E-03 0.  1.
         12    1    4    4    0    0  0.10111256914E+02  0.18128924035E+02  0.24225416755E+02  0.31902448495E+02  0.00000000000E+00 0. -1.
</event>
<event>
 8    1  0.1229941E-006  0.9118800E+02  0.7816164E-02  0.1184000E+00
        -11   -1    0    0    0    0  0.00000000000E+00  0.00000000000E+00  0.45593999997E+02  0.45594000000E+02  0.51100000000E-03 0. -1.
         11   -1    0    0    0    0 -0.00000000000E+00 -0.00000000000E+00 -0.45593999997E+02  0.45594000000E+02  0.51100000000E-03 0.  1.
         23    2    1    2    0    0  0.71054273576E-14 -0.35527136788E-14  0.22204460493E-15  0.91188000000E+02  0.91188000000E+02 0.  0.
    9900012    2    3    3    0    0  0.32101065590E+02 -0.18003772246E+02  0.10798335197E+01  0.54367078399E+02  0.39999986826E+02 0.  0.
         12    1    3    3    0    0 -0.32101065590E+02  0.18003772246E+02 -0.10798335197E+01  0.36820921601E+02  0.00000000000E+00 0. -1.
         11    1    4    4    0    0 -0.39220710403E+01 -0.69227777409E+01  0.32254113153E+01  0.85854977322E+01  0.51100000000E-03 0. -1.
        -11    1    4    4    0    0  0.78991469282E+01 -0.10637198006E+02  0.84612164627E+01  0.15720645277E+02  0.51100000000E-03 0.  1.
        -12    1    4    4    0    0  0.28123989702E+02 -0.44379649913E+00 -0.10606794258E+02  0.30060935390E+02  0.00000000000E+00 0.  1.
</event>
<event>
 8    1  0.1229941E-006  0.9118800E+02  0.7816164E-02  0.1184000E+00
        -11   -1    0    0    0    0  0.00000000000E+00  0.00000000000E+00  0.45593999997E+02  0.45594000000E+02  0.51100000000E-03 0.  1.
         11   -1    0    0    0    0 -0.00000000000E+00 -0.00000000000E+00 -0.45593999997E+02  0.45594000000E+02  0.51100000000E-03 0. -1.
         23    2    1    2    0    0  0.00000000000E+00  0.35527136788E-14 -0.17763568394E-14  0.91188000000E+02  0.91188000000E+02 0.  0.
    9900012    2    3    3    0    0 -0.26452326661E+02  0.25505596168E+02  0.23492891385E+01  0.54367079573E+02  0.39999989502E+02 0.  0.
        -12    1    3    3    0    0  0.26452326661E+02 -0.25505596168E+02 -0.23492891385E+01  0.36820920427E+02  0.00000000000E+00 0.  1.
         11    1    4    4    0    0 -0.15961551063E+02  0.95998908082E+01 -0.16708318658E+02  0.25021928953E+02  0.51100000000E-03 0. -1.
        -11    1    4    4    0    0 -0.23495477761E+01  0.14107839088E+00  0.82290916636E+01  0.85591020401E+01  0.51100000000E-03 0.  1.
         12    1    4    4    0    0 -0.81412278214E+01  0.15764626969E+02  0.10828516133E+02  0.20786048580E+02  0.00000000000E+00 0. -1.
</event>
<event>
 8    1  0.1229941E-006  0.9118800E+02  0.7816164E-02  0.1184000E+00
        -11   -1    0    0    0    0  0.00000000000E+00  0.00000000000E+00  0.45593999997E+02  0.45594000000E+02  0.51100000000E-03 0. -1.
         11   -1    0    0    0    0 -0.00000000000E+00 -0.00000000000E+00 -0.45593999997E+02  0.45594000000E+02  0.51100000000E-03 0.  1.
         23    2    1    2    0    0  0.00000000000E+00 -0.35527136788E-14  0.00000000000E+00  0.91188000000E+02  0.91188000000E+02 0.  0.
    9900012    2    3    3    0    0 -0.30503827118E+02 -0.11640530994E+02 -0.17023300360E+02  0.54367106668E+02  0.40000051270E+02 0.  0.
         12    1    3    3    0    0  0.30503827118E+02  0.11640530994E+02  0.17023300360E+02  0.36820893332E+02  0.00000000000E+00 0. -1.
         11    1    4    4    0    0  0.56484180400E+01 -0.48178424800E+01 -0.16749672175E+01  0.76106338736E+01  0.51100000000E-03 0. -1.
        -11    1    4    4    0    0 -0.31030610774E+02 -0.13095581870E+02 -0.18058903153E+02  0.38216711697E+02  0.51100000000E-03 0.  1.
         12    1    4    4    0    0 -0.51216343834E+01  0.62728933564E+01  0.27105700106E+01  0.85397610973E+01  0.00000000000E+00 0. -1.
</event>
<event>
 8    1  0.1229941E-006  0.9118800E+02  0.7816164E-02  0.1184000E+00
        -11   -1    0    0    0    0  0.00000000000E+00  0.00000000000E+00  0.45593999997E+02  0.45594000000E+02  0.51100000000E-03 0. -1.
         11   -1    0    0    0    0 -0.00000000000E+00 -0.00000000000E+00 -0.45593999997E+02  0.45594000000E+02  0.51100000000E-03 0.  1.
         23    2    1    2    0    0  0.00000000000E+00  0.00000000000E+00 -0.35527136788E-14  0.91188000000E+02  0.91188000000E+02 0.  0.
    9900012    2    3    3    0    0 -0.92983181140E+01  0.35210281102E+02  0.54367396237E+01  0.54367071810E+02  0.39999971805E+02 0.  0.
        -12    1    3    3    0    0  0.92983181140E+01 -0.35210281102E+02 -0.54367396237E+01  0.36820928190E+02  0.00000000000E+00 0.  1.
         11    1    4    4    0    0  0.28678296043E+00  0.19909901953E+02  0.19113250277E+02  0.27600774928E+02  0.51100000000E-03 0. -1.
        -11    1    4    4    0    0 -0.28340921202E+01 -0.18426575784E+01  0.63114831522E+00  0.34388680628E+01  0.51100000000E-03 0.  1.
         12    1    4    4    0    0 -0.67510089543E+01  0.17143036727E+02 -0.14307658968E+02  0.23327428819E+02  0.00000000000E+00 0. -1.
</event>
<event>
 8    1  0.1229941E-006  0.9118800E+02  0.7816164E-02  0.1184000E+00
        -11   -1    0    0    0    0  0.00000000000E+00  0.00000000000E+00  0.45593999997E+02  0.45594000000E+02  0.51100000000E-03 0.  1.
         11   -1    0    0    0    0 -0.00000000000E+00 -0.00000000000E+00 -0.45593999997E+02  0.45594000000E+02  0.51100000000E-03 0. -1.
         23    2    1    2    0    0  0.17763568394E-14  0.00000000000E+00  0.00000000000E+00  0.91188000000E+02  0.91188000000E+02 0.  0.
    9900012    2    3    3    0    0  0.10511995029E+02  0.35200323186E+02  0.24931020720E+01  0.54367077282E+02  0.39999984279E+02 0.  0.
        -12    1    3    3    0    0 -0.10511995029E+02 -0.35200323186E+02 -0.24931020720E+01  0.36820922718E+02  0.00000000000E+00 0.  1.
         11    1    4    4    0    0 -0.85082848183E+01  0.12552746826E+02 -0.18233896799E+01  0.15273739346E+02  0.51100000000E-03 0. -1.
        -11    1    4    4    0    0 -0.61727384482E+01  0.41538266551E+01 -0.56691262967E+00  0.74617937536E+01  0.51100000000E-03 0.  1.
        -12    1    4    4    0    0  0.25193018296E+02  0.18493749705E+02  0.48834043816E+01  0.31631544182E+02  0.00000000000E+00 0.  1.
</event>
<event>
 8    1  0.1229941E-006  0.9118800E+02  0.7816164E-02  0.1184000E+00
        -11   -1    0    0    0    0  0.00000000000E+00  0.00000000000E+00  0.45593999997E+02  0.45594000000E+02  0.51100000000E-03 0. -1.
         11   -1    0    0    0    0 -0.00000000000E+00 -0.00000000000E+00 -0.45593999997E+02  0.45594000000E+02  0.51100000000E-03 0.  1.
         23    2    1    2    0    0 -0.35527136788E-14  0.00000000000E+00  0.35527136788E-14  0.91188000000E+02  0.91188000000E+02 0.  0.
    9900012    2    3    3    0    0  0.31718053492E+02 -0.47574590475E+01  0.18086216864E+02  0.54367087812E+02  0.40000008286E+02 0.  0.
        -12    1    3    3    0    0 -0.31718053492E+02  0.47574590475E+01 -0.18086216864E+02  0.36820912188E+02  0.00000000000E+00 0.  1.
         11    1    4    4    0    0  0.20833384725E+02  0.47520753965E+01  0.23712962669E+02  0.31920475223E+02  0.51100000000E-03 0. -1.
        -11    1    4    4    0    0 -0.18003170660E+01  0.31979934478E+01 -0.18023448328E+01  0.40886123304E+01  0.51100000000E-03 0.  1.
        -12    1    4    4    0    0  0.12684985833E+02 -0.12707527892E+02 -0.38244009723E+01  0.18358000259E+02  0.00000000000E+00 0.  1.
</event>
<event>
 8    1  0.1229941E-006  0.9118800E+02  0.7816164E-02  0.1184000E+00
        -11   -1    0    0    0    0  0.00000000000E+00  0.00000000000E+00  0.45593999997E+02  0.45594000000E+02  0.51100000000E-03 0.  1.
         11   -1    0    0    0    0 -0.00000000000E+00 -0.00000000000E+00 -0.45593999997E+02  0.45594000000E+02  0.51100000000E-03 0. -1.
         23    2    1    2    0    0  0.88817841970E-15  0.17763568394E-14  0.00000000000E+00  0.91188000000E+02  0.91188000000E+02 0.  0.
    9900012    2    3    3    0    0 -0.31164784867E+01 -0.12283381935E+02  0.34571470203E+02  0.54367075760E+02  0.39999980810E+02 0.  0.
         12    1    3    3    0    0  0.31164784867E+01  0.12283381935E+02 -0.34571470203E+02  0.36820924240E+02  0.00000000000E+00 0. -1.
         11    1    4    4    0    0 -0.67833425825E+01  0.69158444300E+01  0.77691171578E+01  0.12417802642E+02  0.51100000000E-03 0. -1.
        -11    1    4    4    0    0 -0.88359601583E+01 -0.14650027049E+02  0.21853878958E+02  0.27754089973E+02  0.51100000000E-03 0.  1.
        -12    1    4    4    0    0  0.12502824254E+02 -0.45491993158E+01  0.49484740871E+01  0.14195183145E+02  0.00000000000E+00 0.  1.
</event>
<event>
 8    1  0.1229941E-006  0.9118800E+02  0.7816164E-02  0.1184000E+00
        -11   -1    0    0    0    0  0.00000000000E+00  0.00000000000E+00  0.45593999997E+02  0.45594000000E+02  0.51100000000E-03 0.  1.
         11   -1    0    0    0    0 -0.00000000000E+00 -0.00000000000E+00 -0.45593999997E+02  0.45594000000E+02  0.51100000000E-03 0. -1.
         23    2    1    2    0    0  0.00000000000E+00  0.35527136788E-14 -0.17763568394E-14  0.91188000000E+02  0.91188000000E+02 0.  0.
    9900012    2    3    3    0    0  0.21306446786E+02  0.29438909254E+02  0.59302325666E+01  0.54367058797E+02  0.39999942140E+02 0.  0.
         12    1    3    3    0    0 -0.21306446786E+02 -0.29438909254E+02 -0.59302325666E+01  0.36820941203E+02  0.00000000000E+00 0. -1.
         11    1    4    4    0    0  0.75236500870E+01  0.29139673799E+02 -0.85940480128E+01  0.31298299654E+02  0.51100000000E-03 0. -1.
        -11    1    4    4    0    0 -0.17932898907E+01 -0.12924563769E+01  0.24255594472E+01  0.32817176922E+01  0.51100000000E-03 0.  1.
         12    1    4    4    0    0  0.15576086590E+02  0.15916918324E+01  0.12098721132E+02  0.19787041451E+02  0.00000000000E+00 0. -1.
</event>
<event>
 8    1  0.1229941E-006  0.9118800E+02  0.7816164E-02  0.1184000E+00
        -11   -1    0    0    0    0  0.00000000000E+00  0.00000000000E+00  0.45593999997E+02  0.45594000000E+02  0.51100000000E-03 0.  1.
         11   -1    0    0    0    0 -0.00000000000E+00 -0.00000000000E+00 -0.45593999997E+02  0.45594000000E+02  0.51100000000E-03 0. -1.
         23    2    1    2    0    0  0.00000000000E+00 -0.35527136788E-14  0.00000000000E+00  0.91188000000E+02  0.91188000000E+02 0.  0.
    9900012    2    3    3    0    0 -0.20090617599E+02  0.18912993965E+02 -0.24381253154E+02  0.54367085270E+02  0.40000002490E+02 0.  0.
        -12    1    3    3    0    0  0.20090617599E+02 -0.18912993965E+02  0.24381253154E+02  0.36820914730E+02  0.00000000000E+00 0.  1.
         11    1    4    4    0    0 -0.74823424188E+01 -0.58078062065E+01 -0.39800951615E+01  0.10274104280E+02  0.51100000000E-03 0. -1.
        -11    1    4    4    0    0  0.29875067449E+01  0.23131567728E+02 -0.10731855319E+02  0.25674254438E+02  0.51100000000E-03 0.  1.
        -12    1    4    4    0    0 -0.15595781925E+02  0.15892324441E+01 -0.96693026737E+01  0.18418726552E+02  0.00000000000E+00 0.  1.
</event>
<event>
 8    1  0.1229941E-006  0.9118800E+02  0.7816164E-02  0.1184000E+00
        -11   -1    0    0    0    0  0.00000000000E+00  0.00000000000E+00  0.45593999997E+02  0.45594000000E+02  0.51100000000E-03 0. -1.
         11   -1    0    0    0    0 -0.00000000000E+00 -0.00000000000E+00 -0.45593999997E+02  0.45594000000E+02  0.51100000000E-03 0.  1.
         23    2    1    2    0    0 -0.71054273576E-14  0.00000000000E+00  0.00000000000E+00  0.91188000000E+02  0.91188000000E+02 0.  0.
    9900012    2    3    3    0    0  0.33174312646E+02  0.13957236375E+02 -0.77743606157E+01  0.54367079999E+02  0.39999990473E+02 0.  0.
        -12    1    3    3    0    0 -0.33174312646E+02 -0.13957236375E+02  0.77743606157E+01  0.36820920001E+02  0.00000000000E+00 0.  1.
         11    1    4    4    0    0  0.49674868869E+01  0.45276125021E+01 -0.39239011847E+00  0.67326942012E+01  0.51100000000E-03 0. -1.
        -11    1    4    4    0    0 -0.31318915544E+01  0.10114763022E+02 -0.11939778619E+02  0.15958555368E+02  0.51100000000E-03 0.  1.
        -12    1    4    4    0    0  0.31338717313E+02 -0.68513914897E+00  0.45578081221E+01  0.31675830429E+02  0.00000000000E+00 0.  1.
</event>
<event>
 8    1  0.1229941E-006  0.9118800E+02  0.7816164E-02  0.1184000E+00
        -11   -1    0    0    0    0  0.00000000000E+00  0.00000000000E+00  0.45593999997E+02  0.45594000000E+02  0.51100000000E-03 0. -1.
         11   -1    0    0    0    0 -0.00000000000E+00 -0.00000000000E+00 -0.45593999997E+02  0.45594000000E+02  0.51100000000E-03 0.  1.
         23    2    1    2    0    0  0.00000000000E+00  0.00000000000E+00  0.00000000000E+00  0.91188000000E+02  0.91188000000E+02 0.  0.
    9900012    2    3    3    0    0 -0.22704124821E+02  0.15940138664E+02 -0.24211860541E+02  0.54367088885E+02  0.40000010731E+02 0.  0.
         12    1    3    3    0    0  0.22704124821E+02 -0.15940138664E+02  0.24211860541E+02  0.36820911115E+02  0.00000000000E+00 0. -1.
         11    1    4    4    0    0 -0.41796849110E+01 -0.75423300757E+01 -0.93013787893E+00  0.86730424685E+01  0.51100000000E-03 0. -1.
        -11    1    4    4    0    0 -0.24764667865E+02  0.19225486276E+02 -0.15984414328E+02  0.35191044297E+02  0.51100000000E-03 0.  1.
        -12    1    4    4    0    0  0.62402279544E+01  0.42569824630E+01 -0.72973083334E+01  0.10503002120E+02  0.00000000000E+00 0.  1.
</event>
<event>
 8    1  0.1229941E-006  0.9118800E+02  0.7816164E-02  0.1184000E+00
        -11   -1    0    0    0    0  0.00000000000E+00  0.00000000000E+00  0.45593999997E+02  0.45594000000E+02  0.51100000000E-03 0.  1.
         11   -1    0    0    0    0 -0.00000000000E+00 -0.00000000000E+00 -0.45593999997E+02  0.45594000000E+02  0.51100000000E-03 0. -1.
         23    2    1    2    0    0  0.00000000000E+00  0.35527136788E-14  0.17763568394E-14  0.91188000000E+02  0.91188000000E+02 0.  0.
    9900012    2    3    3    0    0 -0.33440251732E+02  0.14732783653E+02  0.45246819552E+01  0.54367107876E+02  0.40000054024E+02 0.  0.
        -12    1    3    3    0    0  0.33440251732E+02 -0.14732783653E+02 -0.45246819552E+01  0.36820892124E+02  0.00000000000E+00 0.  1.
         11    1    4    4    0    0 -0.25702988090E+02  0.28678641174E+01 -0.97043667480E+01  0.27623232533E+02  0.51100000000E-03 0. -1.
        -11    1    4    4    0    0 -0.63473360256E+01  0.96045438859E+01 -0.74502384188E+00  0.11536507213E+02  0.51100000000E-03 0.  1.
         12    1    4    4    0    0 -0.13899276163E+01  0.22603756495E+01  0.14974072545E+02  0.15207368130E+02  0.00000000000E+00 0. -1.
</event>
<event>
 8    1  0.1229941E-006  0.9118800E+02  0.7816164E-02  0.1184000E+00
        -11   -1    0    0    0    0  0.00000000000E+00  0.00000000000E+00  0.45593999997E+02  0.45594000000E+02  0.51100000000E-03 0.  1.
         11   -1    0    0    0    0 -0.00000000000E+00 -0.00000000000E+00 -0.45593999997E+02  0.45594000000E+02  0.51100000000E-03 0. -1.
         23    2    1    2    0    0  0.00000000000E+00  0.35527136788E-14  0.00000000000E+00  0.91188000000E+02  0.91188000000E+02 0.  0.
    9900012    2    3    3    0    0  0.16660381976E+02  0.29300871473E+02 -0.14820890981E+02  0.54367242184E+02  0.40000360205E+02 0.  0.
        -12    1    3    3    0    0 -0.16660381976E+02 -0.29300871473E+02  0.14820890981E+02  0.36820757816E+02  0.00000000000E+00 0.  1.
         11    1    4    4    0    0  0.47945083889E+00  0.30306480822E+02 -0.16069706327E+01  0.30352841841E+02  0.51100000000E-03 0. -1.
        -11    1    4    4    0    0  0.11319061318E+02 -0.13370238007E+01 -0.17157303885E+01  0.11526166439E+02  0.51100000000E-03 0.  1.
         12    1    4    4    0    0  0.48618698197E+01  0.33141445160E+00 -0.11498189960E+02  0.12488233904E+02  0.00000000000E+00 0. -1.
</event>
<event>
 8    1  0.1229941E-006  0.9118800E+02  0.7816164E-02  0.1184000E+00
        -11   -1    0    0    0    0  0.00000000000E+00  0.00000000000E+00  0.45593999997E+02  0.45594000000E+02  0.51100000000E-03 0.  1.
         11   -1    0    0    0    0 -0.00000000000E+00 -0.00000000000E+00 -0.45593999997E+02  0.45594000000E+02  0.51100000000E-03 0. -1.
         23    2    1    2    0    0  0.00000000000E+00  0.00000000000E+00  0.00000000000E+00  0.91188000000E+02  0.91188000000E+02 0.  0.
    9900012    2    3    3    0    0  0.67973098319E+01 -0.32760096721E+02 -0.15373781770E+02  0.54367074916E+02  0.39999978885E+02 0.  0.
         12    1    3    3    0    0 -0.67973098319E+01  0.32760096721E+02  0.15373781770E+02  0.36820925084E+02  0.00000000000E+00 0. -1.
         11    1    4    4    0    0 -0.70026264853E+01  0.89500936303E+00  0.90088369706E-01  0.70601654108E+01  0.51100000000E-03 0. -1.
        -11    1    4    4    0    0  0.22169100883E+01 -0.93287906990E+01 -0.17845756029E+02  0.20258628650E+02  0.51100000000E-03 0.  1.
        -12    1    4    4    0    0  0.11583026229E+02 -0.24326315385E+02  0.23818858891E+01  0.27048280855E+02  0.00000000000E+00 0.  1.
</event>
<event>
 8    1  0.1229941E-006  0.9118800E+02  0.7816164E-02  0.1184000E+00
        -11   -1    0    0    0    0  0.00000000000E+00  0.00000000000E+00  0.45593999997E+02  0.45594000000E+02  0.51100000000E-03 0. -1.
         11   -1    0    0    0    0 -0.00000000000E+00 -0.00000000000E+00 -0.45593999997E+02  0.45594000000E+02  0.51100000000E-03 0.  1.
         23    2    1    2    0    0  0.35527136788E-14 -0.35527136788E-14  0.00000000000E+00  0.91188000000E+02  0.91188000000E+02 0.  0.
    9900012    2    3    3    0    0  0.13883939778E+02 -0.28054957057E+02 -0.19389115779E+02  0.54367052023E+02  0.39999926697E+02 0.  0.
         12    1    3    3    0    0 -0.13883939778E+02  0.28054957057E+02  0.19389115779E+02  0.36820947977E+02  0.00000000000E+00 0. -1.
         11    1    4    4    0    0  0.14909796365E+02 -0.18580284541E+02  0.21943834071E+01  0.23923718776E+02  0.51100000000E-03 0. -1.
        -11    1    4    4    0    0 -0.87474345047E+01 -0.10496012063E+02 -0.14335835654E+02  0.19804041603E+02  0.51100000000E-03 0.  1.
         12    1    4    4    0    0  0.77215779178E+01  0.10213395473E+01 -0.72476635322E+01  0.10639291644E+02  0.00000000000E+00 0. -1.
</event>
<event>
 8    1  0.1229941E-006  0.9118800E+02  0.7816164E-02  0.1184000E+00
        -11   -1    0    0    0    0  0.00000000000E+00  0.00000000000E+00  0.45593999997E+02  0.45594000000E+02  0.51100000000E-03 0.  1.
         11   -1    0    0    0    0 -0.00000000000E+00 -0.00000000000E+00 -0.45593999997E+02  0.45594000000E+02  0.51100000000E-03 0. -1.
         23    2    1    2    0    0  0.44408920985E-15  0.35527136788E-14  0.71054273576E-14  0.91188000000E+02  0.91188000000E+02 0.  0.
    9900012    2    3    3    0    0 -0.11872905172E+01  0.16453959665E+02  0.32918641176E+02  0.54367090393E+02  0.40000014168E+02 0.  0.
         12    1    3    3    0    0  0.11872905172E+01 -0.16453959665E+02 -0.32918641176E+02  0.36820909607E+02  0.00000000000E+00 0. -1.
         11    1    4    4    0    0  0.96974729587E+01  0.91705573154E+01 -0.28899468586E+01  0.13656203585E+02  0.51100000000E-03 0. -1.
        -11    1    4    4    0    0 -0.16672009897E+01 -0.40172241233E+01  0.50126126738E+01  0.66365604703E+01  0.51100000000E-03 0.  1.
        -12    1    4    4    0    0 -0.92175624863E+01  0.11300626473E+02  0.30795975361E+02  0.34074326337E+02  0.00000000000E+00 0.  1.
</event>
<event>
 8    1  0.1229941E-006  0.9118800E+02  0.7816164E-02  0.1184000E+00
        -11   -1    0    0    0    0  0.00000000000E+00  0.00000000000E+00  0.45593999997E+02  0.45594000000E+02  0.51100000000E-03 0. -1.
         11   -1    0    0    0    0 -0.00000000000E+00 -0.00000000000E+00 -0.45593999997E+02  0.45594000000E+02  0.51100000000E-03 0.  1.
         23    2    1    2    0    0  0.00000000000E+00  0.00000000000E+00  0.35527136788E-14  0.91188000000E+02  0.91188000000E+02 0.  0.
    9900012    2    3    3    0    0 -0.26386507806E+02  0.64277528739E+01 -0.24864109465E+02  0.54366976920E+02  0.39999755483E+02 0.  0.
         12    1    3    3    0    0  0.26386507806E+02 -0.64277528739E+01  0.24864109465E+02  0.36821023080E+02  0.00000000000E+00 0. -1.
         11    1    4    4    0    0 -0.13420007061E+02  0.54390502341E+01 -0.10518010981E+02  0.17897162128E+02  0.51100000000E-03 0. -1.
        -11    1    4    4    0    0 -0.22127297190E+02  0.43797458921E+01 -0.14288571057E+02  0.26701361728E+02  0.51100000000E-03 0.  1.
         12    1    4    4    0    0  0.91607964455E+01 -0.33910432524E+01 -0.57527427455E-01  0.97684530638E+01  0.00000000000E+00 0. -1.
</event>
<event>
 8    1  0.1229941E-006  0.9118800E+02  0.7816164E-02  0.1184000E+00
        -11   -1    0    0    0    0  0.00000000000E+00  0.00000000000E+00  0.45593999997E+02  0.45594000000E+02  0.51100000000E-03 0.  1.
         11   -1    0    0    0    0 -0.00000000000E+00 -0.00000000000E+00 -0.45593999997E+02  0.45594000000E+02  0.51100000000E-03 0. -1.
         23    2    1    2    0    0  0.00000000000E+00  0.00000000000E+00  0.35527136788E-14  0.91188000000E+02  0.91188000000E+02 0.  0.
    9900012    2    3    3    0    0  0.22018234303E+02 -0.23559184689E+02 -0.17774747269E+02  0.54367089290E+02  0.40000011655E+02 0.  0.
        -12    1    3    3    0    0 -0.22018234303E+02  0.23559184689E+02  0.17774747269E+02  0.36820910710E+02  0.00000000000E+00 0.  1.
         11    1    4    4    0    0  0.27779571250E+02 -0.20453069192E+01 -0.12677786563E+02  0.30604152196E+02  0.51100000000E-03 0. -1.
        -11    1    4    4    0    0 -0.39480168134E+01 -0.72365502845E+01  0.64303570440E+00  0.82684939352E+01  0.51100000000E-03 0.  1.
        -12    1    4    4    0    0 -0.18133201338E+01 -0.14277327485E+02 -0.57399964104E+01  0.15494443159E+02  0.00000000000E+00 0.  1.
</event>
<event>
 8    1  0.1229941E-006  0.9118800E+02  0.7816164E-02  0.1184000E+00
        -11   -1    0    0    0    0  0.00000000000E+00  0.00000000000E+00  0.45593999997E+02  0.45594000000E+02  0.51100000000E-03 0.  1.
         11   -1    0    0    0    0 -0.00000000000E+00 -0.00000000000E+00 -0.45593999997E+02  0.45594000000E+02  0.51100000000E-03 0. -1.
         23    2    1    2    0    0 -0.35527136788E-14  0.00000000000E+00  0.00000000000E+00  0.91188000000E+02  0.91188000000E+02 0.  0.
    9900012    2    3    3    0    0  0.31940720081E+02 -0.12526657436E+02 -0.13366043948E+02  0.54367110866E+02  0.40000060842E+02 0.  0.
        -12    1    3    3    0    0 -0.31940720081E+02  0.12526657436E+02  0.13366043948E+02  0.36820889134E+02  0.00000000000E+00 0.  1.
         11    1    4    4    0    0  0.22646184303E+02 -0.78832442238E+01 -0.15457191675E+02  0.28529282811E+02  0.51100000000E-03 0. -1.
        -11    1    4    4    0    0  0.13255931552E+02 -0.11018075707E+02  0.47431705458E+01  0.17877790151E+02  0.51100000000E-03 0.  1.
        -12    1    4    4    0    0 -0.39613957740E+01  0.63746624953E+01 -0.26520228189E+01  0.79600379043E+01  0.00000000000E+00 0.  1.
</event>
<event>
 8    1  0.1229941E-006  0.9118800E+02  0.7816164E-02  0.1184000E+00
        -11   -1    0    0    0    0  0.00000000000E+00  0.00000000000E+00  0.45593999997E+02  0.45594000000E+02  0.51100000000E-03 0. -1.
         11   -1    0    0    0    0 -0.00000000000E+00 -0.00000000000E+00 -0.45593999997E+02  0.45594000000E+02  0.51100000000E-03 0.  1.
         23    2    1    2    0    0  0.00000000000E+00 -0.17763568394E-14 -0.12212453271E-14  0.91188000000E+02  0.91188000000E+02 0.  0.
    9900012    2    3    3    0    0 -0.35030903532E+02 -0.11325946677E+02 -0.58113099164E+00  0.54367095834E+02  0.40000026572E+02 0.  0.
        -12    1    3    3    0    0  0.35030903532E+02  0.11325946677E+02  0.58113099164E+00  0.36820904166E+02  0.00000000000E+00 0.  1.
         11    1    4    4    0    0 -0.24020913043E+02 -0.20587677023E+02 -0.86380186755E+01  0.32794390916E+02  0.51100000000E-03 0. -1.
        -11    1    4    4    0    0 -0.70779033481E+01  0.94174712075E+01 -0.87418381025E+00  0.11813114634E+02  0.51100000000E-03 0.  1.
         12    1    4    4    0    0 -0.39320871402E+01 -0.15574086200E+00  0.89310714941E+01  0.97595902848E+01  0.00000000000E+00 0. -1.
</event>
<event>
 8    1  0.1229941E-006  0.9118800E+02  0.7816164E-02  0.1184000E+00
        -11   -1    0    0    0    0  0.00000000000E+00  0.00000000000E+00  0.45593999997E+02  0.45594000000E+02  0.51100000000E-03 0.  1.
         11   -1    0    0    0    0 -0.00000000000E+00 -0.00000000000E+00 -0.45593999997E+02  0.45594000000E+02  0.51100000000E-03 0. -1.
         23    2    1    2    0    0  0.00000000000E+00  0.35527136788E-14  0.88817841970E-15  0.91188000000E+02  0.91188000000E+02 0.  0.
    9900012    2    3    3    0    0  0.21906950987E+02  0.29488148520E+02 -0.25127737075E+01  0.54367089685E+02  0.40000012555E+02 0.  0.
         12    1    3    3    0    0 -0.21906950987E+02 -0.29488148520E+02  0.25127737075E+01  0.36820910315E+02  0.00000000000E+00 0. -1.
         11    1    4    4    0    0  0.10290494881E+02  0.17209853915E+02 -0.11816346543E+02  0.23274436676E+02  0.51100000000E-03 0. -1.
        -11    1    4    4    0    0  0.23493767702E+01  0.40428729054E+00 -0.78855199185E+01  0.82379878652E+01  0.51100000000E-03 0.  1.
        -12    1    4    4    0    0  0.92670793360E+01  0.11874007314E+02  0.17189092754E+02  0.22854665144E+02  0.00000000000E+00 0.  1.
</event>
<event>
 8    1  0.1229941E-006  0.9118800E+02  0.7816164E-02  0.1184000E+00
        -11   -1    0    0    0    0  0.00000000000E+00  0.00000000000E+00  0.45593999997E+02  0.45594000000E+02  0.51100000000E-03 0. -1.
         11   -1    0    0    0    0 -0.00000000000E+00 -0.00000000000E+00 -0.45593999997E+02  0.45594000000E+02  0.51100000000E-03 0.  1.
         23    2    1    2    0    0  0.35527136788E-14  0.00000000000E+00  0.00000000000E+00  0.91188000000E+02  0.91188000000E+02 0.  0.
    9900012    2    3    3    0    0  0.24429732909E+02 -0.24388725244E+02 -0.12812431886E+02  0.54367079589E+02  0.39999989539E+02 0.  0.
         12    1    3    3    0    0 -0.24429732909E+02  0.24388725244E+02  0.12812431886E+02  0.36820920411E+02  0.00000000000E+00 0. -1.
         11    1    4    4    0    0  0.20411512327E+02 -0.53381771292E+01  0.71029267468E+01  0.22261570905E+02  0.51100000000E-03 0. -1.
        -11    1    4    4    0    0  0.38573837260E+01 -0.13439850315E+02 -0.22042244316E+02  0.26103055768E+02  0.51100000000E-03 0.  1.
         12    1    4    4    0    0  0.16083685662E+00 -0.56106978000E+01  0.21268856826E+01  0.60024529157E+01  0.00000000000E+00 0. -1.
</event>
<event>
 8    1  0.1229941E-006  0.9118800E+02  0.7816164E-02  0.1184000E+00
        -11   -1    0    0    0    0  0.00000000000E+00  0.00000000000E+00  0.45593999997E+02  0.45594000000E+02  0.51100000000E-03 0.  1.
         11   -1    0    0    0    0 -0.00000000000E+00 -0.00000000000E+00 -0.45593999997E+02  0.45594000000E+02  0.51100000000E-03 0. -1.
         23    2    1    2    0    0 -0.35527136788E-14 -0.35527136788E-14  0.26645352591E-14  0.91188000000E+02  0.91188000000E+02 0.  0.
    9900012    2    3    3    0    0 -0.25407555532E+02 -0.25623692997E+02  0.73254275934E+01  0.54367090039E+02  0.40000013361E+02 0.  0.
         12    1    3    3    0    0  0.25407555532E+02  0.25623692997E+02 -0.73254275934E+01  0.36820909961E+02  0.00000000000E+00 0. -1.
         11    1    4    4    0    0 -0.78669835165E+01  0.55585548367E+01  0.62430211605E+00  0.96528086542E+01  0.51100000000E-03 0.  1.
        -11    1    4    4    0    0 -0.96678859876E+01 -0.22825831641E+00  0.82868876010E+01  0.12735486944E+02  0.51100000000E-03 0. -1.
         12    1    4    4    0    0 -0.78726860284E+01 -0.30953989517E+02 -0.15857621237E+01  0.31978794440E+02  0.00000000000E+00 0. -1.
</event>
<event>
 8    1  0.1229941E-006  0.9118800E+02  0.7816164E-02  0.1184000E+00
        -11   -1    0    0    0    0  0.00000000000E+00  0.00000000000E+00  0.45593999997E+02  0.45594000000E+02  0.51100000000E-03 0.  1.
         11   -1    0    0    0    0 -0.00000000000E+00 -0.00000000000E+00 -0.45593999997E+02  0.45594000000E+02  0.51100000000E-03 0. -1.
         23    2    1    2    0    0  0.00000000000E+00 -0.22204460493E-15  0.00000000000E+00  0.91188000000E+02  0.91188000000E+02 0.  0.
    9900012    2    3    3    0    0 -0.12682857446E+02 -0.12478050201E+01  0.34545073999E+02  0.54367163128E+02  0.40000179983E+02 0.  0.
         12    1    3    3    0    0  0.12682857446E+02  0.12478050201E+01 -0.34545073999E+02  0.36820836872E+02  0.00000000000E+00 0. -1.
         11    1    4    4    0    0 -0.18168118174E+02  0.36728419737E+01  0.20027967655E+02  0.27289004650E+02  0.51100000000E-03 0. -1.
        -11    1    4    4    0    0 -0.45135588534E+01 -0.87231150768E+01  0.10474108802E+01  0.98773488335E+01  0.51100000000E-03 0.  1.
        -12    1    4    4    0    0  0.99988195817E+01  0.38024680830E+01  0.13469695464E+02  0.17200809645E+02  0.00000000000E+00 0.  1.
</event>
<event>
 8    1  0.1229941E-006  0.9118800E+02  0.7816164E-02  0.1184000E+00
        -11   -1    0    0    0    0  0.00000000000E+00  0.00000000000E+00  0.45593999997E+02  0.45594000000E+02  0.51100000000E-03 0. -1.
         11   -1    0    0    0    0 -0.00000000000E+00 -0.00000000000E+00 -0.45593999997E+02  0.45594000000E+02  0.51100000000E-03 0.  1.
         23    2    1    2    0    0  0.00000000000E+00  0.00000000000E+00  0.00000000000E+00  0.91188000000E+02  0.91188000000E+02 0.  0.
    9900012    2    3    3    0    0  0.21037591555E+02 -0.17616189926E+02  0.24553401492E+02  0.54367082972E+02  0.39999997252E+02 0.  0.
        -12    1    3    3    0    0 -0.21037591555E+02  0.17616189926E+02 -0.24553401492E+02  0.36820917028E+02  0.00000000000E+00 0.  1.
         11    1    4    4    0    0 -0.13729363491E+01 -0.10288913336E+02  0.12755040198E+02  0.16444991414E+02  0.51100000000E-03 0. -1.
        -11    1    4    4    0    0  0.81812408157E+01  0.38838813201E+01  0.16837914147E+02  0.19118906571E+02  0.51100000000E-03 0.  1.
         12    1    4    4    0    0  0.14229287088E+02 -0.11211157910E+02 -0.50395528537E+01  0.18803184988E+02  0.00000000000E+00 0. -1.
</event>
<event>
 8    1  0.1229941E-006  0.9118800E+02  0.7816164E-02  0.1184000E+00
        -11   -1    0    0    0    0  0.00000000000E+00  0.00000000000E+00  0.45593999997E+02  0.45594000000E+02  0.51100000000E-03 0.  1.
         11   -1    0    0    0    0 -0.00000000000E+00 -0.00000000000E+00 -0.45593999997E+02  0.45594000000E+02  0.51100000000E-03 0. -1.
         23    2    1    2    0    0 -0.11102230246E-15  0.00000000000E+00 -0.35527136788E-14  0.91188000000E+02  0.91188000000E+02 0.  0.
    9900012    2    3    3    0    0  0.74004775015E+00 -0.20724122136E+02 -0.30426020392E+02  0.54367087113E+02  0.40000006691E+02 0.  0.
        -12    1    3    3    0    0 -0.74004775015E+00  0.20724122136E+02  0.30426020392E+02  0.36820912887E+02  0.00000000000E+00 0.  1.
         11    1    4    4    0    0 -0.60075813781E+01 -0.57156343939E+01 -0.31593638262E+02  0.32663702935E+02  0.51100000000E-03 0. -1.
        -11    1    4    4    0    0  0.85212966192E+01 -0.14881129445E+02 -0.27815571655E+01  0.17372321956E+02  0.51100000000E-03 0.  1.
         12    1    4    4    0    0 -0.17736674909E+01 -0.12735829670E+00  0.39491750356E+01  0.43310622214E+01  0.00000000000E+00 0. -1.
</event>
<event>
 8    1  0.1229941E-006  0.9118800E+02  0.7816164E-02  0.1184000E+00
        -11   -1    0    0    0    0  0.00000000000E+00  0.00000000000E+00  0.45593999997E+02  0.45594000000E+02  0.51100000000E-03 0.  1.
         11   -1    0    0    0    0 -0.00000000000E+00 -0.00000000000E+00 -0.45593999997E+02  0.45594000000E+02  0.51100000000E-03 0. -1.
         23    2    1    2    0    0 -0.11102230246E-15 -0.71054273576E-14  0.00000000000E+00  0.91188000000E+02  0.91188000000E+02 0.  0.
    9900012    2    3    3    0    0  0.60138039556E+00 -0.35779038277E+02  0.86764572183E+01  0.54367052861E+02  0.39999928607E+02 0.  0.
         12    1    3    3    0    0 -0.60138039556E+00  0.35779038277E+02 -0.86764572183E+01  0.36820947139E+02  0.00000000000E+00 0. -1.
         11    1    4    4    0    0  0.40928972056E+01  0.20021342906E+01  0.14716080680E+02  0.15405303635E+02  0.51100000000E-03 0. -1.
        -11    1    4    4    0    0  0.10036267488E+01 -0.78226407990E+01 -0.32827125242E+01  0.85426680550E+01  0.51100000000E-03 0.  1.
         12    1    4    4    0    0 -0.44951435589E+01 -0.29958531768E+02 -0.27569109378E+01  0.30419081170E+02  0.00000000000E+00 0. -1.
</event>
<event>
 8    1  0.1229941E-006  0.9118800E+02  0.7816164E-02  0.1184000E+00
        -11   -1    0    0    0    0  0.00000000000E+00  0.00000000000E+00  0.45593999997E+02  0.45594000000E+02  0.51100000000E-03 0.  1.
         11   -1    0    0    0    0 -0.00000000000E+00 -0.00000000000E+00 -0.45593999997E+02  0.45594000000E+02  0.51100000000E-03 0. -1.
         23    2    1    2    0    0  0.00000000000E+00  0.44408920985E-15  0.00000000000E+00  0.91188000000E+02  0.91188000000E+02 0.  0.
    9900012    2    3    3    0    0 -0.22660106664E+01 -0.35880142921E+00  0.36749375456E+02  0.54367080142E+02  0.39999990799E+02 0.  0.
         12    1    3    3    0    0  0.22660106664E+01  0.35880142921E+00 -0.36749375456E+02  0.36820919858E+02  0.00000000000E+00 0. -1.
         11    1    4    4    0    0  0.22156547749E+01 -0.36820793770E+01  0.35687828346E+02  0.35945624587E+02  0.51100000000E-03 0. -1.
        -11    1    4    4    0    0 -0.81861270054E+01 -0.33307213793E+00  0.68194489213E+01  0.10659666798E+02  0.51100000000E-03 0.  1.
         12    1    4    4    0    0  0.37044615641E+01  0.36563500857E+01 -0.57579018114E+01  0.77617887564E+01  0.00000000000E+00 0. -1.
</event>
<event>
 8    1  0.1229941E-006  0.9118800E+02  0.7816164E-02  0.1184000E+00
        -11   -1    0    0    0    0  0.00000000000E+00  0.00000000000E+00  0.45593999997E+02  0.45594000000E+02  0.51100000000E-03 0.  1.
         11   -1    0    0    0    0 -0.00000000000E+00 -0.00000000000E+00 -0.45593999997E+02  0.45594000000E+02  0.51100000000E-03 0. -1.
         23    2    1    2    0    0  0.00000000000E+00 -0.35527136788E-14  0.00000000000E+00  0.91188000000E+02  0.91188000000E+02 0.  0.
    9900012    2    3    3    0    0 -0.17528228237E+02 -0.27470859520E+02 -0.17143305071E+02  0.54367084522E+02  0.40000000784E+02 0.  0.
        -12    1    3    3    0    0  0.17528228237E+02  0.27470859520E+02  0.17143305071E+02  0.36820915478E+02  0.00000000000E+00 0.  1.
         11    1    4    4    0    0  0.20348855556E+01 -0.74041023303E+00 -0.75828691918E+01  0.78859921366E+01  0.51100000000E-03 0. -1.
        -11    1    4    4    0    0 -0.23717123483E+02 -0.84734997156E+01 -0.11443135934E+02  0.27663107273E+02  0.51100000000E-03 0.  1.
        -12    1    4    4    0    0  0.41540096907E+01 -0.18256949572E+02  0.18827000553E+01  0.18817985112E+02  0.00000000000E+00 0.  1.
</event>
<event>
 8    1  0.1229941E-006  0.9118800E+02  0.7816164E-02  0.1184000E+00
        -11   -1    0    0    0    0  0.00000000000E+00  0.00000000000E+00  0.45593999997E+02  0.45594000000E+02  0.51100000000E-03 0. -1.
         11   -1    0    0    0    0 -0.00000000000E+00 -0.00000000000E+00 -0.45593999997E+02  0.45594000000E+02  0.51100000000E-03 0.  1.
         23    2    1    2    0    0  0.00000000000E+00  0.88817841970E-15 -0.71054273576E-14  0.91188000000E+02  0.91188000000E+02 0.  0.
    9900012    2    3    3    0    0 -0.14106102323E+02  0.29370465754E+01  0.33884736819E+02  0.54367031047E+02  0.39999878877E+02 0.  0.
        -12    1    3    3    0    0  0.14106102323E+02 -0.29370465754E+01 -0.33884736819E+02  0.36820968953E+02  0.00000000000E+00 0.  1.
         11    1    4    4    0    0  0.21149468907E+01  0.43518018999E+01  0.26486175277E+01  0.55160089916E+01  0.51100000000E-03 0. -1.
        -11    1    4    4    0    0 -0.53055014873E+00  0.46279048993E+01 -0.62335560250E+01  0.77817869539E+01  0.51100000000E-03 0.  1.
         12    1    4    4    0    0 -0.15690499065E+02 -0.60426602238E+01  0.37469675316E+02  0.41069235101E+02  0.00000000000E+00 0. -1.
</event>
<event>
 8    1  0.1229941E-006  0.9118800E+02  0.7816164E-02  0.1184000E+00
        -11   -1    0    0    0    0  0.00000000000E+00  0.00000000000E+00  0.45593999997E+02  0.45594000000E+02  0.51100000000E-03 0.  1.
         11   -1    0    0    0    0 -0.00000000000E+00 -0.00000000000E+00 -0.45593999997E+02  0.45594000000E+02  0.51100000000E-03 0. -1.
         23    2    1    2    0    0  0.00000000000E+00  0.00000000000E+00  0.35527136788E-14  0.91188000000E+02  0.91188000000E+02 0.  0.
    9900012    2    3    3    0    0  0.18970243586E+02 -0.20802700364E+02  0.23730990044E+02  0.54367049814E+02  0.39999921661E+02 0.  0.
         12    1    3    3    0    0 -0.18970243586E+02  0.20802700364E+02 -0.23730990044E+02  0.36820950186E+02  0.00000000000E+00 0. -1.
         11    1    4    4    0    0  0.32427328753E+01 -0.12520243302E+02  0.18205473754E+01  0.13060865280E+02  0.51100000000E-03 0. -1.
        -11    1    4    4    0    0  0.19056882118E+02 -0.14596617738E+02  0.23922670773E+02  0.33889824176E+02  0.51100000000E-03 0.  1.
        -12    1    4    4    0    0 -0.33293714073E+01  0.63141606767E+01 -0.20122281049E+01  0.74163603583E+01  0.00000000000E+00 0.  1.
</event>
<event>
 8    1  0.1229941E-006  0.9118800E+02  0.7816164E-02  0.1184000E+00
        -11   -1    0    0    0    0  0.00000000000E+00  0.00000000000E+00  0.45593999997E+02  0.45594000000E+02  0.51100000000E-03 0.  1.
         11   -1    0    0    0    0 -0.00000000000E+00 -0.00000000000E+00 -0.45593999997E+02  0.45594000000E+02  0.51100000000E-03 0. -1.
         23    2    1    2    0    0  0.00000000000E+00  0.35527136788E-14  0.71054273576E-14  0.91188000000E+02  0.91188000000E+02 0.  0.
    9900012    2    3    3    0    0  0.19468552402E+02 -0.19583196913E+02 -0.24356772250E+02  0.54367102559E+02  0.40000041903E+02 0.  0.
        -12    1    3    3    0    0 -0.19468552402E+02  0.19583196913E+02  0.24356772250E+02  0.36820897441E+02  0.00000000000E+00 0.  1.
         11    1    4    4    0    0  0.11880489414E+02 -0.61504839128E+01 -0.47552364620E+01  0.14198125057E+02  0.51100000000E-03 0. -1.
        -11    1    4    4    0    0  0.13595027818E+02 -0.14896501458E+02 -0.58873124946E+00  0.20176152800E+02  0.51100000000E-03 0.  1.
        -12    1    4    4    0    0 -0.60069648304E+01  0.14637884575E+01 -0.19012804538E+02  0.19992824701E+02  0.00000000000E+00 0.  1.
</event>
<event>
 8    1  0.1229941E-006  0.9118800E+02  0.7816164E-02  0.1184000E+00
        -11   -1    0    0    0    0  0.00000000000E+00  0.00000000000E+00  0.45593999997E+02  0.45594000000E+02  0.51100000000E-03 0. -1.
         11   -1    0    0    0    0 -0.00000000000E+00 -0.00000000000E+00 -0.45593999997E+02  0.45594000000E+02  0.51100000000E-03 0.  1.
         23    2    1    2    0    0 -0.35527136788E-14  0.00000000000E+00  0.00000000000E+00  0.91188000000E+02  0.91188000000E+02 0.  0.
    9900012    2    3    3    0    0 -0.27415261432E+02 -0.81655480806E+01  0.23184151536E+02  0.54367114387E+02  0.40000068869E+02 0.  0.
        -12    1    3    3    0    0  0.27415261432E+02  0.81655480806E+01 -0.23184151536E+02  0.36820885613E+02  0.00000000000E+00 0.  1.
         11    1    4    4    0    0 -0.27459296487E+02 -0.35621104216E+01 -0.43859549966E-01  0.27689411661E+02  0.51100000000E-03 0. -1.
        -11    1    4    4    0    0  0.35324700693E+01  0.16316958766E+01  0.16181598183E+02  0.16642863223E+02  0.51100000000E-03 0.  1.
        -12    1    4    4    0    0 -0.34884350141E+01 -0.62351335356E+01  0.70464129030E+01  0.10034839503E+02  0.00000000000E+00 0.  1.
</event>
<event>
 8    1  0.1229941E-006  0.9118800E+02  0.7816164E-02  0.1184000E+00
        -11   -1    0    0    0    0  0.00000000000E+00  0.00000000000E+00  0.45593999997E+02  0.45594000000E+02  0.51100000000E-03 0. -1.
         11   -1    0    0    0    0 -0.00000000000E+00 -0.00000000000E+00 -0.45593999997E+02  0.45594000000E+02  0.51100000000E-03 0.  1.
         23    2    1    2    0    0  0.00000000000E+00  0.00000000000E+00  0.35527136788E-14  0.91188000000E+02  0.91188000000E+02 0.  0.
    9900012    2    3    3    0    0  0.17189707202E+02 -0.17236199145E+02  0.27626216399E+02  0.54367076231E+02  0.39999981884E+02 0.  0.
        -12    1    3    3    0    0 -0.17189707202E+02  0.17236199145E+02 -0.27626216399E+02  0.36820923769E+02  0.00000000000E+00 0.  1.
         11    1    4    4    0    0  0.78713274807E+01 -0.11405109880E+01 -0.17095982768E+01  0.81351882677E+01  0.51100000000E-03 0. -1.
        -11    1    4    4    0    0  0.28238037895E+01  0.57601825612E+01 -0.26588372604E+01  0.69442772712E+01  0.51100000000E-03 0.  1.
         12    1    4    4    0    0  0.64945759321E+01 -0.21855870718E+02  0.31994651936E+02  0.39287610692E+02  0.00000000000E+00 0. -1.
</event>
<event>
 8    1  0.1229941E-006  0.9118800E+02  0.7816164E-02  0.1184000E+00
        -11   -1    0    0    0    0  0.00000000000E+00  0.00000000000E+00  0.45593999997E+02  0.45594000000E+02  0.51100000000E-03 0. -1.
         11   -1    0    0    0    0 -0.00000000000E+00 -0.00000000000E+00 -0.45593999997E+02  0.45594000000E+02  0.51100000000E-03 0.  1.
         23    2    1    2    0    0 -0.17763568394E-14  0.00000000000E+00  0.00000000000E+00  0.91188000000E+02  0.91188000000E+02 0.  0.
    9900012    2    3    3    0    0 -0.15998598612E+02  0.20298523327E+02  0.26225829237E+02  0.54367091185E+02  0.40000015974E+02 0.  0.
        -12    1    3    3    0    0  0.15998598612E+02 -0.20298523327E+02 -0.26225829237E+02  0.36820908815E+02  0.00000000000E+00 0.  1.
         11    1    4    4    0    0 -0.12647388825E+02 -0.41086987243E+01  0.17759539618E+02  0.22186462021E+02  0.51100000000E-03 0. -1.
        -11    1    4    4    0    0  0.25862968905E+01 -0.14975044346E+01 -0.20232091313E+01  0.36089924616E+01  0.51100000000E-03 0.  1.
         12    1    4    4    0    0 -0.59375066775E+01  0.25904726486E+02  0.10489498751E+02  0.28571636703E+02  0.00000000000E+00 0. -1.
</event>
<event>
 8    1  0.1229941E-006  0.9118800E+02  0.7816164E-02  0.1184000E+00
        -11   -1    0    0    0    0  0.00000000000E+00  0.00000000000E+00  0.45593999997E+02  0.45594000000E+02  0.51100000000E-03 0. -1.
         11   -1    0    0    0    0 -0.00000000000E+00 -0.00000000000E+00 -0.45593999997E+02  0.45594000000E+02  0.51100000000E-03 0.  1.
         23    2    1    2    0    0  0.44408920985E-15 -0.35527136788E-14  0.00000000000E+00  0.91188000000E+02  0.91188000000E+02 0.  0.
    9900012    2    3    3    0    0 -0.30460177410E+01  0.20799055087E+02 -0.30230799367E+02  0.54367080036E+02  0.39999990558E+02 0.  0.
         12    1    3    3    0    0  0.30460177410E+01 -0.20799055087E+02  0.30230799367E+02  0.36820919964E+02  0.00000000000E+00 0. -1.
         11    1    4    4    0    0 -0.51794252553E+01 -0.37579443654E+01  0.53079273505E+01  0.83140053433E+01  0.51100000000E-03 0. -1.
        -11    1    4    4    0    0  0.40765713974E+01 -0.52278279520E+00 -0.56710822170E+01  0.70037782648E+01  0.51100000000E-03 0.  1.
         12    1    4    4    0    0 -0.19431638831E+01  0.25079782248E+02 -0.29867644501E+02  0.39049296428E+02  0.00000000000E+00 0. -1.
</event>
<event>
 8    1  0.1229941E-006  0.9118800E+02  0.7816164E-02  0.1184000E+00
        -11   -1    0    0    0    0  0.00000000000E+00  0.00000000000E+00  0.45593999997E+02  0.45594000000E+02  0.51100000000E-03 0. -1.
         11   -1    0    0    0    0 -0.00000000000E+00 -0.00000000000E+00 -0.45593999997E+02  0.45594000000E+02  0.51100000000E-03 0.  1.
         23    2    1    2    0    0  0.00000000000E+00  0.00000000000E+00  0.00000000000E+00  0.91188000000E+02  0.91188000000E+02 0.  0.
    9900012    2    3    3    0    0  0.10051215006E+02  0.17510724032E+02 -0.30791676239E+02  0.54367086040E+02  0.40000004246E+02 0.  0.
         12    1    3    3    0    0 -0.10051215006E+02 -0.17510724032E+02  0.30791676239E+02  0.36820913960E+02  0.00000000000E+00 0. -1.
         11    1    4    4    0    0  0.49113656151E+01  0.12741439085E+02 -0.23001359481E+01  0.13847613795E+02  0.51100000000E-03 0. -1.
        -11    1    4    4    0    0  0.99346744933E+01  0.13555407014E+02 -0.10174532182E+02  0.19646066324E+02  0.51100000000E-03 0.  1.
         12    1    4    4    0    0 -0.47948251028E+01 -0.87861220670E+01 -0.18317008109E+02  0.20873405922E+02  0.00000000000E+00 0. -1.
</event>
<event>
 8    1  0.1229941E-006  0.9118800E+02  0.7816164E-02  0.1184000E+00
        -11   -1    0    0    0    0  0.00000000000E+00  0.00000000000E+00  0.45593999997E+02  0.45594000000E+02  0.51100000000E-03 0.  1.
         11   -1    0    0    0    0 -0.00000000000E+00 -0.00000000000E+00 -0.45593999997E+02  0.45594000000E+02  0.51100000000E-03 0. -1.
         23    2    1    2    0    0  0.17763568394E-14  0.00000000000E+00  0.00000000000E+00  0.91188000000E+02  0.91188000000E+02 0.  0.
    9900012    2    3    3    0    0 -0.14688250988E+02  0.11280527114E+01 -0.33745555099E+02  0.54367085984E+02  0.40000004118E+02 0.  0.
        -12    1    3    3    0    0  0.14688250988E+02 -0.11280527114E+01  0.33745555099E+02  0.36820914016E+02  0.00000000000E+00 0.  1.
         11    1    4    4    0    0 -0.18234151022E+02  0.34893603393E+00 -0.15013169483E+01  0.18299179564E+02  0.51100000000E-03 0. -1.
        -11    1    4    4    0    0 -0.27860611800E+01  0.23377589131E+01 -0.51226768616E+00  0.36728288931E+01  0.51100000000E-03 0.  1.
         12    1    4    4    0    0  0.63319612143E+01 -0.15586422357E+01 -0.31731970465E+02  0.32395077527E+02  0.00000000000E+00 0. -1.
</event>
<event>
 8    1  0.1229941E-006  0.9118800E+02  0.7816164E-02  0.1184000E+00
        -11   -1    0    0    0    0  0.00000000000E+00  0.00000000000E+00  0.45593999997E+02  0.45594000000E+02  0.51100000000E-03 0.  1.
         11   -1    0    0    0    0 -0.00000000000E+00 -0.00000000000E+00 -0.45593999997E+02  0.45594000000E+02  0.51100000000E-03 0. -1.
         23    2    1    2    0    0  0.35527136788E-14  0.00000000000E+00  0.00000000000E+00  0.91188000000E+02  0.91188000000E+02 0.  0.
    9900012    2    3    3    0    0  0.23684294834E+02  0.22853934624E+02  0.16508532488E+02  0.54367084822E+02  0.40000001469E+02 0.  0.
         12    1    3    3    0    0 -0.23684294834E+02 -0.22853934624E+02 -0.16508532488E+02  0.36820915178E+02  0.00000000000E+00 0. -1.
         11    1    4    4    0    0 -0.10029441030E+02  0.69297928829E+00  0.30086673442E+01  0.10493902378E+02  0.51100000000E-03 0.  1.
        -11    1    4    4    0    0  0.13964485552E+02  0.62497973582E+01  0.34502120941E+00  0.15303132478E+02  0.51100000000E-03 0. -1.
        -12    1    4    4    0    0  0.19749250312E+02  0.15911157978E+02  0.13154843935E+02  0.28570049966E+02  0.00000000000E+00 0.  1.
</event>
<event>
 8    1  0.1229941E-006  0.9118800E+02  0.7816164E-02  0.1184000E+00
        -11   -1    0    0    0    0  0.00000000000E+00  0.00000000000E+00  0.45593999997E+02  0.45594000000E+02  0.51100000000E-03 0.  1.
         11   -1    0    0    0    0 -0.00000000000E+00 -0.00000000000E+00 -0.45593999997E+02  0.45594000000E+02  0.51100000000E-03 0. -1.
         23    2    1    2    0    0  0.17763568394E-14  0.71054273576E-14  0.10658141036E-13  0.91188000000E+02  0.91188000000E+02 0.  0.
    9900012    2    3    3    0    0  0.12390494907E+02  0.26180341345E+02  0.22734238931E+02  0.54367078546E+02  0.39999987162E+02 0.  0.
         12    1    3    3    0    0 -0.12390494907E+02 -0.26180341345E+02 -0.22734238931E+02  0.36820921454E+02  0.00000000000E+00 0. -1.
         11    1    4    4    0    0  0.11113672747E+02  0.77657312997E+01  0.49248405566E+01  0.14424782817E+02  0.51100000000E-03 0. -1.
        -11    1    4    4    0    0  0.14091238929E+02  0.16365375388E+01  0.10314827169E+02  0.17539581793E+02  0.51100000000E-03 0.  1.
         12    1    4    4    0    0 -0.12814416770E+02  0.16778072506E+02  0.74945712048E+01  0.22402713936E+02  0.00000000000E+00 0. -1.
</event>
<event>
 8    1  0.1229941E-006  0.9118800E+02  0.7816164E-02  0.1184000E+00
        -11   -1    0    0    0    0  0.00000000000E+00  0.00000000000E+00  0.45593999997E+02  0.45594000000E+02  0.51100000000E-03 0.  1.
         11   -1    0    0    0    0 -0.00000000000E+00 -0.00000000000E+00 -0.45593999997E+02  0.45594000000E+02  0.51100000000E-03 0. -1.
         23    2    1    2    0    0  0.35527136788E-14 -0.88817841970E-15 -0.35527136788E-14  0.91188000000E+02  0.91188000000E+02 0.  0.
    9900012    2    3    3    0    0 -0.27542989606E+02 -0.44539332024E+01  0.24027682655E+02  0.54367036798E+02  0.39999891988E+02 0.  0.
         12    1    3    3    0    0  0.27542989606E+02  0.44539332024E+01 -0.24027682655E+02  0.36820963202E+02  0.00000000000E+00 0. -1.
         11    1    4    4    0    0 -0.93768090824E-01 -0.41726324789E+01 -0.41617688650E+01  0.58940626570E+01  0.51100000000E-03 0. -1.
        -11    1    4    4    0    0 -0.21191417876E+02 -0.12497539973E+02  0.12396031390E+02  0.27548616870E+02  0.51100000000E-03 0.  1.
         12    1    4    4    0    0 -0.62578036389E+01  0.12216239250E+02  0.15793420130E+02  0.20924357271E+02  0.00000000000E+00 0. -1.
</event>
<event>
 8    1  0.1229941E-006  0.9118800E+02  0.7816164E-02  0.1184000E+00
        -11   -1    0    0    0    0  0.00000000000E+00  0.00000000000E+00  0.45593999997E+02  0.45594000000E+02  0.51100000000E-03 0. -1.
         11   -1    0    0    0    0 -0.00000000000E+00 -0.00000000000E+00 -0.45593999997E+02  0.45594000000E+02  0.51100000000E-03 0.  1.
         23    2    1    2    0    0  0.35527136788E-14  0.00000000000E+00  0.00000000000E+00  0.91188000000E+02  0.91188000000E+02 0.  0.
    9900012    2    3    3    0    0  0.21406703027E+02  0.20799588922E+02  0.21561786887E+02  0.54367075412E+02  0.39999980016E+02 0.  0.
        -12    1    3    3    0    0 -0.21406703027E+02 -0.20799588922E+02 -0.21561786887E+02  0.36820924588E+02  0.00000000000E+00 0.  1.
         11    1    4    4    0    0 -0.56495017020E+01  0.31878831886E+01  0.25563597049E+01  0.69724058909E+01  0.51100000000E-03 0. -1.
        -11    1    4    4    0    0  0.21387233697E+02  0.23812339819E+02  0.70362383149E+01  0.32771175487E+02  0.51100000000E-03 0.  1.
         12    1    4    4    0    0  0.56689710316E+01 -0.62006340861E+01  0.11969188867E+02  0.14623494034E+02  0.00000000000E+00 0. -1.
</event>
<event>
 8    1  0.1229941E-006  0.9118800E+02  0.7816164E-02  0.1184000E+00
        -11   -1    0    0    0    0  0.00000000000E+00  0.00000000000E+00  0.45593999997E+02  0.45594000000E+02  0.51100000000E-03 0.  1.
         11   -1    0    0    0    0 -0.00000000000E+00 -0.00000000000E+00 -0.45593999997E+02  0.45594000000E+02  0.51100000000E-03 0. -1.
         23    2    1    2    0    0  0.00000000000E+00  0.00000000000E+00  0.00000000000E+00  0.91188000000E+02  0.91188000000E+02 0.  0.
    9900012    2    3    3    0    0 -0.45257365845E+01  0.12791903983E+02  0.34229603301E+02  0.54367070608E+02  0.39999969065E+02 0.  0.
         12    1    3    3    0    0  0.45257365845E+01 -0.12791903983E+02 -0.34229603301E+02  0.36820929392E+02  0.00000000000E+00 0. -1.
         11    1    4    4    0    0  0.99785585735E+01 -0.68370044258E+01  0.79940494970E+01  0.14499003012E+02  0.51100000000E-03 0. -1.
        -11    1    4    4    0    0 -0.13526420103E+02  0.92950832911E+01  0.24278138670E+02  0.29305129785E+02  0.51100000000E-03 0.  1.
         12    1    4    4    0    0 -0.97787505514E+00  0.10333825118E+02  0.19574151342E+01  0.10562937811E+02  0.00000000000E+00 0. -1.
</event>
<event>
 8    1  0.1229941E-006  0.9118800E+02  0.7816164E-02  0.1184000E+00
        -11   -1    0    0    0    0  0.00000000000E+00  0.00000000000E+00  0.45593999997E+02  0.45594000000E+02  0.51100000000E-03 0. -1.
         11   -1    0    0    0    0 -0.00000000000E+00 -0.00000000000E+00 -0.45593999997E+02  0.45594000000E+02  0.51100000000E-03 0.  1.
         23    2    1    2    0    0  0.00000000000E+00  0.00000000000E+00  0.17763568394E-14  0.91188000000E+02  0.91188000000E+02 0.  0.
    9900012    2    3    3    0    0  0.21234580279E+02  0.28199413977E+02 -0.10472154377E+02  0.54367077068E+02  0.39999983793E+02 0.  0.
         12    1    3    3    0    0 -0.21234580279E+02 -0.28199413977E+02  0.10472154377E+02  0.36820922932E+02  0.00000000000E+00 0. -1.
         11    1    4    4    0    0  0.11319511116E+02  0.36995426775E+01 -0.65800604950E+01  0.13605702639E+02  0.51100000000E-03 0. -1.
        -11    1    4    4    0    0  0.38339149271E+01  0.28287264239E+02  0.53754548116E+01  0.29047611545E+02  0.51100000000E-03 0.  1.
        -12    1    4    4    0    0  0.60811542357E+01 -0.37873929396E+01 -0.92675486932E+01  0.11713762884E+02  0.00000000000E+00 0.  1.
</event>
<event>
 8    1  0.1229941E-006  0.9118800E+02  0.7816164E-02  0.1184000E+00
        -11   -1    0    0    0    0  0.00000000000E+00  0.00000000000E+00  0.45593999997E+02  0.45594000000E+02  0.51100000000E-03 0. -1.
         11   -1    0    0    0    0 -0.00000000000E+00 -0.00000000000E+00 -0.45593999997E+02  0.45594000000E+02  0.51100000000E-03 0.  1.
         23    2    1    2    0    0  0.00000000000E+00  0.00000000000E+00  0.00000000000E+00  0.91188000000E+02  0.91188000000E+02 0.  0.
    9900012    2    3    3    0    0  0.20054065117E+02 -0.19229175651E+02 -0.24163056527E+02  0.54367081698E+02  0.39999994346E+02 0.  0.
         12    1    3    3    0    0 -0.20054065117E+02  0.19229175651E+02  0.24163056527E+02  0.36820918302E+02  0.00000000000E+00 0. -1.
         11    1    4    4    0    0  0.76684836400E+01 -0.86052845478E+01 -0.92020327418E+01  0.14749032861E+02  0.51100000000E-03 0. -1.
        -11    1    4    4    0    0  0.14375116996E+02 -0.80315970004E+01 -0.24508662387E+02  0.29526684055E+02  0.51100000000E-03 0.  1.
         12    1    4    4    0    0 -0.19895355189E+01 -0.25922941025E+01  0.95476386020E+01  0.10091364782E+02  0.00000000000E+00 0. -1.
</event>
<event>
 8    1  0.1229941E-006  0.9118800E+02  0.7816164E-02  0.1184000E+00
        -11   -1    0    0    0    0  0.00000000000E+00  0.00000000000E+00  0.45593999997E+02  0.45594000000E+02  0.51100000000E-03 0.  1.
         11   -1    0    0    0    0 -0.00000000000E+00 -0.00000000000E+00 -0.45593999997E+02  0.45594000000E+02  0.51100000000E-03 0. -1.
         23    2    1    2    0    0  0.00000000000E+00  0.00000000000E+00  0.00000000000E+00  0.91188000000E+02  0.91188000000E+02 0.  0.
    9900012    2    3    3    0    0 -0.85699364366E+01  0.85717373128E+01 -0.34768663001E+02  0.54367103515E+02  0.40000044082E+02 0.  0.
        -12    1    3    3    0    0  0.85699364366E+01 -0.85717373128E+01  0.34768663001E+02  0.36820896485E+02  0.00000000000E+00 0.  1.
         11    1    4    4    0    0 -0.12954335547E+02  0.41271085288E+01 -0.24655067452E+02  0.28155286992E+02  0.51100000000E-03 0. -1.
        -11    1    4    4    0    0 -0.73994586516E+01 -0.46491072094E+01 -0.65100007808E+01  0.10897077434E+02  0.51100000000E-03 0.  1.
        -12    1    4    4    0    0  0.11783857762E+02  0.90937359934E+01 -0.36035947684E+01  0.15314739088E+02  0.00000000000E+00 0.  1.
</event>
<event>
 8    1  0.1229941E-006  0.9118800E+02  0.7816164E-02  0.1184000E+00
        -11   -1    0    0    0    0  0.00000000000E+00  0.00000000000E+00  0.45593999997E+02  0.45594000000E+02  0.51100000000E-03 0.  1.
         11   -1    0    0    0    0 -0.00000000000E+00 -0.00000000000E+00 -0.45593999997E+02  0.45594000000E+02  0.51100000000E-03 0. -1.
         23    2    1    2    0    0  0.00000000000E+00  0.00000000000E+00  0.00000000000E+00  0.91188000000E+02  0.91188000000E+02 0.  0.
    9900012    2    3    3    0    0  0.21228559001E+02 -0.29917796182E+02  0.31707077548E+01  0.54367087011E+02  0.40000006459E+02 0.  0.
         12    1    3    3    0    0 -0.21228559001E+02  0.29917796182E+02 -0.31707077548E+01  0.36820912989E+02  0.00000000000E+00 0. -1.
         11    1    4    4    0    0  0.25943593748E+02 -0.93390014340E+01  0.68945079697E+01  0.28422196339E+02  0.51100000000E-03 0. -1.
        -11    1    4    4    0    0 -0.18909673732E+01 -0.18500335661E+02  0.25370518837E+01  0.18768985314E+02  0.51100000000E-03 0.  1.
         12    1    4    4    0    0 -0.28240673735E+01 -0.20784590871E+01 -0.62608520986E+01  0.71759053581E+01  0.00000000000E+00 0. -1.
</event>
<event>
 8    1  0.1229941E-006  0.9118800E+02  0.7816164E-02  0.1184000E+00
        -11   -1    0    0    0    0  0.00000000000E+00  0.00000000000E+00  0.45593999997E+02  0.45594000000E+02  0.51100000000E-03 0. -1.
         11   -1    0    0    0    0 -0.00000000000E+00 -0.00000000000E+00 -0.45593999997E+02  0.45594000000E+02  0.51100000000E-03 0.  1.
         23    2    1    2    0    0  0.00000000000E+00  0.44408920985E-15 -0.35527136788E-14  0.91188000000E+02  0.91188000000E+02 0.  0.
    9900012    2    3    3    0    0  0.23042440134E+02  0.22620553515E+01  0.28630571547E+02  0.54367074308E+02  0.39999977500E+02 0.  0.
        -12    1    3    3    0    0 -0.23042440134E+02 -0.22620553515E+01 -0.28630571547E+02  0.36820925692E+02  0.00000000000E+00 0.  1.
         11    1    4    4    0    0  0.94081780323E+01  0.10463503156E+02  0.21966511052E+02  0.26086899399E+02  0.51100000000E-03 0. -1.
        -11    1    4    4    0    0 -0.29106590868E+00 -0.25907209980E+01 -0.73155310207E+01  0.77661798221E+01  0.51100000000E-03 0.  1.
        -12    1    4    4    0    0  0.13925328010E+02 -0.56107268067E+01  0.13979591515E+02  0.20513995087E+02  0.00000000000E+00 0.  1.
</event>
<event>
 8    1  0.1229941E-006  0.9118800E+02  0.7816164E-02  0.1184000E+00
        -11   -1    0    0    0    0  0.00000000000E+00  0.00000000000E+00  0.45593999997E+02  0.45594000000E+02  0.51100000000E-03 0.  1.
         11   -1    0    0    0    0 -0.00000000000E+00 -0.00000000000E+00 -0.45593999997E+02  0.45594000000E+02  0.51100000000E-03 0. -1.
         23    2    1    2    0    0  0.00000000000E+00  0.88817841970E-15 -0.88817841970E-15  0.91188000000E+02  0.91188000000E+02 0.  0.
    9900012    2    3    3    0    0  0.36068041215E+02  0.57008186101E+01  0.47304732959E+01  0.54367077856E+02  0.39999985589E+02 0.  0.
        -12    1    3    3    0    0 -0.36068041215E+02 -0.57008186101E+01 -0.47304732959E+01  0.36820922144E+02  0.00000000000E+00 0.  1.
         11    1    4    4    0    0 -0.39292143383E+01  0.11501111685E+02 -0.36459648855E+00  0.12159244474E+02  0.51100000000E-03 0. -1.
        -11    1    4    4    0    0  0.19156850900E+02 -0.40772863040E+01  0.78800030653E+01  0.21111694593E+02  0.51100000000E-03 0.  1.
         12    1    4    4    0    0  0.20840404653E+02 -0.17230067710E+01 -0.27849332809E+01  0.21096138789E+02  0.00000000000E+00 0. -1.
</event>
<event>
 8    1  0.1229941E-006  0.9118800E+02  0.7816164E-02  0.1184000E+00
        -11   -1    0    0    0    0  0.00000000000E+00  0.00000000000E+00  0.45593999997E+02  0.45594000000E+02  0.51100000000E-03 0. -1.
         11   -1    0    0    0    0 -0.00000000000E+00 -0.00000000000E+00 -0.45593999997E+02  0.45594000000E+02  0.51100000000E-03 0.  1.
         23    2    1    2    0    0 -0.17763568394E-14 -0.88817841970E-15  0.00000000000E+00  0.91188000000E+02  0.91188000000E+02 0.  0.
    9900012    2    3    3    0    0  0.97024497747E+01  0.67880990589E+01 -0.34864946275E+02  0.54367077969E+02  0.39999985846E+02 0.  0.
         12    1    3    3    0    0 -0.97024497747E+01 -0.67880990589E+01  0.34864946275E+02  0.36820922031E+02  0.00000000000E+00 0. -1.
         11    1    4    4    0    0 -0.11516636984E+02  0.28151976709E+01 -0.60533017149E+00  0.11871170550E+02  0.51100000000E-03 0. -1.
        -11    1    4    4    0    0  0.22768028186E+02  0.40615156435E+01 -0.29471019453E+02  0.37462247726E+02  0.51100000000E-03 0.  1.
        -12    1    4    4    0    0 -0.15489414273E+01 -0.88614255457E-01 -0.47885966505E+01  0.50336596937E+01  0.00000000000E+00 0.  1.
</event>
<event>
 8    1  0.1229941E-006  0.9118800E+02  0.7816164E-02  0.1184000E+00
        -11   -1    0    0    0    0  0.00000000000E+00  0.00000000000E+00  0.45593999997E+02  0.45594000000E+02  0.51100000000E-03 0. -1.
         11   -1    0    0    0    0 -0.00000000000E+00 -0.00000000000E+00 -0.45593999997E+02  0.45594000000E+02  0.51100000000E-03 0.  1.
         23    2    1    2    0    0  0.00000000000E+00  0.00000000000E+00  0.00000000000E+00  0.91188000000E+02  0.91188000000E+02 0.  0.
    9900012    2    3    3    0    0  0.22566576460E+02  0.28750184874E+02  0.44671676525E+01  0.54367094386E+02  0.40000023272E+02 0.  0.
        -12    1    3    3    0    0 -0.22566576460E+02 -0.28750184874E+02 -0.44671676525E+01  0.36820905614E+02  0.00000000000E+00 0.  1.
         11    1    4    4    0    0 -0.61702266026E+01  0.10190212470E+02  0.62514309062E+01  0.13453345872E+02  0.51100000000E-03 0. -1.
        -11    1    4    4    0    0  0.22953532615E+02  0.27206057082E+01  0.31898270054E+01  0.23333267056E+02  0.51100000000E-03 0.  1.
        -12    1    4    4    0    0  0.57832704476E+01  0.15839366695E+02 -0.49740902592E+01  0.17580481458E+02  0.00000000000E+00 0.  1.
</event>
<event>
 8    1  0.1229941E-006  0.9118800E+02  0.7816164E-02  0.1184000E+00
        -11   -1    0    0    0    0  0.00000000000E+00  0.00000000000E+00  0.45593999997E+02  0.45594000000E+02  0.51100000000E-03 0. -1.
         11   -1    0    0    0    0 -0.00000000000E+00 -0.00000000000E+00 -0.45593999997E+02  0.45594000000E+02  0.51100000000E-03 0.  1.
         23    2    1    2    0    0  0.00000000000E+00  0.00000000000E+00  0.00000000000E+00  0.91188000000E+02  0.91188000000E+02 0.  0.
    9900012    2    3    3    0    0  0.93678430236E+01  0.24192210419E+02 -0.26129687405E+02  0.54367080786E+02  0.39999992268E+02 0.  0.
         12    1    3    3    0    0 -0.93678430236E+01 -0.24192210419E+02  0.26129687405E+02  0.36820919214E+02  0.00000000000E+00 0. -1.
         11    1    4    4    0    0 -0.58031211617E+00 -0.90900231638E-01  0.62739320962E+01  0.63013688364E+01  0.51100000000E-03 0. -1.
        -11    1    4    4    0    0  0.15667972212E+02  0.12928959280E+02 -0.28038520710E+02  0.34623719978E+02  0.51100000000E-03 0.  1.
        -12    1    4    4    0    0 -0.57198170719E+01  0.11354151371E+02 -0.43650987916E+01  0.13441991971E+02  0.00000000000E+00 0.  1.
</event>
<event>
 8    1  0.1229941E-006  0.9118800E+02  0.7816164E-02  0.1184000E+00
        -11   -1    0    0    0    0  0.00000000000E+00  0.00000000000E+00  0.45593999997E+02  0.45594000000E+02  0.51100000000E-03 0.  1.
         11   -1    0    0    0    0 -0.00000000000E+00 -0.00000000000E+00 -0.45593999997E+02  0.45594000000E+02  0.51100000000E-03 0. -1.
         23    2    1    2    0    0  0.00000000000E+00  0.35527136788E-14  0.00000000000E+00  0.91188000000E+02  0.91188000000E+02 0.  0.
    9900012    2    3    3    0    0 -0.14420470314E+02 -0.16165961176E+02 -0.29774005376E+02  0.54367086636E+02  0.40000005604E+02 0.  0.
        -12    1    3    3    0    0  0.14420470314E+02  0.16165961176E+02  0.29774005376E+02  0.36820913364E+02  0.00000000000E+00 0.  1.
         11    1    4    4    0    0  0.36820638227E+01 -0.59750046122E+01 -0.84123070968E+01  0.10955600625E+02  0.51100000000E-03 0. -1.
        -11    1    4    4    0    0 -0.16218052395E+02  0.83836564016E+01 -0.59490191315E+01  0.19201607928E+02  0.51100000000E-03 0.  1.
        -12    1    4    4    0    0 -0.18844817410E+01 -0.18574612965E+02 -0.15412679148E+02  0.24209878082E+02  0.00000000000E+00 0.  1.
</event>
<event>
 8    1  0.1229941E-006  0.9118800E+02  0.7816164E-02  0.1184000E+00
        -11   -1    0    0    0    0  0.00000000000E+00  0.00000000000E+00  0.45593999997E+02  0.45594000000E+02  0.51100000000E-03 0.  1.
         11   -1    0    0    0    0 -0.00000000000E+00 -0.00000000000E+00 -0.45593999997E+02  0.45594000000E+02  0.51100000000E-03 0. -1.
         23    2    1    2    0    0  0.00000000000E+00  0.00000000000E+00 -0.71054273576E-14  0.91188000000E+02  0.91188000000E+02 0.  0.
    9900012    2    3    3    0    0 -0.62466446080E+01 -0.16775102086E+02  0.32176939921E+02  0.54367080925E+02  0.39999992585E+02 0.  0.
         12    1    3    3    0    0  0.62466446080E+01  0.16775102086E+02 -0.32176939921E+02  0.36820919075E+02  0.00000000000E+00 0. -1.
         11    1    4    4    0    0 -0.13359845888E+02 -0.12004445230E+02  0.13581962859E+01  0.18012131602E+02  0.51100000000E-03 0. -1.
        -11    1    4    4    0    0  0.44374499920E+01 -0.87499542998E+00 -0.61801717703E+00  0.45649233210E+01  0.51100000000E-03 0.  1.
        -12    1    4    4    0    0  0.26757512880E+01 -0.38956614267E+01  0.31436760812E+02  0.31790026002E+02  0.00000000000E+00 0.  1.
</event>
<event>
 8    1  0.1229941E-006  0.9118800E+02  0.7816164E-02  0.1184000E+00
        -11   -1    0    0    0    0  0.00000000000E+00  0.00000000000E+00  0.45593999997E+02  0.45594000000E+02  0.51100000000E-03 0. -1.
         11   -1    0    0    0    0 -0.00000000000E+00 -0.00000000000E+00 -0.45593999997E+02  0.45594000000E+02  0.51100000000E-03 0.  1.
         23    2    1    2    0    0  0.00000000000E+00 -0.17763568394E-14  0.00000000000E+00  0.91188000000E+02  0.91188000000E+02 0.  0.
    9900012    2    3    3    0    0 -0.18663959924E+02 -0.13020417537E+02  0.28946584349E+02  0.54367089930E+02  0.40000013114E+02 0.  0.
        -12    1    3    3    0    0  0.18663959924E+02  0.13020417537E+02 -0.28946584349E+02  0.36820910070E+02  0.00000000000E+00 0.  1.
         11    1    4    4    0    0 -0.10875884022E+02  0.50939300969E+01  0.67381383811E+01  0.13770820099E+02  0.51100000000E-03 0. -1.
        -11    1    4    4    0    0 -0.93370639610E+01 -0.16737418847E+02  0.89946494735E+00  0.19186739966E+02  0.51100000000E-03 0.  1.
         12    1    4    4    0    0  0.15489880593E+01 -0.13769287866E+01  0.21308981021E+02  0.21409529865E+02  0.00000000000E+00 0. -1.
</event>
<event>
 8    1  0.1229941E-006  0.9118800E+02  0.7816164E-02  0.1184000E+00
        -11   -1    0    0    0    0  0.00000000000E+00  0.00000000000E+00  0.45593999997E+02  0.45594000000E+02  0.51100000000E-03 0. -1.
         11   -1    0    0    0    0 -0.00000000000E+00 -0.00000000000E+00 -0.45593999997E+02  0.45594000000E+02  0.51100000000E-03 0.  1.
         23    2    1    2    0    0  0.00000000000E+00  0.00000000000E+00  0.00000000000E+00  0.91188000000E+02  0.91188000000E+02 0.  0.
    9900012    2    3    3    0    0  0.82984487070E+01 -0.29599247513E+02  0.20268213822E+02  0.54367079373E+02  0.39999989047E+02 0.  0.
        -12    1    3    3    0    0 -0.82984487070E+01  0.29599247513E+02 -0.20268213822E+02  0.36820920627E+02  0.00000000000E+00 0.  1.
         11    1    4    4    0    0  0.59542422456E+01 -0.14939276215E+02  0.69147091162E+01  0.17505661283E+02  0.51100000000E-03 0. -1.
        -11    1    4    4    0    0 -0.32562064492E+00 -0.21178854621E+02 -0.64412049824E+00  0.21191149174E+02  0.51100000000E-03 0.  1.
        -12    1    4    4    0    0  0.26698271063E+01  0.65188833223E+01  0.13997625204E+02  0.15670268916E+02  0.00000000000E+00 0.  1.
</event>
<event>
 8    1  0.1229941E-006  0.9118800E+02  0.7816164E-02  0.1184000E+00
        -11   -1    0    0    0    0  0.00000000000E+00  0.00000000000E+00  0.45593999997E+02  0.45594000000E+02  0.51100000000E-03 0. -1.
         11   -1    0    0    0    0 -0.00000000000E+00 -0.00000000000E+00 -0.45593999997E+02  0.45594000000E+02  0.51100000000E-03 0.  1.
         23    2    1    2    0    0  0.17763568394E-14  0.00000000000E+00 -0.35527136788E-14  0.91188000000E+02  0.91188000000E+02 0.  0.
    9900012    2    3    3    0    0  0.78987589232E+01 -0.28068029837E+02  0.22484983745E+02  0.54367093093E+02  0.40000020323E+02 0.  0.
        -12    1    3    3    0    0 -0.78987589232E+01  0.28068029837E+02 -0.22484983745E+02  0.36820906907E+02  0.00000000000E+00 0.  1.
         11    1    4    4    0    0 -0.31658572455E+01 -0.10382753175E+02  0.23099888088E+02  0.25523108069E+02  0.51100000000E-03 0. -1.
        -11    1    4    4    0    0  0.16293771025E+02 -0.15834939972E+02 -0.27786589011E+01  0.22890024982E+02  0.51100000000E-03 0.  1.
        -12    1    4    4    0    0 -0.52291548564E+01 -0.18503366901E+01  0.21637545583E+01  0.59539600408E+01  0.00000000000E+00 0.  1.
</event>
<event>
 8    1  0.1229941E-006  0.9118800E+02  0.7816164E-02  0.1184000E+00
        -11   -1    0    0    0    0  0.00000000000E+00  0.00000000000E+00  0.45593999997E+02  0.45594000000E+02  0.51100000000E-03 0.  1.
         11   -1    0    0    0    0 -0.00000000000E+00 -0.00000000000E+00 -0.45593999997E+02  0.45594000000E+02  0.51100000000E-03 0. -1.
         23    2    1    2    0    0  0.00000000000E+00  0.00000000000E+00  0.00000000000E+00  0.91188000000E+02  0.91188000000E+02 0.  0.
    9900012    2    3    3    0    0  0.18760500905E+02 -0.17219854436E+02 -0.26595099186E+02  0.54367094502E+02  0.40000023536E+02 0.  0.
        -12    1    3    3    0    0 -0.18760500905E+02  0.17219854436E+02  0.26595099186E+02  0.36820905498E+02  0.00000000000E+00 0.  1.
         11    1    4    4    0    0  0.18775926449E+02 -0.22464846566E+02 -0.29067557389E+02  0.41256849590E+02  0.51100000000E-03 0. -1.
        -11    1    4    4    0    0 -0.57840884855E+01  0.37517676114E+01  0.94475693603E+00  0.69587359303E+01  0.51100000000E-03 0.  1.
         12    1    4    4    0    0  0.57686629410E+01  0.14932245195E+01  0.15277012668E+01  0.61515089818E+01  0.00000000000E+00 0. -1.
</event>
<event>
 8    1  0.1229941E-006  0.9118800E+02  0.7816164E-02  0.1184000E+00
        -11   -1    0    0    0    0  0.00000000000E+00  0.00000000000E+00  0.45593999997E+02  0.45594000000E+02  0.51100000000E-03 0.  1.
         11   -1    0    0    0    0 -0.00000000000E+00 -0.00000000000E+00 -0.45593999997E+02  0.45594000000E+02  0.51100000000E-03 0. -1.
         23    2    1    2    0    0  0.00000000000E+00 -0.44408920985E-15  0.00000000000E+00  0.91188000000E+02  0.91188000000E+02 0.  0.
    9900012    2    3    3    0    0  0.26150925648E+02 -0.26035752486E+01 -0.25790199621E+02  0.54367028900E+02  0.39999873982E+02 0.  0.
        -12    1    3    3    0    0 -0.26150925648E+02  0.26035752486E+01  0.25790199621E+02  0.36820971100E+02  0.00000000000E+00 0.  1.
         11    1    4    4    0    0  0.25548305355E+02  0.50480366477E+00 -0.71290527944E+01  0.26529118478E+02  0.51100000000E-03 0. -1.
        -11    1    4    4    0    0  0.34220606150E+01 -0.67697316407E+01  0.99081652377E+00  0.76499335281E+01  0.51100000000E-03 0.  1.
        -12    1    4    4    0    0 -0.28194403220E+01  0.36613527274E+01 -0.19651963350E+02  0.20187976893E+02  0.00000000000E+00 0.  1.
</event>
<event>
 8    1  0.1229941E-006  0.9118800E+02  0.7816164E-02  0.1184000E+00
        -11   -1    0    0    0    0  0.00000000000E+00  0.00000000000E+00  0.45593999997E+02  0.45594000000E+02  0.51100000000E-03 0.  1.
         11   -1    0    0    0    0 -0.00000000000E+00 -0.00000000000E+00 -0.45593999997E+02  0.45594000000E+02  0.51100000000E-03 0. -1.
         23    2    1    2    0    0  0.00000000000E+00 -0.44408920985E-15  0.00000000000E+00  0.91188000000E+02  0.91188000000E+02 0.  0.
    9900012    2    3    3    0    0  0.20168784571E+02 -0.75292345481E+00 -0.30796560168E+02  0.54367151517E+02  0.40000153514E+02 0.  0.
        -12    1    3    3    0    0 -0.20168784571E+02  0.75292345481E+00  0.30796560168E+02  0.36820848483E+02  0.00000000000E+00 0.  1.
         11    1    4    4    0    0  0.62918666042E+00 -0.78358451906E+00 -0.19322987748E+02  0.19349101693E+02  0.51100000000E-03 0. -1.
        -11    1    4    4    0    0  0.11958329166E+02  0.75223891352E+01 -0.17721304666E+02  0.22663464300E+02  0.51100000000E-03 0.  1.
         12    1    4    4    0    0  0.75812687444E+01 -0.74917280709E+01  0.62477322461E+01  0.12354585525E+02  0.00000000000E+00 0. -1.
</event>
<event>
 8    1  0.1229941E-006  0.9118800E+02  0.7816164E-02  0.1184000E+00
        -11   -1    0    0    0    0  0.00000000000E+00  0.00000000000E+00  0.45593999997E+02  0.45594000000E+02  0.51100000000E-03 0.  1.
         11   -1    0    0    0    0 -0.00000000000E+00 -0.00000000000E+00 -0.45593999997E+02  0.45594000000E+02  0.51100000000E-03 0. -1.
         23    2    1    2    0    0  0.00000000000E+00  0.71054273576E-14  0.53290705182E-14  0.91188000000E+02  0.91188000000E+02 0.  0.
    9900012    2    3    3    0    0  0.16636008553E+02 -0.32134043478E+02 -0.68137270238E+01  0.54367076509E+02  0.39999982517E+02 0.  0.
        -12    1    3    3    0    0 -0.16636008553E+02  0.32134043478E+02  0.68137270238E+01  0.36820923491E+02  0.00000000000E+00 0.  1.
         11    1    4    4    0    0 -0.28331176160E+01  0.62561697420E+00 -0.98380940435E+01  0.10256999888E+02  0.51100000000E-03 0. -1.
        -11    1    4    4    0    0  0.20881620882E+01 -0.11087466650E+02  0.10423782641E+02  0.15360585354E+02  0.51100000000E-03 0.  1.
        -12    1    4    4    0    0  0.17380964081E+02 -0.21672193802E+02 -0.73994156216E+01  0.28749491267E+02  0.00000000000E+00 0.  1.
</event>
<event>
 8    1  0.1229941E-006  0.9118800E+02  0.7816164E-02  0.1184000E+00
        -11   -1    0    0    0    0  0.00000000000E+00  0.00000000000E+00  0.45593999997E+02  0.45594000000E+02  0.51100000000E-03 0.  1.
         11   -1    0    0    0    0 -0.00000000000E+00 -0.00000000000E+00 -0.45593999997E+02  0.45594000000E+02  0.51100000000E-03 0. -1.
         23    2    1    2    0    0  0.00000000000E+00 -0.44408920985E-15 -0.35527136788E-14  0.91188000000E+02  0.91188000000E+02 0.  0.
    9900012    2    3    3    0    0  0.28372333905E+02 -0.28794645232E+01 -0.23291788747E+02  0.54366972445E+02  0.39999745282E+02 0.  0.
        -12    1    3    3    0    0 -0.28372333905E+02  0.28794645232E+01  0.23291788747E+02  0.36821027555E+02  0.00000000000E+00 0.  1.
         11    1    4    4    0    0  0.14279008548E+02 -0.68850278831E+01  0.59394280256E+01  0.16928393296E+02  0.51100000000E-03 0. -1.
        -11    1    4    4    0    0 -0.26541417141E+01  0.78037567277E+00 -0.14920462787E+02  0.15174770656E+02  0.51100000000E-03 0.  1.
         12    1    4    4    0    0  0.16747467072E+02  0.32251876872E+01 -0.14310753986E+02  0.22263808492E+02  0.00000000000E+00 0. -1.
</event>
<event>
 8    1  0.1229941E-006  0.9118800E+02  0.7816164E-02  0.1184000E+00
        -11   -1    0    0    0    0  0.00000000000E+00  0.00000000000E+00  0.45593999997E+02  0.45594000000E+02  0.51100000000E-03 0. -1.
         11   -1    0    0    0    0 -0.00000000000E+00 -0.00000000000E+00 -0.45593999997E+02  0.45594000000E+02  0.51100000000E-03 0.  1.
         23    2    1    2    0    0 -0.35527136788E-14  0.88817841970E-15 -0.35527136788E-14  0.91188000000E+02  0.91188000000E+02 0.  0.
    9900012    2    3    3    0    0  0.31595313043E+02  0.25289534126E+01 -0.18738198522E+02  0.54367088883E+02  0.40000010726E+02 0.  0.
         12    1    3    3    0    0 -0.31595313043E+02 -0.25289534126E+01  0.18738198522E+02  0.36820911117E+02  0.00000000000E+00 0. -1.
         11    1    4    4    0    0 -0.72749894219E+00  0.63013019290E+01 -0.76193144924E+01  0.99141118769E+01  0.51100000000E-03 0. -1.
        -11    1    4    4    0    0  0.67420528261E+01  0.68298072251E+01  0.65374382901E+01  0.11612047309E+02  0.51100000000E-03 0.  1.
        -12    1    4    4    0    0  0.25580759159E+02 -0.10602155742E+02 -0.17656322320E+02  0.32840929697E+02  0.00000000000E+00 0.  1.
</event>
<event>
 8    1  0.1229941E-006  0.9118800E+02  0.7816164E-02  0.1184000E+00
        -11   -1    0    0    0    0  0.00000000000E+00  0.00000000000E+00  0.45593999997E+02  0.45594000000E+02  0.51100000000E-03 0. -1.
         11   -1    0    0    0    0 -0.00000000000E+00 -0.00000000000E+00 -0.45593999997E+02  0.45594000000E+02  0.51100000000E-03 0.  1.
         23    2    1    2    0    0  0.00000000000E+00  0.00000000000E+00  0.00000000000E+00  0.91188000000E+02  0.91188000000E+02 0.  0.
    9900012    2    3    3    0    0  0.97721908978E+00 -0.20993832010E+02 -0.30233825480E+02  0.54367080094E+02  0.39999990689E+02 0.  0.
         12    1    3    3    0    0 -0.97721908978E+00  0.20993832010E+02  0.30233825480E+02  0.36820919906E+02  0.00000000000E+00 0. -1.
         11    1    4    4    0    0 -0.39215821739E+01  0.52064650174E+01  0.48189142040E+01  0.81060483031E+01  0.51100000000E-03 0. -1.
        -11    1    4    4    0    0  0.17424948957E+01  0.12227891546E+01 -0.81036519804E+00  0.22777606972E+01  0.51100000000E-03 0.  1.
        -12    1    4    4    0    0  0.31563063680E+01 -0.27423086182E+02 -0.34242374486E+02  0.43983271093E+02  0.00000000000E+00 0.  1.
</event>
<event>
 8    1  0.1229941E-006  0.9118800E+02  0.7816164E-02  0.1184000E+00
        -11   -1    0    0    0    0  0.00000000000E+00  0.00000000000E+00  0.45593999997E+02  0.45594000000E+02  0.51100000000E-03 0. -1.
         11   -1    0    0    0    0 -0.00000000000E+00 -0.00000000000E+00 -0.45593999997E+02  0.45594000000E+02  0.51100000000E-03 0.  1.
         23    2    1    2    0    0  0.00000000000E+00 -0.23314683517E-14  0.00000000000E+00  0.91188000000E+02  0.91188000000E+02 0.  0.
    9900012    2    3    3    0    0 -0.36650472677E+02 -0.96871203190E+00 -0.34034874295E+01  0.54367091848E+02  0.40000017485E+02 0.  0.
         12    1    3    3    0    0  0.36650472677E+02  0.96871203190E+00  0.34034874295E+01  0.36820908152E+02  0.00000000000E+00 0. -1.
         11    1    4    4    0    0 -0.21317896794E+02  0.74099227255E+01 -0.15957535338E-01  0.22569003819E+02  0.51100000000E-03 0. -1.
        -11    1    4    4    0    0 -0.19111430497E+02  0.15283265046E+01  0.30205683624E+01  0.19408925551E+02  0.51100000000E-03 0.  1.
         12    1    4    4    0    0  0.37788546128E+01 -0.99069612620E+01 -0.64080982566E+01  0.12389162478E+02  0.00000000000E+00 0. -1.
</event>
<event>
 8    1  0.1229941E-006  0.9118800E+02  0.7816164E-02  0.1184000E+00
        -11   -1    0    0    0    0  0.00000000000E+00  0.00000000000E+00  0.45593999997E+02  0.45594000000E+02  0.51100000000E-03 0.  1.
         11   -1    0    0    0    0 -0.00000000000E+00 -0.00000000000E+00 -0.45593999997E+02  0.45594000000E+02  0.51100000000E-03 0. -1.
         23    2    1    2    0    0 -0.35527136788E-14  0.00000000000E+00  0.00000000000E+00  0.91188000000E+02  0.91188000000E+02 0.  0.
    9900012    2    3    3    0    0 -0.17081049419E+02 -0.11564259260E+02 -0.30500576166E+02  0.54367088985E+02  0.40000010960E+02 0.  0.
        -12    1    3    3    0    0  0.17081049419E+02  0.11564259260E+02  0.30500576166E+02  0.36820911015E+02  0.00000000000E+00 0.  1.
         11    1    4    4    0    0  0.51060891902E+01 -0.12872707891E+02 -0.74011199955E+01  0.15702080522E+02  0.51100000000E-03 0. -1.
        -11    1    4    4    0    0 -0.94203703741E+01 -0.30966707505E+01  0.20433071228E+01  0.10124616140E+02  0.51100000000E-03 0.  1.
         12    1    4    4    0    0 -0.12766768235E+02  0.44051193821E+01 -0.25142763294E+02  0.28540392323E+02  0.00000000000E+00 0. -1.
</event>
<event>
 8    1  0.1229941E-006  0.9118800E+02  0.7816164E-02  0.1184000E+00
        -11   -1    0    0    0    0  0.00000000000E+00  0.00000000000E+00  0.45593999997E+02  0.45594000000E+02  0.51100000000E-03 0.  1.
         11   -1    0    0    0    0 -0.00000000000E+00 -0.00000000000E+00 -0.45593999997E+02  0.45594000000E+02  0.51100000000E-03 0. -1.
         23    2    1    2    0    0 -0.11102230246E-15 -0.71054273576E-14  0.00000000000E+00  0.91188000000E+02  0.91188000000E+02 0.  0.
    9900012    2    3    3    0    0 -0.45310692057E+00 -0.30181876653E+02 -0.21086227905E+02  0.54367082148E+02  0.39999995373E+02 0.  0.
        -12    1    3    3    0    0  0.45310692057E+00  0.30181876653E+02  0.21086227905E+02  0.36820917852E+02  0.00000000000E+00 0.  1.
         11    1    4    4    0    0 -0.92467710892E+01  0.65192656083E+01 -0.43451262662E+01  0.12119559488E+02  0.51100000000E-03 0. -1.
        -11    1    4    4    0    0  0.49290261423E-02 -0.12010266825E+02 -0.19930678156E+01  0.12174516544E+02  0.51100000000E-03 0.  1.
         12    1    4    4    0    0  0.87887351425E+01 -0.24690875437E+02 -0.14748033823E+02  0.30073006117E+02  0.00000000000E+00 0. -1.
</event>
<event>
 8    1  0.1229941E-006  0.9118800E+02  0.7816164E-02  0.1184000E+00
        -11   -1    0    0    0    0  0.00000000000E+00  0.00000000000E+00  0.45593999997E+02  0.45594000000E+02  0.51100000000E-03 0.  1.
         11   -1    0    0    0    0 -0.00000000000E+00 -0.00000000000E+00 -0.45593999997E+02  0.45594000000E+02  0.51100000000E-03 0. -1.
         23    2    1    2    0    0  0.35527136788E-14 -0.17763568394E-14  0.00000000000E+00  0.91188000000E+02  0.91188000000E+02 0.  0.
    9900012    2    3    3    0    0 -0.23235577213E+02  0.11583303027E+02 -0.26109661588E+02  0.54367090374E+02  0.40000014126E+02 0.  0.
        -12    1    3    3    0    0  0.23235577213E+02 -0.11583303027E+02  0.26109661588E+02  0.36820909626E+02  0.00000000000E+00 0.  1.
         11    1    4    4    0    0 -0.46167844064E+01 -0.51632943260E+00 -0.23595841523E+01  0.52104637002E+01  0.51100000000E-03 0. -1.
        -11    1    4    4    0    0 -0.20733833353E+02 -0.83921294945E+01 -0.13761844688E+02  0.26262293359E+02  0.51100000000E-03 0.  1.
         12    1    4    4    0    0  0.21150405470E+01  0.20491761954E+02 -0.99882327476E+01  0.22894333315E+02  0.00000000000E+00 0. -1.
</event>
<event>
 8    1  0.1229941E-006  0.9118800E+02  0.7816164E-02  0.1184000E+00
        -11   -1    0    0    0    0  0.00000000000E+00  0.00000000000E+00  0.45593999997E+02  0.45594000000E+02  0.51100000000E-03 0.  1.
         11   -1    0    0    0    0 -0.00000000000E+00 -0.00000000000E+00 -0.45593999997E+02  0.45594000000E+02  0.51100000000E-03 0. -1.
         23    2    1    2    0    0  0.35527136788E-14  0.00000000000E+00  0.00000000000E+00  0.91188000000E+02  0.91188000000E+02 0.  0.
    9900012    2    3    3    0    0 -0.26241658337E+02 -0.11235070518E+02 -0.23257876448E+02  0.54367078519E+02  0.39999987100E+02 0.  0.
        -12    1    3    3    0    0  0.26241658337E+02  0.11235070518E+02  0.23257876448E+02  0.36820921481E+02  0.00000000000E+00 0.  1.
         11    1    4    4    0    0 -0.76865347432E+01 -0.80908142808E+01 -0.13958300249E+02  0.17871156599E+02  0.51100000000E-03 0. -1.
        -11    1    4    4    0    0 -0.63852611815E+01  0.14224548057E+01 -0.19117827668E+02  0.20206094948E+02  0.51100000000E-03 0.  1.
        -12    1    4    4    0    0 -0.12169862412E+02 -0.45667110426E+01  0.98182514691E+01  0.16289826972E+02  0.00000000000E+00 0.  1.
</event>
<event>
 8    1  0.1229941E-006  0.9118800E+02  0.7816164E-02  0.1184000E+00
        -11   -1    0    0    0    0  0.00000000000E+00  0.00000000000E+00  0.45593999997E+02  0.45594000000E+02  0.51100000000E-03 0.  1.
         11   -1    0    0    0    0 -0.00000000000E+00 -0.00000000000E+00 -0.45593999997E+02  0.45594000000E+02  0.51100000000E-03 0. -1.
         23    2    1    2    0    0  0.35527136788E-14  0.35527136788E-14  0.00000000000E+00  0.91188000000E+02  0.91188000000E+02 0.  0.
    9900012    2    3    3    0    0  0.12409178632E+02  0.28458318802E+02 -0.19796902391E+02  0.54367068892E+02  0.39999965154E+02 0.  0.
        -12    1    3    3    0    0 -0.12409178632E+02 -0.28458318802E+02  0.19796902391E+02  0.36820931108E+02  0.00000000000E+00 0.  1.
         11    1    4    4    0    0  0.17276297582E+02  0.23740333837E+02 -0.53556707000E+01  0.29845554405E+02  0.51100000000E-03 0. -1.
        -11    1    4    4    0    0 -0.21213384275E+01 -0.23264744065E+01  0.37056773541E+01  0.48625718300E+01  0.51100000000E-03 0.  1.
        -12    1    4    4    0    0 -0.27457805228E+01  0.70444593716E+01 -0.18146909045E+02  0.19658942657E+02  0.00000000000E+00 0.  1.
</event>
<event>
 8    1  0.1229941E-006  0.9118800E+02  0.7816164E-02  0.1184000E+00
        -11   -1    0    0    0    0  0.00000000000E+00  0.00000000000E+00  0.45593999997E+02  0.45594000000E+02  0.51100000000E-03 0. -1.
         11   -1    0    0    0    0 -0.00000000000E+00 -0.00000000000E+00 -0.45593999997E+02  0.45594000000E+02  0.51100000000E-03 0.  1.
         23    2    1    2    0    0 -0.44408920985E-15 -0.19984014443E-14  0.00000000000E+00  0.91188000000E+02  0.91188000000E+02 0.  0.
    9900012    2    3    3    0    0  0.26782412724E+01  0.11529430003E+01  0.36705307656E+02  0.54367056721E+02  0.39999937406E+02 0.  0.
        -12    1    3    3    0    0 -0.26782412724E+01 -0.11529430003E+01 -0.36705307656E+02  0.36820943279E+02  0.00000000000E+00 0.  1.
         11    1    4    4    0    0 -0.74634829984E+00 -0.10987184343E+02  0.28728690678E+02  0.30767075323E+02  0.51100000000E-03 0. -1.
        -11    1    4    4    0    0  0.76251967452E+01  0.58925463839E+01  0.11735666747E+02  0.15185242920E+02  0.51100000000E-03 0.  1.
         12    1    4    4    0    0 -0.42006071730E+01  0.62475809598E+01 -0.37590497696E+01  0.84147384773E+01  0.00000000000E+00 0. -1.
</event>
<event>
 8    1  0.1229941E-006  0.9118800E+02  0.7816164E-02  0.1184000E+00
        -11   -1    0    0    0    0  0.00000000000E+00  0.00000000000E+00  0.45593999997E+02  0.45594000000E+02  0.51100000000E-03 0.  1.
         11   -1    0    0    0    0 -0.00000000000E+00 -0.00000000000E+00 -0.45593999997E+02  0.45594000000E+02  0.51100000000E-03 0. -1.
         23    2    1    2    0    0  0.10658141036E-13  0.35527136788E-14  0.31086244690E-14  0.91188000000E+02  0.91188000000E+02 0.  0.
    9900012    2    3    3    0    0  0.28760918028E+02  0.22730055907E+02  0.34545804910E+01  0.54367082389E+02  0.39999995922E+02 0.  0.
         12    1    3    3    0    0 -0.28760918028E+02 -0.22730055907E+02 -0.34545804910E+01  0.36820917611E+02  0.00000000000E+00 0. -1.
         11    1    4    4    0    0  0.18252220474E+01  0.28775102366E+01 -0.61286001590E+01  0.70122208218E+01  0.51100000000E-03 0. -1.
        -11    1    4    4    0    0  0.26933446269E+02  0.39885494000E+01 -0.26020178392E+01  0.27351225774E+02  0.51100000000E-03 0.  1.
         12    1    4    4    0    0  0.22497115419E-02  0.15863996271E+02  0.12185198489E+02  0.20003635793E+02  0.00000000000E+00 0. -1.
</event>
<event>
 8    1  0.1229941E-006  0.9118800E+02  0.7816164E-02  0.1184000E+00
        -11   -1    0    0    0    0  0.00000000000E+00  0.00000000000E+00  0.45593999997E+02  0.45594000000E+02  0.51100000000E-03 0.  1.
         11   -1    0    0    0    0 -0.00000000000E+00 -0.00000000000E+00 -0.45593999997E+02  0.45594000000E+02  0.51100000000E-03 0. -1.
         23    2    1    2    0    0  0.00000000000E+00 -0.71054273576E-14  0.00000000000E+00  0.91188000000E+02  0.91188000000E+02 0.  0.
    9900012    2    3    3    0    0  0.10803969388E+01 -0.33642174456E+02  0.14927059403E+02  0.54367078473E+02  0.39999986995E+02 0.  0.
         12    1    3    3    0    0 -0.10803969388E+01  0.33642174456E+02 -0.14927059403E+02  0.36820921527E+02  0.00000000000E+00 0. -1.
         11    1    4    4    0    0 -0.90510424879E+00  0.12816404285E+01 -0.17744217599E+01  0.23686259165E+01  0.51100000000E-03 0. -1.
        -11    1    4    4    0    0  0.62997847985E+01 -0.41060398385E+02  0.15795489280E+02  0.44442559398E+02  0.51100000000E-03 0.  1.
        -12    1    4    4    0    0 -0.43142836109E+01  0.61365834999E+01  0.90599188234E+00  0.75558931581E+01  0.00000000000E+00 0.  1.
</event>
<event>
 8    1  0.1229941E-006  0.9118800E+02  0.7816164E-02  0.1184000E+00
        -11   -1    0    0    0    0  0.00000000000E+00  0.00000000000E+00  0.45593999997E+02  0.45594000000E+02  0.51100000000E-03 0. -1.
         11   -1    0    0    0    0 -0.00000000000E+00 -0.00000000000E+00 -0.45593999997E+02  0.45594000000E+02  0.51100000000E-03 0.  1.
         23    2    1    2    0    0  0.17763568394E-14  0.00000000000E+00  0.17763568394E-14  0.91188000000E+02  0.91188000000E+02 0.  0.
    9900012    2    3    3    0    0  0.11791641171E+02 -0.31172088393E+02  0.15653754027E+02  0.54367056076E+02  0.39999935937E+02 0.  0.
        -12    1    3    3    0    0 -0.11791641171E+02  0.31172088393E+02 -0.15653754027E+02  0.36820943924E+02  0.00000000000E+00 0.  1.
         11    1    4    4    0    0  0.12434294325E+02 -0.88623040675E+01  0.14231676241E+02  0.20873253643E+02  0.51100000000E-03 0. -1.
        -11    1    4    4    0    0 -0.41730269378E+01 -0.23645736602E+02 -0.63646762347E+01  0.24840372725E+02  0.51100000000E-03 0.  1.
         12    1    4    4    0    0  0.35303737838E+01  0.13359522762E+01  0.77867540212E+01  0.86534297087E+01  0.00000000000E+00 0. -1.
</event>
<event>
 8    1  0.1229941E-006  0.9118800E+02  0.7816164E-02  0.1184000E+00
        -11   -1    0    0    0    0  0.00000000000E+00  0.00000000000E+00  0.45593999997E+02  0.45594000000E+02  0.51100000000E-03 0. -1.
         11   -1    0    0    0    0 -0.00000000000E+00 -0.00000000000E+00 -0.45593999997E+02  0.45594000000E+02  0.51100000000E-03 0.  1.
         23    2    1    2    0    0  0.00000000000E+00 -0.35527136788E-14  0.00000000000E+00  0.91188000000E+02  0.91188000000E+02 0.  0.
    9900012    2    3    3    0    0 -0.20793589336E+02 -0.23790759370E+02 -0.18905188508E+02  0.54367085544E+02  0.40000003114E+02 0.  0.
         12    1    3    3    0    0  0.20793589336E+02  0.23790759370E+02  0.18905188508E+02  0.36820914456E+02  0.00000000000E+00 0. -1.
         11    1    4    4    0    0 -0.23434821261E+02 -0.14903866982E+02 -0.13592990302E+02  0.30920632014E+02  0.51100000000E-03 0.  1.
        -11    1    4    4    0    0  0.59649456190E+01  0.46884218372E+01 -0.56604150839E+01  0.94658425269E+01  0.51100000000E-03 0. -1.
        -12    1    4    4    0    0 -0.33237136943E+01 -0.13575314225E+02  0.34821687799E+00  0.13980611003E+02  0.00000000000E+00 0.  1.
</event>
<event>
 8    1  0.1229941E-006  0.9118800E+02  0.7816164E-02  0.1184000E+00
        -11   -1    0    0    0    0  0.00000000000E+00  0.00000000000E+00  0.45593999997E+02  0.45594000000E+02  0.51100000000E-03 0.  1.
         11   -1    0    0    0    0 -0.00000000000E+00 -0.00000000000E+00 -0.45593999997E+02  0.45594000000E+02  0.51100000000E-03 0. -1.
         23    2    1    2    0    0  0.00000000000E+00  0.35527136788E-14  0.00000000000E+00  0.91188000000E+02  0.91188000000E+02 0.  0.
    9900012    2    3    3    0    0  0.11513936346E+02  0.17707152251E+02  0.30160596959E+02  0.54367142053E+02  0.40000131939E+02 0.  0.
         12    1    3    3    0    0 -0.11513936346E+02 -0.17707152251E+02 -0.30160596959E+02  0.36820857947E+02  0.00000000000E+00 0. -1.
         11    1    4    4    0    0 -0.55759011500E+01  0.31684449325E+00  0.12428157264E+02  0.13625349805E+02  0.51100000000E-03 0. -1.
        -11    1    4    4    0    0  0.10129986802E+02  0.23395606498E+02  0.66586975595E+01  0.26349749325E+02  0.51100000000E-03 0.  1.
        -12    1    4    4    0    0  0.69598506936E+01 -0.60052987404E+01  0.11073742135E+02  0.14392042923E+02  0.00000000000E+00 0.  1.
</event>
<event>
 8    1  0.1229941E-006  0.9118800E+02  0.7816164E-02  0.1184000E+00
        -11   -1    0    0    0    0  0.00000000000E+00  0.00000000000E+00  0.45593999997E+02  0.45594000000E+02  0.51100000000E-03 0.  1.
         11   -1    0    0    0    0 -0.00000000000E+00 -0.00000000000E+00 -0.45593999997E+02  0.45594000000E+02  0.51100000000E-03 0. -1.
         23    2    1    2    0    0  0.88817841970E-15  0.17763568394E-14 -0.71054273576E-14  0.91188000000E+02  0.91188000000E+02 0.  0.
    9900012    2    3    3    0    0  0.71149917505E+01 -0.70651937253E+01  0.35429380623E+02  0.54367067349E+02  0.39999961635E+02 0.  0.
         12    1    3    3    0    0 -0.71149917505E+01  0.70651937253E+01 -0.35429380623E+02  0.36820932651E+02  0.00000000000E+00 0. -1.
         11    1    4    4    0    0  0.62691761849E+01  0.54870195551E+01 -0.29939966098E+00  0.83366416532E+01  0.51100000000E-03 0. -1.
        -11    1    4    4    0    0  0.16078893369E+01  0.38774318001E+01 -0.21636658313E+01  0.47224184032E+01  0.51100000000E-03 0.  1.
         12    1    4    4    0    0 -0.76207377128E+00 -0.16429645081E+02  0.37892446115E+02  0.41308007293E+02  0.00000000000E+00 0. -1.
</event>
<event>
 8    1  0.1229941E-006  0.9118800E+02  0.7816164E-02  0.1184000E+00
        -11   -1    0    0    0    0  0.00000000000E+00  0.00000000000E+00  0.45593999997E+02  0.45594000000E+02  0.51100000000E-03 0. -1.
         11   -1    0    0    0    0 -0.00000000000E+00 -0.00000000000E+00 -0.45593999997E+02  0.45594000000E+02  0.51100000000E-03 0.  1.
         23    2    1    2    0    0  0.00000000000E+00  0.00000000000E+00  0.00000000000E+00  0.91188000000E+02  0.91188000000E+02 0.  0.
    9900012    2    3    3    0    0  0.19850077603E+02  0.29479996920E+02  0.96272384094E+01  0.54367088569E+02  0.40000010010E+02 0.  0.
        -12    1    3    3    0    0 -0.19850077603E+02 -0.29479996920E+02 -0.96272384094E+01  0.36820911431E+02  0.00000000000E+00 0.  1.
         11    1    4    4    0    0  0.21113523030E+02  0.15742137710E+02  0.13538112574E+02  0.29612096291E+02  0.51100000000E-03 0. -1.
        -11    1    4    4    0    0 -0.33100560856E+01 -0.42037657055E+01  0.20631081715E+01  0.57345037261E+01  0.51100000000E-03 0.  1.
        -12    1    4    4    0    0  0.20466106588E+01  0.17941624915E+02 -0.59739823359E+01  0.19020488552E+02  0.00000000000E+00 0.  1.
</event>
<event>
 8    1  0.1229941E-006  0.9118800E+02  0.7816164E-02  0.1184000E+00
        -11   -1    0    0    0    0  0.00000000000E+00  0.00000000000E+00  0.45593999997E+02  0.45594000000E+02  0.51100000000E-03 0.  1.
         11   -1    0    0    0    0 -0.00000000000E+00 -0.00000000000E+00 -0.45593999997E+02  0.45594000000E+02  0.51100000000E-03 0. -1.
         23    2    1    2    0    0  0.00000000000E+00  0.35527136788E-14  0.17763568394E-14  0.91188000000E+02  0.91188000000E+02 0.  0.
    9900012    2    3    3    0    0 -0.17223446108E+02 -0.31516331327E+02 -0.81149895981E+01  0.54367091642E+02  0.40000017016E+02 0.  0.
        -12    1    3    3    0    0  0.17223446108E+02  0.31516331327E+02  0.81149895981E+01  0.36820908358E+02  0.00000000000E+00 0.  1.
         11    1    4    4    0    0 -0.23206135015E+01 -0.65346963593E+01  0.26736543943E+01  0.74320879712E+01  0.51100000000E-03 0. -1.
        -11    1    4    4    0    0  0.49859573459E+01 -0.21843744053E+01  0.91891722545E+01  0.10680456413E+02  0.51100000000E-03 0.  1.
         12    1    4    4    0    0 -0.19888789952E+02 -0.22797260562E+02 -0.19977816247E+02  0.36254547258E+02  0.00000000000E+00 0. -1.
</event>
<event>
 8    1  0.1229941E-006  0.9118800E+02  0.7816164E-02  0.1184000E+00
        -11   -1    0    0    0    0  0.00000000000E+00  0.00000000000E+00  0.45593999997E+02  0.45594000000E+02  0.51100000000E-03 0. -1.
         11   -1    0    0    0    0 -0.00000000000E+00 -0.00000000000E+00 -0.45593999997E+02  0.45594000000E+02  0.51100000000E-03 0.  1.
         23    2    1    2    0    0 -0.35527136788E-14  0.17763568394E-14 -0.71054273576E-14  0.91188000000E+02  0.91188000000E+02 0.  0.
    9900012    2    3    3    0    0  0.22563558734E+02 -0.14525194320E+02  0.25212779025E+02  0.54367086392E+02  0.40000005048E+02 0.  0.
        -12    1    3    3    0    0 -0.22563558734E+02  0.14525194320E+02 -0.25212779025E+02  0.36820913608E+02  0.00000000000E+00 0.  1.
         11    1    4    4    0    0 -0.31575074724E+01 -0.52304241056E+01  0.23999475068E+01  0.65640641419E+01  0.51100000000E-03 0. -1.
        -11    1    4    4    0    0  0.10732821682E+02 -0.85737372626E+01 -0.62523830203E+01  0.15092870025E+02  0.51100000000E-03 0.  1.
         12    1    4    4    0    0  0.14988244524E+02 -0.72103295220E+00  0.29065214538E+02  0.32710152225E+02  0.00000000000E+00 0. -1.
</event>
<event>
 8    1  0.1229941E-006  0.9118800E+02  0.7816164E-02  0.1184000E+00
        -11   -1    0    0    0    0  0.00000000000E+00  0.00000000000E+00  0.45593999997E+02  0.45594000000E+02  0.51100000000E-03 0. -1.
         11   -1    0    0    0    0 -0.00000000000E+00 -0.00000000000E+00 -0.45593999997E+02  0.45594000000E+02  0.51100000000E-03 0.  1.
         23    2    1    2    0    0  0.00000000000E+00  0.00000000000E+00  0.00000000000E+00  0.91188000000E+02  0.91188000000E+02 0.  0.
    9900012    2    3    3    0    0  0.28137107404E+02  0.14971761953E+02 -0.18437518116E+02  0.54366911704E+02  0.39999606809E+02 0.  0.
         12    1    3    3    0    0 -0.28137107404E+02 -0.14971761953E+02  0.18437518116E+02  0.36821088296E+02  0.00000000000E+00 0. -1.
         11    1    4    4    0    0  0.31601062124E+01  0.11977550902E+01 -0.11814005782E+02  0.12287864803E+02  0.51100000000E-03 0. -1.
        -11    1    4    4    0    0 -0.63422643232E+01 -0.17735008878E+01 -0.12322910317E+01  0.66998629532E+01  0.51100000000E-03 0.  1.
         12    1    4    4    0    0  0.31319265515E+02  0.15547507751E+02 -0.53912213015E+01  0.35379183947E+02  0.00000000000E+00 0. -1.
</event>
<event>
 8    1  0.1229941E-006  0.9118800E+02  0.7816164E-02  0.1184000E+00
        -11   -1    0    0    0    0  0.00000000000E+00  0.00000000000E+00  0.45593999997E+02  0.45594000000E+02  0.51100000000E-03 0.  1.
         11   -1    0    0    0    0 -0.00000000000E+00 -0.00000000000E+00 -0.45593999997E+02  0.45594000000E+02  0.51100000000E-03 0. -1.
         23    2    1    2    0    0 -0.17763568394E-14 -0.88817841970E-15  0.00000000000E+00  0.91188000000E+02  0.91188000000E+02 0.  0.
    9900012    2    3    3    0    0 -0.12831367924E+02 -0.47532488766E+01  0.34183958467E+02  0.54367076680E+02  0.39999982907E+02 0.  0.
         12    1    3    3    0    0  0.12831367924E+02  0.47532488766E+01 -0.34183958467E+02  0.36820923320E+02  0.00000000000E+00 0. -1.
         11    1    4    4    0    0 -0.66216667945E+01 -0.11085326509E+02  0.94810321020E+01  0.16019391528E+02  0.51100000000E-03 0. -1.
        -11    1    4    4    0    0  0.84863423887E+01 -0.29041520751E+01  0.17280803417E+02  0.19469932548E+02  0.51100000000E-03 0.  1.
        -12    1    4    4    0    0 -0.14696043519E+02  0.92362297077E+01  0.74221229479E+01  0.18877752604E+02  0.00000000000E+00 0.  1.
</event>
<event>
 8    1  0.1229941E-006  0.9118800E+02  0.7816164E-02  0.1184000E+00
        -11   -1    0    0    0    0  0.00000000000E+00  0.00000000000E+00  0.45593999997E+02  0.45594000000E+02  0.51100000000E-03 0. -1.
         11   -1    0    0    0    0 -0.00000000000E+00 -0.00000000000E+00 -0.45593999997E+02  0.45594000000E+02  0.51100000000E-03 0.  1.
         23    2    1    2    0    0  0.00000000000E+00 -0.35527136788E-14  0.35527136788E-14  0.91188000000E+02  0.91188000000E+02 0.  0.
    9900012    2    3    3    0    0  0.12177836258E+02 -0.21731314206E+02  0.27115137603E+02  0.54367076596E+02  0.39999982716E+02 0.  0.
        -12    1    3    3    0    0 -0.12177836258E+02  0.21731314206E+02 -0.27115137603E+02  0.36820923404E+02  0.00000000000E+00 0.  1.
         11    1    4    4    0    0  0.40435036208E+01 -0.14229866293E+01 -0.68007199865E+01  0.80389430322E+01  0.51100000000E-03 0. -1.
        -11    1    4    4    0    0 -0.52540990807E+01 -0.16768474114E+02  0.21105019022E+02  0.27462867830E+02  0.51100000000E-03 0.  1.
         12    1    4    4    0    0  0.13388431718E+02 -0.35398534627E+01  0.12810838567E+02  0.18865265734E+02  0.00000000000E+00 0. -1.
</event>
<event>
 8    1  0.1229941E-006  0.9118800E+02  0.7816164E-02  0.1184000E+00
        -11   -1    0    0    0    0  0.00000000000E+00  0.00000000000E+00  0.45593999997E+02  0.45594000000E+02  0.51100000000E-03 0.  1.
         11   -1    0    0    0    0 -0.00000000000E+00 -0.00000000000E+00 -0.45593999997E+02  0.45594000000E+02  0.51100000000E-03 0. -1.
         23    2    1    2    0    0 -0.17763568394E-14  0.00000000000E+00  0.71054273576E-14  0.91188000000E+02  0.91188000000E+02 0.  0.
    9900012    2    3    3    0    0  0.87416618427E+01 -0.14028118992E+02 -0.32902506048E+02  0.54367086398E+02  0.40000005062E+02 0.  0.
        -12    1    3    3    0    0 -0.87416618427E+01  0.14028118992E+02  0.32902506048E+02  0.36820913602E+02  0.00000000000E+00 0.  1.
         11    1    4    4    0    0  0.39625656575E+01 -0.69016672091E+01 -0.46347822735E+01  0.92095680593E+01  0.51100000000E-03 0. -1.
        -11    1    4    4    0    0  0.18139806737E+01  0.85900675354E+01 -0.27803807955E+02  0.29157014992E+02  0.51100000000E-03 0.  1.
        -12    1    4    4    0    0  0.29651155115E+01 -0.15716519318E+02 -0.46391581946E+00  0.16000503347E+02  0.00000000000E+00 0.  1.
</event>
<event>
 8    1  0.1229941E-006  0.9118800E+02  0.7816164E-02  0.1184000E+00
        -11   -1    0    0    0    0  0.00000000000E+00  0.00000000000E+00  0.45593999997E+02  0.45594000000E+02  0.51100000000E-03 0.  1.
         11   -1    0    0    0    0 -0.00000000000E+00 -0.00000000000E+00 -0.45593999997E+02  0.45594000000E+02  0.51100000000E-03 0. -1.
         23    2    1    2    0    0  0.00000000000E+00  0.00000000000E+00  0.00000000000E+00  0.91188000000E+02  0.91188000000E+02 0.  0.
    9900012    2    3    3    0    0 -0.32180807960E+02 -0.13261994897E+02  0.12012265840E+02  0.54367089634E+02  0.40000012438E+02 0.  0.
         12    1    3    3    0    0  0.32180807960E+02  0.13261994897E+02 -0.12012265840E+02  0.36820910366E+02  0.00000000000E+00 0. -1.
         11    1    4    4    0    0 -0.10822171413E+02 -0.17596244813E+02 -0.16269664093E+01  0.20721830170E+02  0.51100000000E-03 0. -1.
        -11    1    4    4    0    0 -0.24214322324E+02 -0.13408100873E+01  0.94090401770E+01  0.26012712558E+02  0.51100000000E-03 0.  1.
         12    1    4    4    0    0  0.28556857776E+01  0.56750600037E+01  0.42301920721E+01  0.76325469060E+01  0.00000000000E+00 0. -1.
</event>
<event>
 8    1  0.1229941E-006  0.9118800E+02  0.7816164E-02  0.1184000E+00
        -11   -1    0    0    0    0  0.00000000000E+00  0.00000000000E+00  0.45593999997E+02  0.45594000000E+02  0.51100000000E-03 0.  1.
         11   -1    0    0    0    0 -0.00000000000E+00 -0.00000000000E+00 -0.45593999997E+02  0.45594000000E+02  0.51100000000E-03 0. -1.
         23    2    1    2    0    0  0.88817841970E-15  0.00000000000E+00  0.00000000000E+00  0.91188000000E+02  0.91188000000E+02 0.  0.
    9900012    2    3    3    0    0 -0.27832250525E+01 -0.10654124363E+02  0.35135782227E+02  0.54367083385E+02  0.39999998194E+02 0.  0.
         12    1    3    3    0    0  0.27832250525E+01  0.10654124363E+02 -0.35135782227E+02  0.36820916615E+02  0.00000000000E+00 0. -1.
         11    1    4    4    0    0  0.67523929189E+01 -0.35736268597E+01  0.39605101131E+01  0.86053041596E+01  0.51100000000E-03 0. -1.
        -11    1    4    4    0    0  0.10191717671E+02 -0.47571002842E+01  0.20064443250E+02  0.23001804177E+02  0.51100000000E-03 0.  1.
         12    1    4    4    0    0 -0.19727335642E+02 -0.23233972194E+01  0.11110828864E+02  0.22759975049E+02  0.00000000000E+00 0. -1.
</event>
<event>
 8    1  0.1229941E-006  0.9118800E+02  0.7816164E-02  0.1184000E+00
        -11   -1    0    0    0    0  0.00000000000E+00  0.00000000000E+00  0.45593999997E+02  0.45594000000E+02  0.51100000000E-03 0.  1.
         11   -1    0    0    0    0 -0.00000000000E+00 -0.00000000000E+00 -0.45593999997E+02  0.45594000000E+02  0.51100000000E-03 0. -1.
         23    2    1    2    0    0  0.00000000000E+00  0.35527136788E-14 -0.55511151231E-15  0.91188000000E+02  0.91188000000E+02 0.  0.
    9900012    2    3    3    0    0 -0.30573808330E+02  0.20518267643E+02 -0.14983247287E+00  0.54367088650E+02  0.40000010196E+02 0.  0.
        -12    1    3    3    0    0  0.30573808330E+02 -0.20518267643E+02  0.14983247287E+00  0.36820911350E+02  0.00000000000E+00 0.  1.
         11    1    4    4    0    0  0.38483885036E+00  0.17406115493E+02  0.59794659535E+01  0.18408557001E+02  0.51100000000E-03 0.  1.
        -11    1    4    4    0    0 -0.31507429806E+02 -0.76457829898E+00 -0.54129608353E+01  0.31978162208E+02  0.51100000000E-03 0. -1.
         12    1    4    4    0    0  0.54878262568E+00  0.38767304490E+01 -0.71633759109E+00  0.39803694413E+01  0.00000000000E+00 0. -1.
</event>
<event>
 8    1  0.1229941E-006  0.9118800E+02  0.7816164E-02  0.1184000E+00
        -11   -1    0    0    0    0  0.00000000000E+00  0.00000000000E+00  0.45593999997E+02  0.45594000000E+02  0.51100000000E-03 0.  1.
         11   -1    0    0    0    0 -0.00000000000E+00 -0.00000000000E+00 -0.45593999997E+02  0.45594000000E+02  0.51100000000E-03 0. -1.
         23    2    1    2    0    0  0.88817841970E-15  0.00000000000E+00  0.00000000000E+00  0.91188000000E+02  0.91188000000E+02 0.  0.
    9900012    2    3    3    0    0  0.70322210954E+01  0.90404253191E+01 -0.34994178279E+02  0.54367164364E+02  0.40000182801E+02 0.  0.
        -12    1    3    3    0    0 -0.70322210954E+01 -0.90404253191E+01  0.34994178279E+02  0.36820835636E+02  0.00000000000E+00 0.  1.
         11    1    4    4    0    0 -0.12703134198E+02  0.25280261277E+01 -0.10514806465E+02  0.16682976048E+02  0.51100000000E-03 0. -1.
        -11    1    4    4    0    0  0.94190164832E+01  0.96300644783E+01 -0.23205658585E+02  0.26832044350E+02  0.51100000000E-03 0.  1.
        -12    1    4    4    0    0  0.10316338810E+02 -0.31176652869E+01 -0.12737132288E+01  0.10852143967E+02  0.00000000000E+00 0.  1.
</event>
<event>
 8    1  0.1229941E-006  0.9118800E+02  0.7816164E-02  0.1184000E+00
        -11   -1    0    0    0    0  0.00000000000E+00  0.00000000000E+00  0.45593999997E+02  0.45594000000E+02  0.51100000000E-03 0.  1.
         11   -1    0    0    0    0 -0.00000000000E+00 -0.00000000000E+00 -0.45593999997E+02  0.45594000000E+02  0.51100000000E-03 0. -1.
         23    2    1    2    0    0  0.00000000000E+00  0.35527136788E-14  0.00000000000E+00  0.91188000000E+02  0.91188000000E+02 0.  0.
    9900012    2    3    3    0    0  0.13634465271E+02  0.31841961116E+02 -0.12488836944E+02  0.54367079599E+02  0.39999989563E+02 0.  0.
        -12    1    3    3    0    0 -0.13634465271E+02 -0.31841961116E+02  0.12488836944E+02  0.36820920401E+02  0.00000000000E+00 0.  1.
         11    1    4    4    0    0  0.16753262250E+01  0.10544340717E+02 -0.16427136580E+02  0.19591851766E+02  0.51100000000E-03 0. -1.
        -11    1    4    4    0    0  0.13046486286E+02  0.26101181814E+02  0.53173849800E+01  0.29660699246E+02  0.51100000000E-03 0.  1.
         12    1    4    4    0    0 -0.10873472392E+01 -0.48035614153E+01 -0.13790853440E+01  0.51145285878E+01  0.00000000000E+00 0. -1.
</event>
<event>
 8    1  0.1229941E-006  0.9118800E+02  0.7816164E-02  0.1184000E+00
        -11   -1    0    0    0    0  0.00000000000E+00  0.00000000000E+00  0.45593999997E+02  0.45594000000E+02  0.51100000000E-03 0. -1.
         11   -1    0    0    0    0 -0.00000000000E+00 -0.00000000000E+00 -0.45593999997E+02  0.45594000000E+02  0.51100000000E-03 0.  1.
         23    2    1    2    0    0  0.35527136788E-14  0.00000000000E+00 -0.17763568394E-14  0.91188000000E+02  0.91188000000E+02 0.  0.
    9900012    2    3    3    0    0  0.29944722902E+02  0.19450453322E+02  0.89873354728E+01  0.54367098830E+02  0.40000033402E+02 0.  0.
        -12    1    3    3    0    0 -0.29944722902E+02 -0.19450453322E+02 -0.89873354728E+01  0.36820901170E+02  0.00000000000E+00 0.  1.
         11    1    4    4    0    0  0.58045133313E+01  0.13252522753E+02  0.11376454377E+02  0.18405038679E+02  0.51100000000E-03 0. -1.
        -11    1    4    4    0    0 -0.52344981432E+01  0.12004856299E+00 -0.28506814098E+01  0.59616077723E+01  0.51100000000E-03 0.  1.
        -12    1    4    4    0    0  0.29374707714E+02  0.60778820058E+01  0.46156250548E+00  0.30000452378E+02  0.00000000000E+00 0.  1.
</event>
<event>
 8    1  0.1229941E-006  0.9118800E+02  0.7816164E-02  0.1184000E+00
        -11   -1    0    0    0    0  0.00000000000E+00  0.00000000000E+00  0.45593999997E+02  0.45594000000E+02  0.51100000000E-03 0.  1.
         11   -1    0    0    0    0 -0.00000000000E+00 -0.00000000000E+00 -0.45593999997E+02  0.45594000000E+02  0.51100000000E-03 0. -1.
         23    2    1    2    0    0  0.17763568394E-14 -0.35527136788E-14 -0.35527136788E-14  0.91188000000E+02  0.91188000000E+02 0.  0.
    9900012    2    3    3    0    0  0.10998621562E+02 -0.30875281280E+02  0.16778807417E+02  0.54367067791E+02  0.39999962644E+02 0.  0.
         12    1    3    3    0    0 -0.10998621562E+02  0.30875281280E+02 -0.16778807417E+02  0.36820932209E+02  0.00000000000E+00 0. -1.
         11    1    4    4    0    0  0.10003265712E+02 -0.26954126788E+01 -0.74306244929E+01  0.12749304100E+02  0.51100000000E-03 0. -1.
        -11    1    4    4    0    0 -0.54415131356E+00 -0.13132626206E+02  0.85673494972E-01  0.13144174068E+02  0.51100000000E-03 0.  1.
        -12    1    4    4    0    0  0.15395071638E+01 -0.15047242395E+02  0.24123758415E+02  0.28473589624E+02  0.00000000000E+00 0.  1.
</event>
<event>
 8    1  0.1229941E-006  0.9118800E+02  0.7816164E-02  0.1184000E+00
        -11   -1    0    0    0    0  0.00000000000E+00  0.00000000000E+00  0.45593999997E+02  0.45594000000E+02  0.51100000000E-03 0.  1.
         11   -1    0    0    0    0 -0.00000000000E+00 -0.00000000000E+00 -0.45593999997E+02  0.45594000000E+02  0.51100000000E-03 0. -1.
         23    2    1    2    0    0  0.00000000000E+00 -0.88817841970E-15 -0.17763568394E-14  0.91188000000E+02  0.91188000000E+02 0.  0.
    9900012    2    3    3    0    0 -0.33699304306E+02  0.70055092409E+01  0.13078975445E+02  0.54367083809E+02  0.39999999160E+02 0.  0.
         12    1    3    3    0    0  0.33699304306E+02 -0.70055092409E+01 -0.13078975445E+02  0.36820916191E+02  0.00000000000E+00 0. -1.
         11    1    4    4    0    0 -0.31292794473E+02  0.14922657510E+02  0.96714582741E+01  0.35992524203E+02  0.51100000000E-03 0. -1.
        -11    1    4    4    0    0 -0.36175068456E+01 -0.18690700252E+01  0.91073274365E+01  0.99761311055E+01  0.51100000000E-03 0.  1.
         12    1    4    4    0    0  0.12109970131E+01 -0.60480782442E+01 -0.56998102652E+01  0.83984285002E+01  0.00000000000E+00 0. -1.
</event>
<event>
 8    1  0.1229941E-006  0.9118800E+02  0.7816164E-02  0.1184000E+00
        -11   -1    0    0    0    0  0.00000000000E+00  0.00000000000E+00  0.45593999997E+02  0.45594000000E+02  0.51100000000E-03 0.  1.
         11   -1    0    0    0    0 -0.00000000000E+00 -0.00000000000E+00 -0.45593999997E+02  0.45594000000E+02  0.51100000000E-03 0. -1.
         23    2    1    2    0    0 -0.44408920985E-15  0.17763568394E-14  0.00000000000E+00  0.91188000000E+02  0.91188000000E+02 0.  0.
    9900012    2    3    3    0    0  0.20607834964E+01 -0.13491310569E+02  0.34198208255E+02  0.54367085599E+02  0.40000003240E+02 0.  0.
         12    1    3    3    0    0 -0.20607834964E+01  0.13491310569E+02 -0.34198208255E+02  0.36820914401E+02  0.00000000000E+00 0. -1.
         11    1    4    4    0    0  0.95847162008E+01  0.36306297165E+01  0.98383101291E+01  0.14207061739E+02  0.51100000000E-03 0. -1.
        -11    1    4    4    0    0  0.53830909434E+01  0.43181625180E+01  0.54514524175E+01  0.87944601517E+01  0.51100000000E-03 0.  1.
        -12    1    4    4    0    0 -0.12907023648E+02 -0.21440102804E+02  0.18908445708E+02  0.31365563709E+02  0.00000000000E+00 0.  1.
</event>
<event>
 8    1  0.1229941E-006  0.9118800E+02  0.7816164E-02  0.1184000E+00
        -11   -1    0    0    0    0  0.00000000000E+00  0.00000000000E+00  0.45593999997E+02  0.45594000000E+02  0.51100000000E-03 0.  1.
         11   -1    0    0    0    0 -0.00000000000E+00 -0.00000000000E+00 -0.45593999997E+02  0.45594000000E+02  0.51100000000E-03 0. -1.
         23    2    1    2    0    0  0.00000000000E+00  0.22204460493E-15  0.00000000000E+00  0.91188000000E+02  0.91188000000E+02 0.  0.
    9900012    2    3    3    0    0  0.12749085925E+02 -0.18747225098E+01 -0.34492383563E+02  0.54367105114E+02  0.40000047727E+02 0.  0.
        -12    1    3    3    0    0 -0.12749085925E+02  0.18747225098E+01  0.34492383563E+02  0.36820894886E+02  0.00000000000E+00 0.  1.
         11    1    4    4    0    0  0.13233861347E+02 -0.56751750953E+01 -0.30792537138E+02  0.33992985191E+02  0.51100000000E-03 0. -1.
        -11    1    4    4    0    0  0.43007854367E+00 -0.62077643155E+01  0.42706663605E+01  0.75471780669E+01  0.51100000000E-03 0.  1.
         12    1    4    4    0    0 -0.91485396596E+00  0.10008216901E+02 -0.79705127847E+01  0.12826941856E+02  0.00000000000E+00 0. -1.
</event>
<event>
 8    1  0.1229941E-006  0.9118800E+02  0.7816164E-02  0.1184000E+00
        -11   -1    0    0    0    0  0.00000000000E+00  0.00000000000E+00  0.45593999997E+02  0.45594000000E+02  0.51100000000E-03 0. -1.
         11   -1    0    0    0    0 -0.00000000000E+00 -0.00000000000E+00 -0.45593999997E+02  0.45594000000E+02  0.51100000000E-03 0.  1.
         23    2    1    2    0    0 -0.71054273576E-14  0.00000000000E+00  0.00000000000E+00  0.91188000000E+02  0.91188000000E+02 0.  0.
    9900012    2    3    3    0    0 -0.33131865062E+02 -0.13114200074E+02 -0.92777676140E+01  0.54367086133E+02  0.40000004458E+02 0.  0.
         12    1    3    3    0    0  0.33131865062E+02  0.13114200074E+02  0.92777676140E+01  0.36820913867E+02  0.00000000000E+00 0. -1.
         11    1    4    4    0    0 -0.19715810026E+02  0.10404821518E+02 -0.14512720267E+02  0.26600611376E+02  0.51100000000E-03 0.  1.
        -11    1    4    4    0    0 -0.46593191934E+01 -0.81782185553E+01  0.33987026911E+01  0.10007182137E+02  0.51100000000E-03 0. -1.
        -12    1    4    4    0    0 -0.87567358433E+01 -0.15340803037E+02  0.18362499615E+01  0.17759292620E+02  0.00000000000E+00 0.  1.
</event>
<event>
 8    1  0.1229941E-006  0.9118800E+02  0.7816164E-02  0.1184000E+00
        -11   -1    0    0    0    0  0.00000000000E+00  0.00000000000E+00  0.45593999997E+02  0.45594000000E+02  0.51100000000E-03 0.  1.
         11   -1    0    0    0    0 -0.00000000000E+00 -0.00000000000E+00 -0.45593999997E+02  0.45594000000E+02  0.51100000000E-03 0. -1.
         23    2    1    2    0    0 -0.88817841970E-15  0.71054273576E-14  0.88817841970E-15  0.91188000000E+02  0.91188000000E+02 0.  0.
    9900012    2    3    3    0    0 -0.42385543218E+01 -0.36540162432E+02  0.16222238697E+01  0.54367076281E+02  0.39999981997E+02 0.  0.
         12    1    3    3    0    0  0.42385543218E+01  0.36540162432E+02 -0.16222238697E+01  0.36820923719E+02  0.00000000000E+00 0. -1.
         11    1    4    4    0    0 -0.92179931868E+01 -0.10341953332E+02 -0.45974976819E+01  0.14596725054E+02  0.51100000000E-03 0. -1.
        -11    1    4    4    0    0 -0.50553259793E+01 -0.17406306078E+02  0.15227227944E+02  0.23672859632E+02  0.51100000000E-03 0.  1.
         12    1    4    4    0    0  0.10034764844E+02 -0.87919030214E+01 -0.90075063923E+01  0.16097491594E+02  0.00000000000E+00 0. -1.
</event>
<event>
 8    1  0.1229941E-006  0.9118800E+02  0.7816164E-02  0.1184000E+00
        -11   -1    0    0    0    0  0.00000000000E+00  0.00000000000E+00  0.45593999997E+02  0.45594000000E+02  0.51100000000E-03 0. -1.
         11   -1    0    0    0    0 -0.00000000000E+00 -0.00000000000E+00 -0.45593999997E+02  0.45594000000E+02  0.51100000000E-03 0.  1.
         23    2    1    2    0    0  0.00000000000E+00  0.35527136788E-14  0.17763568394E-14  0.91188000000E+02  0.91188000000E+02 0.  0.
    9900012    2    3    3    0    0  0.23678013554E+02  0.27415173403E+02 -0.65984944967E+01  0.54367079476E+02  0.39999989282E+02 0.  0.
         12    1    3    3    0    0 -0.23678013554E+02 -0.27415173403E+02  0.65984944967E+01  0.36820920524E+02  0.00000000000E+00 0. -1.
         11    1    4    4    0    0  0.15028237400E+02  0.18869645733E+02  0.63434149539E+01  0.24942942148E+02  0.51100000000E-03 0. -1.
        -11    1    4    4    0    0  0.60618175541E+01  0.60407457761E+01  0.58007863655E+01  0.10338537823E+02  0.51100000000E-03 0.  1.
        -12    1    4    4    0    0  0.25879585994E+01  0.25047818942E+01 -0.18742695816E+02  0.19085599506E+02  0.00000000000E+00 0.  1.
</event>
<event>
 8    1  0.1229941E-006  0.9118800E+02  0.7816164E-02  0.1184000E+00
        -11   -1    0    0    0    0  0.00000000000E+00  0.00000000000E+00  0.45593999997E+02  0.45594000000E+02  0.51100000000E-03 0. -1.
         11   -1    0    0    0    0 -0.00000000000E+00 -0.00000000000E+00 -0.45593999997E+02  0.45594000000E+02  0.51100000000E-03 0.  1.
         23    2    1    2    0    0  0.00000000000E+00 -0.17763568394E-14  0.00000000000E+00  0.91188000000E+02  0.91188000000E+02 0.  0.
    9900012    2    3    3    0    0 -0.26245628045E+02  0.14653744860E+02  0.21265346850E+02  0.54367079228E+02  0.39999988715E+02 0.  0.
        -12    1    3    3    0    0  0.26245628045E+02 -0.14653744860E+02 -0.21265346850E+02  0.36820920772E+02  0.00000000000E+00 0.  1.
         11    1    4    4    0    0 -0.82285541418E+01  0.71976761177E+01  0.25630220644E+02  0.27864383275E+02  0.51100000000E-03 0. -1.
        -11    1    4    4    0    0 -0.70176950629E+01 -0.42217638065E+01 -0.63157192796E+01  0.10342129564E+02  0.51100000000E-03 0.  1.
         12    1    4    4    0    0 -0.10999378840E+02  0.11677832549E+02  0.19508454853E+01  0.16160566389E+02  0.00000000000E+00 0. -1.
</event>
<event>
 8    1  0.1229941E-006  0.9118800E+02  0.7816164E-02  0.1184000E+00
        -11   -1    0    0    0    0  0.00000000000E+00  0.00000000000E+00  0.45593999997E+02  0.45594000000E+02  0.51100000000E-03 0. -1.
         11   -1    0    0    0    0 -0.00000000000E+00 -0.00000000000E+00 -0.45593999997E+02  0.45594000000E+02  0.51100000000E-03 0.  1.
         23    2    1    2    0    0 -0.17763568394E-14  0.88817841970E-15  0.71054273576E-14  0.91188000000E+02  0.91188000000E+02 0.  0.
    9900012    2    3    3    0    0  0.12944446646E+02 -0.65712558269E+01 -0.33838410260E+02  0.54367107683E+02  0.40000053584E+02 0.  0.
         12    1    3    3    0    0 -0.12944446646E+02  0.65712558269E+01  0.33838410260E+02  0.36820892317E+02  0.00000000000E+00 0. -1.
         11    1    4    4    0    0  0.17643142846E+01 -0.38531800944E+01 -0.56986830301E+01  0.71017455793E+01  0.51100000000E-03 0.  1.
        -11    1    4    4    0    0  0.22916974564E+00 -0.34748374253E+01  0.84101869998E+01  0.91026512367E+01  0.51100000000E-03 0. -1.
         12    1    4    4    0    0  0.10950962616E+02  0.75676169284E+00 -0.36549914230E+02  0.38162710867E+02  0.00000000000E+00 0. -1.
</event>
<event>
 8    1  0.1229941E-006  0.9118800E+02  0.7816164E-02  0.1184000E+00
        -11   -1    0    0    0    0  0.00000000000E+00  0.00000000000E+00  0.45593999997E+02  0.45594000000E+02  0.51100000000E-03 0.  1.
         11   -1    0    0    0    0 -0.00000000000E+00 -0.00000000000E+00 -0.45593999997E+02  0.45594000000E+02  0.51100000000E-03 0. -1.
         23    2    1    2    0    0 -0.17763568394E-14  0.00000000000E+00  0.17763568394E-14  0.91188000000E+02  0.91188000000E+02 0.  0.
    9900012    2    3    3    0    0  0.10059836704E+02 -0.33964953696E+02 -0.10047933582E+02  0.54367090678E+02  0.40000014818E+02 0.  0.
        -12    1    3    3    0    0 -0.10059836704E+02  0.33964953696E+02  0.10047933582E+02  0.36820909322E+02  0.00000000000E+00 0.  1.
         11    1    4    4    0    0  0.12809319267E+02 -0.33885046472E+02 -0.14677258059E+02  0.39085763890E+02  0.51100000000E-03 0. -1.
        -11    1    4    4    0    0 -0.45116256391E+01 -0.61364513125E+01  0.47431058165E+01  0.89726168794E+01  0.51100000000E-03 0.  1.
        -12    1    4    4    0    0  0.17621430762E+01  0.60565440883E+01 -0.11378134006E+00  0.63087099084E+01  0.00000000000E+00 0.  1.
</event>
<event>
 8    1  0.1229941E-006  0.9118800E+02  0.7816164E-02  0.1184000E+00
        -11   -1    0    0    0    0  0.00000000000E+00  0.00000000000E+00  0.45593999997E+02  0.45594000000E+02  0.51100000000E-03 0. -1.
         11   -1    0    0    0    0 -0.00000000000E+00 -0.00000000000E+00 -0.45593999997E+02  0.45594000000E+02  0.51100000000E-03 0.  1.
         23    2    1    2    0    0  0.35527136788E-14  0.00000000000E+00  0.00000000000E+00  0.91188000000E+02  0.91188000000E+02 0.  0.
    9900012    2    3    3    0    0 -0.21358840759E+02  0.13027540921E+02 -0.27016075884E+02  0.54367010643E+02  0.39999832363E+02 0.  0.
         12    1    3    3    0    0  0.21358840759E+02 -0.13027540921E+02  0.27016075884E+02  0.36820989357E+02  0.00000000000E+00 0. -1.
         11    1    4    4    0    0  0.38188030029E+01 -0.26044455812E+01  0.20794767054E+01  0.50685912037E+01  0.51100000000E-03 0. -1.
        -11    1    4    4    0    0 -0.25251592451E+02  0.10725184011E+02 -0.93997667985E+01  0.29000484642E+02  0.51100000000E-03 0.  1.
        -12    1    4    4    0    0  0.73948688256E-01  0.49068024911E+01 -0.19695785791E+02  0.20297934797E+02  0.00000000000E+00 0.  1.
</event>
<event>
 8    1  0.1229941E-006  0.9118800E+02  0.7816164E-02  0.1184000E+00
        -11   -1    0    0    0    0  0.00000000000E+00  0.00000000000E+00  0.45593999997E+02  0.45594000000E+02  0.51100000000E-03 0. -1.
         11   -1    0    0    0    0 -0.00000000000E+00 -0.00000000000E+00 -0.45593999997E+02  0.45594000000E+02  0.51100000000E-03 0.  1.
         23    2    1    2    0    0  0.00000000000E+00  0.00000000000E+00 -0.11102230246E-15  0.91188000000E+02  0.91188000000E+02 0.  0.
    9900012    2    3    3    0    0  0.34816725822E+02 -0.11946816071E+02 -0.92102007751E+00  0.54367094401E+02  0.40000023306E+02 0.  0.
         12    1    3    3    0    0 -0.34816725822E+02  0.11946816071E+02  0.92102007751E+00  0.36820905599E+02  0.00000000000E+00 0. -1.
         11    1    4    4    0    0 -0.20843581476E+01  0.51387074446E+01  0.30806312903E+01  0.63435914510E+01  0.51100000000E-03 0. -1.
        -11    1    4    4    0    0  0.72503660228E+01 -0.10418695376E+02 -0.11046334407E+02  0.16826720563E+02  0.51100000000E-03 0.  1.
        -12    1    4    4    0    0  0.29650717946E+02 -0.66668281395E+01  0.70446830396E+01  0.31196782387E+02  0.00000000000E+00 0.  1.
</event>
<event>
 8    1  0.1229941E-006  0.9118800E+02  0.7816164E-02  0.1184000E+00
        -11   -1    0    0    0    0  0.00000000000E+00  0.00000000000E+00  0.45593999997E+02  0.45594000000E+02  0.51100000000E-03 0.  1.
         11   -1    0    0    0    0 -0.00000000000E+00 -0.00000000000E+00 -0.45593999997E+02  0.45594000000E+02  0.51100000000E-03 0. -1.
         23    2    1    2    0    0 -0.88817841970E-15  0.00000000000E+00  0.00000000000E+00  0.91188000000E+02  0.91188000000E+02 0.  0.
    9900012    2    3    3    0    0 -0.35116288783E+01  0.35154626406E+02 -0.10373059844E+02  0.54367086572E+02  0.40000005459E+02 0.  0.
        -12    1    3    3    0    0  0.35116288783E+01 -0.35154626406E+02  0.10373059844E+02  0.36820913428E+02  0.00000000000E+00 0.  1.
         11    1    4    4    0    0  0.12397119005E+02  0.15054206814E+02 -0.38447480844E+01  0.19877117259E+02  0.51100000000E-03 0. -1.
        -11    1    4    4    0    0 -0.28656239021E+01 -0.48581021634E+01 -0.18954789287E+01  0.59502771035E+01  0.51100000000E-03 0.  1.
        -12    1    4    4    0    0 -0.13043123982E+02  0.24958521755E+02 -0.46328328305E+01  0.28539692210E+02  0.00000000000E+00 0.  1.
</event>
<event>
 8    1  0.1229941E-006  0.9118800E+02  0.7816164E-02  0.1184000E+00
        -11   -1    0    0    0    0  0.00000000000E+00  0.00000000000E+00  0.45593999997E+02  0.45594000000E+02  0.51100000000E-03 0.  1.
         11   -1    0    0    0    0 -0.00000000000E+00 -0.00000000000E+00 -0.45593999997E+02  0.45594000000E+02  0.51100000000E-03 0. -1.
         23    2    1    2    0    0 -0.22204460493E-15  0.00000000000E+00  0.00000000000E+00  0.91188000000E+02  0.91188000000E+02 0.  0.
    9900012    2    3    3    0    0  0.18179308709E+01 -0.16600955965E+02  0.32815894566E+02  0.54367088173E+02  0.40000009107E+02 0.  0.
         12    1    3    3    0    0 -0.18179308709E+01  0.16600955965E+02 -0.32815894566E+02  0.36820911827E+02  0.00000000000E+00 0. -1.
         11    1    4    4    0    0  0.10546590074E+02 -0.27184928519E+02  0.24088369555E+02  0.37821957232E+02  0.51100000000E-03 0. -1.
        -11    1    4    4    0    0 -0.69392503105E+01  0.96834512210E+01  0.82347629057E+01  0.14482187086E+02  0.51100000000E-03 0.  1.
         12    1    4    4    0    0 -0.17894088924E+01  0.90052133259E+00  0.49276210527E+00  0.20629438545E+01  0.00000000000E+00 0. -1.
</event>
<event>
 8    1  0.1229941E-006  0.9118800E+02  0.7816164E-02  0.1184000E+00
        -11   -1    0    0    0    0  0.00000000000E+00  0.00000000000E+00  0.45593999997E+02  0.45594000000E+02  0.51100000000E-03 0.  1.
         11   -1    0    0    0    0 -0.00000000000E+00 -0.00000000000E+00 -0.45593999997E+02  0.45594000000E+02  0.51100000000E-03 0. -1.
         23    2    1    2    0    0 -0.88817841970E-15  0.71054273576E-14  0.17763568394E-14  0.91188000000E+02  0.91188000000E+02 0.  0.
    9900012    2    3    3    0    0  0.54210443453E+01 -0.33755403541E+02  0.13673504739E+02  0.54367085809E+02  0.40000003719E+02 0.  0.
        -12    1    3    3    0    0 -0.54210443453E+01  0.33755403541E+02 -0.13673504739E+02  0.36820914191E+02  0.00000000000E+00 0.  1.
         11    1    4    4    0    0 -0.29660935142E+01 -0.35507795828E+02  0.20003440862E+01  0.35687569993E+02  0.51100000000E-03 0. -1.
        -11    1    4    4    0    0  0.50997355073E+01 -0.23764773329E+01  0.12140789744E+02  0.13381095719E+02  0.51100000000E-03 0.  1.
        -12    1    4    4    0    0  0.32874023522E+01  0.41288696197E+01 -0.46762909204E+00  0.52984200975E+01  0.00000000000E+00 0.  1.
</event>
<event>
 8    1  0.1229941E-006  0.9118800E+02  0.7816164E-02  0.1184000E+00
        -11   -1    0    0    0    0  0.00000000000E+00  0.00000000000E+00  0.45593999997E+02  0.45594000000E+02  0.51100000000E-03 0. -1.
         11   -1    0    0    0    0 -0.00000000000E+00 -0.00000000000E+00 -0.45593999997E+02  0.45594000000E+02  0.51100000000E-03 0.  1.
         23    2    1    2    0    0  0.00000000000E+00 -0.88817841970E-15  0.00000000000E+00  0.91188000000E+02  0.91188000000E+02 0.  0.
    9900012    2    3    3    0    0  0.31445562718E+02  0.75884333380E+01 -0.17588936789E+02  0.54367103317E+02  0.40000043631E+02 0.  0.
         12    1    3    3    0    0 -0.31445562718E+02 -0.75884333380E+01  0.17588936789E+02  0.36820896683E+02  0.00000000000E+00 0. -1.
         11    1    4    4    0    0  0.86985400555E+01  0.14327143226E+02 -0.96780652409E+01  0.19354497647E+02  0.51100000000E-03 0. -1.
        -11    1    4    4    0    0  0.23896239164E+02 -0.12386027438E+02 -0.23727505985E+01  0.27019879118E+02  0.51100000000E-03 0.  1.
        -12    1    4    4    0    0 -0.11492165014E+01  0.56473175500E+01 -0.55381209494E+01  0.79927265516E+01  0.00000000000E+00 0.  1.
</event>
<event>
 8    1  0.1229941E-006  0.9118800E+02  0.7816164E-02  0.1184000E+00
        -11   -1    0    0    0    0  0.00000000000E+00  0.00000000000E+00  0.45593999997E+02  0.45594000000E+02  0.51100000000E-03 0.  1.
         11   -1    0    0    0    0 -0.00000000000E+00 -0.00000000000E+00 -0.45593999997E+02  0.45594000000E+02  0.51100000000E-03 0. -1.
         23    2    1    2    0    0  0.35527136788E-14 -0.35527136788E-14  0.35527136788E-14  0.91188000000E+02  0.91188000000E+02 0.  0.
    9900012    2    3    3    0    0 -0.18288204579E+02 -0.17639997810E+02 -0.26648669950E+02  0.54367088013E+02  0.40000008743E+02 0.  0.
        -12    1    3    3    0    0  0.18288204579E+02  0.17639997810E+02  0.26648669950E+02  0.36820911987E+02  0.00000000000E+00 0.  1.
         11    1    4    4    0    0 -0.71387076727E+01 -0.21018628412E+00 -0.16580020660E+02  0.18052767402E+02  0.51100000000E-03 0. -1.
        -11    1    4    4    0    0 -0.13012866758E+02 -0.23229049843E+02 -0.12912992417E+02  0.29591702068E+02  0.51100000000E-03 0.  1.
        -12    1    4    4    0    0  0.18633698518E+01  0.57992383167E+01  0.28443431268E+01  0.67226185435E+01  0.00000000000E+00 0.  1.
</event>
<event>
 8    1  0.1229941E-006  0.9118800E+02  0.7816164E-02  0.1184000E+00
        -11   -1    0    0    0    0  0.00000000000E+00  0.00000000000E+00  0.45593999997E+02  0.45594000000E+02  0.51100000000E-03 0.  1.
         11   -1    0    0    0    0 -0.00000000000E+00 -0.00000000000E+00 -0.45593999997E+02  0.45594000000E+02  0.51100000000E-03 0. -1.
         23    2    1    2    0    0  0.00000000000E+00  0.00000000000E+00  0.88817841970E-15  0.91188000000E+02  0.91188000000E+02 0.  0.
    9900012    2    3    3    0    0  0.21683396726E+02 -0.29321181691E+02 -0.50869711495E+01  0.54367100163E+02  0.40000036442E+02 0.  0.
        -12    1    3    3    0    0 -0.21683396726E+02  0.29321181691E+02  0.50869711495E+01  0.36820899837E+02  0.00000000000E+00 0.  1.
         11    1    4    4    0    0  0.31876315328E+01 -0.43571250999E+01  0.59080076602E+01  0.80031299314E+01  0.51100000000E-03 0.  1.
        -11    1    4    4    0    0  0.23659758000E+02 -0.20704192013E+02 -0.18362661909E+02  0.36409271734E+02  0.51100000000E-03 0. -1.
        -12    1    4    4    0    0 -0.51639928072E+01 -0.42598645783E+01  0.73676830991E+01  0.99546984980E+01  0.00000000000E+00 0.  1.
</event>
<event>
 8    1  0.1229941E-006  0.9118800E+02  0.7816164E-02  0.1184000E+00
        -11   -1    0    0    0    0  0.00000000000E+00  0.00000000000E+00  0.45593999997E+02  0.45594000000E+02  0.51100000000E-03 0. -1.
         11   -1    0    0    0    0 -0.00000000000E+00 -0.00000000000E+00 -0.45593999997E+02  0.45594000000E+02  0.51100000000E-03 0.  1.
         23    2    1    2    0    0 -0.35527136788E-14  0.00000000000E+00 -0.17763568394E-14  0.91188000000E+02  0.91188000000E+02 0.  0.
    9900012    2    3    3    0    0 -0.28080988451E+02 -0.18251016188E+02 -0.15301553626E+02  0.54367094965E+02  0.40000024591E+02 0.  0.
         12    1    3    3    0    0  0.28080988451E+02  0.18251016188E+02  0.15301553626E+02  0.36820905035E+02  0.00000000000E+00 0. -1.
         11    1    4    4    0    0 -0.32522884233E+02 -0.72179753475E+01 -0.20319650834E+02  0.39022113951E+02  0.51100000000E-03 0. -1.
        -11    1    4    4    0    0 -0.14714569161E+01 -0.61038869163E+01  0.23785450227E+00  0.62832472471E+01  0.51100000000E-03 0.  1.
         12    1    4    4    0    0  0.59133526980E+01 -0.49291539238E+01  0.47802427056E+01  0.90617337668E+01  0.00000000000E+00 0. -1.
</event>
<event>
 8    1  0.1229941E-006  0.9118800E+02  0.7816164E-02  0.1184000E+00
        -11   -1    0    0    0    0  0.00000000000E+00  0.00000000000E+00  0.45593999997E+02  0.45594000000E+02  0.51100000000E-03 0. -1.
         11   -1    0    0    0    0 -0.00000000000E+00 -0.00000000000E+00 -0.45593999997E+02  0.45594000000E+02  0.51100000000E-03 0.  1.
         23    2    1    2    0    0  0.00000000000E+00 -0.35527136788E-14  0.35527136788E-14  0.91188000000E+02  0.91188000000E+02 0.  0.
    9900012    2    3    3    0    0 -0.21510096534E+02 -0.19377428902E+02 -0.22751078752E+02  0.54367074046E+02  0.39999976902E+02 0.  0.
         12    1    3    3    0    0  0.21510096534E+02  0.19377428902E+02  0.22751078752E+02  0.36820925954E+02  0.00000000000E+00 0. -1.
         11    1    4    4    0    0  0.46164607278E+00  0.46013860904E+01 -0.17527612687E+02  0.18127412330E+02  0.51100000000E-03 0. -1.
        -11    1    4    4    0    0  0.17309029150E-01  0.28082398257E+00  0.25678877940E+01  0.25832556388E+01  0.51100000000E-03 0.  1.
        -12    1    4    4    0    0 -0.21989051636E+02 -0.24259638975E+02 -0.77913538594E+01  0.33656406077E+02  0.00000000000E+00 0.  1.
</event>
<event>
 8    1  0.1229941E-006  0.9118800E+02  0.7816164E-02  0.1184000E+00
        -11   -1    0    0    0    0  0.00000000000E+00  0.00000000000E+00  0.45593999997E+02  0.45594000000E+02  0.51100000000E-03 0.  1.
         11   -1    0    0    0    0 -0.00000000000E+00 -0.00000000000E+00 -0.45593999997E+02  0.45594000000E+02  0.51100000000E-03 0. -1.
         23    2    1    2    0    0 -0.17763568394E-14 -0.17763568394E-14  0.00000000000E+00  0.91188000000E+02  0.91188000000E+02 0.  0.
    9900012    2    3    3    0    0  0.97494362050E+01 -0.14045097558E+02  0.32610770099E+02  0.54367101068E+02  0.40000038504E+02 0.  0.
         12    1    3    3    0    0 -0.97494362050E+01  0.14045097558E+02 -0.32610770099E+02  0.36820898932E+02  0.00000000000E+00 0. -1.
         11    1    4    4    0    0 -0.11454843856E+01  0.42711446890E+01  0.18251266090E+01  0.47839208639E+01  0.51100000000E-03 0. -1.
        -11    1    4    4    0    0 -0.77601347049E+00  0.90642979175E+01  0.68233176572E+01  0.11371954878E+02  0.51100000000E-03 0.  1.
        -12    1    4    4    0    0  0.11670934061E+02 -0.27380540164E+02  0.23962325833E+02  0.38211225325E+02  0.00000000000E+00 0.  1.
</event>
<event>
 8    1  0.1229941E-006  0.9118800E+02  0.7816164E-02  0.1184000E+00
        -11   -1    0    0    0    0  0.00000000000E+00  0.00000000000E+00  0.45593999997E+02  0.45594000000E+02  0.51100000000E-03 0. -1.
         11   -1    0    0    0    0 -0.00000000000E+00 -0.00000000000E+00 -0.45593999997E+02  0.45594000000E+02  0.51100000000E-03 0.  1.
         23    2    1    2    0    0  0.00000000000E+00  0.00000000000E+00 -0.35527136788E-14  0.91188000000E+02  0.91188000000E+02 0.  0.
    9900012    2    3    3    0    0  0.15290290802E+02  0.14827303544E+02 -0.30035587501E+02  0.54367103219E+02  0.40000043409E+02 0.  0.
         12    1    3    3    0    0 -0.15290290802E+02 -0.14827303544E+02  0.30035587501E+02  0.36820896781E+02  0.00000000000E+00 0. -1.
         11    1    4    4    0    0 -0.41516714777E+01  0.46575164172E+01  0.52074912192E+00  0.62609915465E+01  0.51100000000E-03 0. -1.
        -11    1    4    4    0    0  0.11427073538E+02  0.16311527683E+01 -0.33994596005E+02  0.35900852731E+02  0.51100000000E-03 0.  1.
        -12    1    4    4    0    0  0.80148887422E+01  0.85386343583E+01  0.34382593824E+01  0.12205258942E+02  0.00000000000E+00 0.  1.
</event>
<event>
 8    1  0.1229941E-006  0.9118800E+02  0.7816164E-02  0.1184000E+00
        -11   -1    0    0    0    0  0.00000000000E+00  0.00000000000E+00  0.45593999997E+02  0.45594000000E+02  0.51100000000E-03 0.  1.
         11   -1    0    0    0    0 -0.00000000000E+00 -0.00000000000E+00 -0.45593999997E+02  0.45594000000E+02  0.51100000000E-03 0. -1.
         23    2    1    2    0    0 -0.88817841970E-15  0.00000000000E+00  0.00000000000E+00  0.91188000000E+02  0.91188000000E+02 0.  0.
    9900012    2    3    3    0    0  0.54928584135E+01 -0.33997926293E+02  0.13028795827E+02  0.54367081944E+02  0.39999994907E+02 0.  0.
        -12    1    3    3    0    0 -0.54928584135E+01  0.33997926293E+02 -0.13028795827E+02  0.36820918056E+02  0.00000000000E+00 0.  1.
         11    1    4    4    0    0  0.14537199163E+02 -0.26482166800E+02  0.29159475096E+01  0.30350256475E+02  0.51100000000E-03 0. -1.
        -11    1    4    4    0    0  0.47244100234E+01 -0.38772312062E+01  0.72643452239E+01  0.94933494452E+01  0.51100000000E-03 0.  1.
         12    1    4    4    0    0 -0.13768750773E+02 -0.36385282868E+01  0.28485030937E+01  0.14523476024E+02  0.00000000000E+00 0. -1.
</event>
<event>
 8    1  0.1229941E-006  0.9118800E+02  0.7816164E-02  0.1184000E+00
        -11   -1    0    0    0    0  0.00000000000E+00  0.00000000000E+00  0.45593999997E+02  0.45594000000E+02  0.51100000000E-03 0.  1.
         11   -1    0    0    0    0 -0.00000000000E+00 -0.00000000000E+00 -0.45593999997E+02  0.45594000000E+02  0.51100000000E-03 0. -1.
         23    2    1    2    0    0  0.35527136788E-14 -0.88817841970E-15  0.00000000000E+00  0.91188000000E+02  0.91188000000E+02 0.  0.
    9900012    2    3    3    0    0 -0.21010305943E+02  0.70742302158E+01 -0.29399008565E+02  0.54367090267E+02  0.40000013881E+02 0.  0.
        -12    1    3    3    0    0  0.21010305943E+02 -0.70742302158E+01  0.29399008565E+02  0.36820909733E+02  0.00000000000E+00 0.  1.
         11    1    4    4    0    0 -0.19246107509E+02  0.29464478114E+01 -0.15484414397E+02  0.24876923009E+02  0.51100000000E-03 0. -1.
        -11    1    4    4    0    0 -0.24885407756E+00 -0.71095009710E+01 -0.16404898023E+02  0.17880928718E+02  0.51100000000E-03 0.  1.
        -12    1    4    4    0    0 -0.15153443566E+01  0.11237283375E+02  0.24903038543E+01  0.11609238539E+02  0.00000000000E+00 0.  1.
</event>
<event>
 8    1  0.1229941E-006  0.9118800E+02  0.7816164E-02  0.1184000E+00
        -11   -1    0    0    0    0  0.00000000000E+00  0.00000000000E+00  0.45593999997E+02  0.45594000000E+02  0.51100000000E-03 0.  1.
         11   -1    0    0    0    0 -0.00000000000E+00 -0.00000000000E+00 -0.45593999997E+02  0.45594000000E+02  0.51100000000E-03 0. -1.
         23    2    1    2    0    0 -0.35527136788E-14 -0.17763568394E-14  0.35527136788E-14  0.91188000000E+02  0.91188000000E+02 0.  0.
    9900012    2    3    3    0    0  0.22713879748E+02  0.11209477231E+02 -0.26724659218E+02  0.54367080357E+02  0.39999991290E+02 0.  0.
        -12    1    3    3    0    0 -0.22713879748E+02 -0.11209477231E+02  0.26724659218E+02  0.36820919643E+02  0.00000000000E+00 0.  1.
         11    1    4    4    0    0  0.14566901924E+02  0.66245126338E+01 -0.12378120328E+02  0.20231081592E+02  0.51100000000E-03 0. -1.
        -11    1    4    4    0    0 -0.22479536647E+01 -0.97229903560E+01 -0.13014952317E+02  0.16400573807E+02  0.51100000000E-03 0.  1.
         12    1    4    4    0    0  0.10394931489E+02  0.14307954954E+02 -0.13315865735E+01  0.17735424958E+02  0.00000000000E+00 0. -1.
</event>
<event>
 8    1  0.1229941E-006  0.9118800E+02  0.7816164E-02  0.1184000E+00
        -11   -1    0    0    0    0  0.00000000000E+00  0.00000000000E+00  0.45593999997E+02  0.45594000000E+02  0.51100000000E-03 0.  1.
         11   -1    0    0    0    0 -0.00000000000E+00 -0.00000000000E+00 -0.45593999997E+02  0.45594000000E+02  0.51100000000E-03 0. -1.
         23    2    1    2    0    0  0.00000000000E+00  0.00000000000E+00  0.00000000000E+00  0.91188000000E+02  0.91188000000E+02 0.  0.
    9900012    2    3    3    0    0 -0.22610703906E+02  0.19680109885E+02  0.21382919676E+02  0.54367083254E+02  0.39999997893E+02 0.  0.
         12    1    3    3    0    0  0.22610703906E+02 -0.19680109885E+02 -0.21382919676E+02  0.36820916746E+02  0.00000000000E+00 0. -1.
         11    1    4    4    0    0 -0.45712952104E+01  0.16821287175E+02  0.10151688326E+02  0.20171990934E+02  0.51100000000E-03 0. -1.
        -11    1    4    4    0    0 -0.20398134505E+01  0.11478165829E+02 -0.18490223339E+01  0.11803728800E+02  0.51100000000E-03 0.  1.
         12    1    4    4    0    0 -0.15999595245E+02 -0.86193431201E+01  0.13080253684E+02  0.22391363520E+02  0.00000000000E+00 0. -1.
</event>
<event>
 8    1  0.1229941E-006  0.9118800E+02  0.7816164E-02  0.1184000E+00
        -11   -1    0    0    0    0  0.00000000000E+00  0.00000000000E+00  0.45593999997E+02  0.45594000000E+02  0.51100000000E-03 0. -1.
         11   -1    0    0    0    0 -0.00000000000E+00 -0.00000000000E+00 -0.45593999997E+02  0.45594000000E+02  0.51100000000E-03 0.  1.
         23    2    1    2    0    0  0.00000000000E+00  0.00000000000E+00  0.00000000000E+00  0.91188000000E+02  0.91188000000E+02 0.  0.
    9900012    2    3    3    0    0  0.51486187914E+00 -0.28152811871E+02  0.23726288068E+02  0.54367046122E+02  0.39999913245E+02 0.  0.
        -12    1    3    3    0    0 -0.51486187914E+00  0.28152811871E+02 -0.23726288068E+02  0.36820953878E+02  0.00000000000E+00 0.  1.
         11    1    4    4    0    0  0.25368832025E+01 -0.28723617163E+01 -0.11677216757E+01  0.40062217094E+01  0.51100000000E-03 0. -1.
        -11    1    4    4    0    0  0.17836683827E+01  0.36788193707E+01 -0.63742079568E+01  0.75726951741E+01  0.51100000000E-03 0.  1.
        -12    1    4    4    0    0 -0.38056897061E+01 -0.28959269525E+02  0.31268217701E+02  0.42788129239E+02  0.00000000000E+00 0.  1.
</event>
<event>
 8    1  0.1229941E-006  0.9118800E+02  0.7816164E-02  0.1184000E+00
        -11   -1    0    0    0    0  0.00000000000E+00  0.00000000000E+00  0.45593999997E+02  0.45594000000E+02  0.51100000000E-03 0. -1.
         11   -1    0    0    0    0 -0.00000000000E+00 -0.00000000000E+00 -0.45593999997E+02  0.45594000000E+02  0.51100000000E-03 0.  1.
         23    2    1    2    0    0 -0.88817841970E-15  0.17763568394E-14  0.00000000000E+00  0.91188000000E+02  0.91188000000E+02 0.  0.
    9900012    2    3    3    0    0  0.62507785388E+01 -0.14253218444E+02 -0.33369942503E+02  0.54367088400E+02  0.40000009626E+02 0.  0.
         12    1    3    3    0    0 -0.62507785388E+01  0.14253218444E+02  0.33369942503E+02  0.36820911600E+02  0.00000000000E+00 0. -1.
         11    1    4    4    0    0  0.17534197697E+01 -0.64715261960E+00 -0.18904686482E+01  0.26584129425E+01  0.51100000000E-03 0. -1.
        -11    1    4    4    0    0  0.15796483393E+02 -0.55550183040E+01 -0.33725832212E+02  0.37653935712E+02  0.51100000000E-03 0.  1.
         12    1    4    4    0    0 -0.11299124624E+02 -0.80510475205E+01  0.22463583568E+01  0.14054739746E+02  0.00000000000E+00 0. -1.
</event>
<event>
 8    1  0.1229941E-006  0.9118800E+02  0.7816164E-02  0.1184000E+00
        -11   -1    0    0    0    0  0.00000000000E+00  0.00000000000E+00  0.45593999997E+02  0.45594000000E+02  0.51100000000E-03 0. -1.
         11   -1    0    0    0    0 -0.00000000000E+00 -0.00000000000E+00 -0.45593999997E+02  0.45594000000E+02  0.51100000000E-03 0.  1.
         23    2    1    2    0    0  0.00000000000E+00 -0.35527136788E-14  0.00000000000E+00  0.91188000000E+02  0.91188000000E+02 0.  0.
    9900012    2    3    3    0    0  0.25116865202E+02  0.21934355435E+02  0.15614214242E+02  0.54367128849E+02  0.40000101838E+02 0.  0.
        -12    1    3    3    0    0 -0.25116865202E+02 -0.21934355435E+02 -0.15614214242E+02  0.36820871151E+02  0.00000000000E+00 0.  1.
         11    1    4    4    0    0  0.62795995217E+01 -0.36613247859E+01  0.18444653574E+02  0.19825335181E+02  0.51100000000E-03 0. -1.
        -11    1    4    4    0    0  0.10759738954E+02  0.11615656481E+02  0.49908610979E+01  0.16601329844E+02  0.51100000000E-03 0.  1.
        -12    1    4    4    0    0  0.80775267255E+01  0.13980023741E+02 -0.78213004298E+01  0.17940463823E+02  0.00000000000E+00 0.  1.
</event>
<event>
 8    1  0.1229941E-006  0.9118800E+02  0.7816164E-02  0.1184000E+00
        -11   -1    0    0    0    0  0.00000000000E+00  0.00000000000E+00  0.45593999997E+02  0.45594000000E+02  0.51100000000E-03 0.  1.
         11   -1    0    0    0    0 -0.00000000000E+00 -0.00000000000E+00 -0.45593999997E+02  0.45594000000E+02  0.51100000000E-03 0. -1.
         23    2    1    2    0    0  0.00000000000E+00  0.35527136788E-14  0.00000000000E+00  0.91188000000E+02  0.91188000000E+02 0.  0.
    9900012    2    3    3    0    0 -0.43303804108E+01  0.16740287336E+02 -0.32508313236E+02  0.54367084150E+02  0.39999999936E+02 0.  0.
        -12    1    3    3    0    0  0.43303804108E+01 -0.16740287336E+02  0.32508313236E+02  0.36820915850E+02  0.00000000000E+00 0.  1.
         11    1    4    4    0    0 -0.18720168422E+00  0.10467108984E+02 -0.11052115052E+02  0.15223162035E+02  0.51100000000E-03 0. -1.
        -11    1    4    4    0    0 -0.16858855981E+02  0.98456206304E+01 -0.13229869384E+02  0.23583611147E+02  0.51100000000E-03 0.  1.
         12    1    4    4    0    0  0.12715677254E+02 -0.35724422790E+01 -0.82263288008E+01  0.15560310968E+02  0.00000000000E+00 0. -1.
</event>
<event>
 8    1  0.1229941E-006  0.9118800E+02  0.7816164E-02  0.1184000E+00
        -11   -1    0    0    0    0  0.00000000000E+00  0.00000000000E+00  0.45593999997E+02  0.45594000000E+02  0.51100000000E-03 0.  1.
         11   -1    0    0    0    0 -0.00000000000E+00 -0.00000000000E+00 -0.45593999997E+02  0.45594000000E+02  0.51100000000E-03 0. -1.
         23    2    1    2    0    0  0.00000000000E+00  0.17763568394E-14  0.00000000000E+00  0.91188000000E+02  0.91188000000E+02 0.  0.
    9900012    2    3    3    0    0  0.18017206117E+02  0.12319591017E+02  0.29654460480E+02  0.54367094723E+02  0.40000024040E+02 0.  0.
         12    1    3    3    0    0 -0.18017206117E+02 -0.12319591017E+02 -0.29654460480E+02  0.36820905277E+02  0.00000000000E+00 0. -1.
         11    1    4    4    0    0 -0.73660511445E+01  0.83984393864E+01  0.43805362168E+01  0.11999232950E+02  0.51100000000E-03 0. -1.
        -11    1    4    4    0    0  0.18999280715E+02  0.10957155213E+02  0.93867712328E+01  0.23856726357E+02  0.51100000000E-03 0.  1.
         12    1    4    4    0    0  0.63839765463E+01 -0.70360035822E+01  0.15887153030E+02  0.18511135415E+02  0.00000000000E+00 0. -1.
</event>
<event>
 8    1  0.1229941E-006  0.9118800E+02  0.7816164E-02  0.1184000E+00
        -11   -1    0    0    0    0  0.00000000000E+00  0.00000000000E+00  0.45593999997E+02  0.45594000000E+02  0.51100000000E-03 0.  1.
         11   -1    0    0    0    0 -0.00000000000E+00 -0.00000000000E+00 -0.45593999997E+02  0.45594000000E+02  0.51100000000E-03 0. -1.
         23    2    1    2    0    0  0.17763568394E-14 -0.17763568394E-14 -0.71054273576E-14  0.91188000000E+02  0.91188000000E+02 0.  0.
    9900012    2    3    3    0    0 -0.91716049447E+01 -0.27884628965E+01  0.35551174135E+02  0.54367084137E+02  0.39999999908E+02 0.  0.
         12    1    3    3    0    0  0.91716049447E+01  0.27884628965E+01 -0.35551174135E+02  0.36820915863E+02  0.00000000000E+00 0. -1.
         11    1    4    4    0    0 -0.11618484827E+02  0.17385407722E+01  0.85200846848E+00  0.11778694002E+02  0.51100000000E-03 0. -1.
        -11    1    4    4    0    0 -0.74705966951E+00 -0.13648459267E+02  0.13132254428E+02  0.18955069115E+02  0.51100000000E-03 0.  1.
         12    1    4    4    0    0  0.31939395521E+01  0.91214555986E+01  0.21566911238E+02  0.23633321021E+02  0.00000000000E+00 0. -1.
</event>
<event>
 8    1  0.1229941E-006  0.9118800E+02  0.7816164E-02  0.1184000E+00
        -11   -1    0    0    0    0  0.00000000000E+00  0.00000000000E+00  0.45593999997E+02  0.45594000000E+02  0.51100000000E-03 0. -1.
         11   -1    0    0    0    0 -0.00000000000E+00 -0.00000000000E+00 -0.45593999997E+02  0.45594000000E+02  0.51100000000E-03 0.  1.
         23    2    1    2    0    0 -0.17763568394E-14  0.35527136788E-14  0.35527136788E-14  0.91188000000E+02  0.91188000000E+02 0.  0.
    9900012    2    3    3    0    0  0.13352884101E+02 -0.24110171481E+02 -0.24416792653E+02  0.54367086838E+02  0.40000006064E+02 0.  0.
         12    1    3    3    0    0 -0.13352884101E+02  0.24110171481E+02  0.24416792653E+02  0.36820913162E+02  0.00000000000E+00 0. -1.
         11    1    4    4    0    0  0.11707136438E+02 -0.15399983674E+02 -0.24759432449E+02  0.31420471610E+02  0.51100000000E-03 0. -1.
        -11    1    4    4    0    0  0.16051118498E+01 -0.15177755933E+02 -0.31677723244E+01  0.15587669517E+02  0.51100000000E-03 0.  1.
         12    1    4    4    0    0  0.40635812897E-01  0.64675681256E+01  0.35104121199E+01  0.73589457112E+01  0.00000000000E+00 0. -1.
</event>
<event>
 8    1  0.1229941E-006  0.9118800E+02  0.7816164E-02  0.1184000E+00
        -11   -1    0    0    0    0  0.00000000000E+00  0.00000000000E+00  0.45593999997E+02  0.45594000000E+02  0.51100000000E-03 0. -1.
         11   -1    0    0    0    0 -0.00000000000E+00 -0.00000000000E+00 -0.45593999997E+02  0.45594000000E+02  0.51100000000E-03 0.  1.
         23    2    1    2    0    0  0.71054273576E-14  0.17763568394E-14 -0.17763568394E-14  0.91188000000E+02  0.91188000000E+02 0.  0.
    9900012    2    3    3    0    0  0.33427540523E+02 -0.10958779220E+02  0.10875876534E+02  0.54367082062E+02  0.39999995178E+02 0.  0.
         12    1    3    3    0    0 -0.33427540523E+02  0.10958779220E+02 -0.10875876534E+02  0.36820917938E+02  0.00000000000E+00 0. -1.
         11    1    4    4    0    0  0.26036197550E+01  0.89025620273E+01  0.39924727612E+01  0.10098231800E+02  0.51100000000E-03 0. -1.
        -11    1    4    4    0    0  0.88097529442E+01 -0.15724608514E+02 -0.52776368217E+01  0.18781067875E+02  0.51100000000E-03 0.  1.
         12    1    4    4    0    0  0.22014167824E+02 -0.41367327333E+01  0.12161040594E+02  0.25487782387E+02  0.00000000000E+00 0. -1.
</event>
<event>
 8    1  0.1229941E-006  0.9118800E+02  0.7816164E-02  0.1184000E+00
        -11   -1    0    0    0    0  0.00000000000E+00  0.00000000000E+00  0.45593999997E+02  0.45594000000E+02  0.51100000000E-03 0. -1.
         11   -1    0    0    0    0 -0.00000000000E+00 -0.00000000000E+00 -0.45593999997E+02  0.45594000000E+02  0.51100000000E-03 0.  1.
         23    2    1    2    0    0  0.00000000000E+00  0.00000000000E+00 -0.35527136788E-14  0.91188000000E+02  0.91188000000E+02 0.  0.
    9900012    2    3    3    0    0  0.19897856311E+02  0.21779679870E+02 -0.22034079244E+02  0.54367084895E+02  0.40000001635E+02 0.  0.
        -12    1    3    3    0    0 -0.19897856311E+02 -0.21779679870E+02  0.22034079244E+02  0.36820915105E+02  0.00000000000E+00 0.  1.
         11    1    4    4    0    0  0.95614719349E+01  0.51468446992E+01 -0.46703999426E+01  0.11820507257E+02  0.51100000000E-03 0. -1.
        -11    1    4    4    0    0  0.12568301493E+02  0.26060095205E+02 -0.10986900743E+02  0.30948388532E+02  0.51100000000E-03 0.  1.
        -12    1    4    4    0    0 -0.22319171166E+01 -0.94272600342E+01 -0.63767785582E+01  0.11598189106E+02  0.00000000000E+00 0.  1.
</event>
<event>
 8    1  0.1229941E-006  0.9118800E+02  0.7816164E-02  0.1184000E+00
        -11   -1    0    0    0    0  0.00000000000E+00  0.00000000000E+00  0.45593999997E+02  0.45594000000E+02  0.51100000000E-03 0.  1.
         11   -1    0    0    0    0 -0.00000000000E+00 -0.00000000000E+00 -0.45593999997E+02  0.45594000000E+02  0.51100000000E-03 0. -1.
         23    2    1    2    0    0 -0.17763568394E-14  0.00000000000E+00  0.00000000000E+00  0.91188000000E+02  0.91188000000E+02 0.  0.
    9900012    2    3    3    0    0 -0.11259343814E+02  0.25554151827E+02 -0.23999869716E+02  0.54367065125E+02  0.39999956564E+02 0.  0.
        -12    1    3    3    0    0  0.11259343814E+02 -0.25554151827E+02  0.23999869716E+02  0.36820934875E+02  0.00000000000E+00 0.  1.
         11    1    4    4    0    0  0.32753233001E+01  0.46370950331E+01 -0.99604719663E+01  0.11464789362E+02  0.51100000000E-03 0. -1.
        -11    1    4    4    0    0  0.72555071716E+01  0.96703970356E+01 -0.13844462887E+02  0.18380101089E+02  0.51100000000E-03 0.  1.
        -12    1    4    4    0    0 -0.21790174286E+02  0.11246659758E+02 -0.19493486308E+00  0.24522174674E+02  0.00000000000E+00 0.  1.
</event>
<event>
 8    1  0.1229941E-006  0.9118800E+02  0.7816164E-02  0.1184000E+00
        -11   -1    0    0    0    0  0.00000000000E+00  0.00000000000E+00  0.45593999997E+02  0.45594000000E+02  0.51100000000E-03 0.  1.
         11   -1    0    0    0    0 -0.00000000000E+00 -0.00000000000E+00 -0.45593999997E+02  0.45594000000E+02  0.51100000000E-03 0. -1.
         23    2    1    2    0    0 -0.17763568394E-14  0.88817841970E-15  0.00000000000E+00  0.91188000000E+02  0.91188000000E+02 0.  0.
    9900012    2    3    3    0    0  0.12031668894E+02  0.31408945999E+01  0.34657671212E+02  0.54367075933E+02  0.39999981205E+02 0.  0.
         12    1    3    3    0    0 -0.12031668894E+02 -0.31408945999E+01 -0.34657671212E+02  0.36820924067E+02  0.00000000000E+00 0. -1.
         11    1    4    4    0    0 -0.73278198295E+00  0.46466394268E+01  0.70623466145E+01  0.84855740738E+01  0.51100000000E-03 0. -1.
        -11    1    4    4    0    0  0.31227762242E+00  0.12416108352E+02  0.23764764176E+02  0.26814572168E+02  0.51100000000E-03 0.  1.
        -12    1    4    4    0    0  0.12452173255E+02 -0.13921853179E+02  0.38305604214E+01  0.19066929691E+02  0.00000000000E+00 0.  1.
</event>
<event>
 8    1  0.1229941E-006  0.9118800E+02  0.7816164E-02  0.1184000E+00
        -11   -1    0    0    0    0  0.00000000000E+00  0.00000000000E+00  0.45593999997E+02  0.45594000000E+02  0.51100000000E-03 0.  1.
         11   -1    0    0    0    0 -0.00000000000E+00 -0.00000000000E+00 -0.45593999997E+02  0.45594000000E+02  0.51100000000E-03 0. -1.
         23    2    1    2    0    0  0.00000000000E+00  0.00000000000E+00 -0.71054273576E-14  0.91188000000E+02  0.91188000000E+02 0.  0.
    9900012    2    3    3    0    0 -0.12655911821E+02  0.14292015394E+02 -0.31485637817E+02  0.54367092939E+02  0.40000019973E+02 0.  0.
        -12    1    3    3    0    0  0.12655911821E+02 -0.14292015394E+02  0.31485637817E+02  0.36820907061E+02  0.00000000000E+00 0.  1.
         11    1    4    4    0    0 -0.15446780118E+01  0.91934998267E+01  0.33983753609E+01  0.99224706892E+01  0.51100000000E-03 0. -1.
        -11    1    4    4    0    0  0.79365563159E+01  0.16952846562E+01 -0.11838657697E+02  0.14353282989E+02  0.51100000000E-03 0.  1.
        -12    1    4    4    0    0 -0.19047790125E+02  0.34032309116E+01 -0.23045355480E+02  0.30091339261E+02  0.00000000000E+00 0.  1.
</event>
<event>
 8    1  0.1229941E-006  0.9118800E+02  0.7816164E-02  0.1184000E+00
        -11   -1    0    0    0    0  0.00000000000E+00  0.00000000000E+00  0.45593999997E+02  0.45594000000E+02  0.51100000000E-03 0.  1.
         11   -1    0    0    0    0 -0.00000000000E+00 -0.00000000000E+00 -0.45593999997E+02  0.45594000000E+02  0.51100000000E-03 0. -1.
         23    2    1    2    0    0  0.00000000000E+00  0.00000000000E+00 -0.88817841970E-15  0.91188000000E+02  0.91188000000E+02 0.  0.
    9900012    2    3    3    0    0  0.24373665947E+02  0.27240050866E+02  0.44365669159E+01  0.54367094404E+02  0.40000023314E+02 0.  0.
         12    1    3    3    0    0 -0.24373665947E+02 -0.27240050866E+02 -0.44365669159E+01  0.36820905596E+02  0.00000000000E+00 0. -1.
         11    1    4    4    0    0 -0.16133633293E+01  0.11519164097E+02  0.68590881614E+01  0.13503376370E+02  0.51100000000E-03 0. -1.
        -11    1    4    4    0    0  0.25698698128E+02  0.18673438218E+02  0.56483442434E+01  0.32264906219E+02  0.51100000000E-03 0.  1.
         12    1    4    4    0    0  0.28833114866E+00 -0.29525514487E+01 -0.80708654888E+01  0.85988118160E+01  0.00000000000E+00 0. -1.
</event>
<event>
 8    1  0.1229941E-006  0.9118800E+02  0.7816164E-02  0.1184000E+00
        -11   -1    0    0    0    0  0.00000000000E+00  0.00000000000E+00  0.45593999997E+02  0.45594000000E+02  0.51100000000E-03 0.  1.
         11   -1    0    0    0    0 -0.00000000000E+00 -0.00000000000E+00 -0.45593999997E+02  0.45594000000E+02  0.51100000000E-03 0. -1.
         23    2    1    2    0    0 -0.17763568394E-14  0.00000000000E+00  0.00000000000E+00  0.91188000000E+02  0.91188000000E+02 0.  0.
    9900012    2    3    3    0    0 -0.98481714004E+01 -0.16742809354E+02  0.31280430020E+02  0.54367171014E+02  0.40000197961E+02 0.  0.
         12    1    3    3    0    0  0.98481714004E+01  0.16742809354E+02 -0.31280430020E+02  0.36820828986E+02  0.00000000000E+00 0. -1.
         11    1    4    4    0    0  0.23516176810E+01  0.50614088448E+01  0.34316097175E-01  0.55811417351E+01  0.51100000000E-03 0. -1.
        -11    1    4    4    0    0 -0.44795103994E+00  0.64987761798E+01  0.32600945925E+01  0.72844333330E+01  0.51100000000E-03 0.  1.
         12    1    4    4    0    0 -0.11751838041E+02 -0.28302994378E+02  0.27986019330E+02  0.41501595946E+02  0.00000000000E+00 0. -1.
</event>
<event>
 8    1  0.1229941E-006  0.9118800E+02  0.7816164E-02  0.1184000E+00
        -11   -1    0    0    0    0  0.00000000000E+00  0.00000000000E+00  0.45593999997E+02  0.45594000000E+02  0.51100000000E-03 0. -1.
         11   -1    0    0    0    0 -0.00000000000E+00 -0.00000000000E+00 -0.45593999997E+02  0.45594000000E+02  0.51100000000E-03 0.  1.
         23    2    1    2    0    0  0.00000000000E+00  0.00000000000E+00  0.00000000000E+00  0.91188000000E+02  0.91188000000E+02 0.  0.
    9900012    2    3    3    0    0  0.11110297435E+02  0.27157929673E+02 -0.22243831507E+02  0.54367083480E+02  0.39999998410E+02 0.  0.
        -12    1    3    3    0    0 -0.11110297435E+02 -0.27157929673E+02  0.22243831507E+02  0.36820916520E+02  0.00000000000E+00 0.  1.
         11    1    4    4    0    0  0.12784937496E+02  0.21922127763E+01  0.13710294774E+01  0.13043778046E+02  0.51100000000E-03 0. -1.
        -11    1    4    4    0    0 -0.12313144230E+01  0.10938485916E+02 -0.24905758629E+02  0.27229825972E+02  0.51100000000E-03 0.  1.
        -12    1    4    4    0    0 -0.44332563773E+00  0.14027230981E+02  0.12908976441E+01  0.14093479462E+02  0.00000000000E+00 0.  1.
</event>
<event>
 8    1  0.1229941E-006  0.9118800E+02  0.7816164E-02  0.1184000E+00
        -11   -1    0    0    0    0  0.00000000000E+00  0.00000000000E+00  0.45593999997E+02  0.45594000000E+02  0.51100000000E-03 0. -1.
         11   -1    0    0    0    0 -0.00000000000E+00 -0.00000000000E+00 -0.45593999997E+02  0.45594000000E+02  0.51100000000E-03 0.  1.
         23    2    1    2    0    0  0.71054273576E-14  0.17763568394E-14  0.17763568394E-14  0.91188000000E+02  0.91188000000E+02 0.  0.
    9900012    2    3    3    0    0  0.33017244736E+02 -0.96725110653E+01  0.13117821984E+02  0.54367174725E+02  0.40000206421E+02 0.  0.
         12    1    3    3    0    0 -0.33017244736E+02  0.96725110653E+01 -0.13117821984E+02  0.36820825275E+02  0.00000000000E+00 0. -1.
         11    1    4    4    0    0  0.18812342906E+01  0.55162258305E+00 -0.20696965890E+01  0.28507848326E+01  0.51100000000E-03 0. -1.
        -11    1    4    4    0    0 -0.34763770433E+01 -0.13149138589E+02 -0.11475381009E-01  0.13600925517E+02  0.51100000000E-03 0.  1.
        -12    1    4    4    0    0  0.34612387489E+02  0.29250049404E+01  0.15198993954E+02  0.37915464376E+02  0.00000000000E+00 0.  1.
</event>
<event>
 8    1  0.1229941E-006  0.9118800E+02  0.7816164E-02  0.1184000E+00
        -11   -1    0    0    0    0  0.00000000000E+00  0.00000000000E+00  0.45593999997E+02  0.45594000000E+02  0.51100000000E-03 0. -1.
         11   -1    0    0    0    0 -0.00000000000E+00 -0.00000000000E+00 -0.45593999997E+02  0.45594000000E+02  0.51100000000E-03 0.  1.
         23    2    1    2    0    0 -0.35527136788E-14 -0.88817841970E-15  0.00000000000E+00  0.91188000000E+02  0.91188000000E+02 0.  0.
    9900012    2    3    3    0    0  0.27865696847E+02  0.65317897688E+01 -0.23165030956E+02  0.54367082065E+02  0.39999995184E+02 0.  0.
         12    1    3    3    0    0 -0.27865696847E+02 -0.65317897688E+01  0.23165030956E+02  0.36820917935E+02  0.00000000000E+00 0. -1.
         11    1    4    4    0    0  0.18848075069E+02 -0.19596683964E+01  0.29074307405E+01  0.19171421121E+02  0.51100000000E-03 0. -1.
        -11    1    4    4    0    0  0.12528100328E+02 -0.11095758299E+01 -0.18921112068E+02  0.22719879808E+02  0.51100000000E-03 0.  1.
         12    1    4    4    0    0 -0.35104785504E+01  0.96010339951E+01 -0.71513496287E+01  0.12475781136E+02  0.00000000000E+00 0. -1.
</event>
<event>
 8    1  0.1229941E-006  0.9118800E+02  0.7816164E-02  0.1184000E+00
        -11   -1    0    0    0    0  0.00000000000E+00  0.00000000000E+00  0.45593999997E+02  0.45594000000E+02  0.51100000000E-03 0.  1.
         11   -1    0    0    0    0 -0.00000000000E+00 -0.00000000000E+00 -0.45593999997E+02  0.45594000000E+02  0.51100000000E-03 0. -1.
         23    2    1    2    0    0 -0.35527136788E-14 -0.71054273576E-14  0.35527136788E-14  0.91188000000E+02  0.91188000000E+02 0.  0.
    9900012    2    3    3    0    0 -0.15103589570E+02 -0.31474497128E+02  0.11705436487E+02  0.54367087047E+02  0.40000006541E+02 0.  0.
         12    1    3    3    0    0  0.15103589570E+02  0.31474497128E+02 -0.11705436487E+02  0.36820912953E+02  0.00000000000E+00 0. -1.
         11    1    4    4    0    0 -0.43319274755E+01  0.30344693448E+01 -0.27922657510E+01  0.59808317266E+01  0.51100000000E-03 0. -1.
        -11    1    4    4    0    0  0.92096706113E+01 -0.15881148758E+02  0.92963404829E+01  0.20577921792E+02  0.51100000000E-03 0.  1.
         12    1    4    4    0    0 -0.19981332706E+02 -0.18627817715E+02  0.52013617550E+01  0.27808333528E+02  0.00000000000E+00 0. -1.
</event>
<event>
 8    1  0.1229941E-006  0.9118800E+02  0.7816164E-02  0.1184000E+00
        -11   -1    0    0    0    0  0.00000000000E+00  0.00000000000E+00  0.45593999997E+02  0.45594000000E+02  0.51100000000E-03 0.  1.
         11   -1    0    0    0    0 -0.00000000000E+00 -0.00000000000E+00 -0.45593999997E+02  0.45594000000E+02  0.51100000000E-03 0. -1.
         23    2    1    2    0    0  0.35527136788E-14 -0.88817841970E-15  0.00000000000E+00  0.91188000000E+02  0.91188000000E+02 0.  0.
    9900012    2    3    3    0    0  0.25893272796E+02  0.74295304089E+01 -0.25102204416E+02  0.54367079795E+02  0.39999990008E+02 0.  0.
        -12    1    3    3    0    0 -0.25893272796E+02 -0.74295304089E+01  0.25102204416E+02  0.36820920205E+02  0.00000000000E+00 0.  1.
         11    1    4    4    0    0  0.74801952326E+01 -0.10096656466E+02 -0.86944690053E+01  0.15280365966E+02  0.51100000000E-03 0. -1.
        -11    1    4    4    0    0  0.20174124449E+02  0.18486539915E+02 -0.53915002033E+01  0.27889347967E+02  0.51100000000E-03 0.  1.
         12    1    4    4    0    0 -0.17610468851E+01 -0.96035303965E+00 -0.11016235208E+02  0.11197365862E+02  0.00000000000E+00 0. -1.
</event>
<event>
 8    1  0.1229941E-006  0.9118800E+02  0.7816164E-02  0.1184000E+00
        -11   -1    0    0    0    0  0.00000000000E+00  0.00000000000E+00  0.45593999997E+02  0.45594000000E+02  0.51100000000E-03 0.  1.
         11   -1    0    0    0    0 -0.00000000000E+00 -0.00000000000E+00 -0.45593999997E+02  0.45594000000E+02  0.51100000000E-03 0. -1.
         23    2    1    2    0    0  0.35527136788E-14  0.17763568394E-14  0.00000000000E+00  0.91188000000E+02  0.91188000000E+02 0.  0.
    9900012    2    3    3    0    0 -0.17581650886E+02 -0.12397920208E+02  0.29882365382E+02  0.54367100579E+02  0.40000037390E+02 0.  0.
         12    1    3    3    0    0  0.17581650886E+02  0.12397920208E+02 -0.29882365382E+02  0.36820899421E+02  0.00000000000E+00 0. -1.
         11    1    4    4    0    0  0.35096875952E+01 -0.65694220221E+01 -0.54364916662E+01  0.92212067876E+01  0.51100000000E-03 0. -1.
        -11    1    4    4    0    0 -0.11381663853E+02 -0.54544794006E+01  0.54704836983E+01  0.13755719165E+02  0.51100000000E-03 0.  1.
        -12    1    4    4    0    0 -0.97096746277E+01 -0.37401878538E+00  0.29848373350E+02  0.31390174626E+02  0.00000000000E+00 0.  1.
</event>
<event>
 8    1  0.1229941E-006  0.9118800E+02  0.7816164E-02  0.1184000E+00
        -11   -1    0    0    0    0  0.00000000000E+00  0.00000000000E+00  0.45593999997E+02  0.45594000000E+02  0.51100000000E-03 0.  1.
         11   -1    0    0    0    0 -0.00000000000E+00 -0.00000000000E+00 -0.45593999997E+02  0.45594000000E+02  0.51100000000E-03 0. -1.
         23    2    1    2    0    0 -0.17763568394E-14  0.00000000000E+00  0.00000000000E+00  0.91188000000E+02  0.91188000000E+02 0.  0.
    9900012    2    3    3    0    0  0.13615546270E+02  0.32117864132E+02 -0.11783014671E+02  0.54367085680E+02  0.40000003424E+02 0.  0.
         12    1    3    3    0    0 -0.13615546270E+02 -0.32117864132E+02  0.11783014671E+02  0.36820914320E+02  0.00000000000E+00 0. -1.
         11    1    4    4    0    0 -0.21107886900E+01  0.57197237190E+01 -0.18921814884E+02  0.19879782370E+02  0.51100000000E-03 0. -1.
        -11    1    4    4    0    0  0.48530802920E+01  0.13167162418E+02  0.98547495138E+01  0.17147671641E+02  0.51100000000E-03 0.  1.
         12    1    4    4    0    0  0.10873254668E+02  0.13230977995E+02 -0.27159493010E+01  0.17339631668E+02  0.00000000000E+00 0. -1.
</event>
<event>
 8    1  0.1229941E-006  0.9118800E+02  0.7816164E-02  0.1184000E+00
        -11   -1    0    0    0    0  0.00000000000E+00  0.00000000000E+00  0.45593999997E+02  0.45594000000E+02  0.51100000000E-03 0. -1.
         11   -1    0    0    0    0 -0.00000000000E+00 -0.00000000000E+00 -0.45593999997E+02  0.45594000000E+02  0.51100000000E-03 0.  1.
         23    2    1    2    0    0  0.17763568394E-14  0.35527136788E-14  0.35527136788E-14  0.91188000000E+02  0.91188000000E+02 0.  0.
    9900012    2    3    3    0    0  0.15274202481E+02  0.25815700081E+02  0.21354818070E+02  0.54367083568E+02  0.39999998609E+02 0.  0.
        -12    1    3    3    0    0 -0.15274202481E+02 -0.25815700081E+02 -0.21354818070E+02  0.36820916432E+02  0.00000000000E+00 0.  1.
         11    1    4    4    0    0 -0.26725210453E+00  0.98192118247E+01  0.15420276604E+01  0.99431480986E+01  0.51100000000E-03 0. -1.
        -11    1    4    4    0    0  0.11298754112E+02 -0.76268596585E+01  0.54047618776E+00  0.13642688426E+02  0.51100000000E-03 0.  1.
        -12    1    4    4    0    0  0.42427004738E+01  0.23623347915E+02  0.19272314222E+02  0.30781247043E+02  0.00000000000E+00 0.  1.
</event>
<event>
 8    1  0.1229941E-006  0.9118800E+02  0.7816164E-02  0.1184000E+00
        -11   -1    0    0    0    0  0.00000000000E+00  0.00000000000E+00  0.45593999997E+02  0.45594000000E+02  0.51100000000E-03 0. -1.
         11   -1    0    0    0    0 -0.00000000000E+00 -0.00000000000E+00 -0.45593999997E+02  0.45594000000E+02  0.51100000000E-03 0.  1.
         23    2    1    2    0    0  0.00000000000E+00 -0.88817841970E-15  0.71054273576E-14  0.91188000000E+02  0.91188000000E+02 0.  0.
    9900012    2    3    3    0    0  0.38128821800E+01  0.63947415709E+01  0.36060353074E+02  0.54367084013E+02  0.39999999625E+02 0.  0.
        -12    1    3    3    0    0 -0.38128821800E+01 -0.63947415709E+01 -0.36060353074E+02  0.36820915987E+02  0.00000000000E+00 0.  1.
         11    1    4    4    0    0  0.46259043394E+01  0.22087944460E+02  0.26920271704E+02  0.35128013185E+02  0.51100000000E-03 0. -1.
        -11    1    4    4    0    0  0.24385603665E+01 -0.10566135950E+02  0.54794990554E+01  0.12149679656E+02  0.51100000000E-03 0.  1.
         12    1    4    4    0    0 -0.32515825259E+01 -0.51270669394E+01  0.36605823146E+01  0.70893911731E+01  0.00000000000E+00 0. -1.
</event>
<event>
 8    1  0.1229941E-006  0.9118800E+02  0.7816164E-02  0.1184000E+00
        -11   -1    0    0    0    0  0.00000000000E+00  0.00000000000E+00  0.45593999997E+02  0.45594000000E+02  0.51100000000E-03 0.  1.
         11   -1    0    0    0    0 -0.00000000000E+00 -0.00000000000E+00 -0.45593999997E+02  0.45594000000E+02  0.51100000000E-03 0. -1.
         23    2    1    2    0    0  0.00000000000E+00 -0.88817841970E-15  0.00000000000E+00  0.91188000000E+02  0.91188000000E+02 0.  0.
    9900012    2    3    3    0    0  0.32540831851E+02 -0.63617178498E+01 -0.16012591356E+02  0.54367078318E+02  0.39999986642E+02 0.  0.
         12    1    3    3    0    0 -0.32540831851E+02  0.63617178498E+01  0.16012591356E+02  0.36820921682E+02  0.00000000000E+00 0. -1.
         11    1    4    4    0    0  0.15753239304E+01 -0.19268867406E+01 -0.12866424871E+02  0.13104939039E+02  0.51100000000E-03 0. -1.
        -11    1    4    4    0    0  0.15057614826E+02  0.10710351742E+02  0.23321853609E+01  0.18624781543E+02  0.51100000000E-03 0.  1.
        -12    1    4    4    0    0  0.15907893095E+02 -0.15145182852E+02 -0.54783518464E+01  0.22637357736E+02  0.00000000000E+00 0.  1.
</event>
<event>
 8    1  0.1229941E-006  0.9118800E+02  0.7816164E-02  0.1184000E+00
        -11   -1    0    0    0    0  0.00000000000E+00  0.00000000000E+00  0.45593999997E+02  0.45594000000E+02  0.51100000000E-03 0. -1.
         11   -1    0    0    0    0 -0.00000000000E+00 -0.00000000000E+00 -0.45593999997E+02  0.45594000000E+02  0.51100000000E-03 0.  1.
         23    2    1    2    0    0  0.71054273576E-14  0.00000000000E+00 -0.33306690739E-15  0.91188000000E+02  0.91188000000E+02 0.  0.
    9900012    2    3    3    0    0  0.35586037471E+02  0.94392354785E+01  0.55975708702E+00  0.54367101623E+02  0.40000039770E+02 0.  0.
        -12    1    3    3    0    0 -0.35586037471E+02 -0.94392354785E+01 -0.55975708702E+00  0.36820898377E+02  0.00000000000E+00 0.  1.
         11    1    4    4    0    0  0.36644207913E+02  0.12439848398E+02 -0.49552826611E+01  0.39014133698E+02  0.51100000000E-03 0. -1.
        -11    1    4    4    0    0  0.22916695416E+01 -0.68565843573E+01 -0.75158487929E+00  0.72683821053E+01  0.51100000000E-03 0.  1.
         12    1    4    4    0    0 -0.33498399835E+01  0.38559714378E+01  0.62666246275E+01  0.80845858190E+01  0.00000000000E+00 0. -1.
</event>
<event>
 8    1  0.1229941E-006  0.9118800E+02  0.7816164E-02  0.1184000E+00
        -11   -1    0    0    0    0  0.00000000000E+00  0.00000000000E+00  0.45593999997E+02  0.45594000000E+02  0.51100000000E-03 0. -1.
         11   -1    0    0    0    0 -0.00000000000E+00 -0.00000000000E+00 -0.45593999997E+02  0.45594000000E+02  0.51100000000E-03 0.  1.
         23    2    1    2    0    0  0.17763568394E-14 -0.35527136788E-14 -0.35527136788E-14  0.91188000000E+02  0.91188000000E+02 0.  0.
    9900012    2    3    3    0    0  0.12730181876E+02 -0.18403275697E+02 -0.29241092918E+02  0.54367087437E+02  0.40000007429E+02 0.  0.
         12    1    3    3    0    0 -0.12730181876E+02  0.18403275697E+02  0.29241092918E+02  0.36820912563E+02  0.00000000000E+00 0. -1.
         11    1    4    4    0    0 -0.80902271806E+01 -0.28951080881E+01 -0.34604464838E+01  0.92632670697E+01  0.51100000000E-03 0. -1.
        -11    1    4    4    0    0  0.56501049362E+00  0.67363415380E+01 -0.31521558290E+01  0.74587948628E+01  0.51100000000E-03 0.  1.
        -12    1    4    4    0    0  0.20255398563E+02 -0.22244509147E+02 -0.22628490605E+02  0.37645025504E+02  0.00000000000E+00 0.  1.
</event>
<event>
 8    1  0.1229941E-006  0.9118800E+02  0.7816164E-02  0.1184000E+00
        -11   -1    0    0    0    0  0.00000000000E+00  0.00000000000E+00  0.45593999997E+02  0.45594000000E+02  0.51100000000E-03 0.  1.
         11   -1    0    0    0    0 -0.00000000000E+00 -0.00000000000E+00 -0.45593999997E+02  0.45594000000E+02  0.51100000000E-03 0. -1.
         23    2    1    2    0    0  0.00000000000E+00  0.17763568394E-14 -0.17763568394E-14  0.91188000000E+02  0.91188000000E+02 0.  0.
    9900012    2    3    3    0    0 -0.33289851444E+02  0.91699213499E+01 -0.12785808647E+02  0.54367101457E+02  0.40000039392E+02 0.  0.
         12    1    3    3    0    0  0.33289851444E+02 -0.91699213499E+01  0.12785808647E+02  0.36820898543E+02  0.00000000000E+00 0. -1.
         11    1    4    4    0    0 -0.60472426810E+01  0.60982311767E+01 -0.16672711183E+02  0.18754649183E+02  0.51100000000E-03 0. -1.
        -11    1    4    4    0    0 -0.17170152813E+02 -0.79335776254E+01 -0.30517210009E+01  0.19159039718E+02  0.51100000000E-03 0.  1.
        -12    1    4    4    0    0 -0.10072455950E+02  0.11005267799E+02  0.69386235364E+01  0.16453412557E+02  0.00000000000E+00 0.  1.
</event>
<event>
 8    1  0.1229941E-006  0.9118800E+02  0.7816164E-02  0.1184000E+00
        -11   -1    0    0    0    0  0.00000000000E+00  0.00000000000E+00  0.45593999997E+02  0.45594000000E+02  0.51100000000E-03 0. -1.
         11   -1    0    0    0    0 -0.00000000000E+00 -0.00000000000E+00 -0.45593999997E+02  0.45594000000E+02  0.51100000000E-03 0.  1.
         23    2    1    2    0    0  0.00000000000E+00  0.00000000000E+00  0.71054273576E-14  0.91188000000E+02  0.91188000000E+02 0.  0.
    9900012    2    3    3    0    0  0.10327354014E+02 -0.38481760531E+01 -0.35132821998E+02  0.54367110801E+02  0.40000060693E+02 0.  0.
         12    1    3    3    0    0 -0.10327354014E+02  0.38481760531E+01  0.35132821998E+02  0.36820889199E+02  0.00000000000E+00 0. -1.
         11    1    4    4    0    0 -0.94141557274E+01 -0.12567895693E+01  0.18147719607E+01  0.96695007944E+01  0.51100000000E-03 0. -1.
        -11    1    4    4    0    0  0.10589996345E+02 -0.13360409602E+00 -0.32590350493E+02  0.34268014505E+02  0.51100000000E-03 0.  1.
         12    1    4    4    0    0  0.91515133959E+01 -0.24577823878E+01 -0.43572434661E+01  0.10429595501E+02  0.00000000000E+00 0. -1.
</event>
<event>
 8    1  0.1229941E-006  0.9118800E+02  0.7816164E-02  0.1184000E+00
        -11   -1    0    0    0    0  0.00000000000E+00  0.00000000000E+00  0.45593999997E+02  0.45594000000E+02  0.51100000000E-03 0.  1.
         11   -1    0    0    0    0 -0.00000000000E+00 -0.00000000000E+00 -0.45593999997E+02  0.45594000000E+02  0.51100000000E-03 0. -1.
         23    2    1    2    0    0  0.00000000000E+00  0.00000000000E+00  0.00000000000E+00  0.91188000000E+02  0.91188000000E+02 0.  0.
    9900012    2    3    3    0    0  0.47578692215E+01  0.35102971270E+02  0.10046106080E+02  0.54367079875E+02  0.39999990190E+02 0.  0.
         12    1    3    3    0    0 -0.47578692215E+01 -0.35102971270E+02 -0.10046106080E+02  0.36820920125E+02  0.00000000000E+00 0. -1.
         11    1    4    4    0    0 -0.84078632350E+01  0.89001848397E+01 -0.36105055806E+00  0.12248910651E+02  0.51100000000E-03 0. -1.
        -11    1    4    4    0    0 -0.84422520008E+01  0.51731652064E+01  0.61790036011E+01  0.11671047205E+02  0.51100000000E-03 0.  1.
         12    1    4    4    0    0  0.21607984457E+02  0.21029621224E+02  0.42281530374E+01  0.30447122019E+02  0.00000000000E+00 0. -1.
</event>
<event>
 8    1  0.1229941E-006  0.9118800E+02  0.7816164E-02  0.1184000E+00
        -11   -1    0    0    0    0  0.00000000000E+00  0.00000000000E+00  0.45593999997E+02  0.45594000000E+02  0.51100000000E-03 0.  1.
         11   -1    0    0    0    0 -0.00000000000E+00 -0.00000000000E+00 -0.45593999997E+02  0.45594000000E+02  0.51100000000E-03 0. -1.
         23    2    1    2    0    0 -0.17763568394E-14  0.00000000000E+00  0.35527136788E-14  0.91188000000E+02  0.91188000000E+02 0.  0.
    9900012    2    3    3    0    0 -0.13763124700E+02 -0.15488379267E+02  0.30437911025E+02  0.54367083099E+02  0.39999997542E+02 0.  0.
         12    1    3    3    0    0  0.13763124700E+02  0.15488379267E+02 -0.30437911025E+02  0.36820916901E+02  0.00000000000E+00 0. -1.
         11    1    4    4    0    0 -0.12289866076E+02 -0.52468856169E+01 -0.41716925154E+01  0.13999058381E+02  0.51100000000E-03 0. -1.
        -11    1    4    4    0    0 -0.71414667340E+01 -0.95580764842E+01  0.31880479157E+02  0.34040010645E+02  0.51100000000E-03 0.  1.
         12    1    4    4    0    0  0.56682081105E+01 -0.68341716553E+00  0.27291243837E+01  0.63280140729E+01  0.00000000000E+00 0. -1.
</event>
<event>
 8    1  0.1229941E-006  0.9118800E+02  0.7816164E-02  0.1184000E+00
        -11   -1    0    0    0    0  0.00000000000E+00  0.00000000000E+00  0.45593999997E+02  0.45594000000E+02  0.51100000000E-03 0.  1.
         11   -1    0    0    0    0 -0.00000000000E+00 -0.00000000000E+00 -0.45593999997E+02  0.45594000000E+02  0.51100000000E-03 0. -1.
         23    2    1    2    0    0  0.35527136788E-14 -0.35527136788E-14 -0.44408920985E-15  0.91188000000E+02  0.91188000000E+02 0.  0.
    9900012    2    3    3    0    0 -0.28190245213E+02  0.23486385490E+02 -0.30789601069E+01  0.54367078991E+02  0.39999988177E+02 0.  0.
        -12    1    3    3    0    0  0.28190245213E+02 -0.23486385490E+02  0.30789601069E+01  0.36820921009E+02  0.00000000000E+00 0.  1.
         11    1    4    4    0    0 -0.71066453211E+01  0.17555079314E+02 -0.44892358256E+00  0.18944306534E+02  0.51100000000E-03 0. -1.
        -11    1    4    4    0    0 -0.19417879840E+02  0.15279668486E+02  0.21309351718E+01  0.24800467969E+02  0.51100000000E-03 0.  1.
         12    1    4    4    0    0 -0.16657200519E+01 -0.93483623086E+01 -0.47609716962E+01  0.10622304488E+02  0.00000000000E+00 0. -1.
</event>
<event>
 8    1  0.1229941E-006  0.9118800E+02  0.7816164E-02  0.1184000E+00
        -11   -1    0    0    0    0  0.00000000000E+00  0.00000000000E+00  0.45593999997E+02  0.45594000000E+02  0.51100000000E-03 0.  1.
         11   -1    0    0    0    0 -0.00000000000E+00 -0.00000000000E+00 -0.45593999997E+02  0.45594000000E+02  0.51100000000E-03 0. -1.
         23    2    1    2    0    0  0.44408920985E-15 -0.17763568394E-14  0.00000000000E+00  0.91188000000E+02  0.91188000000E+02 0.  0.
    9900012    2    3    3    0    0 -0.23310444677E+01  0.15570141248E+02 -0.33285372549E+02  0.54367094355E+02  0.40000023202E+02 0.  0.
        -12    1    3    3    0    0  0.23310444677E+01 -0.15570141248E+02  0.33285372549E+02  0.36820905645E+02  0.00000000000E+00 0.  1.
         11    1    4    4    0    0  0.33776542896E+01  0.10798233884E+01 -0.67478407940E+01  0.76228552848E+01  0.51100000000E-03 0. -1.
        -11    1    4    4    0    0 -0.48344277718E+01 -0.11444408877E+02 -0.69807135190E+01  0.14250492901E+02  0.51100000000E-03 0.  1.
        -12    1    4    4    0    0 -0.87427098544E+00  0.25934726736E+02 -0.19556818236E+02  0.32493746170E+02  0.00000000000E+00 0.  1.
</event>
<event>
 8    1  0.1229941E-006  0.9118800E+02  0.7816164E-02  0.1184000E+00
        -11   -1    0    0    0    0  0.00000000000E+00  0.00000000000E+00  0.45593999997E+02  0.45594000000E+02  0.51100000000E-03 0.  1.
         11   -1    0    0    0    0 -0.00000000000E+00 -0.00000000000E+00 -0.45593999997E+02  0.45594000000E+02  0.51100000000E-03 0. -1.
         23    2    1    2    0    0  0.17763568394E-14  0.00000000000E+00 -0.35527136788E-14  0.91188000000E+02  0.91188000000E+02 0.  0.
    9900012    2    3    3    0    0 -0.58248631966E+01 -0.30572718095E+02 -0.19676311094E+02  0.54367118136E+02  0.40000077414E+02 0.  0.
        -12    1    3    3    0    0  0.58248631966E+01  0.30572718095E+02  0.19676311094E+02  0.36820881864E+02  0.00000000000E+00 0.  1.
         11    1    4    4    0    0 -0.51371107800E+01 -0.16517157222E+02 -0.56954101337E+01  0.18211097900E+02  0.51100000000E-03 0. -1.
        -11    1    4    4    0    0  0.53466107636E+01 -0.20681183469E+02 -0.23748899235E+01  0.21492735953E+02  0.51100000000E-03 0.  1.
        -12    1    4    4    0    0 -0.60343631801E+01  0.66256225955E+01 -0.11606011037E+02  0.14663284283E+02  0.00000000000E+00 0.  1.
</event>
<event>
 8    1  0.1229941E-006  0.9118800E+02  0.7816164E-02  0.1184000E+00
        -11   -1    0    0    0    0  0.00000000000E+00  0.00000000000E+00  0.45593999997E+02  0.45594000000E+02  0.51100000000E-03 0.  1.
         11   -1    0    0    0    0 -0.00000000000E+00 -0.00000000000E+00 -0.45593999997E+02  0.45594000000E+02  0.51100000000E-03 0. -1.
         23    2    1    2    0    0  0.35527136788E-14  0.00000000000E+00 -0.88817841970E-15  0.91188000000E+02  0.91188000000E+02 0.  0.
    9900012    2    3    3    0    0 -0.29388076066E+02 -0.21732512912E+02  0.44522884725E+01  0.54367027648E+02  0.39999871129E+02 0.  0.
         12    1    3    3    0    0  0.29388076066E+02  0.21732512912E+02 -0.44522884725E+01  0.36820972352E+02  0.00000000000E+00 0. -1.
         11    1    4    4    0    0 -0.50512972469E+01 -0.73302551906E+01 -0.79654200771E+01  0.11945549895E+02  0.51100000000E-03 0. -1.
        -11    1    4    4    0    0 -0.26628608173E+02 -0.13488251343E+01  0.46662554909E+01  0.27067989269E+02  0.51100000000E-03 0.  1.
        -12    1    4    4    0    0  0.22918293547E+01 -0.13053432587E+02  0.77514530587E+01  0.15353488484E+02  0.00000000000E+00 0.  1.
</event>
<event>
 8    1  0.1229941E-006  0.9118800E+02  0.7816164E-02  0.1184000E+00
        -11   -1    0    0    0    0  0.00000000000E+00  0.00000000000E+00  0.45593999997E+02  0.45594000000E+02  0.51100000000E-03 0. -1.
         11   -1    0    0    0    0 -0.00000000000E+00 -0.00000000000E+00 -0.45593999997E+02  0.45594000000E+02  0.51100000000E-03 0.  1.
         23    2    1    2    0    0  0.35527136788E-14  0.00000000000E+00  0.35527136788E-14  0.91188000000E+02  0.91188000000E+02 0.  0.
    9900012    2    3    3    0    0  0.24574729311E+02  0.90019671205E+01  0.25900318355E+02  0.54367092575E+02  0.40000019142E+02 0.  0.
        -12    1    3    3    0    0 -0.24574729311E+02 -0.90019671205E+01 -0.25900318355E+02  0.36820907425E+02  0.00000000000E+00 0.  1.
         11    1    4    4    0    0  0.54422815921E+01  0.73978417002E+01 -0.42650784788E+01  0.10126074533E+02  0.51100000000E-03 0. -1.
        -11    1    4    4    0    0  0.91432663877E+01 -0.10616163884E+02  0.56993928369E+01  0.15125651550E+02  0.51100000000E-03 0.  1.
         12    1    4    4    0    0  0.99891813307E+01  0.12220289305E+02  0.24466003997E+02  0.29115366492E+02  0.00000000000E+00 0. -1.
</event>
<event>
 8    1  0.1229941E-006  0.9118800E+02  0.7816164E-02  0.1184000E+00
        -11   -1    0    0    0    0  0.00000000000E+00  0.00000000000E+00  0.45593999997E+02  0.45594000000E+02  0.51100000000E-03 0. -1.
         11   -1    0    0    0    0 -0.00000000000E+00 -0.00000000000E+00 -0.45593999997E+02  0.45594000000E+02  0.51100000000E-03 0.  1.
         23    2    1    2    0    0 -0.88817841970E-15  0.00000000000E+00  0.35527136788E-14  0.91188000000E+02  0.91188000000E+02 0.  0.
    9900012    2    3    3    0    0 -0.68613982706E+01 -0.19378356514E+02  0.30547879048E+02  0.54367185211E+02  0.40000230324E+02 0.  0.
        -12    1    3    3    0    0  0.68613982706E+01  0.19378356514E+02 -0.30547879048E+02  0.36820814789E+02  0.00000000000E+00 0.  1.
         11    1    4    4    0    0 -0.18801829912E+02 -0.18574935324E+02  0.11639828430E+02  0.28879450072E+02  0.51100000000E-03 0. -1.
        -11    1    4    4    0    0  0.64319714085E+00  0.41141842874E+01  0.21464494510E+01  0.46848116738E+01  0.51100000000E-03 0.  1.
         12    1    4    4    0    0  0.11297234501E+02 -0.49176054781E+01  0.16761601167E+02  0.20802923465E+02  0.00000000000E+00 0. -1.
</event>
<event>
 8    1  0.1229941E-006  0.9118800E+02  0.7816164E-02  0.1184000E+00
        -11   -1    0    0    0    0  0.00000000000E+00  0.00000000000E+00  0.45593999997E+02  0.45594000000E+02  0.51100000000E-03 0. -1.
         11   -1    0    0    0    0 -0.00000000000E+00 -0.00000000000E+00 -0.45593999997E+02  0.45594000000E+02  0.51100000000E-03 0.  1.
         23    2    1    2    0    0  0.00000000000E+00  0.35527136788E-14 -0.35527136788E-14  0.91188000000E+02  0.91188000000E+02 0.  0.
    9900012    2    3    3    0    0  0.28020867477E+02  0.15866930155E+02  0.17856429902E+02  0.54367074216E+02  0.39999977291E+02 0.  0.
        -12    1    3    3    0    0 -0.28020867477E+02 -0.15866930155E+02 -0.17856429902E+02  0.36820925784E+02  0.00000000000E+00 0.  1.
         11    1    4    4    0    0  0.15423756301E+02  0.60712806134E+01  0.24113861814E+02  0.29261425778E+02  0.51100000000E-03 0. -1.
        -11    1    4    4    0    0  0.15503246069E+02  0.82147760729E+01 -0.99319509939E+01  0.20161270679E+02  0.51100000000E-03 0.  1.
         12    1    4    4    0    0 -0.29061348924E+01  0.15808734691E+01  0.36745190817E+01  0.49443777586E+01  0.00000000000E+00 0. -1.
</event>
<event>
 8    1  0.1229941E-006  0.9118800E+02  0.7816164E-02  0.1184000E+00
        -11   -1    0    0    0    0  0.00000000000E+00  0.00000000000E+00  0.45593999997E+02  0.45594000000E+02  0.51100000000E-03 0.  1.
         11   -1    0    0    0    0 -0.00000000000E+00 -0.00000000000E+00 -0.45593999997E+02  0.45594000000E+02  0.51100000000E-03 0. -1.
         23    2    1    2    0    0  0.88817841970E-15  0.35527136788E-14  0.00000000000E+00  0.91188000000E+02  0.91188000000E+02 0.  0.
    9900012    2    3    3    0    0 -0.17846566883E+01 -0.18174191384E+02  0.31973316450E+02  0.54367092939E+02  0.40000019973E+02 0.  0.
         12    1    3    3    0    0  0.17846566883E+01  0.18174191384E+02 -0.31973316450E+02  0.36820907061E+02  0.00000000000E+00 0. -1.
         11    1    4    4    0    0  0.20756006495E+00  0.95642560872E-02  0.14273038313E+02  0.14274550627E+02  0.51100000000E-03 0. -1.
        -11    1    4    4    0    0 -0.10689411620E+02 -0.11724876174E+02 -0.35335265312E+01  0.16254908553E+02  0.51100000000E-03 0.  1.
        -12    1    4    4    0    0  0.86971948663E+01 -0.64588794660E+01  0.21233804669E+02  0.23837633759E+02  0.00000000000E+00 0.  1.
</event>
<event>
 8    1  0.1229941E-006  0.9118800E+02  0.7816164E-02  0.1184000E+00
        -11   -1    0    0    0    0  0.00000000000E+00  0.00000000000E+00  0.45593999997E+02  0.45594000000E+02  0.51100000000E-03 0. -1.
         11   -1    0    0    0    0 -0.00000000000E+00 -0.00000000000E+00 -0.45593999997E+02  0.45594000000E+02  0.51100000000E-03 0.  1.
         23    2    1    2    0    0  0.88817841970E-15  0.35527136788E-14  0.00000000000E+00  0.91188000000E+02  0.91188000000E+02 0.  0.
    9900012    2    3    3    0    0  0.53661628545E+01  0.81377049931E+01 -0.35507140385E+02  0.54367150408E+02  0.40000150986E+02 0.  0.
         12    1    3    3    0    0 -0.53661628545E+01 -0.81377049931E+01  0.35507140385E+02  0.36820849592E+02  0.00000000000E+00 0. -1.
         11    1    4    4    0    0 -0.41493582100E+01  0.43235722715E+00  0.13331760614E+01  0.43796649414E+01  0.51100000000E-03 0. -1.
        -11    1    4    4    0    0 -0.16254484771E+01 -0.84615183568E+01 -0.26358156755E+02  0.27730701460E+02  0.51100000000E-03 0.  1.
        -12    1    4    4    0    0  0.11140969542E+02  0.16166866123E+02 -0.10482159691E+02  0.22256784007E+02  0.00000000000E+00 0.  1.
</event>
<event>
 8    1  0.1229941E-006  0.9118800E+02  0.7816164E-02  0.1184000E+00
        -11   -1    0    0    0    0  0.00000000000E+00  0.00000000000E+00  0.45593999997E+02  0.45594000000E+02  0.51100000000E-03 0.  1.
         11   -1    0    0    0    0 -0.00000000000E+00 -0.00000000000E+00 -0.45593999997E+02  0.45594000000E+02  0.51100000000E-03 0. -1.
         23    2    1    2    0    0  0.00000000000E+00  0.00000000000E+00 -0.17763568394E-14  0.91188000000E+02  0.91188000000E+02 0.  0.
    9900012    2    3    3    0    0  0.15844046157E+02  0.32823015966E+02  0.52340696446E+01  0.54367086638E+02  0.40000005609E+02 0.  0.
        -12    1    3    3    0    0 -0.15844046157E+02 -0.32823015966E+02 -0.52340696446E+01  0.36820913362E+02  0.00000000000E+00 0.  1.
         11    1    4    4    0    0 -0.44184845282E+01 -0.35655179847E+01 -0.70972656396E+01  0.90888450226E+01  0.51100000000E-03 0. -1.
        -11    1    4    4    0    0  0.20476118067E+02  0.26280273581E+02  0.10977525280E+02  0.35077489251E+02  0.51100000000E-03 0.  1.
         12    1    4    4    0    0 -0.21358738174E+00  0.10108260370E+02  0.13538100038E+01  0.10200752365E+02  0.00000000000E+00 0. -1.
</event>
<event>
 8    1  0.1229941E-006  0.9118800E+02  0.7816164E-02  0.1184000E+00
        -11   -1    0    0    0    0  0.00000000000E+00  0.00000000000E+00  0.45593999997E+02  0.45594000000E+02  0.51100000000E-03 0. -1.
         11   -1    0    0    0    0 -0.00000000000E+00 -0.00000000000E+00 -0.45593999997E+02  0.45594000000E+02  0.51100000000E-03 0.  1.
         23    2    1    2    0    0  0.35527136788E-14 -0.35527136788E-14  0.35527136788E-14  0.91188000000E+02  0.91188000000E+02 0.  0.
    9900012    2    3    3    0    0 -0.85021962169E+01  0.16971962282E+02 -0.31550689166E+02  0.54367070747E+02  0.39999969381E+02 0.  0.
         12    1    3    3    0    0  0.85021962169E+01 -0.16971962282E+02  0.31550689166E+02  0.36820929253E+02  0.00000000000E+00 0. -1.
         11    1    4    4    0    0  0.15409270833E+02  0.73230076134E+01 -0.11946868439E+02  0.20827859560E+02  0.51100000000E-03 0. -1.
        -11    1    4    4    0    0 -0.17703093470E+02  0.36162855843E+01 -0.16097960465E+02  0.24199615105E+02  0.51100000000E-03 0.  1.
        -12    1    4    4    0    0 -0.62083735799E+01  0.60326690844E+01 -0.35058602617E+01  0.93395960814E+01  0.00000000000E+00 0.  1.
</event>
<event>
 8    1  0.1229941E-006  0.9118800E+02  0.7816164E-02  0.1184000E+00
        -11   -1    0    0    0    0  0.00000000000E+00  0.00000000000E+00  0.45593999997E+02  0.45594000000E+02  0.51100000000E-03 0.  1.
         11   -1    0    0    0    0 -0.00000000000E+00 -0.00000000000E+00 -0.45593999997E+02  0.45594000000E+02  0.51100000000E-03 0. -1.
         23    2    1    2    0    0  0.17763568394E-14  0.00000000000E+00  0.00000000000E+00  0.91188000000E+02  0.91188000000E+02 0.  0.
    9900012    2    3    3    0    0 -0.14986554016E+02  0.10923297573E+02  0.31809825063E+02  0.54367079293E+02  0.39999988865E+02 0.  0.
         12    1    3    3    0    0  0.14986554016E+02 -0.10923297573E+02 -0.31809825063E+02  0.36820920707E+02  0.00000000000E+00 0. -1.
         11    1    4    4    0    0  0.18284525349E+01  0.86700451297E+01  0.87874227071E+01  0.12479251553E+02  0.51100000000E-03 0. -1.
        -11    1    4    4    0    0 -0.23204800968E+02  0.96341651425E+01  0.18012144759E+02  0.30914677502E+02  0.51100000000E-03 0.  1.
         12    1    4    4    0    0  0.63897944173E+01 -0.73809126991E+01  0.50102575970E+01  0.10973150238E+02  0.00000000000E+00 0. -1.
</event>
<event>
 8    1  0.1229941E-006  0.9118800E+02  0.7816164E-02  0.1184000E+00
        -11   -1    0    0    0    0  0.00000000000E+00  0.00000000000E+00  0.45593999997E+02  0.45594000000E+02  0.51100000000E-03 0. -1.
         11   -1    0    0    0    0 -0.00000000000E+00 -0.00000000000E+00 -0.45593999997E+02  0.45594000000E+02  0.51100000000E-03 0.  1.
         23    2    1    2    0    0 -0.17763568394E-14  0.00000000000E+00  0.35527136788E-14  0.91188000000E+02  0.91188000000E+02 0.  0.
    9900012    2    3    3    0    0 -0.48891951110E+01  0.26536158360E+02  0.25054132965E+02  0.54367061555E+02  0.39999948427E+02 0.  0.
        -12    1    3    3    0    0  0.48891951110E+01 -0.26536158360E+02 -0.25054132965E+02  0.36820938445E+02  0.00000000000E+00 0.  1.
         11    1    4    4    0    0 -0.13926554180E+02  0.73698949831E+01  0.17865638304E+02  0.23821110295E+02  0.51100000000E-03 0. -1.
        -11    1    4    4    0    0  0.53106044036E+01  0.10828587622E+02  0.14490512505E+02  0.18853004586E+02  0.51100000000E-03 0.  1.
        -12    1    4    4    0    0  0.37267546652E+01  0.83376757548E+01 -0.73020178441E+01  0.11692946674E+02  0.00000000000E+00 0.  1.
</event>
<event>
 8    1  0.1229941E-006  0.9118800E+02  0.7816164E-02  0.1184000E+00
        -11   -1    0    0    0    0  0.00000000000E+00  0.00000000000E+00  0.45593999997E+02  0.45594000000E+02  0.51100000000E-03 0. -1.
         11   -1    0    0    0    0 -0.00000000000E+00 -0.00000000000E+00 -0.45593999997E+02  0.45594000000E+02  0.51100000000E-03 0.  1.
         23    2    1    2    0    0 -0.17763568394E-14  0.00000000000E+00  0.00000000000E+00  0.91188000000E+02  0.91188000000E+02 0.  0.
    9900012    2    3    3    0    0  0.98167358150E+01  0.55117433001E+01 -0.35057546416E+02  0.54367093208E+02  0.40000020586E+02 0.  0.
         12    1    3    3    0    0 -0.98167358150E+01 -0.55117433001E+01  0.35057546416E+02  0.36820906792E+02  0.00000000000E+00 0. -1.
         11    1    4    4    0    0  0.59685177486E+01  0.66278914839E+01 -0.16136025819E+02  0.18437013834E+02  0.51100000000E-03 0.  1.
        -11    1    4    4    0    0 -0.15992337924E+01  0.14056307419E+02 -0.64484048130E+01  0.15547322981E+02  0.51100000000E-03 0. -1.
         12    1    4    4    0    0  0.54474518588E+01 -0.15172455603E+02 -0.12473115784E+02  0.20382756392E+02  0.00000000000E+00 0. -1.
</event>
<event>
 8    1  0.1229941E-006  0.9118800E+02  0.7816164E-02  0.1184000E+00
        -11   -1    0    0    0    0  0.00000000000E+00  0.00000000000E+00  0.45593999997E+02  0.45594000000E+02  0.51100000000E-03 0.  1.
         11   -1    0    0    0    0 -0.00000000000E+00 -0.00000000000E+00 -0.45593999997E+02  0.45594000000E+02  0.51100000000E-03 0. -1.
         23    2    1    2    0    0  0.00000000000E+00  0.00000000000E+00  0.88817841970E-15  0.91188000000E+02  0.91188000000E+02 0.  0.
    9900012    2    3    3    0    0  0.20597225152E+02 -0.30482538981E+02 -0.15331191464E+01  0.54367064094E+02  0.39999954214E+02 0.  0.
        -12    1    3    3    0    0 -0.20597225152E+02  0.30482538981E+02  0.15331191464E+01  0.36820935906E+02  0.00000000000E+00 0.  1.
         11    1    4    4    0    0  0.83142256191E+00 -0.10595956646E+02  0.83986202307E+01  0.13546305133E+02  0.51100000000E-03 0. -1.
        -11    1    4    4    0    0 -0.58064187355E+01 -0.10712046041E+02 -0.10149795089E+01  0.12226717163E+02  0.51100000000E-03 0.  1.
         12    1    4    4    0    0  0.25572221326E+02 -0.91745362935E+01 -0.89167598681E+01  0.28594041797E+02  0.00000000000E+00 0. -1.
</event>
<event>
 8    1  0.1229941E-006  0.9118800E+02  0.7816164E-02  0.1184000E+00
        -11   -1    0    0    0    0  0.00000000000E+00  0.00000000000E+00  0.45593999997E+02  0.45594000000E+02  0.51100000000E-03 0.  1.
         11   -1    0    0    0    0 -0.00000000000E+00 -0.00000000000E+00 -0.45593999997E+02  0.45594000000E+02  0.51100000000E-03 0. -1.
         23    2    1    2    0    0  0.00000000000E+00  0.35527136788E-14  0.00000000000E+00  0.91188000000E+02  0.91188000000E+02 0.  0.
    9900012    2    3    3    0    0 -0.86743201262E+01  0.29950445663E+02  0.19583347457E+02  0.54367074934E+02  0.39999978928E+02 0.  0.
         12    1    3    3    0    0  0.86743201262E+01 -0.29950445663E+02 -0.19583347457E+02  0.36820925066E+02  0.00000000000E+00 0. -1.
         11    1    4    4    0    0  0.55296592042E+00  0.22207136774E+01 -0.62722498936E+01  0.66767102330E+01  0.51100000000E-03 0. -1.
        -11    1    4    4    0    0 -0.37225561690E+01  0.32177942425E+02  0.17776304424E+02  0.36949619786E+02  0.51100000000E-03 0.  1.
        -12    1    4    4    0    0 -0.55047298776E+01 -0.44482104392E+01  0.80792929269E+01  0.10740744915E+02  0.00000000000E+00 0.  1.
</event>
<event>
 8    1  0.1229941E-006  0.9118800E+02  0.7816164E-02  0.1184000E+00
        -11   -1    0    0    0    0  0.00000000000E+00  0.00000000000E+00  0.45593999997E+02  0.45594000000E+02  0.51100000000E-03 0. -1.
         11   -1    0    0    0    0 -0.00000000000E+00 -0.00000000000E+00 -0.45593999997E+02  0.45594000000E+02  0.51100000000E-03 0.  1.
         23    2    1    2    0    0  0.35527136788E-14 -0.17763568394E-14  0.00000000000E+00  0.91188000000E+02  0.91188000000E+02 0.  0.
    9900012    2    3    3    0    0  0.29364831829E+02  0.96384538034E+01 -0.20014663792E+02  0.54367083298E+02  0.39999997994E+02 0.  0.
        -12    1    3    3    0    0 -0.29364831829E+02 -0.96384538034E+01  0.20014663792E+02  0.36820916702E+02  0.00000000000E+00 0.  1.
         11    1    4    4    0    0  0.27488020795E+02  0.86833788857E+01 -0.10458019583E+02  0.30665331076E+02  0.51100000000E-03 0. -1.
        -11    1    4    4    0    0 -0.72187075361E+01 -0.60515684465E+01 -0.74929041719E+01  0.12036396153E+02  0.51100000000E-03 0.  1.
        -12    1    4    4    0    0  0.90955185698E+01  0.70066433642E+01 -0.20637400368E+01  0.11665356069E+02  0.00000000000E+00 0.  1.
</event>
<event>
 8    1  0.1229941E-006  0.9118800E+02  0.7816164E-02  0.1184000E+00
        -11   -1    0    0    0    0  0.00000000000E+00  0.00000000000E+00  0.45593999997E+02  0.45594000000E+02  0.51100000000E-03 0. -1.
         11   -1    0    0    0    0 -0.00000000000E+00 -0.00000000000E+00 -0.45593999997E+02  0.45594000000E+02  0.51100000000E-03 0.  1.
         23    2    1    2    0    0  0.71054273576E-14  0.17763568394E-14 -0.35527136788E-14  0.91188000000E+02  0.91188000000E+02 0.  0.
    9900012    2    3    3    0    0 -0.29392882795E+02 -0.95051955631E+01  0.20037309383E+02  0.54367026778E+02  0.39999869147E+02 0.  0.
        -12    1    3    3    0    0  0.29392882795E+02  0.95051955631E+01 -0.20037309383E+02  0.36820973222E+02  0.00000000000E+00 0.  1.
         11    1    4    4    0    0 -0.18211783368E+02 -0.31251899801E+01  0.47349498563E+01  0.19074999771E+02  0.51100000000E-03 0.  1.
        -11    1    4    4    0    0 -0.15127719058E+02  0.41611845715E+01  0.17835904350E+02  0.23754637972E+02  0.51100000000E-03 0. -1.
        -12    1    4    4    0    0  0.39466196316E+01 -0.10541190154E+02 -0.25335448232E+01  0.11537389036E+02  0.00000000000E+00 0.  1.
</event>
<event>
 8    1  0.1229941E-006  0.9118800E+02  0.7816164E-02  0.1184000E+00
        -11   -1    0    0    0    0  0.00000000000E+00  0.00000000000E+00  0.45593999997E+02  0.45594000000E+02  0.51100000000E-03 0. -1.
         11   -1    0    0    0    0 -0.00000000000E+00 -0.00000000000E+00 -0.45593999997E+02  0.45594000000E+02  0.51100000000E-03 0.  1.
         23    2    1    2    0    0  0.00000000000E+00  0.00000000000E+00 -0.17763568394E-14  0.91188000000E+02  0.91188000000E+02 0.  0.
    9900012    2    3    3    0    0  0.28727661222E+02 -0.18925274933E+02 -0.13127646889E+02  0.54367086602E+02  0.40000005527E+02 0.  0.
         12    1    3    3    0    0 -0.28727661222E+02  0.18925274933E+02  0.13127646889E+02  0.36820913398E+02  0.00000000000E+00 0. -1.
         11    1    4    4    0    0  0.51759819635E+01 -0.83620203088E+01  0.52755604827E+01  0.11160005000E+02  0.51100000000E-03 0. -1.
        -11    1    4    4    0    0  0.75312783177E+01 -0.15405145105E+02 -0.20058810707E+02  0.26389288282E+02  0.51100000000E-03 0.  1.
         12    1    4    4    0    0  0.16020400941E+02  0.48418904806E+01  0.16556033356E+01  0.16817793320E+02  0.00000000000E+00 0. -1.
</event>
<event>
 8    1  0.1229941E-006  0.9118800E+02  0.7816164E-02  0.1184000E+00
        -11   -1    0    0    0    0  0.00000000000E+00  0.00000000000E+00  0.45593999997E+02  0.45594000000E+02  0.51100000000E-03 0. -1.
         11   -1    0    0    0    0 -0.00000000000E+00 -0.00000000000E+00 -0.45593999997E+02  0.45594000000E+02  0.51100000000E-03 0.  1.
         23    2    1    2    0    0  0.00000000000E+00 -0.35527136788E-14 -0.13322676296E-14  0.91188000000E+02  0.91188000000E+02 0.  0.
    9900012    2    3    3    0    0  0.34449723847E+02 -0.12628385174E+02 -0.30851201794E+01  0.54367115278E+02  0.40000070898E+02 0.  0.
        -12    1    3    3    0    0 -0.34449723847E+02  0.12628385174E+02  0.30851201794E+01  0.36820884722E+02  0.00000000000E+00 0.  1.
         11    1    4    4    0    0  0.14797072826E+02  0.28129587009E+01  0.10918668848E+02  0.18603317730E+02  0.51100000000E-03 0.  1.
        -11    1    4    4    0    0  0.16016768380E+02 -0.20449828548E+02 -0.80968310355E+01  0.27208289730E+02  0.51100000000E-03 0. -1.
         12    1    4    4    0    0  0.36358826414E+01  0.50084846730E+01 -0.59069579921E+01  0.85555078179E+01  0.00000000000E+00 0. -1.
</event>
<event>
 8    1  0.1229941E-006  0.9118800E+02  0.7816164E-02  0.1184000E+00
        -11   -1    0    0    0    0  0.00000000000E+00  0.00000000000E+00  0.45593999997E+02  0.45594000000E+02  0.51100000000E-03 0.  1.
         11   -1    0    0    0    0 -0.00000000000E+00 -0.00000000000E+00 -0.45593999997E+02  0.45594000000E+02  0.51100000000E-03 0. -1.
         23    2    1    2    0    0 -0.71054273576E-14 -0.44408920985E-15 -0.13322676296E-14  0.91188000000E+02  0.91188000000E+02 0.  0.
    9900012    2    3    3    0    0  0.36602739674E+02  0.38976799417E+01  0.91072527309E+00  0.54367056488E+02  0.39999936876E+02 0.  0.
        -12    1    3    3    0    0 -0.36602739674E+02 -0.38976799417E+01 -0.91072527309E+00  0.36820943512E+02  0.00000000000E+00 0.  1.
         11    1    4    4    0    0  0.43716756978E+01  0.10568879070E+01 -0.20190366635E+01  0.49300172175E+01  0.51100000000E-03 0. -1.
        -11    1    4    4    0    0  0.29187985979E+02 -0.81509002369E+01  0.14143313447E+02  0.33442622740E+02  0.51100000000E-03 0.  1.
        -12    1    4    4    0    0  0.30430779974E+01  0.10991692272E+02 -0.11213551510E+02  0.15994416531E+02  0.00000000000E+00 0.  1.
</event>
<event>
 8    1  0.1229941E-006  0.9118800E+02  0.7816164E-02  0.1184000E+00
        -11   -1    0    0    0    0  0.00000000000E+00  0.00000000000E+00  0.45593999997E+02  0.45594000000E+02  0.51100000000E-03 0.  1.
         11   -1    0    0    0    0 -0.00000000000E+00 -0.00000000000E+00 -0.45593999997E+02  0.45594000000E+02  0.51100000000E-03 0. -1.
         23    2    1    2    0    0  0.00000000000E+00  0.00000000000E+00 -0.44408920985E-15  0.91188000000E+02  0.91188000000E+02 0.  0.
    9900012    2    3    3    0    0 -0.34148067976E+02  0.13626381166E+02  0.20031100385E+01  0.54367064922E+02  0.39999956103E+02 0.  0.
         12    1    3    3    0    0  0.34148067976E+02 -0.13626381166E+02 -0.20031100385E+01  0.36820935078E+02  0.00000000000E+00 0. -1.
         11    1    4    4    0    0 -0.26748890733E+02  0.20168680184E+01 -0.11978326759E+02  0.29377733477E+02  0.51100000000E-03 0. -1.
        -11    1    4    4    0    0 -0.93080096403E+01  0.88662618049E+01  0.25840874278E+01  0.13112099372E+02  0.51100000000E-03 0.  1.
        -12    1    4    4    0    0  0.19088323969E+01  0.27432513432E+01  0.11397349370E+02  0.11877232073E+02  0.00000000000E+00 0.  1.
</event>
<event>
 8    1  0.1229941E-006  0.9118800E+02  0.7816164E-02  0.1184000E+00
        -11   -1    0    0    0    0  0.00000000000E+00  0.00000000000E+00  0.45593999997E+02  0.45594000000E+02  0.51100000000E-03 0.  1.
         11   -1    0    0    0    0 -0.00000000000E+00 -0.00000000000E+00 -0.45593999997E+02  0.45594000000E+02  0.51100000000E-03 0. -1.
         23    2    1    2    0    0 -0.10658141036E-13  0.71054273576E-14  0.35527136788E-14  0.91188000000E+02  0.91188000000E+02 0.  0.
    9900012    2    3    3    0    0 -0.28651418926E+02  0.20262435035E+02  0.11149448823E+02  0.54367078107E+02  0.39999986159E+02 0.  0.
         12    1    3    3    0    0  0.28651418926E+02 -0.20262435035E+02 -0.11149448823E+02  0.36820921893E+02  0.00000000000E+00 0. -1.
         11    1    4    4    0    0 -0.99361694067E+01  0.20211359224E+01 -0.15255492662E+00  0.10140795145E+02  0.51100000000E-03 0. -1.
        -11    1    4    4    0    0 -0.99367226780E+01 -0.65004920725E+01  0.13382555807E+02  0.17890993683E+02  0.51100000000E-03 0.  1.
         12    1    4    4    0    0 -0.87785268412E+01  0.24741791186E+02 -0.20805520575E+01  0.26335289279E+02  0.00000000000E+00 0. -1.
</event>
<event>
 8    1  0.1229941E-006  0.9118800E+02  0.7816164E-02  0.1184000E+00
        -11   -1    0    0    0    0  0.00000000000E+00  0.00000000000E+00  0.45593999997E+02  0.45594000000E+02  0.51100000000E-03 0. -1.
         11   -1    0    0    0    0 -0.00000000000E+00 -0.00000000000E+00 -0.45593999997E+02  0.45594000000E+02  0.51100000000E-03 0.  1.
         23    2    1    2    0    0  0.26645352591E-14  0.00000000000E+00  0.00000000000E+00  0.91188000000E+02  0.91188000000E+02 0.  0.
    9900012    2    3    3    0    0 -0.68253066790E+01  0.17443298850E+02 -0.31700567980E+02  0.54367088872E+02  0.40000010702E+02 0.  0.
         12    1    3    3    0    0  0.68253066790E+01 -0.17443298850E+02  0.31700567980E+02  0.36820911128E+02  0.00000000000E+00 0. -1.
         11    1    4    4    0    0  0.13620256091E+02  0.26850023078E+01 -0.88627896496E+01  0.16470265754E+02  0.51100000000E-03 0. -1.
        -11    1    4    4    0    0 -0.18119072379E+02  0.49995519980E+01 -0.90926863013E+01  0.20879972425E+02  0.51100000000E-03 0.  1.
         12    1    4    4    0    0 -0.23264903913E+01  0.97587445441E+01 -0.13745092029E+02  0.17016850693E+02  0.00000000000E+00 0. -1.
</event>
<event>
 8    1  0.1229941E-006  0.9118800E+02  0.7816164E-02  0.1184000E+00
        -11   -1    0    0    0    0  0.00000000000E+00  0.00000000000E+00  0.45593999997E+02  0.45594000000E+02  0.51100000000E-03 0.  1.
         11   -1    0    0    0    0 -0.00000000000E+00 -0.00000000000E+00 -0.45593999997E+02  0.45594000000E+02  0.51100000000E-03 0. -1.
         23    2    1    2    0    0 -0.71054273576E-14 -0.17763568394E-14  0.00000000000E+00  0.91188000000E+02  0.91188000000E+02 0.  0.
    9900012    2    3    3    0    0  0.33743957106E+02  0.14708222679E+02  0.89089427900E+00  0.54367080020E+02  0.39999990522E+02 0.  0.
        -12    1    3    3    0    0 -0.33743957106E+02 -0.14708222679E+02 -0.89089427900E+00  0.36820919980E+02  0.00000000000E+00 0.  1.
         11    1    4    4    0    0  0.12181829522E+02 -0.35118076843E+01  0.67930853855E+01  0.14383176736E+02  0.51100000000E-03 0.  1.
        -11    1    4    4    0    0  0.17072446588E+02  0.99364213824E+01  0.95071212555E+01  0.21922277646E+02  0.51100000000E-03 0. -1.
         12    1    4    4    0    0  0.44896809969E+01  0.82836089808E+01 -0.15409312362E+02  0.18061625638E+02  0.00000000000E+00 0. -1.
</event>
<event>
 8    1  0.1229941E-006  0.9118800E+02  0.7816164E-02  0.1184000E+00
        -11   -1    0    0    0    0  0.00000000000E+00  0.00000000000E+00  0.45593999997E+02  0.45594000000E+02  0.51100000000E-03 0.  1.
         11   -1    0    0    0    0 -0.00000000000E+00 -0.00000000000E+00 -0.45593999997E+02  0.45594000000E+02  0.51100000000E-03 0. -1.
         23    2    1    2    0    0  0.35527136788E-14  0.00000000000E+00  0.00000000000E+00  0.91188000000E+02  0.91188000000E+02 0.  0.
    9900012    2    3    3    0    0  0.27150214219E+02  0.11780867011E+02 -0.21905643298E+02  0.54367079751E+02  0.39999989908E+02 0.  0.
        -12    1    3    3    0    0 -0.27150214219E+02 -0.11780867011E+02  0.21905643298E+02  0.36820920249E+02  0.00000000000E+00 0.  1.
         11    1    4    4    0    0 -0.50496114757E+01  0.93537135461E+00 -0.41136466896E+01  0.65799380676E+01  0.51100000000E-03 0. -1.
        -11    1    4    4    0    0  0.13755899182E+01  0.93595879049E+01  0.37242289515E+01  0.10166809476E+02  0.51100000000E-03 0.  1.
         12    1    4    4    0    0  0.30824235776E+02  0.14859077519E+01 -0.21516225560E+02  0.37620332208E+02  0.00000000000E+00 0. -1.
</event>
<event>
 8    1  0.1229941E-006  0.9118800E+02  0.7816164E-02  0.1184000E+00
        -11   -1    0    0    0    0  0.00000000000E+00  0.00000000000E+00  0.45593999997E+02  0.45594000000E+02  0.51100000000E-03 0.  1.
         11   -1    0    0    0    0 -0.00000000000E+00 -0.00000000000E+00 -0.45593999997E+02  0.45594000000E+02  0.51100000000E-03 0. -1.
         23    2    1    2    0    0 -0.17763568394E-14  0.00000000000E+00  0.00000000000E+00  0.91188000000E+02  0.91188000000E+02 0.  0.
    9900012    2    3    3    0    0  0.11998476315E+02  0.31803582380E+02  0.14154471554E+02  0.54367077265E+02  0.39999984241E+02 0.  0.
         12    1    3    3    0    0 -0.11998476315E+02 -0.31803582380E+02 -0.14154471554E+02  0.36820922735E+02  0.00000000000E+00 0. -1.
         11    1    4    4    0    0 -0.79214536038E+01  0.65863668429E+01  0.53309071934E+01  0.11599492539E+02  0.51100000000E-03 0. -1.
        -11    1    4    4    0    0  0.21072429409E+02  0.69323502931E+01 -0.54485664903E+00  0.22190124624E+02  0.51100000000E-03 0.  1.
        -12    1    4    4    0    0 -0.11524994902E+01  0.18284865243E+02  0.93684210101E+01  0.20577460102E+02  0.00000000000E+00 0.  1.
</event>
<event>
 8    1  0.1229941E-006  0.9118800E+02  0.7816164E-02  0.1184000E+00
        -11   -1    0    0    0    0  0.00000000000E+00  0.00000000000E+00  0.45593999997E+02  0.45594000000E+02  0.51100000000E-03 0. -1.
         11   -1    0    0    0    0 -0.00000000000E+00 -0.00000000000E+00 -0.45593999997E+02  0.45594000000E+02  0.51100000000E-03 0.  1.
         23    2    1    2    0    0 -0.22204460493E-15  0.00000000000E+00 -0.35527136788E-14  0.91188000000E+02  0.91188000000E+02 0.  0.
    9900012    2    3    3    0    0  0.13553158943E+01 -0.30859108590E+02 -0.20041429711E+02  0.54367077021E+02  0.39999983685E+02 0.  0.
        -12    1    3    3    0    0 -0.13553158943E+01  0.30859108590E+02  0.20041429711E+02  0.36820922979E+02  0.00000000000E+00 0.  1.
         11    1    4    4    0    0 -0.24891935616E+01 -0.13867952056E+02 -0.13352192033E+02  0.19411265058E+02  0.51100000000E-03 0. -1.
        -11    1    4    4    0    0  0.77334475089E+00 -0.91049652711E+00  0.10877620218E+02  0.10943020054E+02  0.51100000000E-03 0.  1.
        -12    1    4    4    0    0  0.30711647050E+01 -0.16080660007E+02 -0.17566857896E+02  0.24012791909E+02  0.00000000000E+00 0.  1.
</event>
<event>
 8    1  0.1229941E-006  0.9118800E+02  0.7816164E-02  0.1184000E+00
        -11   -1    0    0    0    0  0.00000000000E+00  0.00000000000E+00  0.45593999997E+02  0.45594000000E+02  0.51100000000E-03 0.  1.
         11   -1    0    0    0    0 -0.00000000000E+00 -0.00000000000E+00 -0.45593999997E+02  0.45594000000E+02  0.51100000000E-03 0. -1.
         23    2    1    2    0    0  0.00000000000E+00  0.00000000000E+00  0.35527136788E-14  0.91188000000E+02  0.91188000000E+02 0.  0.
    9900012    2    3    3    0    0 -0.74614525920E+01  0.27274297361E+02  0.23584298374E+02  0.54367086091E+02  0.40000004362E+02 0.  0.
         12    1    3    3    0    0  0.74614525920E+01 -0.27274297361E+02 -0.23584298374E+02  0.36820913909E+02  0.00000000000E+00 0. -1.
         11    1    4    4    0    0  0.19407457829E+01  0.49237105061E+01 -0.13372862913E+00  0.52940818797E+01  0.51100000000E-03 0. -1.
        -11    1    4    4    0    0  0.27196065441E+01 -0.54301669253E+01 -0.45798245724E+01  0.76064292520E+01  0.51100000000E-03 0.  1.
        -12    1    4    4    0    0 -0.12121804919E+02  0.27780753780E+02  0.28297851576E+02  0.41466574959E+02  0.00000000000E+00 0.  1.
</event>
<event>
 8    1  0.1229941E-006  0.9118800E+02  0.7816164E-02  0.1184000E+00
        -11   -1    0    0    0    0  0.00000000000E+00  0.00000000000E+00  0.45593999997E+02  0.45594000000E+02  0.51100000000E-03 0.  1.
         11   -1    0    0    0    0 -0.00000000000E+00 -0.00000000000E+00 -0.45593999997E+02  0.45594000000E+02  0.51100000000E-03 0. -1.
         23    2    1    2    0    0 -0.35527136788E-14  0.00000000000E+00  0.22204460493E-15  0.91188000000E+02  0.91188000000E+02 0.  0.
    9900012    2    3    3    0    0  0.19016752009E+02  0.31512989006E+02 -0.10353701797E+01  0.54367118364E+02  0.40000077933E+02 0.  0.
         12    1    3    3    0    0 -0.19016752009E+02 -0.31512989006E+02  0.10353701797E+01  0.36820881636E+02  0.00000000000E+00 0. -1.
         11    1    4    4    0    0  0.20563139007E+02  0.20639336425E+01 -0.39228305911E+01  0.21035472612E+02  0.51100000000E-03 0. -1.
        -11    1    4    4    0    0 -0.78873544954E+01  0.19206861367E+02 -0.66068187007E+00  0.20773790826E+02  0.51100000000E-03 0.  1.
        -12    1    4    4    0    0  0.63409674965E+01  0.10242193997E+02  0.35481422815E+01  0.12557854925E+02  0.00000000000E+00 0.  1.
</event>
<event>
 8    1  0.1229941E-006  0.9118800E+02  0.7816164E-02  0.1184000E+00
        -11   -1    0    0    0    0  0.00000000000E+00  0.00000000000E+00  0.45593999997E+02  0.45594000000E+02  0.51100000000E-03 0.  1.
         11   -1    0    0    0    0 -0.00000000000E+00 -0.00000000000E+00 -0.45593999997E+02  0.45594000000E+02  0.51100000000E-03 0. -1.
         23    2    1    2    0    0  0.00000000000E+00 -0.88817841970E-15  0.00000000000E+00  0.91188000000E+02  0.91188000000E+02 0.  0.
    9900012    2    3    3    0    0 -0.19317398083E+02  0.63040663046E+01  0.30706331822E+02  0.54367055761E+02  0.39999935219E+02 0.  0.
         12    1    3    3    0    0  0.19317398083E+02 -0.63040663046E+01 -0.30706331822E+02  0.36820944239E+02  0.00000000000E+00 0. -1.
         11    1    4    4    0    0 -0.11994810402E+02 -0.66415080891E+01  0.14073333524E+00  0.13711488337E+02  0.51100000000E-03 0. -1.
        -11    1    4    4    0    0 -0.14911893287E+02  0.11826535410E+02  0.23349854191E+02  0.30123864164E+02  0.51100000000E-03 0.  1.
         12    1    4    4    0    0  0.75893056057E+01  0.11190389840E+01  0.72157442957E+01  0.10531703260E+02  0.00000000000E+00 0. -1.
</event>
<event>
 8    1  0.1229941E-006  0.9118800E+02  0.7816164E-02  0.1184000E+00
        -11   -1    0    0    0    0  0.00000000000E+00  0.00000000000E+00  0.45593999997E+02  0.45594000000E+02  0.51100000000E-03 0. -1.
         11   -1    0    0    0    0 -0.00000000000E+00 -0.00000000000E+00 -0.45593999997E+02  0.45594000000E+02  0.51100000000E-03 0.  1.
         23    2    1    2    0    0  0.17763568394E-14  0.00000000000E+00  0.00000000000E+00  0.91188000000E+02  0.91188000000E+02 0.  0.
    9900012    2    3    3    0    0 -0.71525068728E+01  0.14921539884E+02  0.32893214315E+02  0.54367160045E+02  0.40000172953E+02 0.  0.
        -12    1    3    3    0    0  0.71525068728E+01 -0.14921539884E+02 -0.32893214315E+02  0.36820839955E+02  0.00000000000E+00 0.  1.
         11    1    4    4    0    0 -0.12802741948E+02  0.84819867811E+01  0.27826256782E+02  0.31782933595E+02  0.51100000000E-03 0. -1.
        -11    1    4    4    0    0  0.10784446498E+02  0.23482216498E+01  0.95822462915E+01  0.14616356435E+02  0.51100000000E-03 0.  1.
         12    1    4    4    0    0 -0.51342114232E+01  0.40913314531E+01 -0.45152887590E+01  0.79678700149E+01  0.00000000000E+00 0. -1.
</event>
<event>
 8    1  0.1229941E-006  0.9118800E+02  0.7816164E-02  0.1184000E+00
        -11   -1    0    0    0    0  0.00000000000E+00  0.00000000000E+00  0.45593999997E+02  0.45594000000E+02  0.51100000000E-03 0. -1.
         11   -1    0    0    0    0 -0.00000000000E+00 -0.00000000000E+00 -0.45593999997E+02  0.45594000000E+02  0.51100000000E-03 0.  1.
         23    2    1    2    0    0 -0.35527136788E-14  0.00000000000E+00  0.00000000000E+00  0.91188000000E+02  0.91188000000E+02 0.  0.
    9900012    2    3    3    0    0  0.29684939431E+02 -0.20645454555E+02  0.69533581318E+01  0.54367087299E+02  0.40000007116E+02 0.  0.
         12    1    3    3    0    0 -0.29684939431E+02  0.20645454555E+02 -0.69533581318E+01  0.36820912701E+02  0.00000000000E+00 0. -1.
         11    1    4    4    0    0  0.97285341208E+01 -0.11012388506E+02  0.31744181070E+01  0.15033097063E+02  0.51100000000E-03 0. -1.
        -11    1    4    4    0    0  0.28233803423E+02 -0.11465541998E+02  0.12982078448E+01  0.30500682827E+02  0.51100000000E-03 0.  1.
         12    1    4    4    0    0 -0.82773981130E+01  0.18324759488E+01  0.24807321800E+01  0.88333074085E+01  0.00000000000E+00 0. -1.
</event>
<event>
 8    1  0.1229941E-006  0.9118800E+02  0.7816164E-02  0.1184000E+00
        -11   -1    0    0    0    0  0.00000000000E+00  0.00000000000E+00  0.45593999997E+02  0.45594000000E+02  0.51100000000E-03 0.  1.
         11   -1    0    0    0    0 -0.00000000000E+00 -0.00000000000E+00 -0.45593999997E+02  0.45594000000E+02  0.51100000000E-03 0. -1.
         23    2    1    2    0    0  0.00000000000E+00  0.00000000000E+00  0.00000000000E+00  0.91188000000E+02  0.91188000000E+02 0.  0.
    9900012    2    3    3    0    0 -0.33799310782E+02 -0.90140824033E+01 -0.11494899918E+02  0.54367084544E+02  0.40000000834E+02 0.  0.
        -12    1    3    3    0    0  0.33799310782E+02  0.90140824033E+01  0.11494899918E+02  0.36820915456E+02  0.00000000000E+00 0.  1.
         11    1    4    4    0    0 -0.11640346795E+02 -0.81017196739E+01 -0.72671920233E+01  0.15935733913E+02  0.51100000000E-03 0. -1.
        -11    1    4    4    0    0  0.73534888697E+01 -0.42568136363E+01 -0.96155901233E+00  0.85509564896E+01  0.51100000000E-03 0.  1.
        -12    1    4    4    0    0 -0.29512452857E+02  0.33444509069E+01 -0.32661488820E+01  0.29880394141E+02  0.00000000000E+00 0.  1.
</event>
<event>
 8    1  0.1229941E-006  0.9118800E+02  0.7816164E-02  0.1184000E+00
        -11   -1    0    0    0    0  0.00000000000E+00  0.00000000000E+00  0.45593999997E+02  0.45594000000E+02  0.51100000000E-03 0.  1.
         11   -1    0    0    0    0 -0.00000000000E+00 -0.00000000000E+00 -0.45593999997E+02  0.45594000000E+02  0.51100000000E-03 0. -1.
         23    2    1    2    0    0  0.35527136788E-14 -0.35527136788E-14  0.00000000000E+00  0.91188000000E+02  0.91188000000E+02 0.  0.
    9900012    2    3    3    0    0  0.19305026505E+02 -0.23792032255E+02 -0.20421394348E+02  0.54367106552E+02  0.40000051006E+02 0.  0.
        -12    1    3    3    0    0 -0.19305026505E+02  0.23792032255E+02  0.20421394348E+02  0.36820893448E+02  0.00000000000E+00 0.  1.
         11    1    4    4    0    0  0.16163475875E+02 -0.15009792663E+02 -0.19694365879E+02  0.29570591400E+02  0.51100000000E-03 0. -1.
        -11    1    4    4    0    0 -0.13564463466E+01  0.74247477834E+01 -0.23341573663E+01  0.79003238674E+01  0.51100000000E-03 0.  1.
        -12    1    4    4    0    0  0.44979969767E+01 -0.16206987376E+02  0.16071288973E+01  0.16896191284E+02  0.00000000000E+00 0.  1.
</event>
<event>
 8    1  0.1229941E-006  0.9118800E+02  0.7816164E-02  0.1184000E+00
        -11   -1    0    0    0    0  0.00000000000E+00  0.00000000000E+00  0.45593999997E+02  0.45594000000E+02  0.51100000000E-03 0. -1.
         11   -1    0    0    0    0 -0.00000000000E+00 -0.00000000000E+00 -0.45593999997E+02  0.45594000000E+02  0.51100000000E-03 0.  1.
         23    2    1    2    0    0 -0.88817841970E-15  0.00000000000E+00 -0.35527136788E-14  0.91188000000E+02  0.91188000000E+02 0.  0.
    9900012    2    3    3    0    0  0.52541735890E+01 -0.19726548550E+02  0.30643704129E+02  0.54367086641E+02  0.40000005616E+02 0.  0.
        -12    1    3    3    0    0 -0.52541735890E+01  0.19726548550E+02 -0.30643704129E+02  0.36820913359E+02  0.00000000000E+00 0.  1.
         11    1    4    4    0    0  0.60099994005E+01 -0.26004168414E+02  0.18007016449E+02  0.32196110159E+02  0.51100000000E-03 0. -1.
        -11    1    4    4    0    0  0.33468840574E+01  0.57829525798E+01  0.15676431119E+02  0.17040970229E+02  0.51100000000E-03 0.  1.
        -12    1    4    4    0    0 -0.41027098689E+01  0.49466728384E+00 -0.30397434393E+01  0.51300062541E+01  0.00000000000E+00 0.  1.
</event>
<event>
 8    1  0.1229941E-006  0.9118800E+02  0.7816164E-02  0.1184000E+00
        -11   -1    0    0    0    0  0.00000000000E+00  0.00000000000E+00  0.45593999997E+02  0.45594000000E+02  0.51100000000E-03 0. -1.
         11   -1    0    0    0    0 -0.00000000000E+00 -0.00000000000E+00 -0.45593999997E+02  0.45594000000E+02  0.51100000000E-03 0.  1.
         23    2    1    2    0    0 -0.35527136788E-14  0.17763568394E-14 -0.35527136788E-14  0.91188000000E+02  0.91188000000E+02 0.  0.
    9900012    2    3    3    0    0  0.26550087688E+02 -0.94662318996E+01 -0.23690993591E+02  0.54367083662E+02  0.39999998825E+02 0.  0.
         12    1    3    3    0    0 -0.26550087688E+02  0.94662318996E+01  0.23690993591E+02  0.36820916338E+02  0.00000000000E+00 0. -1.
         11    1    4    4    0    0  0.24970225563E+02  0.36310928419E+01  0.15713423978E+01  0.25281734851E+02  0.51100000000E-03 0. -1.
        -11    1    4    4    0    0 -0.33607349053E+00 -0.10764454647E+02 -0.15554761462E+02  0.18919223917E+02  0.51100000000E-03 0.  1.
         12    1    4    4    0    0  0.19159356150E+01 -0.23328700945E+01 -0.97075745269E+01  0.10166124894E+02  0.00000000000E+00 0. -1.
</event>
<event>
 8    1  0.1229941E-006  0.9118800E+02  0.7816164E-02  0.1184000E+00
        -11   -1    0    0    0    0  0.00000000000E+00  0.00000000000E+00  0.45593999997E+02  0.45594000000E+02  0.51100000000E-03 0. -1.
         11   -1    0    0    0    0 -0.00000000000E+00 -0.00000000000E+00 -0.45593999997E+02  0.45594000000E+02  0.51100000000E-03 0.  1.
         23    2    1    2    0    0 -0.88817841970E-15 -0.17763568394E-14  0.00000000000E+00  0.91188000000E+02  0.91188000000E+02 0.  0.
    9900012    2    3    3    0    0 -0.49060247177E+01 -0.13925544730E+02  0.33731133197E+02  0.54367092606E+02  0.40000019214E+02 0.  0.
        -12    1    3    3    0    0  0.49060247177E+01  0.13925544730E+02 -0.33731133197E+02  0.36820907394E+02  0.00000000000E+00 0.  1.
         11    1    4    4    0    0  0.93681309981E+01 -0.15378589566E+02  0.44603598989E+01  0.18551487976E+02  0.51100000000E-03 0. -1.
        -11    1    4    4    0    0  0.15517867802E+01 -0.17055391169E+01 -0.94794459939E-01  0.23077894490E+01  0.51100000000E-03 0.  1.
        -12    1    4    4    0    0 -0.15825942496E+02  0.31585839529E+01  0.29365567758E+02  0.33507815181E+02  0.00000000000E+00 0.  1.
</event>
<event>
 8    1  0.1229941E-006  0.9118800E+02  0.7816164E-02  0.1184000E+00
        -11   -1    0    0    0    0  0.00000000000E+00  0.00000000000E+00  0.45593999997E+02  0.45594000000E+02  0.51100000000E-03 0. -1.
         11   -1    0    0    0    0 -0.00000000000E+00 -0.00000000000E+00 -0.45593999997E+02  0.45594000000E+02  0.51100000000E-03 0.  1.
         23    2    1    2    0    0  0.00000000000E+00  0.00000000000E+00  0.00000000000E+00  0.91188000000E+02  0.91188000000E+02 0.  0.
    9900012    2    3    3    0    0 -0.42031428536E+01 -0.32262854193E+02 -0.17240119058E+02  0.54367083720E+02  0.39999998957E+02 0.  0.
        -12    1    3    3    0    0  0.42031428536E+01  0.32262854193E+02  0.17240119058E+02  0.36820916280E+02  0.00000000000E+00 0.  1.
         11    1    4    4    0    0  0.32163533449E+01  0.23422293543E+01  0.38324741460E+01  0.55243846289E+01  0.51100000000E-03 0. -1.
        -11    1    4    4    0    0 -0.41754469321E+01 -0.57465705482E+01 -0.18347842411E+02  0.19674876151E+02  0.51100000000E-03 0.  1.
        -12    1    4    4    0    0 -0.32440492664E+01 -0.28858513000E+02 -0.27247507927E+01  0.29167822940E+02  0.00000000000E+00 0.  1.
</event>
<event>
 8    1  0.1229941E-006  0.9118800E+02  0.7816164E-02  0.1184000E+00
        -11   -1    0    0    0    0  0.00000000000E+00  0.00000000000E+00  0.45593999997E+02  0.45594000000E+02  0.51100000000E-03 0.  1.
         11   -1    0    0    0    0 -0.00000000000E+00 -0.00000000000E+00 -0.45593999997E+02  0.45594000000E+02  0.51100000000E-03 0. -1.
         23    2    1    2    0    0  0.35527136788E-14  0.00000000000E+00  0.22204460493E-15  0.91188000000E+02  0.91188000000E+02 0.  0.
    9900012    2    3    3    0    0  0.27450869315E+02 -0.24531273905E+02  0.66877040657E+00  0.54367070090E+02  0.39999967884E+02 0.  0.
         12    1    3    3    0    0 -0.27450869315E+02  0.24531273905E+02 -0.66877040657E+00  0.36820929910E+02  0.00000000000E+00 0. -1.
         11    1    4    4    0    0  0.87689100578E+01 -0.56607944395E+01 -0.60275481608E+01  0.12052788656E+02  0.51100000000E-03 0. -1.
        -11    1    4    4    0    0 -0.81948002414E+00 -0.16398683086E+02 -0.75155558995E+01  0.18057462037E+02  0.51100000000E-03 0.  1.
         12    1    4    4    0    0  0.19501439282E+02 -0.24717963797E+01  0.14211874467E+02  0.24256819397E+02  0.00000000000E+00 0. -1.
</event>
<event>
 8    1  0.1229941E-006  0.9118800E+02  0.7816164E-02  0.1184000E+00
        -11   -1    0    0    0    0  0.00000000000E+00  0.00000000000E+00  0.45593999997E+02  0.45594000000E+02  0.51100000000E-03 0.  1.
         11   -1    0    0    0    0 -0.00000000000E+00 -0.00000000000E+00 -0.45593999997E+02  0.45594000000E+02  0.51100000000E-03 0. -1.
         23    2    1    2    0    0  0.77715611724E-15 -0.17763568394E-14  0.71054273576E-14  0.91188000000E+02  0.91188000000E+02 0.  0.
    9900012    2    3    3    0    0 -0.67630782090E+00  0.97963032012E+01 -0.35487393826E+02  0.54367081092E+02  0.39999992964E+02 0.  0.
        -12    1    3    3    0    0  0.67630782090E+00 -0.97963032012E+01  0.35487393826E+02  0.36820918908E+02  0.00000000000E+00 0.  1.
         11    1    4    4    0    0 -0.89027143924E+00 -0.57695612981E+01 -0.42137275264E+01  0.71997167122E+01  0.51100000000E-03 0.  1.
        -11    1    4    4    0    0 -0.78269402222E+01  0.21608774602E+02 -0.13254132782E+02  0.26530589309E+02  0.51100000000E-03 0. -1.
         12    1    4    4    0    0  0.80409038406E+01 -0.60429101026E+01 -0.18019533518E+02  0.20636775070E+02  0.00000000000E+00 0. -1.
</event>
<event>
 8    1  0.1229941E-006  0.9118800E+02  0.7816164E-02  0.1184000E+00
        -11   -1    0    0    0    0  0.00000000000E+00  0.00000000000E+00  0.45593999997E+02  0.45594000000E+02  0.51100000000E-03 0.  1.
         11   -1    0    0    0    0 -0.00000000000E+00 -0.00000000000E+00 -0.45593999997E+02  0.45594000000E+02  0.51100000000E-03 0. -1.
         23    2    1    2    0    0  0.22204460493E-15  0.35527136788E-14 -0.35527136788E-14  0.91188000000E+02  0.91188000000E+02 0.  0.
    9900012    2    3    3    0    0  0.19523646454E+01 -0.24846701801E+02  0.27103651885E+02  0.54367105611E+02  0.40000048862E+02 0.  0.
         12    1    3    3    0    0 -0.19523646454E+01  0.24846701801E+02 -0.27103651885E+02  0.36820894389E+02  0.00000000000E+00 0. -1.
         11    1    4    4    0    0 -0.13495066380E+02 -0.11603859851E+02  0.88669250761E+01  0.19884384340E+02  0.51100000000E-03 0. -1.
        -11    1    4    4    0    0  0.62654113858E+01 -0.64997285140E+01  0.20914850623E+02  0.22780097178E+02  0.51100000000E-03 0.  1.
        -12    1    4    4    0    0  0.91820196396E+01 -0.67431134367E+01 -0.26781238150E+01  0.11702624093E+02  0.00000000000E+00 0.  1.
</event>
<event>
 8    1  0.1229941E-006  0.9118800E+02  0.7816164E-02  0.1184000E+00
        -11   -1    0    0    0    0  0.00000000000E+00  0.00000000000E+00  0.45593999997E+02  0.45594000000E+02  0.51100000000E-03 0.  1.
         11   -1    0    0    0    0 -0.00000000000E+00 -0.00000000000E+00 -0.45593999997E+02  0.45594000000E+02  0.51100000000E-03 0. -1.
         23    2    1    2    0    0  0.00000000000E+00  0.00000000000E+00  0.29976021665E-14  0.91188000000E+02  0.91188000000E+02 0.  0.
    9900012    2    3    3    0    0 -0.36297124515E+02  0.61677444734E+01  0.50563613009E+00  0.54367109356E+02  0.40000057398E+02 0.  0.
         12    1    3    3    0    0  0.36297124515E+02 -0.61677444734E+01 -0.50563613009E+00  0.36820890644E+02  0.00000000000E+00 0. -1.
         11    1    4    4    0    0 -0.22231164576E+02 -0.12995799256E+01 -0.89440083979E+01  0.23998101443E+02  0.51100000000E-03 0. -1.
        -11    1    4    4    0    0 -0.19981971994E+02  0.56829090125E+01  0.11639887775E+02  0.23813056236E+02  0.51100000000E-03 0.  1.
        -12    1    4    4    0    0  0.59160120551E+01  0.17844153865E+01 -0.21902432471E+01  0.65559516768E+01  0.00000000000E+00 0.  1.
</event>
<event>
 8    1  0.1229941E-006  0.9118800E+02  0.7816164E-02  0.1184000E+00
        -11   -1    0    0    0    0  0.00000000000E+00  0.00000000000E+00  0.45593999997E+02  0.45594000000E+02  0.51100000000E-03 0. -1.
         11   -1    0    0    0    0 -0.00000000000E+00 -0.00000000000E+00 -0.45593999997E+02  0.45594000000E+02  0.51100000000E-03 0.  1.
         23    2    1    2    0    0 -0.22204460493E-15  0.00000000000E+00  0.00000000000E+00  0.91188000000E+02  0.91188000000E+02 0.  0.
    9900012    2    3    3    0    0 -0.18956150583E+01 -0.10069936778E+02  0.35366365337E+02  0.54367125753E+02  0.40000094778E+02 0.  0.
        -12    1    3    3    0    0  0.18956150583E+01  0.10069936778E+02 -0.35366365337E+02  0.36820874247E+02  0.00000000000E+00 0.  1.
         11    1    4    4    0    0  0.93520433031E+01 -0.18001419040E+02  0.29288252419E+02  0.35627426674E+02  0.51100000000E-03 0. -1.
        -11    1    4    4    0    0 -0.19990023113E+01  0.39057516427E+01 -0.28807406164E+01  0.52487687028E+01  0.51100000000E-03 0.  1.
         12    1    4    4    0    0 -0.92486560501E+01  0.40257306191E+01  0.89588535342E+01  0.13490930376E+02  0.00000000000E+00 0. -1.
</event>
<event>
 8    1  0.1229941E-006  0.9118800E+02  0.7816164E-02  0.1184000E+00
        -11   -1    0    0    0    0  0.00000000000E+00  0.00000000000E+00  0.45593999997E+02  0.45594000000E+02  0.51100000000E-03 0.  1.
         11   -1    0    0    0    0 -0.00000000000E+00 -0.00000000000E+00 -0.45593999997E+02  0.45594000000E+02  0.51100000000E-03 0. -1.
         23    2    1    2    0    0  0.00000000000E+00  0.71054273576E-14  0.17763568394E-14  0.91188000000E+02  0.91188000000E+02 0.  0.
    9900012    2    3    3    0    0 -0.12743117988E+02  0.32108344081E+02  0.12745411884E+02  0.54367104577E+02  0.40000046504E+02 0.  0.
         12    1    3    3    0    0  0.12743117988E+02 -0.32108344081E+02 -0.12745411884E+02  0.36820895423E+02  0.00000000000E+00 0. -1.
         11    1    4    4    0    0 -0.12764691685E+02  0.16781016337E+02  0.50392554003E+01  0.21677960198E+02  0.51100000000E-03 0. -1.
        -11    1    4    4    0    0 -0.30411147486E+01  0.22895454458E+02  0.82022536236E+01  0.24509736402E+02  0.51100000000E-03 0.  1.
         12    1    4    4    0    0  0.30626884459E+01 -0.75681267137E+01 -0.49609713946E+00  0.81794079763E+01  0.00000000000E+00 0. -1.
</event>
<event>
 8    1  0.1229941E-006  0.9118800E+02  0.7816164E-02  0.1184000E+00
        -11   -1    0    0    0    0  0.00000000000E+00  0.00000000000E+00  0.45593999997E+02  0.45594000000E+02  0.51100000000E-03 0.  1.
         11   -1    0    0    0    0 -0.00000000000E+00 -0.00000000000E+00 -0.45593999997E+02  0.45594000000E+02  0.51100000000E-03 0. -1.
         23    2    1    2    0    0  0.00000000000E+00  0.00000000000E+00  0.35527136788E-14  0.91188000000E+02  0.91188000000E+02 0.  0.
    9900012    2    3    3    0    0 -0.14131141189E+02  0.11625192692E+02  0.31952215876E+02  0.54367104358E+02  0.40000046006E+02 0.  0.
         12    1    3    3    0    0  0.14131141189E+02 -0.11625192692E+02 -0.31952215876E+02  0.36820895642E+02  0.00000000000E+00 0. -1.
         11    1    4    4    0    0 -0.14484341351E+02 -0.36891402268E-02  0.27190132583E+02  0.30807457995E+02  0.51100000000E-03 0. -1.
        -11    1    4    4    0    0  0.86017548284E+01  0.27526582679E+01  0.67569628472E+01  0.11279355516E+02  0.51100000000E-03 0.  1.
        -12    1    4    4    0    0 -0.82485546669E+01  0.88762235648E+01 -0.19948795543E+01  0.12280290848E+02  0.00000000000E+00 0.  1.
</event>
<event>
 8    1  0.1229941E-006  0.9118800E+02  0.7816164E-02  0.1184000E+00
        -11   -1    0    0    0    0  0.00000000000E+00  0.00000000000E+00  0.45593999997E+02  0.45594000000E+02  0.51100000000E-03 0.  1.
         11   -1    0    0    0    0 -0.00000000000E+00 -0.00000000000E+00 -0.45593999997E+02  0.45594000000E+02  0.51100000000E-03 0. -1.
         23    2    1    2    0    0  0.00000000000E+00  0.00000000000E+00  0.00000000000E+00  0.91188000000E+02  0.91188000000E+02 0.  0.
    9900012    2    3    3    0    0 -0.13485904716E+02  0.32905463183E+02  0.95469733911E+01  0.54367029967E+02  0.39999876415E+02 0.  0.
        -12    1    3    3    0    0  0.13485904716E+02 -0.32905463183E+02 -0.95469733911E+01  0.36820970033E+02  0.00000000000E+00 0.  1.
         11    1    4    4    0    0  0.56941960373E+00  0.17042623596E+02 -0.11019123686E+02  0.20302619161E+02  0.51100000000E-03 0. -1.
        -11    1    4    4    0    0 -0.15386797838E+02  0.68101011520E+01  0.17825105093E+02  0.24512555910E+02  0.51100000000E-03 0.  1.
        -12    1    4    4    0    0  0.13314735184E+01  0.90527384343E+01  0.27409919839E+01  0.95518548956E+01  0.00000000000E+00 0.  1.
</event>
<event>
 8    1  0.1229941E-006  0.9118800E+02  0.7816164E-02  0.1184000E+00
        -11   -1    0    0    0    0  0.00000000000E+00  0.00000000000E+00  0.45593999997E+02  0.45594000000E+02  0.51100000000E-03 0.  1.
         11   -1    0    0    0    0 -0.00000000000E+00 -0.00000000000E+00 -0.45593999997E+02  0.45594000000E+02  0.51100000000E-03 0. -1.
         23    2    1    2    0    0 -0.14432899320E-14  0.66613381478E-15  0.00000000000E+00  0.91188000000E+02  0.91188000000E+02 0.  0.
    9900012    2    3    3    0    0  0.38325280504E+00 -0.13624674980E+01  0.36793686630E+02  0.54367101366E+02  0.40000039184E+02 0.  0.
         12    1    3    3    0    0 -0.38325280504E+00  0.13624674980E+01 -0.36793686630E+02  0.36820898634E+02  0.00000000000E+00 0. -1.
         11    1    4    4    0    0 -0.35503770010E+01  0.65109017018E+01  0.14558331955E+02  0.16338361221E+02  0.51100000000E-03 0. -1.
        -11    1    4    4    0    0 -0.12223530822E+02  0.10272239373E+01  0.10658646808E+02  0.16250435280E+02  0.51100000000E-03 0.  1.
         12    1    4    4    0    0  0.16157160628E+02 -0.89005931371E+01  0.11576707867E+02  0.21778304865E+02  0.00000000000E+00 0. -1.
</event>
<event>
 8    1  0.1229941E-006  0.9118800E+02  0.7816164E-02  0.1184000E+00
        -11   -1    0    0    0    0  0.00000000000E+00  0.00000000000E+00  0.45593999997E+02  0.45594000000E+02  0.51100000000E-03 0.  1.
         11   -1    0    0    0    0 -0.00000000000E+00 -0.00000000000E+00 -0.45593999997E+02  0.45594000000E+02  0.51100000000E-03 0. -1.
         23    2    1    2    0    0  0.35527136788E-14  0.00000000000E+00  0.00000000000E+00  0.91188000000E+02  0.91188000000E+02 0.  0.
    9900012    2    3    3    0    0  0.25559342625E+02 -0.70865696037E+01  0.25539788106E+02  0.54367078764E+02  0.39999987659E+02 0.  0.
         12    1    3    3    0    0 -0.25559342625E+02  0.70865696037E+01 -0.25539788106E+02  0.36820921236E+02  0.00000000000E+00 0. -1.
         11    1    4    4    0    0 -0.56451292792E+01  0.40364004353E+01 -0.67947886148E-01  0.69400742236E+01  0.51100000000E-03 0.  1.
        -11    1    4    4    0    0  0.15528947927E+00 -0.65485904940E+00 -0.35211896854E+01  0.35849312767E+01  0.51100000000E-03 0. -1.
        -12    1    4    4    0    0  0.31049182425E+02 -0.10468110990E+02  0.29128925677E+02  0.43842073264E+02  0.00000000000E+00 0.  1.
</event>
<event>
 8    1  0.1229941E-006  0.9118800E+02  0.7816164E-02  0.1184000E+00
        -11   -1    0    0    0    0  0.00000000000E+00  0.00000000000E+00  0.45593999997E+02  0.45594000000E+02  0.51100000000E-03 0.  1.
         11   -1    0    0    0    0 -0.00000000000E+00 -0.00000000000E+00 -0.45593999997E+02  0.45594000000E+02  0.51100000000E-03 0. -1.
         23    2    1    2    0    0 -0.35527136788E-14  0.00000000000E+00  0.35527136788E-14  0.91188000000E+02  0.91188000000E+02 0.  0.
    9900012    2    3    3    0    0 -0.30468521749E+02 -0.68036407781E+01  0.19523353765E+02  0.54367059115E+02  0.39999942864E+02 0.  0.
         12    1    3    3    0    0  0.30468521749E+02  0.68036407781E+01 -0.19523353765E+02  0.36820940885E+02  0.00000000000E+00 0. -1.
         11    1    4    4    0    0 -0.48654816120E+01 -0.44992194858E+01  0.98955560662E+00  0.67003811725E+01  0.51100000000E-03 0. -1.
        -11    1    4    4    0    0 -0.30099269882E+02 -0.12617799739E+02  0.13032647416E+02  0.35142919865E+02  0.51100000000E-03 0.  1.
        -12    1    4    4    0    0  0.44962297448E+01  0.10313378446E+02  0.55011507429E+01  0.12523758078E+02  0.00000000000E+00 0.  1.
</event>
<event>
 8    1  0.1229941E-006  0.9118800E+02  0.7816164E-02  0.1184000E+00
        -11   -1    0    0    0    0  0.00000000000E+00  0.00000000000E+00  0.45593999997E+02  0.45594000000E+02  0.51100000000E-03 0.  1.
         11   -1    0    0    0    0 -0.00000000000E+00 -0.00000000000E+00 -0.45593999997E+02  0.45594000000E+02  0.51100000000E-03 0. -1.
         23    2    1    2    0    0  0.00000000000E+00  0.00000000000E+00  0.00000000000E+00  0.91188000000E+02  0.91188000000E+02 0.  0.
    9900012    2    3    3    0    0 -0.20008418712E+02  0.26977813656E+02 -0.15087772003E+02  0.54367080497E+02  0.39999991609E+02 0.  0.
        -12    1    3    3    0    0  0.20008418712E+02 -0.26977813656E+02  0.15087772003E+02  0.36820919503E+02  0.00000000000E+00 0.  1.
         11    1    4    4    0    0 -0.19794737890E+01  0.41541566401E+01 -0.18804734950E+02  0.19359581366E+02  0.51100000000E-03 0. -1.
        -11    1    4    4    0    0 -0.10972543457E+02  0.23844112212E+02 -0.13154347541E+01  0.26280577732E+02  0.51100000000E-03 0.  1.
         12    1    4    4    0    0 -0.70564014668E+01 -0.10204551960E+01  0.50323977011E+01  0.87269213982E+01  0.00000000000E+00 0. -1.
</event>
<event>
 8    1  0.1229941E-006  0.9118800E+02  0.7816164E-02  0.1184000E+00
        -11   -1    0    0    0    0  0.00000000000E+00  0.00000000000E+00  0.45593999997E+02  0.45594000000E+02  0.51100000000E-03 0.  1.
         11   -1    0    0    0    0 -0.00000000000E+00 -0.00000000000E+00 -0.45593999997E+02  0.45594000000E+02  0.51100000000E-03 0. -1.
         23    2    1    2    0    0  0.00000000000E+00  0.35527136788E-14 -0.35527136788E-14  0.91188000000E+02  0.91188000000E+02 0.  0.
    9900012    2    3    3    0    0  0.17214173113E+02 -0.27892760122E+02  0.16776365283E+02  0.54367078566E+02  0.39999987206E+02 0.  0.
        -12    1    3    3    0    0 -0.17214173113E+02  0.27892760122E+02 -0.16776365283E+02  0.36820921434E+02  0.00000000000E+00 0.  1.
         11    1    4    4    0    0  0.16133344793E+02 -0.12575054681E+02  0.15539343142E+02  0.25688285267E+02  0.51100000000E-03 0. -1.
        -11    1    4    4    0    0  0.84747268106E+01  0.14466898576E+01 -0.41975395556E+01  0.95673008022E+01  0.51100000000E-03 0.  1.
         12    1    4    4    0    0 -0.73938984905E+01 -0.16764395298E+02  0.54345616971E+01  0.19111492496E+02  0.00000000000E+00 0. -1.
</event>
<event>
 8    1  0.1229941E-006  0.9118800E+02  0.7816164E-02  0.1184000E+00
        -11   -1    0    0    0    0  0.00000000000E+00  0.00000000000E+00  0.45593999997E+02  0.45594000000E+02  0.51100000000E-03 0.  1.
         11   -1    0    0    0    0 -0.00000000000E+00 -0.00000000000E+00 -0.45593999997E+02  0.45594000000E+02  0.51100000000E-03 0. -1.
         23    2    1    2    0    0 -0.17763568394E-14  0.35527136788E-14  0.35527136788E-14  0.91188000000E+02  0.91188000000E+02 0.  0.
    9900012    2    3    3    0    0  0.11407481656E+02 -0.25661064903E+02 -0.23815024066E+02  0.54367132806E+02  0.40000110857E+02 0.  0.
        -12    1    3    3    0    0 -0.11407481656E+02  0.25661064903E+02  0.23815024066E+02  0.36820867194E+02  0.00000000000E+00 0.  1.
         11    1    4    4    0    0 -0.33532425364E+01 -0.17474233532E+02 -0.93349424405E+01  0.20093138721E+02  0.51100000000E-03 0. -1.
        -11    1    4    4    0    0 -0.28742269284E+01 -0.12208114969E+02 -0.87790708321E+01  0.15309191241E+02  0.51100000000E-03 0.  1.
         12    1    4    4    0    0  0.17634951121E+02  0.40212835975E+01 -0.57010107931E+01  0.18964802843E+02  0.00000000000E+00 0. -1.
</event>
<event>
 8    1  0.1229941E-006  0.9118800E+02  0.7816164E-02  0.1184000E+00
        -11   -1    0    0    0    0  0.00000000000E+00  0.00000000000E+00  0.45593999997E+02  0.45594000000E+02  0.51100000000E-03 0. -1.
         11   -1    0    0    0    0 -0.00000000000E+00 -0.00000000000E+00 -0.45593999997E+02  0.45594000000E+02  0.51100000000E-03 0.  1.
         23    2    1    2    0    0  0.00000000000E+00  0.00000000000E+00  0.26645352591E-14  0.91188000000E+02  0.91188000000E+02 0.  0.
    9900012    2    3    3    0    0  0.31818004995E+02 -0.18507784400E+02 -0.92325071815E+00  0.54367137474E+02  0.40000121499E+02 0.  0.
         12    1    3    3    0    0 -0.31818004995E+02  0.18507784400E+02  0.92325071815E+00  0.36820862526E+02  0.00000000000E+00 0. -1.
         11    1    4    4    0    0  0.97786404170E+01 -0.81251507653E+01  0.17968564576E+02  0.22011569607E+02  0.51100000000E-03 0. -1.
        -11    1    4    4    0    0  0.96904655882E+01 -0.65049250961E+01 -0.14658589131E+02  0.18737486742E+02  0.51100000000E-03 0.  1.
         12    1    4    4    0    0  0.12348898990E+02 -0.38777085386E+01 -0.42332261630E+01  0.13618081125E+02  0.00000000000E+00 0. -1.
</event>
<event>
 8    1  0.1229941E-006  0.9118800E+02  0.7816164E-02  0.1184000E+00
        -11   -1    0    0    0    0  0.00000000000E+00  0.00000000000E+00  0.45593999997E+02  0.45594000000E+02  0.51100000000E-03 0.  1.
         11   -1    0    0    0    0 -0.00000000000E+00 -0.00000000000E+00 -0.45593999997E+02  0.45594000000E+02  0.51100000000E-03 0. -1.
         23    2    1    2    0    0  0.00000000000E+00  0.00000000000E+00  0.35527136788E-14  0.91188000000E+02  0.91188000000E+02 0.  0.
    9900012    2    3    3    0    0 -0.14452796317E+02 -0.20071729290E+02 -0.27276780345E+02  0.54367076817E+02  0.39999983219E+02 0.  0.
        -12    1    3    3    0    0  0.14452796317E+02  0.20071729290E+02  0.27276780345E+02  0.36820923183E+02  0.00000000000E+00 0.  1.
         11    1    4    4    0    0  0.10124168960E+01 -0.13170979267E+02  0.56574795872E+01  0.14370343015E+02  0.51100000000E-03 0. -1.
        -11    1    4    4    0    0 -0.16467727356E+01 -0.70503819394E+01 -0.49027924115E+01  0.87439761908E+01  0.51100000000E-03 0.  1.
        -12    1    4    4    0    0 -0.13818440477E+02  0.14963191625E+00 -0.28031467521E+02  0.31252757611E+02  0.00000000000E+00 0.  1.
</event>
<event>
 8    1  0.1229941E-006  0.9118800E+02  0.7816164E-02  0.1184000E+00
        -11   -1    0    0    0    0  0.00000000000E+00  0.00000000000E+00  0.45593999997E+02  0.45594000000E+02  0.51100000000E-03 0.  1.
         11   -1    0    0    0    0 -0.00000000000E+00 -0.00000000000E+00 -0.45593999997E+02  0.45594000000E+02  0.51100000000E-03 0. -1.
         23    2    1    2    0    0  0.00000000000E+00 -0.44408920985E-15  0.35527136788E-14  0.91188000000E+02  0.91188000000E+02 0.  0.
    9900012    2    3    3    0    0  0.29341183570E+02  0.32549377173E+01 -0.22006334381E+02  0.54367103410E+02  0.40000043844E+02 0.  0.
        -12    1    3    3    0    0 -0.29341183570E+02 -0.32549377173E+01  0.22006334381E+02  0.36820896590E+02  0.00000000000E+00 0.  1.
         11    1    4    4    0    0  0.14868399905E+02 -0.11208537323E+01 -0.71485430821E+01  0.16535637190E+02  0.51100000000E-03 0. -1.
        -11    1    4    4    0    0  0.28646372171E+01 -0.15781515589E+01 -0.22483553856E+02  0.22720187125E+02  0.51100000000E-03 0.  1.
        -12    1    4    4    0    0  0.11608146448E+02  0.59539430085E+01  0.76257625576E+01  0.15111279095E+02  0.00000000000E+00 0.  1.
</event>
<event>
 8    1  0.1229941E-006  0.9118800E+02  0.7816164E-02  0.1184000E+00
        -11   -1    0    0    0    0  0.00000000000E+00  0.00000000000E+00  0.45593999997E+02  0.45594000000E+02  0.51100000000E-03 0. -1.
         11   -1    0    0    0    0 -0.00000000000E+00 -0.00000000000E+00 -0.45593999997E+02  0.45594000000E+02  0.51100000000E-03 0.  1.
         23    2    1    2    0    0 -0.88817841970E-15  0.00000000000E+00  0.35527136788E-14  0.91188000000E+02  0.91188000000E+02 0.  0.
    9900012    2    3    3    0    0 -0.70210283674E+01  0.28390321473E+02  0.22371269439E+02  0.54367097118E+02  0.40000029501E+02 0.  0.
        -12    1    3    3    0    0  0.70210283674E+01 -0.28390321473E+02 -0.22371269439E+02  0.36820902882E+02  0.00000000000E+00 0.  1.
         11    1    4    4    0    0  0.45031745284E+01  0.14987428949E+02 -0.91316949426E-01  0.15649598921E+02  0.51100000000E-03 0. -1.
        -11    1    4    4    0    0  0.62673177904E+01  0.95528901588E+01  0.24888209924E+01  0.11693212256E+02  0.51100000000E-03 0.  1.
        -12    1    4    4    0    0 -0.17791520686E+02  0.38500023656E+01  0.19973765396E+02  0.27024285941E+02  0.00000000000E+00 0.  1.
</event>
<event>
 8    1  0.1229941E-006  0.9118800E+02  0.7816164E-02  0.1184000E+00
        -11   -1    0    0    0    0  0.00000000000E+00  0.00000000000E+00  0.45593999997E+02  0.45594000000E+02  0.51100000000E-03 0.  1.
         11   -1    0    0    0    0 -0.00000000000E+00 -0.00000000000E+00 -0.45593999997E+02  0.45594000000E+02  0.51100000000E-03 0. -1.
         23    2    1    2    0    0 -0.17763568394E-14  0.00000000000E+00  0.71054273576E-14  0.91188000000E+02  0.91188000000E+02 0.  0.
    9900012    2    3    3    0    0  0.12595054452E+02 -0.12894281415E+02 -0.32107345792E+02  0.54367088229E+02  0.40000009235E+02 0.  0.
        -12    1    3    3    0    0 -0.12595054452E+02  0.12894281415E+02  0.32107345792E+02  0.36820911771E+02  0.00000000000E+00 0.  1.
         11    1    4    4    0    0  0.71028405166E+01 -0.36883833426E+01 -0.18709434389E+02  0.20349384524E+02  0.51100000000E-03 0. -1.
        -11    1    4    4    0    0 -0.10411035517E+02 -0.66232732931E+01 -0.12967886978E+02  0.17900377163E+02  0.51100000000E-03 0.  1.
        -12    1    4    4    0    0  0.15903249452E+02 -0.25826247792E+01 -0.43002442620E+00  0.16117326542E+02  0.00000000000E+00 0.  1.
</event>
<event>
 8    1  0.1229941E-006  0.9118800E+02  0.7816164E-02  0.1184000E+00
        -11   -1    0    0    0    0  0.00000000000E+00  0.00000000000E+00  0.45593999997E+02  0.45594000000E+02  0.51100000000E-03 0.  1.
         11   -1    0    0    0    0 -0.00000000000E+00 -0.00000000000E+00 -0.45593999997E+02  0.45594000000E+02  0.51100000000E-03 0. -1.
         23    2    1    2    0    0  0.00000000000E+00 -0.35527136788E-14  0.00000000000E+00  0.91188000000E+02  0.91188000000E+02 0.  0.
    9900012    2    3    3    0    0 -0.22736813535E+02  0.23777737256E+02  0.16536032546E+02  0.54367029737E+02  0.39999875891E+02 0.  0.
         12    1    3    3    0    0  0.22736813535E+02 -0.23777737256E+02 -0.16536032546E+02  0.36820970263E+02  0.00000000000E+00 0. -1.
         11    1    4    4    0    0 -0.25370119099E+01 -0.24297107475E+01 -0.10538399547E+02  0.11108455744E+02  0.51100000000E-03 0. -1.
        -11    1    4    4    0    0 -0.13110327965E+02  0.12182362587E+02  0.16277731716E+02  0.24192048438E+02  0.51100000000E-03 0.  1.
         12    1    4    4    0    0 -0.70894736601E+01  0.14025085416E+02  0.10796700377E+02  0.19066525555E+02  0.00000000000E+00 0. -1.
</event>
<event>
 8    1  0.1229941E-006  0.9118800E+02  0.7816164E-02  0.1184000E+00
        -11   -1    0    0    0    0  0.00000000000E+00  0.00000000000E+00  0.45593999997E+02  0.45594000000E+02  0.51100000000E-03 0.  1.
         11   -1    0    0    0    0 -0.00000000000E+00 -0.00000000000E+00 -0.45593999997E+02  0.45594000000E+02  0.51100000000E-03 0. -1.
         23    2    1    2    0    0  0.00000000000E+00  0.00000000000E+00  0.00000000000E+00  0.91188000000E+02  0.91188000000E+02 0.  0.
    9900012    2    3    3    0    0 -0.58851270158E+01 -0.10270035054E+02 -0.34866448184E+02  0.54367115315E+02  0.40000070983E+02 0.  0.
        -12    1    3    3    0    0  0.58851270158E+01  0.10270035054E+02  0.34866448184E+02  0.36820884685E+02  0.00000000000E+00 0.  1.
         11    1    4    4    0    0 -0.88879848051E+01 -0.18230459025E+02 -0.31212277154E+02  0.37223005730E+02  0.51100000000E-03 0. -1.
        -11    1    4    4    0    0 -0.92418204227E+00  0.45971717001E+01  0.51306571456E+01  0.69506649390E+01  0.51100000000E-03 0.  1.
        -12    1    4    4    0    0  0.39270398316E+01  0.33632522709E+01 -0.87848281758E+01  0.10193444646E+02  0.00000000000E+00 0.  1.
</event>
<event>
 8    1  0.1229941E-006  0.9118800E+02  0.7816164E-02  0.1184000E+00
        -11   -1    0    0    0    0  0.00000000000E+00  0.00000000000E+00  0.45593999997E+02  0.45594000000E+02  0.51100000000E-03 0.  1.
         11   -1    0    0    0    0 -0.00000000000E+00 -0.00000000000E+00 -0.45593999997E+02  0.45594000000E+02  0.51100000000E-03 0. -1.
         23    2    1    2    0    0  0.17763568394E-14  0.35527136788E-14  0.00000000000E+00  0.91188000000E+02  0.91188000000E+02 0.  0.
    9900012    2    3    3    0    0  0.15286444400E+02  0.15674128571E+02  0.29604498667E+02  0.54367081622E+02  0.39999994173E+02 0.  0.
         12    1    3    3    0    0 -0.15286444400E+02 -0.15674128571E+02 -0.29604498667E+02  0.36820918378E+02  0.00000000000E+00 0. -1.
         11    1    4    4    0    0 -0.20640141300E+01 -0.20551277950E+01 -0.37640127604E+01  0.47593588754E+01  0.51100000000E-03 0. -1.
        -11    1    4    4    0    0  0.67522819231E+01 -0.55502340902E+01  0.17350354331E+02  0.19427640240E+02  0.51100000000E-03 0.  1.
        -12    1    4    4    0    0  0.10598176607E+02  0.23279490457E+02  0.16018157097E+02  0.30180082506E+02  0.00000000000E+00 0.  1.
</event>
<event>
 8    1  0.1229941E-006  0.9118800E+02  0.7816164E-02  0.1184000E+00
        -11   -1    0    0    0    0  0.00000000000E+00  0.00000000000E+00  0.45593999997E+02  0.45594000000E+02  0.51100000000E-03 0.  1.
         11   -1    0    0    0    0 -0.00000000000E+00 -0.00000000000E+00 -0.45593999997E+02  0.45594000000E+02  0.51100000000E-03 0. -1.
         23    2    1    2    0    0  0.00000000000E+00  0.00000000000E+00  0.00000000000E+00  0.91188000000E+02  0.91188000000E+02 0.  0.
    9900012    2    3    3    0    0 -0.58683593522E+01 -0.23541258564E+02  0.27697570996E+02  0.54367028594E+02  0.39999873285E+02 0.  0.
         12    1    3    3    0    0  0.58683593522E+01  0.23541258564E+02 -0.27697570996E+02  0.36820971406E+02  0.00000000000E+00 0. -1.
         11    1    4    4    0    0  0.57484292643E+01  0.68195464560E+00  0.20173541658E+01  0.61301891681E+01  0.51100000000E-03 0. -1.
        -11    1    4    4    0    0 -0.46676675951E+01 -0.10269172377E+02  0.30008403202E+02  0.32058497861E+02  0.51100000000E-03 0.  1.
        -12    1    4    4    0    0 -0.69491210215E+01 -0.13954040832E+02 -0.43281863722E+01  0.16178341565E+02  0.00000000000E+00 0.  1.
</event>
<event>
 8    1  0.1229941E-006  0.9118800E+02  0.7816164E-02  0.1184000E+00
        -11   -1    0    0    0    0  0.00000000000E+00  0.00000000000E+00  0.45593999997E+02  0.45594000000E+02  0.51100000000E-03 0.  1.
         11   -1    0    0    0    0 -0.00000000000E+00 -0.00000000000E+00 -0.45593999997E+02  0.45594000000E+02  0.51100000000E-03 0. -1.
         23    2    1    2    0    0 -0.17763568394E-14  0.88817841970E-15  0.71054273576E-14  0.91188000000E+02  0.91188000000E+02 0.  0.
    9900012    2    3    3    0    0 -0.15019285589E+02  0.72625839323E+01  0.32824625860E+02  0.54367080297E+02  0.39999991153E+02 0.  0.
         12    1    3    3    0    0  0.15019285589E+02 -0.72625839323E+01 -0.32824625860E+02  0.36820919703E+02  0.00000000000E+00 0. -1.
         11    1    4    4    0    0  0.18899100475E+01  0.29973597693E+01 -0.86447553348E+01  0.93427897672E+01  0.51100000000E-03 0. -1.
        -11    1    4    4    0    0 -0.95501264484E+01  0.16419589359E+01  0.24305227928E+02  0.26165722792E+02  0.51100000000E-03 0.  1.
         12    1    4    4    0    0 -0.73590691881E+01  0.26232652270E+01  0.17164153266E+02  0.18858567738E+02  0.00000000000E+00 0. -1.
</event>
<event>
 8    1  0.1229941E-006  0.9118800E+02  0.7816164E-02  0.1184000E+00
        -11   -1    0    0    0    0  0.00000000000E+00  0.00000000000E+00  0.45593999997E+02  0.45594000000E+02  0.51100000000E-03 0.  1.
         11   -1    0    0    0    0 -0.00000000000E+00 -0.00000000000E+00 -0.45593999997E+02  0.45594000000E+02  0.51100000000E-03 0. -1.
         23    2    1    2    0    0  0.00000000000E+00 -0.71054273576E-14 -0.44408920985E-15  0.91188000000E+02  0.91188000000E+02 0.  0.
    9900012    2    3    3    0    0 -0.50987134553E+01 -0.36312266627E+02 -0.33470217761E+01  0.54367080114E+02  0.39999990736E+02 0.  0.
         12    1    3    3    0    0  0.50987134553E+01  0.36312266627E+02  0.33470217761E+01  0.36820919886E+02  0.00000000000E+00 0. -1.
         11    1    4    4    0    0 -0.90321653295E+01 -0.21266917610E+02 -0.46351003240E+01  0.23565779224E+02  0.51100000000E-03 0.  1.
        -11    1    4    4    0    0 -0.46030310103E+01  0.41412935057E+01  0.66921046078E+01  0.91171525558E+01  0.51100000000E-03 0. -1.
        -12    1    4    4    0    0  0.85364828844E+01 -0.19186642522E+02 -0.54040260599E+01  0.21684148334E+02  0.00000000000E+00 0.  1.
</event>
<event>
 8    1  0.1229941E-006  0.9118800E+02  0.7816164E-02  0.1184000E+00
        -11   -1    0    0    0    0  0.00000000000E+00  0.00000000000E+00  0.45593999997E+02  0.45594000000E+02  0.51100000000E-03 0. -1.
         11   -1    0    0    0    0 -0.00000000000E+00 -0.00000000000E+00 -0.45593999997E+02  0.45594000000E+02  0.51100000000E-03 0.  1.
         23    2    1    2    0    0  0.00000000000E+00  0.00000000000E+00  0.00000000000E+00  0.91188000000E+02  0.91188000000E+02 0.  0.
    9900012    2    3    3    0    0 -0.24373334810E+02 -0.19387402204E+02 -0.19643058902E+02  0.54367074197E+02  0.39999977247E+02 0.  0.
         12    1    3    3    0    0  0.24373334810E+02  0.19387402204E+02  0.19643058902E+02  0.36820925803E+02  0.00000000000E+00 0. -1.
         11    1    4    4    0    0 -0.88432171386E+01  0.64742280079E-01 -0.13484472840E+02  0.16125684139E+02  0.51100000000E-03 0. -1.
        -11    1    4    4    0    0  0.48753841909E+00 -0.16292064042E+02 -0.12690159440E+02  0.20656940512E+02  0.51100000000E-03 0.  1.
         12    1    4    4    0    0 -0.16017656090E+02 -0.31600804422E+01  0.65315733777E+01  0.17584449546E+02  0.00000000000E+00 0. -1.
</event>
<event>
 8    1  0.1229941E-006  0.9118800E+02  0.7816164E-02  0.1184000E+00
        -11   -1    0    0    0    0  0.00000000000E+00  0.00000000000E+00  0.45593999997E+02  0.45594000000E+02  0.51100000000E-03 0. -1.
         11   -1    0    0    0    0 -0.00000000000E+00 -0.00000000000E+00 -0.45593999997E+02  0.45594000000E+02  0.51100000000E-03 0.  1.
         23    2    1    2    0    0  0.00000000000E+00  0.00000000000E+00  0.00000000000E+00  0.91188000000E+02  0.91188000000E+02 0.  0.
    9900012    2    3    3    0    0  0.17312906550E+02  0.14701893481E+02 -0.28980955767E+02  0.54367106444E+02  0.40000050760E+02 0.  0.
         12    1    3    3    0    0 -0.17312906550E+02 -0.14701893481E+02  0.28980955767E+02  0.36820893556E+02  0.00000000000E+00 0. -1.
         11    1    4    4    0    0  0.14348786972E+02  0.12803604141E+02 -0.81920740882E+01  0.20902871685E+02  0.51100000000E-03 0. -1.
        -11    1    4    4    0    0  0.65878819733E+01 -0.70748993333E+01 -0.21688300222E+02  0.23745247025E+02  0.51100000000E-03 0.  1.
        -12    1    4    4    0    0 -0.36237623951E+01  0.89731886727E+01  0.89941854390E+00  0.97189877338E+01  0.00000000000E+00 0.  1.
</event>
<event>
 8    1  0.1229941E-006  0.9118800E+02  0.7816164E-02  0.1184000E+00
        -11   -1    0    0    0    0  0.00000000000E+00  0.00000000000E+00  0.45593999997E+02  0.45594000000E+02  0.51100000000E-03 0. -1.
         11   -1    0    0    0    0 -0.00000000000E+00 -0.00000000000E+00 -0.45593999997E+02  0.45594000000E+02  0.51100000000E-03 0.  1.
         23    2    1    2    0    0 -0.17763568394E-14  0.71054273576E-14  0.00000000000E+00  0.91188000000E+02  0.91188000000E+02 0.  0.
    9900012    2    3    3    0    0 -0.53928649522E+01 -0.34242186106E+02  0.12416555615E+02  0.54367066348E+02  0.39999959353E+02 0.  0.
        -12    1    3    3    0    0  0.53928649522E+01  0.34242186106E+02 -0.12416555615E+02  0.36820933652E+02  0.00000000000E+00 0.  1.
         11    1    4    4    0    0  0.14043065547E+02 -0.14260897552E+02 -0.18385814971E+01  0.20098787802E+02  0.51100000000E-03 0. -1.
        -11    1    4    4    0    0 -0.59770711023E+01 -0.14952467482E+02  0.11100986737E+02  0.19558465419E+02  0.51100000000E-03 0.  1.
         12    1    4    4    0    0 -0.13458859396E+02 -0.50288210725E+01  0.31541503746E+01  0.14709813126E+02  0.00000000000E+00 0. -1.
</event>
<event>
 8    1  0.1229941E-006  0.9118800E+02  0.7816164E-02  0.1184000E+00
        -11   -1    0    0    0    0  0.00000000000E+00  0.00000000000E+00  0.45593999997E+02  0.45594000000E+02  0.51100000000E-03 0.  1.
         11   -1    0    0    0    0 -0.00000000000E+00 -0.00000000000E+00 -0.45593999997E+02  0.45594000000E+02  0.51100000000E-03 0. -1.
         23    2    1    2    0    0  0.66613381478E-15 -0.17763568394E-14  0.00000000000E+00  0.91188000000E+02  0.91188000000E+02 0.  0.
    9900012    2    3    3    0    0  0.13927687957E+01 -0.12195070224E+02 -0.34714793750E+02  0.54367130269E+02  0.40000105073E+02 0.  0.
        -12    1    3    3    0    0 -0.13927687957E+01  0.12195070224E+02  0.34714793750E+02  0.36820869731E+02  0.00000000000E+00 0.  1.
         11    1    4    4    0    0 -0.43631162742E+01  0.48444743380E+01  0.11775853921E+01  0.66251356854E+01  0.51100000000E-03 0. -1.
        -11    1    4    4    0    0  0.54174939561E+01 -0.24250025173E+01  0.26650959209E+01  0.65063518582E+01  0.51100000000E-03 0.  1.
         12    1    4    4    0    0  0.33839111369E+00 -0.14614542044E+02 -0.38557475063E+02  0.41235642725E+02  0.00000000000E+00 0. -1.
</event>
<event>
 8    1  0.1229941E-006  0.9118800E+02  0.7816164E-02  0.1184000E+00
        -11   -1    0    0    0    0  0.00000000000E+00  0.00000000000E+00  0.45593999997E+02  0.45594000000E+02  0.51100000000E-03 0.  1.
         11   -1    0    0    0    0 -0.00000000000E+00 -0.00000000000E+00 -0.45593999997E+02  0.45594000000E+02  0.51100000000E-03 0. -1.
         23    2    1    2    0    0 -0.17763568394E-14  0.17763568394E-14  0.00000000000E+00  0.91188000000E+02  0.91188000000E+02 0.  0.
    9900012    2    3    3    0    0 -0.16097442971E+01  0.13072042111E+02 -0.34384776070E+02  0.54367049618E+02  0.39999921214E+02 0.  0.
        -12    1    3    3    0    0  0.16097442971E+01 -0.13072042111E+02  0.34384776070E+02  0.36820950382E+02  0.00000000000E+00 0.  1.
         11    1    4    4    0    0 -0.82933864463E+01  0.71650972545E+01 -0.20619788824E+02  0.23351543179E+02  0.51100000000E-03 0. -1.
        -11    1    4    4    0    0  0.68759635679E+01  0.12191853096E+02  0.19095543537E+01  0.14126802716E+02  0.51100000000E-03 0.  1.
         12    1    4    4    0    0 -0.19232141872E+00 -0.62849082389E+01 -0.15674541599E+02  0.16888703723E+02  0.00000000000E+00 0. -1.
</event>
<event>
 8    1  0.1229941E-006  0.9118800E+02  0.7816164E-02  0.1184000E+00
        -11   -1    0    0    0    0  0.00000000000E+00  0.00000000000E+00  0.45593999997E+02  0.45594000000E+02  0.51100000000E-03 0. -1.
         11   -1    0    0    0    0 -0.00000000000E+00 -0.00000000000E+00 -0.45593999997E+02  0.45594000000E+02  0.51100000000E-03 0.  1.
         23    2    1    2    0    0 -0.17763568394E-14  0.00000000000E+00  0.00000000000E+00  0.91188000000E+02  0.91188000000E+02 0.  0.
    9900012    2    3    3    0    0 -0.11786492360E+02  0.70679537619E+01  0.34159990269E+02  0.54367050696E+02  0.39999923671E+02 0.  0.
        -12    1    3    3    0    0  0.11786492360E+02 -0.70679537619E+01 -0.34159990269E+02  0.36820949304E+02  0.00000000000E+00 0.  1.
         11    1    4    4    0    0  0.13315113684E+01 -0.57307914155E+00  0.17809595112E+02  0.17868492397E+02  0.51100000000E-03 0. -1.
        -11    1    4    4    0    0 -0.79738865921E+01  0.13394732850E+02 -0.28121555052E+01  0.15840137448E+02  0.51100000000E-03 0.  1.
        -12    1    4    4    0    0 -0.51441171362E+01 -0.57536999470E+01  0.19162550662E+02  0.20658420851E+02  0.00000000000E+00 0.  1.
</event>
<event>
 8    1  0.1229941E-006  0.9118800E+02  0.7816164E-02  0.1184000E+00
        -11   -1    0    0    0    0  0.00000000000E+00  0.00000000000E+00  0.45593999997E+02  0.45594000000E+02  0.51100000000E-03 0.  1.
         11   -1    0    0    0    0 -0.00000000000E+00 -0.00000000000E+00 -0.45593999997E+02  0.45594000000E+02  0.51100000000E-03 0. -1.
         23    2    1    2    0    0  0.35527136788E-14 -0.88817841970E-15  0.00000000000E+00  0.91188000000E+02  0.91188000000E+02 0.  0.
    9900012    2    3    3    0    0 -0.17173893220E+02 -0.58701894272E+01 -0.32037154269E+02  0.54367068644E+02  0.39999964589E+02 0.  0.
        -12    1    3    3    0    0  0.17173893220E+02  0.58701894272E+01  0.32037154269E+02  0.36820931356E+02  0.00000000000E+00 0.  1.
         11    1    4    4    0    0  0.71970133764E+00 -0.45127480961E+01 -0.13523963669E+02  0.14275169315E+02  0.51100000000E-03 0. -1.
        -11    1    4    4    0    0 -0.17619087237E+02 -0.13933295556E+02 -0.15072865891E+02  0.27051067383E+02  0.51100000000E-03 0.  1.
        -12    1    4    4    0    0 -0.27450731987E+00  0.12575854225E+02 -0.34403247089E+01  0.13040831946E+02  0.00000000000E+00 0.  1.
</event>
<event>
 8    1  0.1229941E-006  0.9118800E+02  0.7816164E-02  0.1184000E+00
        -11   -1    0    0    0    0  0.00000000000E+00  0.00000000000E+00  0.45593999997E+02  0.45594000000E+02  0.51100000000E-03 0. -1.
         11   -1    0    0    0    0 -0.00000000000E+00 -0.00000000000E+00 -0.45593999997E+02  0.45594000000E+02  0.51100000000E-03 0.  1.
         23    2    1    2    0    0 -0.17763568394E-14  0.88817841970E-15  0.71054273576E-14  0.91188000000E+02  0.91188000000E+02 0.  0.
    9900012    2    3    3    0    0 -0.14783143459E+02  0.32372032738E+01  0.33567276791E+02  0.54367042833E+02  0.39999905745E+02 0.  0.
        -12    1    3    3    0    0  0.14783143459E+02 -0.32372032738E+01 -0.33567276791E+02  0.36820957167E+02  0.00000000000E+00 0.  1.
         11    1    4    4    0    0 -0.44367575291E+01  0.82792037962E+01  0.18645036254E+01  0.95763462187E+01  0.51100000000E-03 0. -1.
        -11    1    4    4    0    0  0.37051793540E+01 -0.16480238677E+01  0.29956771277E+02  0.30229993092E+02  0.51100000000E-03 0.  1.
         12    1    4    4    0    0 -0.14051565284E+02 -0.33939766547E+01  0.17460018881E+01  0.14560703522E+02  0.00000000000E+00 0. -1.
</event>
<event>
 8    1  0.1229941E-006  0.9118800E+02  0.7816164E-02  0.1184000E+00
        -11   -1    0    0    0    0  0.00000000000E+00  0.00000000000E+00  0.45593999997E+02  0.45594000000E+02  0.51100000000E-03 0. -1.
         11   -1    0    0    0    0 -0.00000000000E+00 -0.00000000000E+00 -0.45593999997E+02  0.45594000000E+02  0.51100000000E-03 0.  1.
         23    2    1    2    0    0 -0.35527136788E-14 -0.17763568394E-14  0.17763568394E-14  0.91188000000E+02  0.91188000000E+02 0.  0.
    9900012    2    3    3    0    0 -0.31061347461E+02  0.14826128059E+02  0.13082804199E+02  0.54367066484E+02  0.39999959663E+02 0.  0.
        -12    1    3    3    0    0  0.31061347461E+02 -0.14826128059E+02 -0.13082804199E+02  0.36820933516E+02  0.00000000000E+00 0.  1.
         11    1    4    4    0    0  0.12219015575E+01 -0.77288626777E+01 -0.31897320085E+01  0.84500149262E+01  0.51100000000E-03 0. -1.
        -11    1    4    4    0    0  0.11447981924E+01  0.28653814553E+01 -0.12733579609E+01  0.33380255456E+01  0.51100000000E-03 0.  1.
         12    1    4    4    0    0 -0.33428047211E+02  0.19689609281E+02  0.17545894168E+02  0.42579026012E+02  0.00000000000E+00 0. -1.
</event>
<event>
 8    1  0.1229941E-006  0.9118800E+02  0.7816164E-02  0.1184000E+00
        -11   -1    0    0    0    0  0.00000000000E+00  0.00000000000E+00  0.45593999997E+02  0.45594000000E+02  0.51100000000E-03 0.  1.
         11   -1    0    0    0    0 -0.00000000000E+00 -0.00000000000E+00 -0.45593999997E+02  0.45594000000E+02  0.51100000000E-03 0. -1.
         23    2    1    2    0    0  0.00000000000E+00 -0.44408920985E-15  0.00000000000E+00  0.91188000000E+02  0.91188000000E+02 0.  0.
    9900012    2    3    3    0    0 -0.76044922222E+01  0.16028641380E+01 -0.35991429437E+02  0.54367075673E+02  0.39999980611E+02 0.  0.
        -12    1    3    3    0    0  0.76044922222E+01 -0.16028641380E+01  0.35991429437E+02  0.36820924327E+02  0.00000000000E+00 0.  1.
         11    1    4    4    0    0 -0.85358749312E+01  0.12435573568E+02 -0.10232975479E+02  0.18226860350E+02  0.51100000000E-03 0. -1.
        -11    1    4    4    0    0 -0.82564097726E+00 -0.15872059572E+02 -0.26348438653E+02  0.30770833232E+02  0.51100000000E-03 0.  1.
        -12    1    4    4    0    0  0.17570236863E+01  0.50393501418E+01  0.58998469544E+00  0.53693820898E+01  0.00000000000E+00 0.  1.
</event>
<event>
 8    1  0.1229941E-006  0.9118800E+02  0.7816164E-02  0.1184000E+00
        -11   -1    0    0    0    0  0.00000000000E+00  0.00000000000E+00  0.45593999997E+02  0.45594000000E+02  0.51100000000E-03 0. -1.
         11   -1    0    0    0    0 -0.00000000000E+00 -0.00000000000E+00 -0.45593999997E+02  0.45594000000E+02  0.51100000000E-03 0.  1.
         23    2    1    2    0    0  0.00000000000E+00  0.00000000000E+00  0.17763568394E-14  0.91188000000E+02  0.91188000000E+02 0.  0.
    9900012    2    3    3    0    0  0.81175016175E+01  0.35746487483E+02  0.34749677632E+01  0.54367073873E+02  0.39999976508E+02 0.  0.
         12    1    3    3    0    0 -0.81175016175E+01 -0.35746487483E+02 -0.34749677632E+01  0.36820926127E+02  0.00000000000E+00 0. -1.
         11    1    4    4    0    0  0.94480940174E+00  0.31282106072E+01  0.50984419089E+01  0.60557804260E+01  0.51100000000E-03 0. -1.
        -11    1    4    4    0    0  0.64916553340E+01  0.26267762505E+02  0.14692538245E+02  0.30789732320E+02  0.51100000000E-03 0.  1.
        -12    1    4    4    0    0  0.68103688177E+00  0.63505143706E+01 -0.16316012390E+02  0.17521561127E+02  0.00000000000E+00 0.  1.
</event>
<event>
 8    1  0.1229941E-006  0.9118800E+02  0.7816164E-02  0.1184000E+00
        -11   -1    0    0    0    0  0.00000000000E+00  0.00000000000E+00  0.45593999997E+02  0.45594000000E+02  0.51100000000E-03 0. -1.
         11   -1    0    0    0    0 -0.00000000000E+00 -0.00000000000E+00 -0.45593999997E+02  0.45594000000E+02  0.51100000000E-03 0.  1.
         23    2    1    2    0    0 -0.35527136788E-14  0.00000000000E+00 -0.22204460493E-15  0.91188000000E+02  0.91188000000E+02 0.  0.
    9900012    2    3    3    0    0  0.18890735501E+02  0.31550314032E+02  0.18702935178E+01  0.54367079300E+02  0.39999988881E+02 0.  0.
        -12    1    3    3    0    0 -0.18890735501E+02 -0.31550314032E+02 -0.18702935178E+01  0.36820920700E+02  0.00000000000E+00 0.  1.
         11    1    4    4    0    0 -0.76707529896E+01  0.21242129106E+02  0.90659005325E+00  0.22602884908E+02  0.51100000000E-03 0. -1.
        -11    1    4    4    0    0  0.13781438530E+02  0.25754288332E+01 -0.60408241214E+01  0.15266055088E+02  0.51100000000E-03 0.  1.
         12    1    4    4    0    0  0.12780049961E+02  0.77327560934E+01  0.70045275860E+01  0.16498139304E+02  0.00000000000E+00 0. -1.
</event>
<event>
 8    1  0.1229941E-006  0.9118800E+02  0.7816164E-02  0.1184000E+00
        -11   -1    0    0    0    0  0.00000000000E+00  0.00000000000E+00  0.45593999997E+02  0.45594000000E+02  0.51100000000E-03 0.  1.
         11   -1    0    0    0    0 -0.00000000000E+00 -0.00000000000E+00 -0.45593999997E+02  0.45594000000E+02  0.51100000000E-03 0. -1.
         23    2    1    2    0    0  0.00000000000E+00  0.41633363423E-16 -0.35527136788E-14  0.91188000000E+02  0.91188000000E+02 0.  0.
    9900012    2    3    3    0    0  0.30907231542E+02  0.10380239606E+00 -0.20012972258E+02  0.54366989760E+02  0.39999784755E+02 0.  0.
        -12    1    3    3    0    0 -0.30907231542E+02 -0.10380239606E+00  0.20012972258E+02  0.36821010240E+02  0.00000000000E+00 0.  1.
         11    1    4    4    0    0  0.19677388279E+02  0.11193999855E+02 -0.13580499598E+02  0.26399530522E+02  0.51100000000E-03 0. -1.
        -11    1    4    4    0    0  0.24570685128E+01 -0.34080292145E+01  0.82258177177E+01  0.92366620697E+01  0.51100000000E-03 0.  1.
        -12    1    4    4    0    0  0.87727747505E+01 -0.76821682439E+01 -0.14658290377E+02  0.18730797168E+02  0.00000000000E+00 0.  1.
</event>
<event>
 8    1  0.1229941E-006  0.9118800E+02  0.7816164E-02  0.1184000E+00
        -11   -1    0    0    0    0  0.00000000000E+00  0.00000000000E+00  0.45593999997E+02  0.45594000000E+02  0.51100000000E-03 0.  1.
         11   -1    0    0    0    0 -0.00000000000E+00 -0.00000000000E+00 -0.45593999997E+02  0.45594000000E+02  0.51100000000E-03 0. -1.
         23    2    1    2    0    0 -0.44408920985E-15  0.00000000000E+00 -0.17763568394E-14  0.91188000000E+02  0.91188000000E+02 0.  0.
    9900012    2    3    3    0    0  0.30471698169E+01  0.34247736198E+02 -0.13175240289E+02  0.54367086985E+02  0.40000006400E+02 0.  0.
        -12    1    3    3    0    0 -0.30471698169E+01 -0.34247736198E+02  0.13175240289E+02  0.36820913015E+02  0.00000000000E+00 0.  1.
         11    1    4    4    0    0 -0.70752962145E+01  0.79904804117E+01 -0.98895766403E+01  0.14550303094E+02  0.51100000000E-03 0. -1.
        -11    1    4    4    0    0  0.21079830243E+01  0.24627454762E+02  0.79097445408E+01  0.25952248062E+02  0.51100000000E-03 0.  1.
         12    1    4    4    0    0  0.80144830070E+01  0.16298010241E+01 -0.11195408189E+02  0.13864535830E+02  0.00000000000E+00 0. -1.
</event>
<event>
 8    1  0.1229941E-006  0.9118800E+02  0.7816164E-02  0.1184000E+00
        -11   -1    0    0    0    0  0.00000000000E+00  0.00000000000E+00  0.45593999997E+02  0.45594000000E+02  0.51100000000E-03 0. -1.
         11   -1    0    0    0    0 -0.00000000000E+00 -0.00000000000E+00 -0.45593999997E+02  0.45594000000E+02  0.51100000000E-03 0.  1.
         23    2    1    2    0    0 -0.35527136788E-14  0.17763568394E-14 -0.35527136788E-14  0.91188000000E+02  0.91188000000E+02 0.  0.
    9900012    2    3    3    0    0  0.30329004125E+02  0.46216970357E+01  0.20361048286E+02  0.54367070326E+02  0.39999968423E+02 0.  0.
        -12    1    3    3    0    0 -0.30329004125E+02 -0.46216970357E+01 -0.20361048286E+02  0.36820929674E+02  0.00000000000E+00 0.  1.
         11    1    4    4    0    0  0.12517088528E+02 -0.12456712450E+02  0.11922158786E+02  0.21306925181E+02  0.51100000000E-03 0. -1.
        -11    1    4    4    0    0  0.94779772953E+01  0.11321173539E+01 -0.48358375999E+01  0.10700423770E+02  0.51100000000E-03 0.  1.
         12    1    4    4    0    0  0.83339383018E+01  0.15946292132E+02  0.13274727100E+02  0.22359721375E+02  0.00000000000E+00 0. -1.
</event>
<event>
 8    1  0.1229941E-006  0.9118800E+02  0.7816164E-02  0.1184000E+00
        -11   -1    0    0    0    0  0.00000000000E+00  0.00000000000E+00  0.45593999997E+02  0.45594000000E+02  0.51100000000E-03 0. -1.
         11   -1    0    0    0    0 -0.00000000000E+00 -0.00000000000E+00 -0.45593999997E+02  0.45594000000E+02  0.51100000000E-03 0.  1.
         23    2    1    2    0    0  0.35527136788E-14 -0.35527136788E-14  0.00000000000E+00  0.91188000000E+02  0.91188000000E+02 0.  0.
    9900012    2    3    3    0    0  0.17803444752E+02 -0.31554569189E+02  0.65670286636E+01  0.54367090897E+02  0.40000015317E+02 0.  0.
        -12    1    3    3    0    0 -0.17803444752E+02  0.31554569189E+02 -0.65670286636E+01  0.36820909103E+02  0.00000000000E+00 0.  1.
         11    1    4    4    0    0  0.22927177135E+02 -0.24733977023E+02 -0.67530235113E+01  0.34395179859E+02  0.51100000000E-03 0. -1.
        -11    1    4    4    0    0 -0.61471262942E-01 -0.64626540907E+01  0.13420931417E+02  0.14896008760E+02  0.51100000000E-03 0.  1.
        -12    1    4    4    0    0 -0.50622611198E+01 -0.35793807497E+00 -0.10087924214E+00  0.50759022777E+01  0.00000000000E+00 0.  1.
</event>
<event>
 8    1  0.1229941E-006  0.9118800E+02  0.7816164E-02  0.1184000E+00
        -11   -1    0    0    0    0  0.00000000000E+00  0.00000000000E+00  0.45593999997E+02  0.45594000000E+02  0.51100000000E-03 0.  1.
         11   -1    0    0    0    0 -0.00000000000E+00 -0.00000000000E+00 -0.45593999997E+02  0.45594000000E+02  0.51100000000E-03 0. -1.
         23    2    1    2    0    0  0.00000000000E+00  0.00000000000E+00 -0.88817841970E-15  0.91188000000E+02  0.91188000000E+02 0.  0.
    9900012    2    3    3    0    0  0.31442134572E+02  0.19114367967E+02 -0.13463787702E+01  0.54367087124E+02  0.40000006717E+02 0.  0.
        -12    1    3    3    0    0 -0.31442134572E+02 -0.19114367967E+02  0.13463787702E+01  0.36820912876E+02  0.00000000000E+00 0.  1.
         11    1    4    4    0    0  0.48274037142E+01 -0.57292746240E+00  0.10551473285E+02  0.11617472239E+02  0.51100000000E-03 0. -1.
        -11    1    4    4    0    0  0.25216163420E+02  0.45821005313E+01 -0.97844646728E+01  0.27433306256E+02  0.51100000000E-03 0.  1.
        -12    1    4    4    0    0  0.13985674371E+01  0.15105194899E+02 -0.21133873820E+01  0.15316308629E+02  0.00000000000E+00 0.  1.
</event>
<event>
 8    1  0.1229941E-006  0.9118800E+02  0.7816164E-02  0.1184000E+00
        -11   -1    0    0    0    0  0.00000000000E+00  0.00000000000E+00  0.45593999997E+02  0.45594000000E+02  0.51100000000E-03 0.  1.
         11   -1    0    0    0    0 -0.00000000000E+00 -0.00000000000E+00 -0.45593999997E+02  0.45594000000E+02  0.51100000000E-03 0. -1.
         23    2    1    2    0    0 -0.35527136788E-14 -0.17763568394E-14 -0.35527136788E-14  0.91188000000E+02  0.91188000000E+02 0.  0.
    9900012    2    3    3    0    0  0.22457489833E+02 -0.95581410019E+01  0.27569585395E+02  0.54367096319E+02  0.40000027679E+02 0.  0.
         12    1    3    3    0    0 -0.22457489833E+02  0.95581410019E+01 -0.27569585395E+02  0.36820903681E+02  0.00000000000E+00 0. -1.
         11    1    4    4    0    0 -0.38639262317E+01 -0.35919128708E+01 -0.45542800055E+01  0.69694498080E+01  0.51100000000E-03 0. -1.
        -11    1    4    4    0    0  0.16529401901E+01 -0.25538092850E+01  0.19011135128E+02  0.19252984503E+02  0.51100000000E-03 0.  1.
         12    1    4    4    0    0  0.24668475875E+02 -0.34124188461E+01  0.13112730272E+02  0.28144662008E+02  0.00000000000E+00 0. -1.
</event>
<event>
 8    1  0.1229941E-006  0.9118800E+02  0.7816164E-02  0.1184000E+00
        -11   -1    0    0    0    0  0.00000000000E+00  0.00000000000E+00  0.45593999997E+02  0.45594000000E+02  0.51100000000E-03 0. -1.
         11   -1    0    0    0    0 -0.00000000000E+00 -0.00000000000E+00 -0.45593999997E+02  0.45594000000E+02  0.51100000000E-03 0.  1.
         23    2    1    2    0    0  0.00000000000E+00  0.88817841970E-15  0.00000000000E+00  0.91188000000E+02  0.91188000000E+02 0.  0.
    9900012    2    3    3    0    0  0.30849728461E+02  0.58165053662E+01 -0.19241708786E+02  0.54367070655E+02  0.39999969173E+02 0.  0.
         12    1    3    3    0    0 -0.30849728461E+02 -0.58165053662E+01  0.19241708786E+02  0.36820929345E+02  0.00000000000E+00 0. -1.
         11    1    4    4    0    0  0.24969473216E+01  0.85481305644E+01  0.17851499083E+00  0.89071403905E+01  0.51100000000E-03 0. -1.
        -11    1    4    4    0    0 -0.47469086632E+01 -0.61410879819E+01 -0.47051420090E+01  0.90765888441E+01  0.51100000000E-03 0.  1.
        -12    1    4    4    0    0  0.33099689802E+02  0.34094627838E+01 -0.14715081768E+02  0.36383341421E+02  0.00000000000E+00 0.  1.
</event>
<event>
 8    1  0.1229941E-006  0.9118800E+02  0.7816164E-02  0.1184000E+00
        -11   -1    0    0    0    0  0.00000000000E+00  0.00000000000E+00  0.45593999997E+02  0.45594000000E+02  0.51100000000E-03 0.  1.
         11   -1    0    0    0    0 -0.00000000000E+00 -0.00000000000E+00 -0.45593999997E+02  0.45594000000E+02  0.51100000000E-03 0. -1.
         23    2    1    2    0    0 -0.35527136788E-14  0.00000000000E+00  0.35527136788E-14  0.91188000000E+02  0.91188000000E+02 0.  0.
    9900012    2    3    3    0    0  0.21998102023E+02 -0.12016680005E+02 -0.26971511645E+02  0.54367088396E+02  0.40000009616E+02 0.  0.
        -12    1    3    3    0    0 -0.21998102023E+02  0.12016680005E+02  0.26971511645E+02  0.36820911604E+02  0.00000000000E+00 0.  1.
         11    1    4    4    0    0  0.23153561281E+02 -0.63458640082E+00 -0.22971054480E+02  0.32621456805E+02  0.51100000000E-03 0. -1.
        -11    1    4    4    0    0  0.63216120963E+01 -0.88593586031E+01  0.28996368180E+01  0.11263165998E+02  0.51100000000E-03 0.  1.
        -12    1    4    4    0    0 -0.74770713547E+01 -0.25227350011E+01 -0.69000939831E+01  0.10482465593E+02  0.00000000000E+00 0.  1.
</event>
<event>
 8    1  0.1229941E-006  0.9118800E+02  0.7816164E-02  0.1184000E+00
        -11   -1    0    0    0    0  0.00000000000E+00  0.00000000000E+00  0.45593999997E+02  0.45594000000E+02  0.51100000000E-03 0. -1.
         11   -1    0    0    0    0 -0.00000000000E+00 -0.00000000000E+00 -0.45593999997E+02  0.45594000000E+02  0.51100000000E-03 0.  1.
         23    2    1    2    0    0  0.71054273576E-14  0.44408920985E-15  0.00000000000E+00  0.91188000000E+02  0.91188000000E+02 0.  0.
    9900012    2    3    3    0    0  0.33902401298E+02  0.23752445436E+01  0.14169172022E+02  0.54367081541E+02  0.39999993988E+02 0.  0.
         12    1    3    3    0    0 -0.33902401298E+02 -0.23752445436E+01 -0.14169172022E+02  0.36820918459E+02  0.00000000000E+00 0. -1.
         11    1    4    4    0    0  0.12373756035E+01  0.90039116838E+00  0.17481571946E+02  0.17548423308E+02  0.51100000000E-03 0. -1.
        -11    1    4    4    0    0  0.19367705485E+02  0.61335499076E+01  0.43556936335E+01  0.20777404013E+02  0.51100000000E-03 0.  1.
         12    1    4    4    0    0  0.13297320209E+02 -0.46586965324E+01 -0.76680935575E+01  0.16041254219E+02  0.00000000000E+00 0. -1.
</event>
<event>
 8    1  0.1229941E-006  0.9118800E+02  0.7816164E-02  0.1184000E+00
        -11   -1    0    0    0    0  0.00000000000E+00  0.00000000000E+00  0.45593999997E+02  0.45594000000E+02  0.51100000000E-03 0.  1.
         11   -1    0    0    0    0 -0.00000000000E+00 -0.00000000000E+00 -0.45593999997E+02  0.45594000000E+02  0.51100000000E-03 0. -1.
         23    2    1    2    0    0  0.35527136788E-14 -0.17763568394E-14  0.35527136788E-14  0.91188000000E+02  0.91188000000E+02 0.  0.
    9900012    2    3    3    0    0  0.30816878386E+02  0.13101071665E+01  0.20109250012E+02  0.54367104977E+02  0.40000047416E+02 0.  0.
         12    1    3    3    0    0 -0.30816878386E+02 -0.13101071665E+01 -0.20109250012E+02  0.36820895023E+02  0.00000000000E+00 0. -1.
         11    1    4    4    0    0  0.65845979763E+01 -0.14289624780E+01  0.20152354803E+01  0.70327831315E+01  0.51100000000E-03 0. -1.
        -11    1    4    4    0    0  0.29493317842E+02  0.12415187047E+02  0.17082663060E+02  0.36274096050E+02  0.51100000000E-03 0.  1.
         12    1    4    4    0    0 -0.52610374320E+01 -0.96761174030E+01  0.10113514721E+01  0.11060225796E+02  0.00000000000E+00 0. -1.
</event>
<event>
 8    1  0.1229941E-006  0.9118800E+02  0.7816164E-02  0.1184000E+00
        -11   -1    0    0    0    0  0.00000000000E+00  0.00000000000E+00  0.45593999997E+02  0.45594000000E+02  0.51100000000E-03 0. -1.
         11   -1    0    0    0    0 -0.00000000000E+00 -0.00000000000E+00 -0.45593999997E+02  0.45594000000E+02  0.51100000000E-03 0.  1.
         23    2    1    2    0    0  0.35527136788E-14  0.35527136788E-14  0.00000000000E+00  0.91188000000E+02  0.91188000000E+02 0.  0.
    9900012    2    3    3    0    0  0.12876418116E+02  0.10509899378E+02  0.32856021066E+02  0.54367105813E+02  0.40000049323E+02 0.  0.
        -12    1    3    3    0    0 -0.12876418116E+02 -0.10509899378E+02 -0.32856021066E+02  0.36820894187E+02  0.00000000000E+00 0.  1.
         11    1    4    4    0    0  0.12850647390E+02  0.13878773012E+02  0.28088247069E+02  0.33863093514E+02  0.51100000000E-03 0. -1.
        -11    1    4    4    0    0 -0.88079317685E+01 -0.56102060648E+01  0.53817251669E+00  0.10456753992E+02  0.51100000000E-03 0.  1.
        -12    1    4    4    0    0  0.88337024942E+01  0.22413324311E+01  0.42296014803E+01  0.10047258308E+02  0.00000000000E+00 0.  1.
</event>
<event>
 8    1  0.1229941E-006  0.9118800E+02  0.7816164E-02  0.1184000E+00
        -11   -1    0    0    0    0  0.00000000000E+00  0.00000000000E+00  0.45593999997E+02  0.45594000000E+02  0.51100000000E-03 0. -1.
         11   -1    0    0    0    0 -0.00000000000E+00 -0.00000000000E+00 -0.45593999997E+02  0.45594000000E+02  0.51100000000E-03 0.  1.
         23    2    1    2    0    0  0.00000000000E+00 -0.44408920985E-15  0.00000000000E+00  0.91188000000E+02  0.91188000000E+02 0.  0.
    9900012    2    3    3    0    0 -0.98221075889E+01 -0.33791044664E+01  0.35325461604E+02  0.54367076844E+02  0.39999983282E+02 0.  0.
        -12    1    3    3    0    0  0.98221075889E+01  0.33791044664E+01 -0.35325461604E+02  0.36820923156E+02  0.00000000000E+00 0.  1.
         11    1    4    4    0    0 -0.12002301610E+02  0.11713726286E+02  0.11551341427E+02  0.20364187105E+02  0.51100000000E-03 0. -1.
        -11    1    4    4    0    0 -0.50163785658E+01 -0.46637888665E+00  0.14270738306E+02  0.15133920022E+02  0.51100000000E-03 0.  1.
        -12    1    4    4    0    0  0.71965725867E+01 -0.14626451866E+02  0.95033818714E+01  0.18868969717E+02  0.00000000000E+00 0.  1.
</event>
<event>
 8    1  0.1229941E-006  0.9118800E+02  0.7816164E-02  0.1184000E+00
        -11   -1    0    0    0    0  0.00000000000E+00  0.00000000000E+00  0.45593999997E+02  0.45594000000E+02  0.51100000000E-03 0. -1.
         11   -1    0    0    0    0 -0.00000000000E+00 -0.00000000000E+00 -0.45593999997E+02  0.45594000000E+02  0.51100000000E-03 0.  1.
         23    2    1    2    0    0  0.00000000000E+00  0.00000000000E+00  0.00000000000E+00  0.91188000000E+02  0.91188000000E+02 0.  0.
    9900012    2    3    3    0    0 -0.15765101561E+02 -0.31836299346E+02 -0.96793435945E+01  0.54367108162E+02  0.40000054678E+02 0.  0.
         12    1    3    3    0    0  0.15765101561E+02  0.31836299346E+02  0.96793435945E+01  0.36820891838E+02  0.00000000000E+00 0. -1.
         11    1    4    4    0    0  0.69540580230E+00 -0.28231946828E+01  0.38818939867E+01  0.48500637760E+01  0.51100000000E-03 0. -1.
        -11    1    4    4    0    0 -0.18393089316E+02  0.43655319849E-01 -0.36200531936E+01  0.18745997593E+02  0.51100000000E-03 0.  1.
         12    1    4    4    0    0  0.19325819527E+01 -0.29056759984E+02 -0.99411843875E+01  0.30771046794E+02  0.00000000000E+00 0. -1.
</event>
<event>
 8    1  0.1229941E-006  0.9118800E+02  0.7816164E-02  0.1184000E+00
        -11   -1    0    0    0    0  0.00000000000E+00  0.00000000000E+00  0.45593999997E+02  0.45594000000E+02  0.51100000000E-03 0.  1.
         11   -1    0    0    0    0 -0.00000000000E+00 -0.00000000000E+00 -0.45593999997E+02  0.45594000000E+02  0.51100000000E-03 0. -1.
         23    2    1    2    0    0  0.11102230246E-14 -0.35527136788E-14  0.00000000000E+00  0.91188000000E+02  0.91188000000E+02 0.  0.
    9900012    2    3    3    0    0 -0.19130928022E+01  0.17075729859E+02 -0.32565948510E+02  0.54367061980E+02  0.39999949397E+02 0.  0.
        -12    1    3    3    0    0  0.19130928022E+01 -0.17075729859E+02  0.32565948510E+02  0.36820938020E+02  0.00000000000E+00 0.  1.
         11    1    4    4    0    0 -0.66495400952E+01  0.19424154904E+02 -0.18267326593E+02  0.27481073457E+02  0.51100000000E-03 0. -1.
        -11    1    4    4    0    0 -0.13776039365E+01 -0.85172982753E+01 -0.15866033093E+02  0.18060264918E+02  0.51100000000E-03 0.  1.
         12    1    4    4    0    0  0.61140512296E+01  0.61688732305E+01  0.15674111766E+01  0.88257236059E+01  0.00000000000E+00 0. -1.
</event>
<event>
 8    1  0.1229941E-006  0.9118800E+02  0.7816164E-02  0.1184000E+00
        -11   -1    0    0    0    0  0.00000000000E+00  0.00000000000E+00  0.45593999997E+02  0.45594000000E+02  0.51100000000E-03 0.  1.
         11   -1    0    0    0    0 -0.00000000000E+00 -0.00000000000E+00 -0.45593999997E+02  0.45594000000E+02  0.51100000000E-03 0. -1.
         23    2    1    2    0    0  0.88817841970E-15  0.17763568394E-14  0.00000000000E+00  0.91188000000E+02  0.91188000000E+02 0.  0.
    9900012    2    3    3    0    0 -0.72772184452E+01 -0.12526340666E+02 -0.33851332162E+02  0.54367084641E+02  0.40000001055E+02 0.  0.
        -12    1    3    3    0    0  0.72772184452E+01  0.12526340666E+02  0.33851332162E+02  0.36820915359E+02  0.00000000000E+00 0.  1.
         11    1    4    4    0    0 -0.11257218491E+02 -0.65367462804E+01 -0.63051416260E+01  0.14464053072E+02  0.51100000000E-03 0. -1.
        -11    1    4    4    0    0  0.34119390625E+01 -0.17158223379E+02 -0.14519606792E+02  0.22734663827E+02  0.51100000000E-03 0.  1.
        -12    1    4    4    0    0  0.56806098347E+00  0.11168628993E+02 -0.13026583744E+02  0.17168367741E+02  0.00000000000E+00 0.  1.
</event>
<event>
 8    1  0.1229941E-006  0.9118800E+02  0.7816164E-02  0.1184000E+00
        -11   -1    0    0    0    0  0.00000000000E+00  0.00000000000E+00  0.45593999997E+02  0.45594000000E+02  0.51100000000E-03 0.  1.
         11   -1    0    0    0    0 -0.00000000000E+00 -0.00000000000E+00 -0.45593999997E+02  0.45594000000E+02  0.51100000000E-03 0. -1.
         23    2    1    2    0    0  0.00000000000E+00  0.88817841970E-15  0.00000000000E+00  0.91188000000E+02  0.91188000000E+02 0.  0.
    9900012    2    3    3    0    0  0.17668226418E+02  0.66147057349E+01  0.31620544539E+02  0.54367090266E+02  0.40000013878E+02 0.  0.
         12    1    3    3    0    0 -0.17668226418E+02 -0.66147057349E+01 -0.31620544539E+02  0.36820909734E+02  0.00000000000E+00 0. -1.
         11    1    4    4    0    0  0.56624652878E+01  0.37195971043E+01  0.41742634557E+01  0.79575996012E+01  0.51100000000E-03 0. -1.
        -11    1    4    4    0    0  0.46355276390E+01  0.13657487897E+02 -0.16561219459E+01  0.14517500898E+02  0.51100000000E-03 0.  1.
        -12    1    4    4    0    0  0.73702334909E+01 -0.10762379267E+02  0.29102403030E+02  0.31891989767E+02  0.00000000000E+00 0.  1.
</event>
<event>
 8    1  0.1229941E-006  0.9118800E+02  0.7816164E-02  0.1184000E+00
        -11   -1    0    0    0    0  0.00000000000E+00  0.00000000000E+00  0.45593999997E+02  0.45594000000E+02  0.51100000000E-03 0.  1.
         11   -1    0    0    0    0 -0.00000000000E+00 -0.00000000000E+00 -0.45593999997E+02  0.45594000000E+02  0.51100000000E-03 0. -1.
         23    2    1    2    0    0  0.00000000000E+00  0.00000000000E+00  0.00000000000E+00  0.91188000000E+02  0.91188000000E+02 0.  0.
    9900012    2    3    3    0    0 -0.32928420168E+02  0.52881993580E+01 -0.15605567086E+02  0.54367087038E+02  0.40000006522E+02 0.  0.
        -12    1    3    3    0    0  0.32928420168E+02 -0.52881993580E+01  0.15605567086E+02  0.36820912962E+02  0.00000000000E+00 0.  1.
         11    1    4    4    0    0 -0.13627691161E+02  0.11206287098E+02 -0.19265417139E+02  0.26123765707E+02  0.51100000000E-03 0. -1.
        -11    1    4    4    0    0  0.99076386535E+00  0.27973928570E+01 -0.39004130744E+01  0.49010450156E+01  0.51100000000E-03 0.  1.
         12    1    4    4    0    0 -0.20291492873E+02 -0.87154805967E+01  0.75602631277E+01  0.23342276316E+02  0.00000000000E+00 0. -1.
</event>
<event>
 8    1  0.1229941E-006  0.9118800E+02  0.7816164E-02  0.1184000E+00
        -11   -1    0    0    0    0  0.00000000000E+00  0.00000000000E+00  0.45593999997E+02  0.45594000000E+02  0.51100000000E-03 0.  1.
         11   -1    0    0    0    0 -0.00000000000E+00 -0.00000000000E+00 -0.45593999997E+02  0.45594000000E+02  0.51100000000E-03 0. -1.
         23    2    1    2    0    0  0.17763568394E-14  0.35527136788E-14  0.35527136788E-14  0.91188000000E+02  0.91188000000E+02 0.  0.
    9900012    2    3    3    0    0  0.12703856367E+02  0.28505982912E+02  0.19539702508E+02  0.54367095578E+02  0.40000025988E+02 0.  0.
         12    1    3    3    0    0 -0.12703856367E+02 -0.28505982912E+02 -0.19539702508E+02  0.36820904422E+02  0.00000000000E+00 0. -1.
         11    1    4    4    0    0  0.24150783592E+01  0.22292083624E+02  0.32075518696E+01  0.22650783320E+02  0.51100000000E-03 0. -1.
        -11    1    4    4    0    0  0.50714684172E+01  0.37142735630E+01  0.22439835419E+02  0.23303687131E+02  0.51100000000E-03 0.  1.
         12    1    4    4    0    0  0.52173095906E+01  0.24996257251E+01 -0.61076847806E+01  0.84126251259E+01  0.00000000000E+00 0. -1.
</event>
<event>
 8    1  0.1229941E-006  0.9118800E+02  0.7816164E-02  0.1184000E+00
        -11   -1    0    0    0    0  0.00000000000E+00  0.00000000000E+00  0.45593999997E+02  0.45594000000E+02  0.51100000000E-03 0.  1.
         11   -1    0    0    0    0 -0.00000000000E+00 -0.00000000000E+00 -0.45593999997E+02  0.45594000000E+02  0.51100000000E-03 0. -1.
         23    2    1    2    0    0 -0.44408920985E-15 -0.35527136788E-14  0.00000000000E+00  0.91188000000E+02  0.91188000000E+02 0.  0.
    9900012    2    3    3    0    0 -0.20295658876E+01 -0.25718203280E+02 -0.26272311128E+02  0.54367089505E+02  0.40000012145E+02 0.  0.
        -12    1    3    3    0    0  0.20295658876E+01  0.25718203280E+02  0.26272311128E+02  0.36820910495E+02  0.00000000000E+00 0.  1.
         11    1    4    4    0    0 -0.43971931049E+01 -0.17613021923E+02 -0.12813209535E+02  0.22220085223E+02  0.51100000000E-03 0. -1.
        -11    1    4    4    0    0  0.48196596746E+01 -0.74381133472E+01  0.71464458290E+01  0.11385356287E+02  0.51100000000E-03 0.  1.
        -12    1    4    4    0    0 -0.24520324572E+01 -0.66706800983E+00 -0.20605547422E+02  0.20761647994E+02  0.00000000000E+00 0.  1.
</event>
<event>
 8    1  0.1229941E-006  0.9118800E+02  0.7816164E-02  0.1184000E+00
        -11   -1    0    0    0    0  0.00000000000E+00  0.00000000000E+00  0.45593999997E+02  0.45594000000E+02  0.51100000000E-03 0.  1.
         11   -1    0    0    0    0 -0.00000000000E+00 -0.00000000000E+00 -0.45593999997E+02  0.45594000000E+02  0.51100000000E-03 0. -1.
         23    2    1    2    0    0 -0.71054273576E-14 -0.11102230246E-15 -0.17763568394E-14  0.91188000000E+02  0.91188000000E+02 0.  0.
    9900012    2    3    3    0    0 -0.35882556177E+02  0.76427241496E+00 -0.82241498605E+01  0.54367101165E+02  0.40000038725E+02 0.  0.
         12    1    3    3    0    0  0.35882556177E+02 -0.76427241496E+00  0.82241498605E+01  0.36820898835E+02  0.00000000000E+00 0. -1.
         11    1    4    4    0    0 -0.19357211391E+02 -0.83571641230E+01 -0.14218518287E+02  0.25430495228E+02  0.51100000000E-03 0.  1.
        -11    1    4    4    0    0 -0.16735660355E+02  0.83582569746E+01 -0.38179597293E+01  0.19092396495E+02  0.51100000000E-03 0. -1.
        -12    1    4    4    0    0  0.21031556937E+00  0.76317956335E+00  0.98123281558E+01  0.98442094412E+01  0.00000000000E+00 0.  1.
</event>
<event>
 8    1  0.1229941E-006  0.9118800E+02  0.7816164E-02  0.1184000E+00
        -11   -1    0    0    0    0  0.00000000000E+00  0.00000000000E+00  0.45593999997E+02  0.45594000000E+02  0.51100000000E-03 0.  1.
         11   -1    0    0    0    0 -0.00000000000E+00 -0.00000000000E+00 -0.45593999997E+02  0.45594000000E+02  0.51100000000E-03 0. -1.
         23    2    1    2    0    0  0.35527136788E-14  0.17763568394E-14  0.00000000000E+00  0.91188000000E+02  0.91188000000E+02 0.  0.
    9900012    2    3    3    0    0  0.25422762999E+02  0.12051931254E+02 -0.23753184669E+02  0.54367086006E+02  0.40000004167E+02 0.  0.
        -12    1    3    3    0    0 -0.25422762999E+02 -0.12051931254E+02  0.23753184669E+02  0.36820913994E+02  0.00000000000E+00 0.  1.
         11    1    4    4    0    0  0.15898678340E+02 -0.27947959411E+01 -0.89964286469E+01  0.18480113256E+02  0.51100000000E-03 0. -1.
        -11    1    4    4    0    0 -0.88823138607E+01  0.52646985872E+01 -0.10455818524E+02  0.14694784517E+02  0.51100000000E-03 0.  1.
         12    1    4    4    0    0  0.18406398520E+02  0.95820286083E+01 -0.43009374981E+01  0.21192188233E+02  0.00000000000E+00 0. -1.
</event>
<event>
 8    1  0.1229941E-006  0.9118800E+02  0.7816164E-02  0.1184000E+00
        -11   -1    0    0    0    0  0.00000000000E+00  0.00000000000E+00  0.45593999997E+02  0.45594000000E+02  0.51100000000E-03 0. -1.
         11   -1    0    0    0    0 -0.00000000000E+00 -0.00000000000E+00 -0.45593999997E+02  0.45594000000E+02  0.51100000000E-03 0.  1.
         23    2    1    2    0    0  0.00000000000E+00  0.00000000000E+00  0.00000000000E+00  0.91188000000E+02  0.91188000000E+02 0.  0.
    9900012    2    3    3    0    0 -0.16089533426E+02 -0.33058584046E+02 -0.20091661336E+01  0.54367084564E+02  0.40000000880E+02 0.  0.
         12    1    3    3    0    0  0.16089533426E+02  0.33058584046E+02  0.20091661336E+01  0.36820915436E+02  0.00000000000E+00 0. -1.
         11    1    4    4    0    0 -0.28501173623E+02 -0.20442216801E+02 -0.57425127209E+01  0.35541209577E+02  0.51100000000E-03 0.  1.
        -11    1    4    4    0    0  0.31065956336E+01 -0.37160650155E+01  0.34496570243E+01  0.59464451126E+01  0.51100000000E-03 0. -1.
        -12    1    4    4    0    0  0.93050445633E+01 -0.89003022302E+01  0.28368956292E+00  0.12879429874E+02  0.00000000000E+00 0.  1.
</event>
<event>
 8    1  0.1229941E-006  0.9118800E+02  0.7816164E-02  0.1184000E+00
        -11   -1    0    0    0    0  0.00000000000E+00  0.00000000000E+00  0.45593999997E+02  0.45594000000E+02  0.51100000000E-03 0. -1.
         11   -1    0    0    0    0 -0.00000000000E+00 -0.00000000000E+00 -0.45593999997E+02  0.45594000000E+02  0.51100000000E-03 0.  1.
         23    2    1    2    0    0  0.00000000000E+00 -0.35527136788E-14  0.00000000000E+00  0.91188000000E+02  0.91188000000E+02 0.  0.
    9900012    2    3    3    0    0  0.13154830397E+02 -0.22701684713E+02 -0.25833388503E+02  0.54367081854E+02  0.39999994703E+02 0.  0.
         12    1    3    3    0    0 -0.13154830397E+02  0.22701684713E+02  0.25833388503E+02  0.36820918146E+02  0.00000000000E+00 0. -1.
         11    1    4    4    0    0  0.29234752314E+01 -0.24823815000E+02 -0.14831345716E+02  0.29064365030E+02  0.51100000000E-03 0. -1.
        -11    1    4    4    0    0  0.11286989152E+02 -0.54985217125E+01 -0.12212102212E+02  0.17514716835E+02  0.51100000000E-03 0.  1.
        -12    1    4    4    0    0 -0.10556339863E+01  0.76206519998E+01  0.12100594247E+01  0.77879999888E+01  0.00000000000E+00 0.  1.
</event>
<event>
 8    1  0.1229941E-006  0.9118800E+02  0.7816164E-02  0.1184000E+00
        -11   -1    0    0    0    0  0.00000000000E+00  0.00000000000E+00  0.45593999997E+02  0.45594000000E+02  0.51100000000E-03 0. -1.
         11   -1    0    0    0    0 -0.00000000000E+00 -0.00000000000E+00 -0.45593999997E+02  0.45594000000E+02  0.51100000000E-03 0.  1.
         23    2    1    2    0    0 -0.17763568394E-14 -0.19428902931E-15  0.00000000000E+00  0.91188000000E+02  0.91188000000E+02 0.  0.
    9900012    2    3    3    0    0  0.12597533157E+02 -0.22575679738E+00  0.34598202585E+02  0.54367021878E+02  0.39999857974E+02 0.  0.
        -12    1    3    3    0    0 -0.12597533157E+02  0.22575679738E+00 -0.34598202585E+02  0.36820978122E+02  0.00000000000E+00 0.  1.
         11    1    4    4    0    0  0.19189341921E+02  0.32827486776E+01  0.52830958523E+01  0.20172218130E+02  0.51100000000E-03 0. -1.
        -11    1    4    4    0    0  0.21596267571E+01  0.18700962183E+01 -0.27733442582E+00  0.28702198941E+01  0.51100000000E-03 0.  1.
         12    1    4    4    0    0 -0.87514355215E+01 -0.53786016932E+01  0.29592441159E+02  0.31324583853E+02  0.00000000000E+00 0. -1.
</event>
<event>
 8    1  0.1229941E-006  0.9118800E+02  0.7816164E-02  0.1184000E+00
        -11   -1    0    0    0    0  0.00000000000E+00  0.00000000000E+00  0.45593999997E+02  0.45594000000E+02  0.51100000000E-03 0. -1.
         11   -1    0    0    0    0 -0.00000000000E+00 -0.00000000000E+00 -0.45593999997E+02  0.45594000000E+02  0.51100000000E-03 0.  1.
         23    2    1    2    0    0  0.00000000000E+00  0.17763568394E-14  0.00000000000E+00  0.91188000000E+02  0.91188000000E+02 0.  0.
    9900012    2    3    3    0    0  0.10435641787E+02 -0.10172858088E+02  0.33814038502E+02  0.54367097499E+02  0.40000030369E+02 0.  0.
        -12    1    3    3    0    0 -0.10435641787E+02  0.10172858088E+02 -0.33814038502E+02  0.36820902501E+02  0.00000000000E+00 0.  1.
         11    1    4    4    0    0  0.31940222080E+01  0.61195041592E+01  0.88482290195E+01  0.11222355638E+02  0.51100000000E-03 0. -1.
        -11    1    4    4    0    0  0.48214329260E+01 -0.96131079310E+01 -0.53471618088E+01  0.12010420443E+02  0.51100000000E-03 0.  1.
         12    1    4    4    0    0  0.24201866530E+01 -0.66792543159E+01  0.30312971291E+02  0.31134321418E+02  0.00000000000E+00 0. -1.
</event>
<event>
 8    1  0.1229941E-006  0.9118800E+02  0.7816164E-02  0.1184000E+00
        -11   -1    0    0    0    0  0.00000000000E+00  0.00000000000E+00  0.45593999997E+02  0.45594000000E+02  0.51100000000E-03 0. -1.
         11   -1    0    0    0    0 -0.00000000000E+00 -0.00000000000E+00 -0.45593999997E+02  0.45594000000E+02  0.51100000000E-03 0.  1.
         23    2    1    2    0    0  0.00000000000E+00  0.00000000000E+00  0.00000000000E+00  0.91188000000E+02  0.91188000000E+02 0.  0.
    9900012    2    3    3    0    0 -0.24701648735E+02  0.27085280982E+02 -0.34634472055E+01  0.54367090687E+02  0.40000014839E+02 0.  0.
         12    1    3    3    0    0  0.24701648735E+02 -0.27085280982E+02  0.34634472055E+01  0.36820909313E+02  0.00000000000E+00 0. -1.
         11    1    4    4    0    0  0.16550877279E+01 -0.33814854251E+01 -0.86654166356E+00  0.38632439456E+01  0.51100000000E-03 0. -1.
        -11    1    4    4    0    0 -0.13069320712E+02  0.42648403644E+01  0.11495292883E+02  0.17920317127E+02  0.51100000000E-03 0.  1.
        -12    1    4    4    0    0 -0.13287415751E+02  0.26201926043E+02 -0.14092198425E+02  0.32583529615E+02  0.00000000000E+00 0.  1.
</event>
<event>
 8    1  0.1229941E-006  0.9118800E+02  0.7816164E-02  0.1184000E+00
        -11   -1    0    0    0    0  0.00000000000E+00  0.00000000000E+00  0.45593999997E+02  0.45594000000E+02  0.51100000000E-03 0.  1.
         11   -1    0    0    0    0 -0.00000000000E+00 -0.00000000000E+00 -0.45593999997E+02  0.45594000000E+02  0.51100000000E-03 0. -1.
         23    2    1    2    0    0 -0.22204460493E-15  0.35527136788E-14  0.00000000000E+00  0.91188000000E+02  0.91188000000E+02 0.  0.
    9900012    2    3    3    0    0  0.18919603958E+01 -0.30532931252E+02  0.20492456767E+02  0.54367079461E+02  0.39999989248E+02 0.  0.
         12    1    3    3    0    0 -0.18919603958E+01  0.30532931252E+02 -0.20492456767E+02  0.36820920539E+02  0.00000000000E+00 0. -1.
         11    1    4    4    0    0 -0.79068607054E+01 -0.21350438552E+02 -0.10746765910E+01  0.22792862976E+02  0.51100000000E-03 0. -1.
        -11    1    4    4    0    0  0.37420079249E+01 -0.79717067163E+01  0.23505157511E+02  0.25100660572E+02  0.51100000000E-03 0.  1.
        -12    1    4    4    0    0  0.60568131763E+01 -0.12107859832E+01 -0.19380241528E+01  0.64735559136E+01  0.00000000000E+00 0.  1.
</event>
<event>
 8    1  0.1229941E-006  0.9118800E+02  0.7816164E-02  0.1184000E+00
        -11   -1    0    0    0    0  0.00000000000E+00  0.00000000000E+00  0.45593999997E+02  0.45594000000E+02  0.51100000000E-03 0. -1.
         11   -1    0    0    0    0 -0.00000000000E+00 -0.00000000000E+00 -0.45593999997E+02  0.45594000000E+02  0.51100000000E-03 0.  1.
         23    2    1    2    0    0 -0.35527136788E-14 -0.17763568394E-14  0.00000000000E+00  0.91188000000E+02  0.91188000000E+02 0.  0.
    9900012    2    3    3    0    0  0.18909432611E+02  0.10447456107E+02  0.29817163205E+02  0.54367092863E+02  0.40000019800E+02 0.  0.
        -12    1    3    3    0    0 -0.18909432611E+02 -0.10447456107E+02 -0.29817163205E+02  0.36820907137E+02  0.00000000000E+00 0.  1.
         11    1    4    4    0    0  0.73414250883E+01 -0.93636093523E+01  0.13754654917E+02  0.18186924824E+02  0.51100000000E-03 0. -1.
        -11    1    4    4    0    0 -0.54493806412E+01  0.12748269647E+01 -0.11235053476E+01  0.57081693816E+01  0.51100000000E-03 0.  1.
        -12    1    4    4    0    0  0.17017388164E+02  0.18536238495E+02  0.17186013636E+02  0.30471998657E+02  0.00000000000E+00 0.  1.
</event>
<event>
 8    1  0.1229941E-006  0.9118800E+02  0.7816164E-02  0.1184000E+00
        -11   -1    0    0    0    0  0.00000000000E+00  0.00000000000E+00  0.45593999997E+02  0.45594000000E+02  0.51100000000E-03 0.  1.
         11   -1    0    0    0    0 -0.00000000000E+00 -0.00000000000E+00 -0.45593999997E+02  0.45594000000E+02  0.51100000000E-03 0. -1.
         23    2    1    2    0    0 -0.35527136788E-14  0.35527136788E-14  0.00000000000E+00  0.91188000000E+02  0.91188000000E+02 0.  0.
    9900012    2    3    3    0    0 -0.25926261869E+02  0.19172777661E+02 -0.17776759774E+02  0.54367086842E+02  0.40000006073E+02 0.  0.
        -12    1    3    3    0    0  0.25926261869E+02 -0.19172777661E+02  0.17776759774E+02  0.36820913158E+02  0.00000000000E+00 0.  1.
         11    1    4    4    0    0 -0.22323748201E+02  0.10672649003E+02 -0.17866080617E+02  0.30519698677E+02  0.51100000000E-03 0. -1.
        -11    1    4    4    0    0  0.51971562582E+01  0.12624340724E+02 -0.22879414972E+01  0.13842654675E+02  0.51100000000E-03 0.  1.
        -12    1    4    4    0    0 -0.87996699258E+01 -0.41242120655E+01  0.23772623396E+01  0.10004733490E+02  0.00000000000E+00 0.  1.
</event>
<event>
 8    1  0.1229941E-006  0.9118800E+02  0.7816164E-02  0.1184000E+00
        -11   -1    0    0    0    0  0.00000000000E+00  0.00000000000E+00  0.45593999997E+02  0.45594000000E+02  0.51100000000E-03 0.  1.
         11   -1    0    0    0    0 -0.00000000000E+00 -0.00000000000E+00 -0.45593999997E+02  0.45594000000E+02  0.51100000000E-03 0. -1.
         23    2    1    2    0    0  0.00000000000E+00  0.00000000000E+00  0.88817841970E-15  0.91188000000E+02  0.91188000000E+02 0.  0.
    9900012    2    3    3    0    0  0.32952808230E+02 -0.15869380258E+02 -0.42490020787E+01  0.54367098074E+02  0.40000031679E+02 0.  0.
        -12    1    3    3    0    0 -0.32952808230E+02  0.15869380258E+02  0.42490020787E+01  0.36820901926E+02  0.00000000000E+00 0.  1.
         11    1    4    4    0    0  0.99102480530E+01  0.89173533816E+01  0.15688954129E+01  0.13423622495E+02  0.51100000000E-03 0. -1.
        -11    1    4    4    0    0  0.11800720096E+02 -0.14313573286E+02  0.80722743701E+01  0.20231089658E+02  0.51100000000E-03 0.  1.
        -12    1    4    4    0    0  0.11241840081E+02 -0.10473160353E+02 -0.13890171862E+02  0.20712385921E+02  0.00000000000E+00 0.  1.
</event>
<event>
 8    1  0.1229941E-006  0.9118800E+02  0.7816164E-02  0.1184000E+00
        -11   -1    0    0    0    0  0.00000000000E+00  0.00000000000E+00  0.45593999997E+02  0.45594000000E+02  0.51100000000E-03 0.  1.
         11   -1    0    0    0    0 -0.00000000000E+00 -0.00000000000E+00 -0.45593999997E+02  0.45594000000E+02  0.51100000000E-03 0. -1.
         23    2    1    2    0    0  0.66613381478E-15  0.00000000000E+00  0.35527136788E-14  0.91188000000E+02  0.91188000000E+02 0.  0.
    9900012    2    3    3    0    0 -0.18868856241E+01 -0.25434713317E+02 -0.26557389323E+02  0.54367083301E+02  0.39999998001E+02 0.  0.
        -12    1    3    3    0    0  0.18868856241E+01  0.25434713317E+02  0.26557389323E+02  0.36820916699E+02  0.00000000000E+00 0.  1.
         11    1    4    4    0    0 -0.36345714985E+01 -0.11883631796E+02  0.48060800802E+01  0.13324009180E+02  0.51100000000E-03 0. -1.
        -11    1    4    4    0    0 -0.69681049103E+01 -0.16422946545E+00 -0.20686735766E+02  0.21829395188E+02  0.51100000000E-03 0.  1.
         12    1    4    4    0    0  0.87157907848E+01 -0.13386852056E+02 -0.10676733637E+02  0.19213678933E+02  0.00000000000E+00 0. -1.
</event>
<event>
 8    1  0.1229941E-006  0.9118800E+02  0.7816164E-02  0.1184000E+00
        -11   -1    0    0    0    0  0.00000000000E+00  0.00000000000E+00  0.45593999997E+02  0.45594000000E+02  0.51100000000E-03 0. -1.
         11   -1    0    0    0    0 -0.00000000000E+00 -0.00000000000E+00 -0.45593999997E+02  0.45594000000E+02  0.51100000000E-03 0.  1.
         23    2    1    2    0    0  0.00000000000E+00  0.00000000000E+00  0.00000000000E+00  0.91188000000E+02  0.91188000000E+02 0.  0.
    9900012    2    3    3    0    0 -0.28674910275E+02  0.94787292431E+01 -0.21063670421E+02  0.54367149943E+02  0.40000149925E+02 0.  0.
         12    1    3    3    0    0  0.28674910275E+02 -0.94787292431E+01  0.21063670421E+02  0.36820850057E+02  0.00000000000E+00 0. -1.
         11    1    4    4    0    0 -0.22998107347E+02  0.12396726942E+02 -0.11344163905E+02  0.28483009591E+02  0.51100000000E-03 0. -1.
        -11    1    4    4    0    0  0.29757400364E+00  0.61773560564E+01 -0.13102197145E+02  0.14488472950E+02  0.51100000000E-03 0.  1.
         12    1    4    4    0    0 -0.59743769312E+01 -0.90953537552E+01  0.33826906285E+01  0.11395667402E+02  0.00000000000E+00 0. -1.
</event>
<event>
 8    1  0.1229941E-006  0.9118800E+02  0.7816164E-02  0.1184000E+00
        -11   -1    0    0    0    0  0.00000000000E+00  0.00000000000E+00  0.45593999997E+02  0.45594000000E+02  0.51100000000E-03 0.  1.
         11   -1    0    0    0    0 -0.00000000000E+00 -0.00000000000E+00 -0.45593999997E+02  0.45594000000E+02  0.51100000000E-03 0. -1.
         23    2    1    2    0    0  0.00000000000E+00 -0.35527136788E-14 -0.88817841970E-15  0.91188000000E+02  0.91188000000E+02 0.  0.
    9900012    2    3    3    0    0 -0.32505860184E+02 -0.16156119670E+02  0.61748254085E+01  0.54367087220E+02  0.40000006936E+02 0.  0.
        -12    1    3    3    0    0  0.32505860184E+02  0.16156119670E+02 -0.61748254085E+01  0.36820912780E+02  0.00000000000E+00 0.  1.
         11    1    4    4    0    0  0.23726160824E+01  0.34038322670E+01 -0.61500026927E+01  0.74187542457E+01  0.51100000000E-03 0.  1.
        -11    1    4    4    0    0 -0.14192379749E+02 -0.20088645217E+02  0.61424017151E+01  0.25351654949E+02  0.51100000000E-03 0. -1.
         12    1    4    4    0    0 -0.20686096517E+02  0.52869327909E+00  0.61824263861E+01  0.21596678025E+02  0.00000000000E+00 0. -1.
</event>
<event>
 8    1  0.1229941E-006  0.9118800E+02  0.7816164E-02  0.1184000E+00
        -11   -1    0    0    0    0  0.00000000000E+00  0.00000000000E+00  0.45593999997E+02  0.45594000000E+02  0.51100000000E-03 0.  1.
         11   -1    0    0    0    0 -0.00000000000E+00 -0.00000000000E+00 -0.45593999997E+02  0.45594000000E+02  0.51100000000E-03 0. -1.
         23    2    1    2    0    0  0.00000000000E+00 -0.53290705182E-14 -0.71054273576E-14  0.91188000000E+02  0.91188000000E+02 0.  0.
    9900012    2    3    3    0    0 -0.17362511957E+02  0.95340991181E+01  0.31039069635E+02  0.54367085953E+02  0.40000004046E+02 0.  0.
         12    1    3    3    0    0  0.17362511957E+02 -0.95340991181E+01 -0.31039069635E+02  0.36820914047E+02  0.00000000000E+00 0. -1.
         11    1    4    4    0    0 -0.75096477742E+01 -0.47310252067E+01  0.53431962794E-03  0.88756639045E+01  0.51100000000E-03 0. -1.
        -11    1    4    4    0    0 -0.13462556738E+02 -0.38521040991E+01  0.86244316547E+01  0.16445666953E+02  0.51100000000E-03 0.  1.
        -12    1    4    4    0    0  0.36096925550E+01  0.18117228424E+02  0.22414103661E+02  0.29045755095E+02  0.00000000000E+00 0.  1.
</event>
<event>
 8    1  0.1229941E-006  0.9118800E+02  0.7816164E-02  0.1184000E+00
        -11   -1    0    0    0    0  0.00000000000E+00  0.00000000000E+00  0.45593999997E+02  0.45594000000E+02  0.51100000000E-03 0. -1.
         11   -1    0    0    0    0 -0.00000000000E+00 -0.00000000000E+00 -0.45593999997E+02  0.45594000000E+02  0.51100000000E-03 0.  1.
         23    2    1    2    0    0  0.00000000000E+00  0.88817841970E-15  0.00000000000E+00  0.91188000000E+02  0.91188000000E+02 0.  0.
    9900012    2    3    3    0    0 -0.29192498296E+02  0.42550726843E+01  0.22033501061E+02  0.54367044427E+02  0.39999909381E+02 0.  0.
        -12    1    3    3    0    0  0.29192498296E+02 -0.42550726843E+01 -0.22033501061E+02  0.36820955573E+02  0.00000000000E+00 0.  1.
         11    1    4    4    0    0  0.22939858902E+01 -0.36994355218E+01 -0.29212369831E+01  0.52423105800E+01  0.51100000000E-03 0.  1.
        -11    1    4    4    0    0 -0.31605205223E+02 -0.26323746756E+01  0.18196122903E+02  0.36563879480E+02  0.51100000000E-03 0. -1.
        -12    1    4    4    0    0  0.11872103716E+00  0.10586882882E+02  0.67586151403E+01  0.12560854368E+02  0.00000000000E+00 0.  1.
</event>
<event>
 8    1  0.1229941E-006  0.9118800E+02  0.7816164E-02  0.1184000E+00
        -11   -1    0    0    0    0  0.00000000000E+00  0.00000000000E+00  0.45593999997E+02  0.45594000000E+02  0.51100000000E-03 0.  1.
         11   -1    0    0    0    0 -0.00000000000E+00 -0.00000000000E+00 -0.45593999997E+02  0.45594000000E+02  0.51100000000E-03 0. -1.
         23    2    1    2    0    0  0.00000000000E+00  0.35527136788E-14  0.00000000000E+00  0.91188000000E+02  0.91188000000E+02 0.  0.
    9900012    2    3    3    0    0  0.17749876807E+02 -0.22426726108E+02 -0.23189723958E+02  0.54367089258E+02  0.40000011582E+02 0.  0.
        -12    1    3    3    0    0 -0.17749876807E+02  0.22426726108E+02  0.23189723958E+02  0.36820910742E+02  0.00000000000E+00 0.  1.
         11    1    4    4    0    0  0.22340957076E+02 -0.18341916122E+02 -0.10864583974E+02  0.30880146296E+02  0.51100000000E-03 0. -1.
        -11    1    4    4    0    0 -0.24270128603E+01  0.38100182281E+01 -0.14358319148E+02  0.15052174572E+02  0.51100000000E-03 0.  1.
         12    1    4    4    0    0 -0.21640674092E+01 -0.78948282142E+01  0.20331791636E+01  0.84347683901E+01  0.00000000000E+00 0. -1.
</event>
<event>
 8    1  0.1229941E-006  0.9118800E+02  0.7816164E-02  0.1184000E+00
        -11   -1    0    0    0    0  0.00000000000E+00  0.00000000000E+00  0.45593999997E+02  0.45594000000E+02  0.51100000000E-03 0. -1.
         11   -1    0    0    0    0 -0.00000000000E+00 -0.00000000000E+00 -0.45593999997E+02  0.45594000000E+02  0.51100000000E-03 0.  1.
         23    2    1    2    0    0  0.00000000000E+00  0.35527136788E-14  0.00000000000E+00  0.91188000000E+02  0.91188000000E+02 0.  0.
    9900012    2    3    3    0    0  0.16204688162E+02 -0.26316585778E+02  0.20015590247E+02  0.54367102966E+02  0.40000042833E+02 0.  0.
        -12    1    3    3    0    0 -0.16204688162E+02  0.26316585778E+02 -0.20015590247E+02  0.36820897034E+02  0.00000000000E+00 0.  1.
         11    1    4    4    0    0  0.78004448778E-02 -0.76666783860E+00  0.91039271529E+01  0.91361551151E+01  0.51100000000E-03 0. -1.
        -11    1    4    4    0    0  0.88618896630E+00  0.63580720076E+01  0.71990361706E+01  0.96455447012E+01  0.51100000000E-03 0.  1.
        -12    1    4    4    0    0  0.15310698751E+02 -0.31907989947E+02  0.37126269234E+01  0.35585403150E+02  0.00000000000E+00 0.  1.
</event>
<event>
 8    1  0.1229941E-006  0.9118800E+02  0.7816164E-02  0.1184000E+00
        -11   -1    0    0    0    0  0.00000000000E+00  0.00000000000E+00  0.45593999997E+02  0.45594000000E+02  0.51100000000E-03 0.  1.
         11   -1    0    0    0    0 -0.00000000000E+00 -0.00000000000E+00 -0.45593999997E+02  0.45594000000E+02  0.51100000000E-03 0. -1.
         23    2    1    2    0    0 -0.35527136788E-14  0.00000000000E+00  0.00000000000E+00  0.91188000000E+02  0.91188000000E+02 0.  0.
    9900012    2    3    3    0    0  0.23428827868E+02  0.25420846659E+02  0.12674747412E+02  0.54367100471E+02  0.40000037145E+02 0.  0.
         12    1    3    3    0    0 -0.23428827868E+02 -0.25420846659E+02 -0.12674747412E+02  0.36820899529E+02  0.00000000000E+00 0. -1.
         11    1    4    4    0    0 -0.68675944988E+01  0.67987022025E+01  0.93968420740E+00  0.97092333636E+01  0.51100000000E-03 0. -1.
        -11    1    4    4    0    0  0.10240943891E+02  0.20258401288E+02  0.37410135301E+01  0.23005976115E+02  0.51100000000E-03 0.  1.
         12    1    4    4    0    0  0.20055478477E+02 -0.16362568320E+01  0.79940496748E+01  0.21651890992E+02  0.00000000000E+00 0. -1.
</event>
<event>
 8    1  0.1229941E-006  0.9118800E+02  0.7816164E-02  0.1184000E+00
        -11   -1    0    0    0    0  0.00000000000E+00  0.00000000000E+00  0.45593999997E+02  0.45594000000E+02  0.51100000000E-03 0.  1.
         11   -1    0    0    0    0 -0.00000000000E+00 -0.00000000000E+00 -0.45593999997E+02  0.45594000000E+02  0.51100000000E-03 0. -1.
         23    2    1    2    0    0  0.00000000000E+00  0.00000000000E+00  0.00000000000E+00  0.91188000000E+02  0.91188000000E+02 0.  0.
    9900012    2    3    3    0    0  0.98103089055E+01  0.33328438116E+02 -0.12196454315E+02  0.54367075977E+02  0.39999981305E+02 0.  0.
         12    1    3    3    0    0 -0.98103089055E+01 -0.33328438116E+02  0.12196454315E+02  0.36820924023E+02  0.00000000000E+00 0. -1.
         11    1    4    4    0    0  0.61214637076E+00 -0.76731571301E+00  0.85794515333E+01  0.86354203983E+01  0.51100000000E-03 0. -1.
        -11    1    4    4    0    0  0.38408404449E+01  0.19825111559E+00  0.22015256717E+01  0.44314867001E+01  0.51100000000E-03 0.  1.
         12    1    4    4    0    0  0.53573220897E+01  0.33897502713E+02 -0.22977431520E+02  0.41300168879E+02  0.00000000000E+00 0. -1.
</event>
<event>
 8    1  0.1229941E-006  0.9118800E+02  0.7816164E-02  0.1184000E+00
        -11   -1    0    0    0    0  0.00000000000E+00  0.00000000000E+00  0.45593999997E+02  0.45594000000E+02  0.51100000000E-03 0.  1.
         11   -1    0    0    0    0 -0.00000000000E+00 -0.00000000000E+00 -0.45593999997E+02  0.45594000000E+02  0.51100000000E-03 0. -1.
         23    2    1    2    0    0  0.00000000000E+00  0.00000000000E+00  0.17763568394E-14  0.91188000000E+02  0.91188000000E+02 0.  0.
    9900012    2    3    3    0    0 -0.34553611851E+02  0.55258406122E+01 -0.11458326123E+02  0.54367078719E+02  0.39999987556E+02 0.  0.
        -12    1    3    3    0    0  0.34553611851E+02 -0.55258406122E+01  0.11458326123E+02  0.36820921281E+02  0.00000000000E+00 0.  1.
         11    1    4    4    0    0 -0.33646089316E+02  0.75051663266E+01 -0.15964644018E+01  0.34509934029E+02  0.51100000000E-03 0. -1.
        -11    1    4    4    0    0  0.15596536898E+01  0.30201778712E+01  0.38018485221E+01  0.50998084721E+01  0.51100000000E-03 0.  1.
         12    1    4    4    0    0 -0.24671762247E+01 -0.49995035856E+01 -0.13663710243E+02  0.14757336218E+02  0.00000000000E+00 0. -1.
</event>
<event>
 8    1  0.1229941E-006  0.9118800E+02  0.7816164E-02  0.1184000E+00
        -11   -1    0    0    0    0  0.00000000000E+00  0.00000000000E+00  0.45593999997E+02  0.45594000000E+02  0.51100000000E-03 0.  1.
         11   -1    0    0    0    0 -0.00000000000E+00 -0.00000000000E+00 -0.45593999997E+02  0.45594000000E+02  0.51100000000E-03 0. -1.
         23    2    1    2    0    0 -0.17763568394E-14  0.88817841970E-15  0.00000000000E+00  0.91188000000E+02  0.91188000000E+02 0.  0.
    9900012    2    3    3    0    0  0.10456998023E+02  0.26700745134E+01  0.35203676904E+02  0.54367123135E+02  0.40000088810E+02 0.  0.
         12    1    3    3    0    0 -0.10456998023E+02 -0.26700745134E+01 -0.35203676904E+02  0.36820876865E+02  0.00000000000E+00 0. -1.
         11    1    4    4    0    0  0.69157950038E+01 -0.13365229702E+02  0.14310504218E+01  0.15116398086E+02  0.51100000000E-03 0. -1.
        -11    1    4    4    0    0  0.65197382437E+01  0.53121337705E+01  0.18797046431E+02  0.20592588637E+02  0.51100000000E-03 0.  1.
         12    1    4    4    0    0 -0.29785352249E+01  0.10723170445E+02  0.14975580051E+02  0.18658136411E+02  0.00000000000E+00 0. -1.
</event>
<event>
 8    1  0.1229941E-006  0.9118800E+02  0.7816164E-02  0.1184000E+00
        -11   -1    0    0    0    0  0.00000000000E+00  0.00000000000E+00  0.45593999997E+02  0.45594000000E+02  0.51100000000E-03 0. -1.
         11   -1    0    0    0    0 -0.00000000000E+00 -0.00000000000E+00 -0.45593999997E+02  0.45594000000E+02  0.51100000000E-03 0.  1.
         23    2    1    2    0    0  0.00000000000E+00  0.00000000000E+00  0.00000000000E+00  0.91188000000E+02  0.91188000000E+02 0.  0.
    9900012    2    3    3    0    0 -0.15412994031E+02  0.32891744236E+02 -0.60292987653E+01  0.54367086547E+02  0.40000005401E+02 0.  0.
        -12    1    3    3    0    0  0.15412994031E+02 -0.32891744236E+02  0.60292987653E+01  0.36820913453E+02  0.00000000000E+00 0.  1.
         11    1    4    4    0    0 -0.25764704611E+01  0.22000867240E+02  0.13761971053E+01  0.22193924350E+02  0.51100000000E-03 0. -1.
        -11    1    4    4    0    0 -0.14082184695E+02  0.98510961845E+01  0.63506523321E+01  0.18321648592E+02  0.51100000000E-03 0.  1.
        -12    1    4    4    0    0  0.12456611249E+01  0.10397808122E+01 -0.13756148203E+02  0.13851513605E+02  0.00000000000E+00 0.  1.
</event>
<event>
 8    1  0.1229941E-006  0.9118800E+02  0.7816164E-02  0.1184000E+00
        -11   -1    0    0    0    0  0.00000000000E+00  0.00000000000E+00  0.45593999997E+02  0.45594000000E+02  0.51100000000E-03 0.  1.
         11   -1    0    0    0    0 -0.00000000000E+00 -0.00000000000E+00 -0.45593999997E+02  0.45594000000E+02  0.51100000000E-03 0. -1.
         23    2    1    2    0    0 -0.35527136788E-14  0.88817841970E-15  0.00000000000E+00  0.91188000000E+02  0.91188000000E+02 0.  0.
    9900012    2    3    3    0    0 -0.28630921572E+02 -0.46689288225E+01 -0.22677189251E+02  0.54367034793E+02  0.39999887418E+02 0.  0.
        -12    1    3    3    0    0  0.28630921572E+02  0.46689288225E+01  0.22677189251E+02  0.36820965207E+02  0.00000000000E+00 0.  1.
         11    1    4    4    0    0 -0.48802511466E+01  0.30026218366E+01 -0.15078445959E+02  0.16130471846E+02  0.51100000000E-03 0. -1.
        -11    1    4    4    0    0 -0.74118049272E+01 -0.93249440858E+01  0.89674994826E+01  0.14909912197E+02  0.51100000000E-03 0.  1.
        -12    1    4    4    0    0 -0.16338865498E+02  0.16533934268E+01 -0.16566242775E+02  0.23326650751E+02  0.00000000000E+00 0.  1.
</event>
<event>
 8    1  0.1229941E-006  0.9118800E+02  0.7816164E-02  0.1184000E+00
        -11   -1    0    0    0    0  0.00000000000E+00  0.00000000000E+00  0.45593999997E+02  0.45594000000E+02  0.51100000000E-03 0. -1.
         11   -1    0    0    0    0 -0.00000000000E+00 -0.00000000000E+00 -0.45593999997E+02  0.45594000000E+02  0.51100000000E-03 0.  1.
         23    2    1    2    0    0  0.11102230246E-15  0.00000000000E+00  0.00000000000E+00  0.91188000000E+02  0.91188000000E+02 0.  0.
    9900012    2    3    3    0    0  0.48482745544E+00 -0.33954355707E+02 -0.14235383198E+02  0.54367089311E+02  0.40000011703E+02 0.  0.
         12    1    3    3    0    0 -0.48482745544E+00  0.33954355707E+02  0.14235383198E+02  0.36820910689E+02  0.00000000000E+00 0. -1.
         11    1    4    4    0    0 -0.23124360525E+01 -0.62511421076E+00 -0.11050515470E+01  0.26380423530E+01  0.51100000000E-03 0. -1.
        -11    1    4    4    0    0 -0.10964121028E+02  0.26354096662E+01 -0.83971505368E+00  0.11307628206E+02  0.51100000000E-03 0.  1.
         12    1    4    4    0    0  0.13761384536E+02 -0.35964651163E+02 -0.12290616597E+02  0.40421418752E+02  0.00000000000E+00 0. -1.
</event>
<event>
 8    1  0.1229941E-006  0.9118800E+02  0.7816164E-02  0.1184000E+00
        -11   -1    0    0    0    0  0.00000000000E+00  0.00000000000E+00  0.45593999997E+02  0.45594000000E+02  0.51100000000E-03 0.  1.
         11   -1    0    0    0    0 -0.00000000000E+00 -0.00000000000E+00 -0.45593999997E+02  0.45594000000E+02  0.51100000000E-03 0. -1.
         23    2    1    2    0    0  0.17763568394E-14  0.00000000000E+00  0.00000000000E+00  0.91188000000E+02  0.91188000000E+02 0.  0.
    9900012    2    3    3    0    0  0.12667627971E+02 -0.25860601623E+02  0.22946459070E+02  0.54367088841E+02  0.40000010632E+02 0.  0.
         12    1    3    3    0    0 -0.12667627971E+02  0.25860601623E+02 -0.22946459070E+02  0.36820911159E+02  0.00000000000E+00 0. -1.
         11    1    4    4    0    0  0.59959980208E+01 -0.53131843927E+01  0.84515296670E+01  0.11645182464E+02  0.51100000000E-03 0. -1.
        -11    1    4    4    0    0  0.16172188507E+02  0.21547971909E+00  0.11150871784E+02  0.19645051653E+02  0.51100000000E-03 0.  1.
         12    1    4    4    0    0 -0.95005585571E+01 -0.20762896949E+02  0.33440576188E+01  0.23076854724E+02  0.00000000000E+00 0. -1.
</event>
<event>
 8    1  0.1229941E-006  0.9118800E+02  0.7816164E-02  0.1184000E+00
        -11   -1    0    0    0    0  0.00000000000E+00  0.00000000000E+00  0.45593999997E+02  0.45594000000E+02  0.51100000000E-03 0. -1.
         11   -1    0    0    0    0 -0.00000000000E+00 -0.00000000000E+00 -0.45593999997E+02  0.45594000000E+02  0.51100000000E-03 0.  1.
         23    2    1    2    0    0  0.00000000000E+00  0.66613381478E-15 -0.88817841970E-15  0.91188000000E+02  0.91188000000E+02 0.  0.
    9900012    2    3    3    0    0 -0.36077022595E+02 -0.18612927145E+01 -0.71247768253E+01  0.54367103559E+02  0.40000044183E+02 0.  0.
        -12    1    3    3    0    0  0.36077022595E+02  0.18612927145E+01  0.71247768253E+01  0.36820896441E+02  0.00000000000E+00 0.  1.
         11    1    4    4    0    0  0.41115832212E+01 -0.54467091244E+01 -0.46453569934E+01  0.82553678736E+01  0.51100000000E-03 0. -1.
        -11    1    4    4    0    0 -0.17758107150E+02  0.12577991475E+02  0.47022014820E+00  0.21766427046E+02  0.51100000000E-03 0.  1.
         12    1    4    4    0    0 -0.22430498666E+02 -0.89925750653E+01 -0.29496399800E+01  0.24345308639E+02  0.00000000000E+00 0. -1.
</event>
<event>
 8    1  0.1229941E-006  0.9118800E+02  0.7816164E-02  0.1184000E+00
        -11   -1    0    0    0    0  0.00000000000E+00  0.00000000000E+00  0.45593999997E+02  0.45594000000E+02  0.51100000000E-03 0. -1.
         11   -1    0    0    0    0 -0.00000000000E+00 -0.00000000000E+00 -0.45593999997E+02  0.45594000000E+02  0.51100000000E-03 0.  1.
         23    2    1    2    0    0  0.00000000000E+00  0.00000000000E+00  0.00000000000E+00  0.91188000000E+02  0.91188000000E+02 0.  0.
    9900012    2    3    3    0    0  0.27115845818E+02 -0.17314273118E+02  0.17908836128E+02  0.54367088014E+02  0.40000008745E+02 0.  0.
        -12    1    3    3    0    0 -0.27115845818E+02  0.17314273118E+02 -0.17908836128E+02  0.36820911986E+02  0.00000000000E+00 0.  1.
         11    1    4    4    0    0  0.35226044733E+02 -0.10440211586E+02  0.15216900101E+02  0.39767150947E+02  0.51100000000E-03 0. -1.
        -11    1    4    4    0    0 -0.10386208372E+01  0.24190801957E+01  0.80955379278E-01  0.26338633737E+01  0.51100000000E-03 0.  1.
         12    1    4    4    0    0 -0.70715780778E+01 -0.92931417281E+01  0.26109806485E+01  0.11966073693E+02  0.00000000000E+00 0. -1.
</event>
<event>
 8    1  0.1229941E-006  0.9118800E+02  0.7816164E-02  0.1184000E+00
        -11   -1    0    0    0    0  0.00000000000E+00  0.00000000000E+00  0.45593999997E+02  0.45594000000E+02  0.51100000000E-03 0.  1.
         11   -1    0    0    0    0 -0.00000000000E+00 -0.00000000000E+00 -0.45593999997E+02  0.45594000000E+02  0.51100000000E-03 0. -1.
         23    2    1    2    0    0 -0.35527136788E-14  0.00000000000E+00  0.00000000000E+00  0.91188000000E+02  0.91188000000E+02 0.  0.
    9900012    2    3    3    0    0  0.29476604977E+02  0.11016519879E+02 -0.19119265740E+02  0.54367078317E+02  0.39999986638E+02 0.  0.
        -12    1    3    3    0    0 -0.29476604977E+02 -0.11016519879E+02  0.19119265740E+02  0.36820921683E+02  0.00000000000E+00 0.  1.
         11    1    4    4    0    0  0.19144825472E+02  0.79181566477E+01 -0.32936548489E+01  0.20977838534E+02  0.51100000000E-03 0. -1.
        -11    1    4    4    0    0 -0.68800845389E+01 -0.45500578508E+01 -0.11348864668E+02  0.14029801111E+02  0.51100000000E-03 0.  1.
        -12    1    4    4    0    0  0.17211864043E+02  0.76484210826E+01 -0.44767462225E+01  0.19359438671E+02  0.00000000000E+00 0.  1.
</event>
<event>
 8    1  0.1229941E-006  0.9118800E+02  0.7816164E-02  0.1184000E+00
        -11   -1    0    0    0    0  0.00000000000E+00  0.00000000000E+00  0.45593999997E+02  0.45594000000E+02  0.51100000000E-03 0. -1.
         11   -1    0    0    0    0 -0.00000000000E+00 -0.00000000000E+00 -0.45593999997E+02  0.45594000000E+02  0.51100000000E-03 0.  1.
         23    2    1    2    0    0 -0.11102230246E-15  0.00000000000E+00  0.00000000000E+00  0.91188000000E+02  0.91188000000E+02 0.  0.
    9900012    2    3    3    0    0  0.66165924125E+00 -0.14484299139E+02  0.33845936287E+02  0.54367080435E+02  0.39999991467E+02 0.  0.
        -12    1    3    3    0    0 -0.66165924125E+00  0.14484299139E+02 -0.33845936287E+02  0.36820919565E+02  0.00000000000E+00 0.  1.
         11    1    4    4    0    0  0.83989122600E+01 -0.12809862061E+02  0.18926312656E+02  0.24348297768E+02  0.51100000000E-03 0. -1.
        -11    1    4    4    0    0  0.45981943001E+01 -0.73301743743E-01  0.16818366037E+02  0.17435773581E+02  0.51100000000E-03 0.  1.
        -12    1    4    4    0    0 -0.12335447319E+02 -0.16011353343E+01 -0.18987424063E+01  0.12583009085E+02  0.00000000000E+00 0.  1.
</event>
<event>
 8    1  0.1229941E-006  0.9118800E+02  0.7816164E-02  0.1184000E+00
        -11   -1    0    0    0    0  0.00000000000E+00  0.00000000000E+00  0.45593999997E+02  0.45594000000E+02  0.51100000000E-03 0. -1.
         11   -1    0    0    0    0 -0.00000000000E+00 -0.00000000000E+00 -0.45593999997E+02  0.45594000000E+02  0.51100000000E-03 0.  1.
         23    2    1    2    0    0 -0.44408920985E-15 -0.44408920985E-15  0.00000000000E+00  0.91188000000E+02  0.91188000000E+02 0.  0.
    9900012    2    3    3    0    0 -0.58138685895E+00  0.15660809230E+01 -0.36782984193E+02  0.54367101773E+02  0.40000040112E+02 0.  0.
         12    1    3    3    0    0  0.58138685895E+00 -0.15660809230E+01  0.36782984193E+02  0.36820898227E+02  0.00000000000E+00 0. -1.
         11    1    4    4    0    0 -0.34792383477E+01  0.48556154916E+01 -0.19085967422E+02  0.19998906320E+02  0.51100000000E-03 0. -1.
        -11    1    4    4    0    0  0.13095140459E+01  0.46050543436E+01 -0.23791973006E+02  0.24268896397E+02  0.51100000000E-03 0.  1.
         12    1    4    4    0    0  0.15883374429E+01 -0.78945889123E+01  0.60949562352E+01  0.10099299057E+02  0.00000000000E+00 0. -1.
</event>
<event>
 8    1  0.1229941E-006  0.9118800E+02  0.7816164E-02  0.1184000E+00
        -11   -1    0    0    0    0  0.00000000000E+00  0.00000000000E+00  0.45593999997E+02  0.45594000000E+02  0.51100000000E-03 0.  1.
         11   -1    0    0    0    0 -0.00000000000E+00 -0.00000000000E+00 -0.45593999997E+02  0.45594000000E+02  0.51100000000E-03 0. -1.
         23    2    1    2    0    0  0.00000000000E+00  0.88817841970E-15  0.00000000000E+00  0.91188000000E+02  0.91188000000E+02 0.  0.
    9900012    2    3    3    0    0 -0.35363921146E+02 -0.36916804565E+01  0.95679193970E+01  0.54367075175E+02  0.39999979476E+02 0.  0.
         12    1    3    3    0    0  0.35363921146E+02  0.36916804565E+01 -0.95679193970E+01  0.36820924825E+02  0.00000000000E+00 0. -1.
         11    1    4    4    0    0 -0.38348322982E+00  0.51867389234E+01  0.97274872309E+01  0.11030563364E+02  0.51100000000E-03 0. -1.
        -11    1    4    4    0    0 -0.21512937532E+02 -0.15145561804E+02 -0.66331385808E+01  0.27132877682E+02  0.51100000000E-03 0.  1.
        -12    1    4    4    0    0 -0.13467500384E+02  0.62671424241E+01  0.64735707469E+01  0.16203634128E+02  0.00000000000E+00 0.  1.
</event>
<event>
 8    1  0.1229941E-006  0.9118800E+02  0.7816164E-02  0.1184000E+00
        -11   -1    0    0    0    0  0.00000000000E+00  0.00000000000E+00  0.45593999997E+02  0.45594000000E+02  0.51100000000E-03 0.  1.
         11   -1    0    0    0    0 -0.00000000000E+00 -0.00000000000E+00 -0.45593999997E+02  0.45594000000E+02  0.51100000000E-03 0. -1.
         23    2    1    2    0    0  0.22204460493E-15  0.71054273576E-14  0.00000000000E+00  0.91188000000E+02  0.91188000000E+02 0.  0.
    9900012    2    3    3    0    0  0.17081291047E+01  0.35070974286E+02 -0.11085589277E+02  0.54367065302E+02  0.39999956970E+02 0.  0.
        -12    1    3    3    0    0 -0.17081291047E+01 -0.35070974286E+02  0.11085589277E+02  0.36820934698E+02  0.00000000000E+00 0.  1.
         11    1    4    4    0    0 -0.59579907997E+01  0.31052485081E+02 -0.17476715589E+02  0.36127414412E+02  0.51100000000E-03 0. -1.
        -11    1    4    4    0    0  0.79873842744E+01  0.82415732830E+01  0.11993829148E+01  0.11539512874E+02  0.51100000000E-03 0.  1.
         12    1    4    4    0    0 -0.32126436996E+00 -0.42230840782E+01  0.51917433978E+01  0.67001380162E+01  0.00000000000E+00 0. -1.
</event>
<event>
 8    1  0.1229941E-006  0.9118800E+02  0.7816164E-02  0.1184000E+00
        -11   -1    0    0    0    0  0.00000000000E+00  0.00000000000E+00  0.45593999997E+02  0.45594000000E+02  0.51100000000E-03 0. -1.
         11   -1    0    0    0    0 -0.00000000000E+00 -0.00000000000E+00 -0.45593999997E+02  0.45594000000E+02  0.51100000000E-03 0.  1.
         23    2    1    2    0    0  0.17763568394E-14  0.00000000000E+00  0.00000000000E+00  0.91188000000E+02  0.91188000000E+02 0.  0.
    9900012    2    3    3    0    0  0.12610549009E+02 -0.31788187467E+02  0.13647997144E+02  0.54367046254E+02  0.39999913544E+02 0.  0.
        -12    1    3    3    0    0 -0.12610549009E+02  0.31788187467E+02 -0.13647997144E+02  0.36820953746E+02  0.00000000000E+00 0.  1.
         11    1    4    4    0    0  0.62146688772E+00 -0.28910473607E+01  0.10190335519E+02  0.10610716950E+02  0.51100000000E-03 0. -1.
        -11    1    4    4    0    0  0.13879185067E+02 -0.40140021986E+01 -0.77555939473E+01  0.16397964188E+02  0.51100000000E-03 0.  1.
         12    1    4    4    0    0 -0.18901029454E+01 -0.24883137908E+02  0.11213255571E+02  0.27358365115E+02  0.00000000000E+00 0. -1.
</event>
<event>
 8    1  0.1229941E-006  0.9118800E+02  0.7816164E-02  0.1184000E+00
        -11   -1    0    0    0    0  0.00000000000E+00  0.00000000000E+00  0.45593999997E+02  0.45594000000E+02  0.51100000000E-03 0.  1.
         11   -1    0    0    0    0 -0.00000000000E+00 -0.00000000000E+00 -0.45593999997E+02  0.45594000000E+02  0.51100000000E-03 0. -1.
         23    2    1    2    0    0  0.71054273576E-14  0.35527136788E-14  0.00000000000E+00  0.91188000000E+02  0.91188000000E+02 0.  0.
    9900012    2    3    3    0    0 -0.26832202321E+02 -0.15740327133E+02 -0.19699064373E+02  0.54367107604E+02  0.40000053406E+02 0.  0.
        -12    1    3    3    0    0  0.26832202321E+02  0.15740327133E+02  0.19699064373E+02  0.36820892396E+02  0.00000000000E+00 0.  1.
         11    1    4    4    0    0 -0.15331151523E+02 -0.12158616435E+02 -0.32576343837E+01  0.19836540592E+02  0.51100000000E-03 0. -1.
        -11    1    4    4    0    0 -0.16801533290E+02  0.23443582305E+01 -0.79851696687E+00  0.16983084702E+02  0.51100000000E-03 0.  1.
         12    1    4    4    0    0  0.53004824916E+01 -0.59260689285E+01 -0.15642913023E+02  0.17547482310E+02  0.00000000000E+00 0. -1.
</event>
<event>
 8    1  0.1229941E-006  0.9118800E+02  0.7816164E-02  0.1184000E+00
        -11   -1    0    0    0    0  0.00000000000E+00  0.00000000000E+00  0.45593999997E+02  0.45594000000E+02  0.51100000000E-03 0. -1.
         11   -1    0    0    0    0 -0.00000000000E+00 -0.00000000000E+00 -0.45593999997E+02  0.45594000000E+02  0.51100000000E-03 0.  1.
         23    2    1    2    0    0  0.00000000000E+00  0.88817841970E-15 -0.35527136788E-14  0.91188000000E+02  0.91188000000E+02 0.  0.
    9900012    2    3    3    0    0  0.26577540632E+02  0.54054554637E+01  0.24903730701E+02  0.54367076361E+02  0.39999982181E+02 0.  0.
        -12    1    3    3    0    0 -0.26577540632E+02 -0.54054554637E+01 -0.24903730701E+02  0.36820923639E+02  0.00000000000E+00 0.  1.
         11    1    4    4    0    0  0.23426353075E+02  0.18105124270E+02  0.88919306853E+01  0.30913685882E+02  0.51100000000E-03 0. -1.
        -11    1    4    4    0    0  0.50431559956E+01 -0.94531147280E+01  0.16490417761E+02  0.19665418344E+02  0.51100000000E-03 0.  1.
         12    1    4    4    0    0 -0.18919684387E+01 -0.32465540782E+01 -0.47861774505E+00  0.37879721358E+01  0.00000000000E+00 0. -1.
</event>
<event>
 8    1  0.1229941E-006  0.9118800E+02  0.7816164E-02  0.1184000E+00
        -11   -1    0    0    0    0  0.00000000000E+00  0.00000000000E+00  0.45593999997E+02  0.45594000000E+02  0.51100000000E-03 0. -1.
         11   -1    0    0    0    0 -0.00000000000E+00 -0.00000000000E+00 -0.45593999997E+02  0.45594000000E+02  0.51100000000E-03 0.  1.
         23    2    1    2    0    0  0.00000000000E+00 -0.26645352591E-14  0.35527136788E-14  0.91188000000E+02  0.91188000000E+02 0.  0.
    9900012    2    3    3    0    0  0.22905761623E+02 -0.52417070916E+01  0.28348358587E+02  0.54367097738E+02  0.40000030914E+02 0.  0.
        -12    1    3    3    0    0 -0.22905761623E+02  0.52417070916E+01 -0.28348358587E+02  0.36820902262E+02  0.00000000000E+00 0.  1.
         11    1    4    4    0    0  0.11436594537E+02 -0.16572541281E+02  0.14355151868E+02  0.24728833465E+02  0.51100000000E-03 0. -1.
        -11    1    4    4    0    0  0.15404707261E+01 -0.16211965304E+01 -0.44688585190E+01  0.49972017142E+01  0.51100000000E-03 0.  1.
         12    1    4    4    0    0  0.99286963599E+01  0.12952030720E+02  0.18462065238E+02  0.24641062559E+02  0.00000000000E+00 0. -1.
</event>
<event>
 8    1  0.1229941E-006  0.9118800E+02  0.7816164E-02  0.1184000E+00
        -11   -1    0    0    0    0  0.00000000000E+00  0.00000000000E+00  0.45593999997E+02  0.45594000000E+02  0.51100000000E-03 0.  1.
         11   -1    0    0    0    0 -0.00000000000E+00 -0.00000000000E+00 -0.45593999997E+02  0.45594000000E+02  0.51100000000E-03 0. -1.
         23    2    1    2    0    0  0.00000000000E+00 -0.17763568394E-14  0.35527136788E-14  0.91188000000E+02  0.91188000000E+02 0.  0.
    9900012    2    3    3    0    0  0.24874737160E+02  0.12764303941E+02  0.23960393969E+02  0.54367075472E+02  0.39999980155E+02 0.  0.
         12    1    3    3    0    0 -0.24874737160E+02 -0.12764303941E+02 -0.23960393969E+02  0.36820924528E+02  0.00000000000E+00 0. -1.
         11    1    4    4    0    0  0.53022605228E-01  0.61964980991E+00  0.17675390602E+01  0.18737587556E+01  0.51100000000E-03 0. -1.
        -11    1    4    4    0    0  0.20652824767E+01  0.14128089789E+02 -0.66083028562E+01  0.15733339751E+02  0.51100000000E-03 0.  1.
        -12    1    4    4    0    0  0.22756432078E+02 -0.19834356581E+01  0.28801157765E+02  0.36759976966E+02  0.00000000000E+00 0.  1.
</event>
<event>
 8    1  0.1229941E-006  0.9118800E+02  0.7816164E-02  0.1184000E+00
        -11   -1    0    0    0    0  0.00000000000E+00  0.00000000000E+00  0.45593999997E+02  0.45594000000E+02  0.51100000000E-03 0. -1.
         11   -1    0    0    0    0 -0.00000000000E+00 -0.00000000000E+00 -0.45593999997E+02  0.45594000000E+02  0.51100000000E-03 0.  1.
         23    2    1    2    0    0  0.00000000000E+00  0.00000000000E+00  0.00000000000E+00  0.91188000000E+02  0.91188000000E+02 0.  0.
    9900012    2    3    3    0    0  0.23009342558E+02 -0.80298761965E+01  0.27602007412E+02  0.54367087873E+02  0.40000008424E+02 0.  0.
        -12    1    3    3    0    0 -0.23009342558E+02  0.80298761965E+01 -0.27602007412E+02  0.36820912127E+02  0.00000000000E+00 0.  1.
         11    1    4    4    0    0  0.11891105351E+02 -0.85301080477E+01  0.36203917394E+02  0.39049772915E+02  0.51100000000E-03 0. -1.
        -11    1    4    4    0    0  0.41505543205E+01  0.60677033945E+00 -0.70101997657E+01  0.81693434514E+01  0.51100000000E-03 0.  1.
         12    1    4    4    0    0  0.69676828864E+01 -0.10653848824E+00 -0.15917102157E+01  0.71479715070E+01  0.00000000000E+00 0. -1.
</event>
<event>
 8    1  0.1229941E-006  0.9118800E+02  0.7816164E-02  0.1184000E+00
        -11   -1    0    0    0    0  0.00000000000E+00  0.00000000000E+00  0.45593999997E+02  0.45594000000E+02  0.51100000000E-03 0.  1.
         11   -1    0    0    0    0 -0.00000000000E+00 -0.00000000000E+00 -0.45593999997E+02  0.45594000000E+02  0.51100000000E-03 0. -1.
         23    2    1    2    0    0  0.17763568394E-14 -0.71054273576E-14  0.00000000000E+00  0.91188000000E+02  0.91188000000E+02 0.  0.
    9900012    2    3    3    0    0 -0.87658569462E+01  0.33176911443E+02 -0.13350340131E+02  0.54367091776E+02  0.40000017321E+02 0.  0.
         12    1    3    3    0    0  0.87658569462E+01 -0.33176911443E+02  0.13350340131E+02  0.36820908224E+02  0.00000000000E+00 0. -1.
         11    1    4    4    0    0  0.45776260353E+01  0.26306106156E+01 -0.41777670565E+00  0.52961599265E+01  0.51100000000E-03 0. -1.
        -11    1    4    4    0    0  0.72674016366E+01  0.14633369599E+02  0.54201389298E+01  0.17214195847E+02  0.51100000000E-03 0.  1.
         12    1    4    4    0    0 -0.20610884618E+02  0.15912931228E+02 -0.18352702355E+02  0.31856736002E+02  0.00000000000E+00 0. -1.
</event>
<event>
 8    1  0.1229941E-006  0.9118800E+02  0.7816164E-02  0.1184000E+00
        -11   -1    0    0    0    0  0.00000000000E+00  0.00000000000E+00  0.45593999997E+02  0.45594000000E+02  0.51100000000E-03 0. -1.
         11   -1    0    0    0    0 -0.00000000000E+00 -0.00000000000E+00 -0.45593999997E+02  0.45594000000E+02  0.51100000000E-03 0.  1.
         23    2    1    2    0    0  0.26645352591E-14  0.00000000000E+00  0.00000000000E+00  0.91188000000E+02  0.91188000000E+02 0.  0.
    9900012    2    3    3    0    0  0.39145806742E+01  0.17848435392E+02  0.31967026225E+02  0.54367063652E+02  0.39999953209E+02 0.  0.
        -12    1    3    3    0    0 -0.39145806742E+01 -0.17848435392E+02 -0.31967026225E+02  0.36820936348E+02  0.00000000000E+00 0.  1.
         11    1    4    4    0    0  0.46234825387E+01  0.12464300885E+01  0.94961519561E+01  0.10635181286E+02  0.51100000000E-03 0. -1.
        -11    1    4    4    0    0  0.13801629069E+02  0.18023969766E+02  0.16042093765E+02  0.27797431963E+02  0.51100000000E-03 0.  1.
        -12    1    4    4    0    0 -0.14510530933E+02 -0.14219644620E+01  0.64287805040E+01  0.15934450404E+02  0.00000000000E+00 0.  1.
</event>
<event>
 8    1  0.1229941E-006  0.9118800E+02  0.7816164E-02  0.1184000E+00
        -11   -1    0    0    0    0  0.00000000000E+00  0.00000000000E+00  0.45593999997E+02  0.45594000000E+02  0.51100000000E-03 0. -1.
         11   -1    0    0    0    0 -0.00000000000E+00 -0.00000000000E+00 -0.45593999997E+02  0.45594000000E+02  0.51100000000E-03 0.  1.
         23    2    1    2    0    0  0.00000000000E+00  0.00000000000E+00  0.00000000000E+00  0.91188000000E+02  0.91188000000E+02 0.  0.
    9900012    2    3    3    0    0 -0.13317393184E+02 -0.20075857382E+02 -0.27845727897E+02  0.54367114990E+02  0.40000070242E+02 0.  0.
         12    1    3    3    0    0  0.13317393184E+02  0.20075857382E+02  0.27845727897E+02  0.36820885010E+02  0.00000000000E+00 0. -1.
         11    1    4    4    0    0 -0.48440012345E+01 -0.59437090973E+01 -0.10054321896E+02  0.12644422282E+02  0.51100000000E-03 0. -1.
        -11    1    4    4    0    0 -0.41340468427E+01 -0.20758971139E+02 -0.23747978563E+02  0.31811817177E+02  0.51100000000E-03 0.  1.
         12    1    4    4    0    0 -0.43393451067E+01  0.66268228545E+01  0.59565725618E+01  0.99108755306E+01  0.00000000000E+00 0. -1.
</event>
<event>
 8    1  0.1229941E-006  0.9118800E+02  0.7816164E-02  0.1184000E+00
        -11   -1    0    0    0    0  0.00000000000E+00  0.00000000000E+00  0.45593999997E+02  0.45594000000E+02  0.51100000000E-03 0.  1.
         11   -1    0    0    0    0 -0.00000000000E+00 -0.00000000000E+00 -0.45593999997E+02  0.45594000000E+02  0.51100000000E-03 0. -1.
         23    2    1    2    0    0  0.00000000000E+00 -0.44408920985E-15 -0.35527136788E-14  0.91188000000E+02  0.91188000000E+02 0.  0.
    9900012    2    3    3    0    0 -0.27844700548E+02  0.38118409344E+01  0.23789107555E+02  0.54367094007E+02  0.40000022408E+02 0.  0.
         12    1    3    3    0    0  0.27844700548E+02 -0.38118409344E+01 -0.23789107555E+02  0.36820905993E+02  0.00000000000E+00 0. -1.
         11    1    4    4    0    0 -0.13426785148E+02 -0.77886205421E+01  0.31365330528E+01  0.15836003574E+02  0.51100000000E-03 0. -1.
        -11    1    4    4    0    0 -0.17019687951E+02 -0.27974159629E+01  0.73219927800E+01  0.18737846529E+02  0.51100000000E-03 0.  1.
        -12    1    4    4    0    0  0.26017725513E+01  0.14397877439E+02  0.13330581722E+02  0.19793243903E+02  0.00000000000E+00 0.  1.
</event>
<event>
 8    1  0.1229941E-006  0.9118800E+02  0.7816164E-02  0.1184000E+00
        -11   -1    0    0    0    0  0.00000000000E+00  0.00000000000E+00  0.45593999997E+02  0.45594000000E+02  0.51100000000E-03 0.  1.
         11   -1    0    0    0    0 -0.00000000000E+00 -0.00000000000E+00 -0.45593999997E+02  0.45594000000E+02  0.51100000000E-03 0. -1.
         23    2    1    2    0    0 -0.35527136788E-14  0.35527136788E-14  0.00000000000E+00  0.91188000000E+02  0.91188000000E+02 0.  0.
    9900012    2    3    3    0    0 -0.17613822047E+02 -0.24058927214E+02 -0.21603260971E+02  0.54367087595E+02  0.40000007789E+02 0.  0.
        -12    1    3    3    0    0  0.17613822047E+02  0.24058927214E+02  0.21603260971E+02  0.36820912405E+02  0.00000000000E+00 0.  1.
         11    1    4    4    0    0 -0.14376300351E+02 -0.11826343300E+02 -0.80102707842E+01  0.20265854187E+02  0.51100000000E-03 0. -1.
        -11    1    4    4    0    0  0.56983433408E+00 -0.10792088912E+02 -0.22138608089E+02  0.24635581232E+02  0.51100000000E-03 0.  1.
        -12    1    4    4    0    0 -0.38073560297E+01 -0.14404950022E+01  0.85456179019E+01  0.94656521758E+01  0.00000000000E+00 0.  1.
</event>
<event>
 8    1  0.1229941E-006  0.9118800E+02  0.7816164E-02  0.1184000E+00
        -11   -1    0    0    0    0  0.00000000000E+00  0.00000000000E+00  0.45593999997E+02  0.45594000000E+02  0.51100000000E-03 0.  1.
         11   -1    0    0    0    0 -0.00000000000E+00 -0.00000000000E+00 -0.45593999997E+02  0.45594000000E+02  0.51100000000E-03 0. -1.
         23    2    1    2    0    0 -0.88817841970E-15 -0.71054273576E-14 -0.48919202023E-15  0.91188000000E+02  0.91188000000E+02 0.  0.
    9900012    2    3    3    0    0  0.48281268734E+01  0.36503009847E+02  0.15822973781E-01  0.54367071340E+02  0.39999970734E+02 0.  0.
        -12    1    3    3    0    0 -0.48281268734E+01 -0.36503009847E+02 -0.15822973781E-01  0.36820928660E+02  0.00000000000E+00 0.  1.
         11    1    4    4    0    0  0.17268060664E+01  0.12328890522E+02  0.77420944394E+01  0.14660266957E+02  0.51100000000E-03 0. -1.
        -11    1    4    4    0    0  0.12562433424E+02  0.34503046736E+01  0.45859608947E+01  0.13811240837E+02  0.51100000000E-03 0.  1.
        -12    1    4    4    0    0 -0.94611126168E+01  0.20723814652E+02 -0.12312232360E+02  0.25895563546E+02  0.00000000000E+00 0.  1.
</event>
<event>
 8    1  0.1229941E-006  0.9118800E+02  0.7816164E-02  0.1184000E+00
        -11   -1    0    0    0    0  0.00000000000E+00  0.00000000000E+00  0.45593999997E+02  0.45594000000E+02  0.51100000000E-03 0. -1.
         11   -1    0    0    0    0 -0.00000000000E+00 -0.00000000000E+00 -0.45593999997E+02  0.45594000000E+02  0.51100000000E-03 0.  1.
         23    2    1    2    0    0  0.00000000000E+00  0.00000000000E+00 -0.35527136788E-14  0.91188000000E+02  0.91188000000E+02 0.  0.
    9900012    2    3    3    0    0  0.21152774092E+01  0.33425911204E+02  0.15297423393E+02  0.54367121401E+02  0.40000084857E+02 0.  0.
        -12    1    3    3    0    0 -0.21152774092E+01 -0.33425911204E+02 -0.15297423393E+02  0.36820878599E+02  0.00000000000E+00 0.  1.
         11    1    4    4    0    0  0.18642393174E+01 -0.17437057974E+01  0.88793941858E+01  0.92390226490E+01  0.51100000000E-03 0. -1.
        -11    1    4    4    0    0  0.13867941076E+02  0.17790918503E+02  0.23638404030E+01  0.22680923980E+02  0.51100000000E-03 0.  1.
         12    1    4    4    0    0 -0.13616902984E+02  0.17378698498E+02  0.40541888037E+01  0.22447174772E+02  0.00000000000E+00 0. -1.
</event>
<event>
 8    1  0.1229941E-006  0.9118800E+02  0.7816164E-02  0.1184000E+00
        -11   -1    0    0    0    0  0.00000000000E+00  0.00000000000E+00  0.45593999997E+02  0.45594000000E+02  0.51100000000E-03 0. -1.
         11   -1    0    0    0    0 -0.00000000000E+00 -0.00000000000E+00 -0.45593999997E+02  0.45594000000E+02  0.51100000000E-03 0.  1.
         23    2    1    2    0    0  0.17763568394E-14  0.00000000000E+00  0.00000000000E+00  0.91188000000E+02  0.91188000000E+02 0.  0.
    9900012    2    3    3    0    0  0.43517388723E+01  0.32034859813E+02 -0.17624138808E+02  0.54367080088E+02  0.39999990676E+02 0.  0.
         12    1    3    3    0    0 -0.43517388723E+01 -0.32034859813E+02  0.17624138808E+02  0.36820919912E+02  0.00000000000E+00 0. -1.
         11    1    4    4    0    0  0.39377742115E+01 -0.75835935214E+01 -0.36256894679E+01  0.92823801267E+01  0.51100000000E-03 0. -1.
        -11    1    4    4    0    0 -0.60040369250E+01  0.17998806137E+02 -0.87915014746E+00  0.18994167184E+02  0.51100000000E-03 0.  1.
        -12    1    4    4    0    0  0.64180015859E+01  0.21619647197E+02 -0.13119299192E+02  0.26090532777E+02  0.00000000000E+00 0.  1.
</event>
<event>
 8    1  0.1229941E-006  0.9118800E+02  0.7816164E-02  0.1184000E+00
        -11   -1    0    0    0    0  0.00000000000E+00  0.00000000000E+00  0.45593999997E+02  0.45594000000E+02  0.51100000000E-03 0. -1.
         11   -1    0    0    0    0 -0.00000000000E+00 -0.00000000000E+00 -0.45593999997E+02  0.45594000000E+02  0.51100000000E-03 0.  1.
         23    2    1    2    0    0  0.88817841970E-15  0.00000000000E+00  0.00000000000E+00  0.91188000000E+02  0.91188000000E+02 0.  0.
    9900012    2    3    3    0    0  0.62656686857E+01  0.87767136395E+01 -0.35206163204E+02  0.54367309703E+02  0.40000514128E+02 0.  0.
         12    1    3    3    0    0 -0.62656686857E+01 -0.87767136395E+01  0.35206163204E+02  0.36820690297E+02  0.00000000000E+00 0. -1.
         11    1    4    4    0    0  0.92613521835E+01  0.45704563494E+00 -0.13790418495E+02  0.16617977540E+02  0.51100000000E-03 0. -1.
        -11    1    4    4    0    0  0.86044614471E+01 -0.28794843322E+01  0.20266671601E+01  0.92970730262E+01  0.51100000000E-03 0.  1.
         12    1    4    4    0    0 -0.11600144945E+02  0.11199152337E+02 -0.23442411869E+02  0.28452259138E+02  0.00000000000E+00 0. -1.
</event>
<event>
 8    1  0.1229941E-006  0.9118800E+02  0.7816164E-02  0.1184000E+00
        -11   -1    0    0    0    0  0.00000000000E+00  0.00000000000E+00  0.45593999997E+02  0.45594000000E+02  0.51100000000E-03 0. -1.
         11   -1    0    0    0    0 -0.00000000000E+00 -0.00000000000E+00 -0.45593999997E+02  0.45594000000E+02  0.51100000000E-03 0.  1.
         23    2    1    2    0    0 -0.35527136788E-14  0.00000000000E+00  0.00000000000E+00  0.91188000000E+02  0.91188000000E+02 0.  0.
    9900012    2    3    3    0    0  0.15272739527E+02 -0.27865989687E+01  0.33387987420E+02  0.54367090038E+02  0.40000013360E+02 0.  0.
        -12    1    3    3    0    0 -0.15272739527E+02  0.27865989687E+01 -0.33387987420E+02  0.36820909962E+02  0.00000000000E+00 0.  1.
         11    1    4    4    0    0 -0.49386011364E+01 -0.41119475033E+01  0.10288302509E+02  0.12130418881E+02  0.51100000000E-03 0. -1.
        -11    1    4    4    0    0  0.20966709519E+01 -0.17474460124E+01 -0.66963003843E+01  0.72311849475E+01  0.51100000000E-03 0.  1.
        -12    1    4    4    0    0  0.18114669711E+02  0.30727945470E+01  0.29795985295E+02  0.35005486210E+02  0.00000000000E+00 0.  1.
</event>
<event>
 8    1  0.1229941E-006  0.9118800E+02  0.7816164E-02  0.1184000E+00
        -11   -1    0    0    0    0  0.00000000000E+00  0.00000000000E+00  0.45593999997E+02  0.45594000000E+02  0.51100000000E-03 0.  1.
         11   -1    0    0    0    0 -0.00000000000E+00 -0.00000000000E+00 -0.45593999997E+02  0.45594000000E+02  0.51100000000E-03 0. -1.
         23    2    1    2    0    0  0.44408920985E-15 -0.35527136788E-14  0.71054273576E-14  0.91188000000E+02  0.91188000000E+02 0.  0.
    9900012    2    3    3    0    0  0.10817277190E+01  0.19241570907E+02 -0.31374701882E+02  0.54367080619E+02  0.39999991888E+02 0.  0.
        -12    1    3    3    0    0 -0.10817277190E+01 -0.19241570907E+02  0.31374701882E+02  0.36820919381E+02  0.00000000000E+00 0.  1.
         11    1    4    4    0    0 -0.62366077760E+00  0.74680303771E+01 -0.64175108915E+01  0.98663507328E+01  0.51100000000E-03 0. -1.
        -11    1    4    4    0    0 -0.65261457991E+01  0.10499774757E+02  0.50534166709E+01  0.13355630620E+02  0.51100000000E-03 0.  1.
         12    1    4    4    0    0  0.82315342957E+01  0.12737657731E+01 -0.30010607662E+02  0.31145099267E+02  0.00000000000E+00 0. -1.
</event>
<event>
 8    1  0.1229941E-006  0.9118800E+02  0.7816164E-02  0.1184000E+00
        -11   -1    0    0    0    0  0.00000000000E+00  0.00000000000E+00  0.45593999997E+02  0.45594000000E+02  0.51100000000E-03 0.  1.
         11   -1    0    0    0    0 -0.00000000000E+00 -0.00000000000E+00 -0.45593999997E+02  0.45594000000E+02  0.51100000000E-03 0. -1.
         23    2    1    2    0    0 -0.17763568394E-14  0.35527136788E-14  0.00000000000E+00  0.91188000000E+02  0.91188000000E+02 0.  0.
    9900012    2    3    3    0    0 -0.11058136419E+02  0.30552916643E+02  0.17320959004E+02  0.54367099451E+02  0.40000034818E+02 0.  0.
         12    1    3    3    0    0  0.11058136419E+02 -0.30552916643E+02 -0.17320959004E+02  0.36820900549E+02  0.00000000000E+00 0. -1.
         11    1    4    4    0    0  0.89095315991E+01  0.89667350471E+00  0.81963394769E+01  0.12139347502E+02  0.51100000000E-03 0. -1.
        -11    1    4    4    0    0 -0.30717525711E+01 -0.10427568522E+01  0.62833799372E+01  0.70713414150E+01  0.51100000000E-03 0.  1.
        -12    1    4    4    0    0 -0.16895915447E+02  0.30698999990E+02  0.28412395899E+01  0.35156410534E+02  0.00000000000E+00 0.  1.
</event>
<event>
 8    1  0.1229941E-006  0.9118800E+02  0.7816164E-02  0.1184000E+00
        -11   -1    0    0    0    0  0.00000000000E+00  0.00000000000E+00  0.45593999997E+02  0.45594000000E+02  0.51100000000E-03 0. -1.
         11   -1    0    0    0    0 -0.00000000000E+00 -0.00000000000E+00 -0.45593999997E+02  0.45594000000E+02  0.51100000000E-03 0.  1.
         23    2    1    2    0    0  0.00000000000E+00  0.00000000000E+00  0.00000000000E+00  0.91188000000E+02  0.91188000000E+02 0.  0.
    9900012    2    3    3    0    0 -0.82630178090E+01 -0.12187795634E+02  0.33748489366E+02  0.54367077141E+02  0.39999983958E+02 0.  0.
        -12    1    3    3    0    0  0.82630178090E+01  0.12187795634E+02 -0.33748489366E+02  0.36820922859E+02  0.00000000000E+00 0.  1.
         11    1    4    4    0    0  0.33280373854E+00 -0.11007811439E+02  0.42970324368E+01  0.11821470256E+02  0.51100000000E-03 0. -1.
        -11    1    4    4    0    0  0.82201177454E-01 -0.38125557222E+01 -0.53567446000E+01  0.65754886617E+01  0.51100000000E-03 0.  1.
         12    1    4    4    0    0 -0.86780227250E+01  0.26325715267E+01  0.34808201529E+02  0.35970118223E+02  0.00000000000E+00 0. -1.
</event>
<event>
 8    1  0.1229941E-006  0.9118800E+02  0.7816164E-02  0.1184000E+00
        -11   -1    0    0    0    0  0.00000000000E+00  0.00000000000E+00  0.45593999997E+02  0.45594000000E+02  0.51100000000E-03 0.  1.
         11   -1    0    0    0    0 -0.00000000000E+00 -0.00000000000E+00 -0.45593999997E+02  0.45594000000E+02  0.51100000000E-03 0. -1.
         23    2    1    2    0    0  0.35527136788E-14 -0.35527136788E-14  0.00000000000E+00  0.91188000000E+02  0.91188000000E+02 0.  0.
    9900012    2    3    3    0    0  0.16799668661E+02 -0.27433378913E+02 -0.17915367904E+02  0.54367088104E+02  0.40000008951E+02 0.  0.
        -12    1    3    3    0    0 -0.16799668661E+02  0.27433378913E+02  0.17915367904E+02  0.36820911896E+02  0.00000000000E+00 0.  1.
         11    1    4    4    0    0  0.26048082950E+02 -0.20600125134E+02 -0.63003792575E+01  0.33801812968E+02  0.51100000000E-03 0. -1.
        -11    1    4    4    0    0 -0.34275047552E+01 -0.51174113369E+01 -0.12960316647E+02  0.14349407496E+02  0.51100000000E-03 0.  1.
        -12    1    4    4    0    0 -0.58209095332E+01 -0.17158424421E+01  0.13453280005E+01  0.62158676393E+01  0.00000000000E+00 0.  1.
</event>
<event>
 8    1  0.1229941E-006  0.9118800E+02  0.7816164E-02  0.1184000E+00
        -11   -1    0    0    0    0  0.00000000000E+00  0.00000000000E+00  0.45593999997E+02  0.45594000000E+02  0.51100000000E-03 0. -1.
         11   -1    0    0    0    0 -0.00000000000E+00 -0.00000000000E+00 -0.45593999997E+02  0.45594000000E+02  0.51100000000E-03 0.  1.
         23    2    1    2    0    0  0.00000000000E+00  0.17763568394E-14  0.00000000000E+00  0.91188000000E+02  0.91188000000E+02 0.  0.
    9900012    2    3    3    0    0  0.26038310314E+02 -0.11655320474E+02 -0.23279597785E+02  0.54367085123E+02  0.40000002156E+02 0.  0.
         12    1    3    3    0    0 -0.26038310314E+02  0.11655320474E+02  0.23279597785E+02  0.36820914877E+02  0.00000000000E+00 0. -1.
         11    1    4    4    0    0  0.59359488718E+01 -0.16986989528E+02 -0.73179243589E+01  0.19425378231E+02  0.51100000000E-03 0. -1.
        -11    1    4    4    0    0  0.16495209630E+02  0.11143854408E+02 -0.27921515797E+01  0.20101580598E+02  0.51100000000E-03 0.  1.
        -12    1    4    4    0    0  0.36071518115E+01 -0.58121853536E+01 -0.13169521846E+02  0.14840126294E+02  0.00000000000E+00 0.  1.
</event>
<event>
 8    1  0.1229941E-006  0.9118800E+02  0.7816164E-02  0.1184000E+00
        -11   -1    0    0    0    0  0.00000000000E+00  0.00000000000E+00  0.45593999997E+02  0.45594000000E+02  0.51100000000E-03 0. -1.
         11   -1    0    0    0    0 -0.00000000000E+00 -0.00000000000E+00 -0.45593999997E+02  0.45594000000E+02  0.51100000000E-03 0.  1.
         23    2    1    2    0    0  0.00000000000E+00  0.71054273576E-14  0.14432899320E-14  0.91188000000E+02  0.91188000000E+02 0.  0.
    9900012    2    3    3    0    0  0.12155285453E+02  0.34744920210E+02  0.90466100457E+00  0.54367097562E+02  0.40000030512E+02 0.  0.
        -12    1    3    3    0    0 -0.12155285453E+02 -0.34744920210E+02 -0.90466100457E+00  0.36820902438E+02  0.00000000000E+00 0.  1.
         11    1    4    4    0    0 -0.50294392829E+01  0.10148362817E+02  0.11524062543E+02  0.16158234592E+02  0.51100000000E-03 0. -1.
        -11    1    4    4    0    0  0.83936913510E+00  0.97154823136E+01 -0.12693736155E+02  0.16007063284E+02  0.51100000000E-03 0.  1.
         12    1    4    4    0    0  0.16345355600E+02  0.14881075079E+02  0.20743346168E+01  0.22201799686E+02  0.00000000000E+00 0. -1.
</event>
<event>
 8    1  0.1229941E-006  0.9118800E+02  0.7816164E-02  0.1184000E+00
        -11   -1    0    0    0    0  0.00000000000E+00  0.00000000000E+00  0.45593999997E+02  0.45594000000E+02  0.51100000000E-03 0.  1.
         11   -1    0    0    0    0 -0.00000000000E+00 -0.00000000000E+00 -0.45593999997E+02  0.45594000000E+02  0.51100000000E-03 0. -1.
         23    2    1    2    0    0  0.71054273576E-14  0.00000000000E+00 -0.17763568394E-14  0.91188000000E+02  0.91188000000E+02 0.  0.
    9900012    2    3    3    0    0  0.33295331462E+02  0.11772612552E+02 -0.10421298275E+02  0.54367123297E+02  0.40000089180E+02 0.  0.
        -12    1    3    3    0    0 -0.33295331462E+02 -0.11772612552E+02  0.10421298275E+02  0.36820876703E+02  0.00000000000E+00 0.  1.
         11    1    4    4    0    0  0.17642761183E+02  0.15066702881E+02  0.18411713466E+01  0.23273643248E+02  0.51100000000E-03 0. -1.
        -11    1    4    4    0    0 -0.62137239068E+01 -0.21073324565E+01 -0.40214602893E+01  0.76956713802E+01  0.51100000000E-03 0.  1.
         12    1    4    4    0    0  0.21866294186E+02 -0.11867578725E+01 -0.82410093321E+01  0.23397808669E+02  0.00000000000E+00 0. -1.
</event>
<event>
 8    1  0.1229941E-006  0.9118800E+02  0.7816164E-02  0.1184000E+00
        -11   -1    0    0    0    0  0.00000000000E+00  0.00000000000E+00  0.45593999997E+02  0.45594000000E+02  0.51100000000E-03 0.  1.
         11   -1    0    0    0    0 -0.00000000000E+00 -0.00000000000E+00 -0.45593999997E+02  0.45594000000E+02  0.51100000000E-03 0. -1.
         23    2    1    2    0    0  0.00000000000E+00  0.00000000000E+00  0.00000000000E+00  0.91188000000E+02  0.91188000000E+02 0.  0.
    9900012    2    3    3    0    0 -0.14565658729E+02  0.64586367572E+01  0.33194998928E+02  0.54367077187E+02  0.39999984063E+02 0.  0.
         12    1    3    3    0    0  0.14565658729E+02 -0.64586367572E+01 -0.33194998928E+02  0.36820922813E+02  0.00000000000E+00 0. -1.
         11    1    4    4    0    0  0.49333679699E+01 -0.12399438433E+01 -0.78278873560E+00  0.51466823028E+01  0.51100000000E-03 0. -1.
        -11    1    4    4    0    0 -0.18898951877E+02 -0.14138140374E+01  0.35228803490E+02  0.40002972987E+02  0.51100000000E-03 0.  1.
         12    1    4    4    0    0 -0.60007482193E+00  0.91123946378E+01 -0.12510158265E+01  0.92174218969E+01  0.00000000000E+00 0. -1.
</event>
<event>
 8    1  0.1229941E-006  0.9118800E+02  0.7816164E-02  0.1184000E+00
        -11   -1    0    0    0    0  0.00000000000E+00  0.00000000000E+00  0.45593999997E+02  0.45594000000E+02  0.51100000000E-03 0.  1.
         11   -1    0    0    0    0 -0.00000000000E+00 -0.00000000000E+00 -0.45593999997E+02  0.45594000000E+02  0.51100000000E-03 0. -1.
         23    2    1    2    0    0  0.00000000000E+00  0.88817841970E-15  0.00000000000E+00  0.91188000000E+02  0.91188000000E+02 0.  0.
    9900012    2    3    3    0    0 -0.36111635371E+02  0.58769659627E+01 -0.41462763833E+01  0.54367074618E+02  0.39999978207E+02 0.  0.
        -12    1    3    3    0    0  0.36111635371E+02 -0.58769659627E+01  0.41462763833E+01  0.36820925382E+02  0.00000000000E+00 0.  1.
         11    1    4    4    0    0 -0.13908924437E+02  0.14414326141E+01 -0.13470321907E+02  0.19416113914E+02  0.51100000000E-03 0. -1.
        -11    1    4    4    0    0 -0.14816640637E+02 -0.46665412916E+01  0.15291373025E+02  0.21797603920E+02  0.51100000000E-03 0.  1.
        -12    1    4    4    0    0 -0.73860702975E+01  0.91020746401E+01 -0.59673275018E+01  0.13153356785E+02  0.00000000000E+00 0.  1.
</event>
<event>
 8    1  0.1229941E-006  0.9118800E+02  0.7816164E-02  0.1184000E+00
        -11   -1    0    0    0    0  0.00000000000E+00  0.00000000000E+00  0.45593999997E+02  0.45594000000E+02  0.51100000000E-03 0.  1.
         11   -1    0    0    0    0 -0.00000000000E+00 -0.00000000000E+00 -0.45593999997E+02  0.45594000000E+02  0.51100000000E-03 0. -1.
         23    2    1    2    0    0  0.00000000000E+00 -0.88817841970E-15  0.17763568394E-14  0.91188000000E+02  0.91188000000E+02 0.  0.
    9900012    2    3    3    0    0  0.34289024383E+02 -0.76391388318E+01  0.11031161308E+02  0.54367079927E+02  0.39999990309E+02 0.  0.
         12    1    3    3    0    0 -0.34289024383E+02  0.76391388318E+01 -0.11031161308E+02  0.36820920073E+02  0.00000000000E+00 0. -1.
         11    1    4    4    0    0  0.29680563735E+02 -0.85989609612E+01 -0.24781496844E+01  0.31000309989E+02  0.51100000000E-03 0. -1.
        -11    1    4    4    0    0  0.36400562627E+01 -0.17068642401E+01  0.17785935059E+02  0.18234661536E+02  0.51100000000E-03 0.  1.
        -12    1    4    4    0    0  0.96840438483E+00  0.26666863695E+01 -0.42766240668E+01  0.51321084024E+01  0.00000000000E+00 0.  1.
</event>
<event>
 8    1  0.1229941E-006  0.9118800E+02  0.7816164E-02  0.1184000E+00
        -11   -1    0    0    0    0  0.00000000000E+00  0.00000000000E+00  0.45593999997E+02  0.45594000000E+02  0.51100000000E-03 0. -1.
         11   -1    0    0    0    0 -0.00000000000E+00 -0.00000000000E+00 -0.45593999997E+02  0.45594000000E+02  0.51100000000E-03 0.  1.
         23    2    1    2    0    0  0.00000000000E+00  0.00000000000E+00  0.00000000000E+00  0.91188000000E+02  0.91188000000E+02 0.  0.
    9900012    2    3    3    0    0 -0.20416056733E+02 -0.19824690660E+02  0.23365361363E+02  0.54367165627E+02  0.40000185679E+02 0.  0.
        -12    1    3    3    0    0  0.20416056733E+02  0.19824690660E+02 -0.23365361363E+02  0.36820834373E+02  0.00000000000E+00 0.  1.
         11    1    4    4    0    0 -0.40783266494E+01 -0.11508287133E+02  0.18449861216E+02  0.22123986985E+02  0.51100000000E-03 0. -1.
        -11    1    4    4    0    0 -0.10713396732E+02 -0.16554371473E+02 -0.24128549028E+01  0.19865697910E+02  0.51100000000E-03 0.  1.
         12    1    4    4    0    0 -0.56243333513E+01  0.82379679452E+01  0.73283550504E+01  0.12377480731E+02  0.00000000000E+00 0. -1.
</event>
<event>
 8    1  0.1229941E-006  0.9118800E+02  0.7816164E-02  0.1184000E+00
        -11   -1    0    0    0    0  0.00000000000E+00  0.00000000000E+00  0.45593999997E+02  0.45594000000E+02  0.51100000000E-03 0.  1.
         11   -1    0    0    0    0 -0.00000000000E+00 -0.00000000000E+00 -0.45593999997E+02  0.45594000000E+02  0.51100000000E-03 0. -1.
         23    2    1    2    0    0  0.00000000000E+00  0.00000000000E+00  0.00000000000E+00  0.91188000000E+02  0.91188000000E+02 0.  0.
    9900012    2    3    3    0    0 -0.14658054807E+02 -0.15852125052E+02  0.29826597769E+02  0.54367158431E+02  0.40000169275E+02 0.  0.
         12    1    3    3    0    0  0.14658054807E+02  0.15852125052E+02 -0.29826597769E+02  0.36820841569E+02  0.00000000000E+00 0. -1.
         11    1    4    4    0    0  0.90405024240E+00 -0.14872922437E+02  0.59689343145E+01  0.16051458057E+02  0.51100000000E-03 0. -1.
        -11    1    4    4    0    0  0.36538609195E+01 -0.67298036471E+01  0.14020178468E+02  0.15975179538E+02  0.51100000000E-03 0.  1.
        -12    1    4    4    0    0 -0.19215965969E+02  0.57506010318E+01  0.98374849864E+01  0.22340520835E+02  0.00000000000E+00 0.  1.
</event>
<event>
 8    1  0.1229941E-006  0.9118800E+02  0.7816164E-02  0.1184000E+00
        -11   -1    0    0    0    0  0.00000000000E+00  0.00000000000E+00  0.45593999997E+02  0.45594000000E+02  0.51100000000E-03 0.  1.
         11   -1    0    0    0    0 -0.00000000000E+00 -0.00000000000E+00 -0.45593999997E+02  0.45594000000E+02  0.51100000000E-03 0. -1.
         23    2    1    2    0    0  0.00000000000E+00  0.00000000000E+00  0.00000000000E+00  0.91188000000E+02  0.91188000000E+02 0.  0.
    9900012    2    3    3    0    0 -0.32826970847E+02  0.46686974306E+01 -0.16011646493E+02  0.54367087815E+02  0.40000008293E+02 0.  0.
        -12    1    3    3    0    0  0.32826970847E+02 -0.46686974306E+01  0.16011646493E+02  0.36820912185E+02  0.00000000000E+00 0.  1.
         11    1    4    4    0    0 -0.15939864643E+01  0.55266681127E+01 -0.14449810141E+01  0.59306680626E+01  0.51100000000E-03 0. -1.
        -11    1    4    4    0    0  0.33788986309E+01  0.85447481114E+01 -0.75447148069E+01  0.11889171461E+02  0.51100000000E-03 0.  1.
        -12    1    4    4    0    0 -0.34611883014E+02 -0.94027187936E+01 -0.70219506718E+01  0.36547248292E+02  0.00000000000E+00 0.  1.
</event>
<event>
 8    1  0.1229941E-006  0.9118800E+02  0.7816164E-02  0.1184000E+00
        -11   -1    0    0    0    0  0.00000000000E+00  0.00000000000E+00  0.45593999997E+02  0.45594000000E+02  0.51100000000E-03 0.  1.
         11   -1    0    0    0    0 -0.00000000000E+00 -0.00000000000E+00 -0.45593999997E+02  0.45594000000E+02  0.51100000000E-03 0. -1.
         23    2    1    2    0    0 -0.13322676296E-14  0.00000000000E+00  0.00000000000E+00  0.91188000000E+02  0.91188000000E+02 0.  0.
    9900012    2    3    3    0    0 -0.14094453836E+01  0.34405675361E+02  0.13040050501E+02  0.54367082705E+02  0.39999996643E+02 0.  0.
         12    1    3    3    0    0  0.14094453836E+01 -0.34405675361E+02 -0.13040050501E+02  0.36820917295E+02  0.00000000000E+00 0. -1.
         11    1    4    4    0    0  0.69637129990E+01  0.10938610639E+02 -0.34496009992E+01  0.13418131344E+02  0.51100000000E-03 0.  1.
        -11    1    4    4    0    0  0.57620915933E+01 -0.18426137755E+01  0.92779724743E+01  0.11075996504E+02  0.51100000000E-03 0. -1.
        -12    1    4    4    0    0 -0.14135249976E+02  0.25309678498E+02  0.72116790260E+01  0.29872954857E+02  0.00000000000E+00 0.  1.
</event>
<event>
 8    1  0.1229941E-006  0.9118800E+02  0.7816164E-02  0.1184000E+00
        -11   -1    0    0    0    0  0.00000000000E+00  0.00000000000E+00  0.45593999997E+02  0.45594000000E+02  0.51100000000E-03 0.  1.
         11   -1    0    0    0    0 -0.00000000000E+00 -0.00000000000E+00 -0.45593999997E+02  0.45594000000E+02  0.51100000000E-03 0. -1.
         23    2    1    2    0    0  0.00000000000E+00 -0.17763568394E-14 -0.17763568394E-14  0.91188000000E+02  0.91188000000E+02 0.  0.
    9900012    2    3    3    0    0 -0.32071516485E+02 -0.14627566415E+02 -0.10641045329E+02  0.54367085908E+02  0.40000003944E+02 0.  0.
        -12    1    3    3    0    0  0.32071516485E+02  0.14627566415E+02  0.10641045329E+02  0.36820914092E+02  0.00000000000E+00 0.  1.
         11    1    4    4    0    0 -0.55747159408E+01 -0.99584539120E+01 -0.77378751851E+01  0.13788508795E+02  0.51100000000E-03 0. -1.
        -11    1    4    4    0    0 -0.14337864537E+01  0.87640801770E+01 -0.76840565806E+01  0.11743490569E+02  0.51100000000E-03 0.  1.
         12    1    4    4    0    0 -0.25063014091E+02 -0.13433192680E+02  0.47808864366E+01  0.28835086544E+02  0.00000000000E+00 0. -1.
</event>
<event>
 8    1  0.1229941E-006  0.9118800E+02  0.7816164E-02  0.1184000E+00
        -11   -1    0    0    0    0  0.00000000000E+00  0.00000000000E+00  0.45593999997E+02  0.45594000000E+02  0.51100000000E-03 0. -1.
         11   -1    0    0    0    0 -0.00000000000E+00 -0.00000000000E+00 -0.45593999997E+02  0.45594000000E+02  0.51100000000E-03 0.  1.
         23    2    1    2    0    0  0.13322676296E-14  0.00000000000E+00  0.00000000000E+00  0.91188000000E+02  0.91188000000E+02 0.  0.
    9900012    2    3    3    0    0 -0.12015762216E+01 -0.19990868403E+02 -0.30898241922E+02  0.54367082592E+02  0.39999996384E+02 0.  0.
         12    1    3    3    0    0  0.12015762216E+01  0.19990868403E+02  0.30898241922E+02  0.36820917408E+02  0.00000000000E+00 0. -1.
         11    1    4    4    0    0 -0.18072981598E+02 -0.12876547456E+02 -0.16217170215E+02  0.27485173244E+02  0.51100000000E-03 0. -1.
        -11    1    4    4    0    0 -0.19640085446E+01  0.28514458707E+00 -0.19379630590E+00  0.19940396857E+01  0.51100000000E-03 0.  1.
        -12    1    4    4    0    0  0.18835413921E+02 -0.73994655339E+01 -0.14487275402E+02  0.24887869662E+02  0.00000000000E+00 0.  1.
</event>
<event>
 8    1  0.1229941E-006  0.9118800E+02  0.7816164E-02  0.1184000E+00
        -11   -1    0    0    0    0  0.00000000000E+00  0.00000000000E+00  0.45593999997E+02  0.45594000000E+02  0.51100000000E-03 0. -1.
         11   -1    0    0    0    0 -0.00000000000E+00 -0.00000000000E+00 -0.45593999997E+02  0.45594000000E+02  0.51100000000E-03 0.  1.
         23    2    1    2    0    0  0.00000000000E+00 -0.17763568394E-14  0.00000000000E+00  0.91188000000E+02  0.91188000000E+02 0.  0.
    9900012    2    3    3    0    0 -0.80918120274E+01 -0.14686951752E+02  0.32781039677E+02  0.54367074754E+02  0.39999978518E+02 0.  0.
        -12    1    3    3    0    0  0.80918120274E+01  0.14686951752E+02 -0.32781039677E+02  0.36820925246E+02  0.00000000000E+00 0.  1.
         11    1    4    4    0    0 -0.27472805188E+01  0.26558797643E+00  0.22225764922E+02  0.22396488873E+02  0.51100000000E-03 0. -1.
        -11    1    4    4    0    0  0.98264239236E+01 -0.10202262718E+02  0.63719852768E+01  0.15532126973E+02  0.51100000000E-03 0.  1.
         12    1    4    4    0    0 -0.15170955432E+02 -0.47502770105E+01  0.41832894779E+01  0.16438458908E+02  0.00000000000E+00 0. -1.
</event>
<event>
 8    1  0.1229941E-006  0.9118800E+02  0.7816164E-02  0.1184000E+00
        -11   -1    0    0    0    0  0.00000000000E+00  0.00000000000E+00  0.45593999997E+02  0.45594000000E+02  0.51100000000E-03 0.  1.
         11   -1    0    0    0    0 -0.00000000000E+00 -0.00000000000E+00 -0.45593999997E+02  0.45594000000E+02  0.51100000000E-03 0. -1.
         23    2    1    2    0    0  0.00000000000E+00  0.35527136788E-14 -0.17763568394E-14  0.91188000000E+02  0.91188000000E+02 0.  0.
    9900012    2    3    3    0    0  0.26994646538E+02 -0.22878240362E+02 -0.10181101942E+02  0.54367086642E+02  0.40000005617E+02 0.  0.
         12    1    3    3    0    0 -0.26994646538E+02  0.22878240362E+02  0.10181101942E+02  0.36820913358E+02  0.00000000000E+00 0. -1.
         11    1    4    4    0    0 -0.33627243545E+01 -0.61719255458E+00  0.57200992896E+01  0.66639611252E+01  0.51100000000E-03 0. -1.
        -11    1    4    4    0    0  0.58525647388E+01  0.50336724421E+01  0.11183169099E-01  0.77194881696E+01  0.51100000000E-03 0.  1.
        -12    1    4    4    0    0  0.24504806154E+02 -0.27294720250E+02 -0.15912384401E+02  0.39983637347E+02  0.00000000000E+00 0.  1.
</event>
<event>
 8    1  0.1229941E-006  0.9118800E+02  0.7816164E-02  0.1184000E+00
        -11   -1    0    0    0    0  0.00000000000E+00  0.00000000000E+00  0.45593999997E+02  0.45594000000E+02  0.51100000000E-03 0. -1.
         11   -1    0    0    0    0 -0.00000000000E+00 -0.00000000000E+00 -0.45593999997E+02  0.45594000000E+02  0.51100000000E-03 0.  1.
         23    2    1    2    0    0  0.35527136788E-14  0.00000000000E+00  0.00000000000E+00  0.91188000000E+02  0.91188000000E+02 0.  0.
    9900012    2    3    3    0    0  0.24718318739E+02 -0.45248045698E+01 -0.26913026594E+02  0.54367080157E+02  0.39999990833E+02 0.  0.
         12    1    3    3    0    0 -0.24718318739E+02  0.45248045698E+01  0.26913026594E+02  0.36820919843E+02  0.00000000000E+00 0. -1.
         11    1    4    4    0    0 -0.14333061199E+01 -0.12644805843E+02 -0.13610054723E+02  0.18632741910E+02  0.51100000000E-03 0. -1.
        -11    1    4    4    0    0  0.31016022552E+01  0.84118185942E+01 -0.81442644670E+01  0.12112294274E+02  0.51100000000E-03 0.  1.
         12    1    4    4    0    0  0.23050022603E+02 -0.29181732062E+00 -0.51587074035E+01  0.23622043973E+02  0.00000000000E+00 0. -1.
</event>
<event>
 8    1  0.1229941E-006  0.9118800E+02  0.7816164E-02  0.1184000E+00
        -11   -1    0    0    0    0  0.00000000000E+00  0.00000000000E+00  0.45593999997E+02  0.45594000000E+02  0.51100000000E-03 0.  1.
         11   -1    0    0    0    0 -0.00000000000E+00 -0.00000000000E+00 -0.45593999997E+02  0.45594000000E+02  0.51100000000E-03 0. -1.
         23    2    1    2    0    0  0.00000000000E+00  0.00000000000E+00  0.00000000000E+00  0.91188000000E+02  0.91188000000E+02 0.  0.
    9900012    2    3    3    0    0  0.94841361049E+01  0.35339816556E+02  0.41145100578E+01  0.54367073004E+02  0.39999974526E+02 0.  0.
         12    1    3    3    0    0 -0.94841361049E+01 -0.35339816556E+02 -0.41145100578E+01  0.36820926996E+02  0.00000000000E+00 0. -1.
         11    1    4    4    0    0  0.13139760408E+01  0.22512426673E+02  0.40847129875E+00  0.22554439404E+02  0.51100000000E-03 0. -1.
        -11    1    4    4    0    0  0.26705287508E+01  0.15909955751E+02 -0.83813715315E+01  0.18179818614E+02  0.51100000000E-03 0.  1.
        -12    1    4    4    0    0  0.54996313133E+01 -0.30825658687E+01  0.12087410291E+02  0.13632814986E+02  0.00000000000E+00 0.  1.
</event>
<event>
 8    1  0.1229941E-006  0.9118800E+02  0.7816164E-02  0.1184000E+00
        -11   -1    0    0    0    0  0.00000000000E+00  0.00000000000E+00  0.45593999997E+02  0.45594000000E+02  0.51100000000E-03 0. -1.
         11   -1    0    0    0    0 -0.00000000000E+00 -0.00000000000E+00 -0.45593999997E+02  0.45594000000E+02  0.51100000000E-03 0.  1.
         23    2    1    2    0    0  0.88817841970E-15  0.35527136788E-14  0.35527136788E-14  0.91188000000E+02  0.91188000000E+02 0.  0.
    9900012    2    3    3    0    0 -0.29292643085E+01 -0.23127725802E+02 -0.28501035895E+02  0.54367063874E+02  0.39999953712E+02 0.  0.
         12    1    3    3    0    0  0.29292643085E+01  0.23127725802E+02  0.28501035895E+02  0.36820936126E+02  0.00000000000E+00 0. -1.
         11    1    4    4    0    0 -0.43178502599E+00  0.18958851352E+01  0.71110894425E+00  0.20703852169E+01  0.51100000000E-03 0. -1.
        -11    1    4    4    0    0 -0.46278603277E+01 -0.31458124258E+02 -0.31867191996E+02  0.45017203367E+02  0.51100000000E-03 0.  1.
        -12    1    4    4    0    0  0.21303810452E+01  0.64345133213E+01  0.26550471568E+01  0.72794752891E+01  0.00000000000E+00 0.  1.
</event>
<event>
 8    1  0.1229941E-006  0.9118800E+02  0.7816164E-02  0.1184000E+00
        -11   -1    0    0    0    0  0.00000000000E+00  0.00000000000E+00  0.45593999997E+02  0.45594000000E+02  0.51100000000E-03 0.  1.
         11   -1    0    0    0    0 -0.00000000000E+00 -0.00000000000E+00 -0.45593999997E+02  0.45594000000E+02  0.51100000000E-03 0. -1.
         23    2    1    2    0    0  0.00000000000E+00  0.00000000000E+00 -0.35527136788E-14  0.91188000000E+02  0.91188000000E+02 0.  0.
    9900012    2    3    3    0    0 -0.18752315669E+02 -0.16144038759E+02 -0.27267215176E+02  0.54367077227E+02  0.39999984154E+02 0.  0.
        -12    1    3    3    0    0  0.18752315669E+02  0.16144038759E+02  0.27267215176E+02  0.36820922773E+02  0.00000000000E+00 0.  1.
         11    1    4    4    0    0 -0.12504646941E+02  0.23313673147E+01 -0.20476417381E+02  0.24105707575E+02  0.51100000000E-03 0. -1.
        -11    1    4    4    0    0 -0.77531876518E+01  0.16337550313E+00 -0.84733357951E+01  0.11486341022E+02  0.51100000000E-03 0.  1.
        -12    1    4    4    0    0  0.15055189243E+01 -0.18638781577E+02  0.16825379994E+01  0.18775028629E+02  0.00000000000E+00 0.  1.
</event>
<event>
 8    1  0.1229941E-006  0.9118800E+02  0.7816164E-02  0.1184000E+00
        -11   -1    0    0    0    0  0.00000000000E+00  0.00000000000E+00  0.45593999997E+02  0.45594000000E+02  0.51100000000E-03 0.  1.
         11   -1    0    0    0    0 -0.00000000000E+00 -0.00000000000E+00 -0.45593999997E+02  0.45594000000E+02  0.51100000000E-03 0. -1.
         23    2    1    2    0    0  0.66613381478E-15  0.00000000000E+00  0.00000000000E+00  0.91188000000E+02  0.91188000000E+02 0.  0.
    9900012    2    3    3    0    0  0.14621602379E+01 -0.36567995840E+02  0.40525080592E+01  0.54367094880E+02  0.40000024398E+02 0.  0.
        -12    1    3    3    0    0 -0.14621602379E+01  0.36567995840E+02 -0.40525080592E+01  0.36820905120E+02  0.00000000000E+00 0.  1.
         11    1    4    4    0    0 -0.63731498090E+01 -0.15861293758E+02 -0.71961333841E+01  0.18546752118E+02  0.51100000000E-03 0. -1.
        -11    1    4    4    0    0  0.11258019682E+02 -0.16491992473E+02 -0.33477296555E+01  0.20246879192E+02  0.51100000000E-03 0.  1.
        -12    1    4    4    0    0 -0.34227096353E+01 -0.42147096080E+01  0.14596371099E+02  0.15573463571E+02  0.00000000000E+00 0.  1.
</event>
<event>
 8    1  0.1229941E-006  0.9118800E+02  0.7816164E-02  0.1184000E+00
        -11   -1    0    0    0    0  0.00000000000E+00  0.00000000000E+00  0.45593999997E+02  0.45594000000E+02  0.51100000000E-03 0. -1.
         11   -1    0    0    0    0 -0.00000000000E+00 -0.00000000000E+00 -0.45593999997E+02  0.45594000000E+02  0.51100000000E-03 0.  1.
         23    2    1    2    0    0 -0.88817841970E-15  0.00000000000E+00  0.00000000000E+00  0.91188000000E+02  0.91188000000E+02 0.  0.
    9900012    2    3    3    0    0  0.44999401588E+01 -0.33747824971E+02 -0.14021973777E+02  0.54367069806E+02  0.39999967237E+02 0.  0.
         12    1    3    3    0    0 -0.44999401588E+01  0.33747824971E+02  0.14021973777E+02  0.36820930194E+02  0.00000000000E+00 0. -1.
         11    1    4    4    0    0  0.11223648607E+01  0.19231479599E+01 -0.18971804960E+01  0.29253196495E+01  0.51100000000E-03 0. -1.
        -11    1    4    4    0    0 -0.11151827058E+01 -0.34170240551E+02 -0.21884803113E+02  0.40593023777E+02  0.51100000000E-03 0.  1.
        -12    1    4    4    0    0  0.44927580038E+01 -0.15007323797E+01  0.97600098313E+01  0.10848726380E+02  0.00000000000E+00 0.  1.
</event>
<event>
 8    1  0.1229941E-006  0.9118800E+02  0.7816164E-02  0.1184000E+00
        -11   -1    0    0    0    0  0.00000000000E+00  0.00000000000E+00  0.45593999997E+02  0.45594000000E+02  0.51100000000E-03 0.  1.
         11   -1    0    0    0    0 -0.00000000000E+00 -0.00000000000E+00 -0.45593999997E+02  0.45594000000E+02  0.51100000000E-03 0. -1.
         23    2    1    2    0    0  0.00000000000E+00  0.00000000000E+00 -0.44408920985E-15  0.91188000000E+02  0.91188000000E+02 0.  0.
    9900012    2    3    3    0    0  0.20771094879E+02 -0.30314647731E+02  0.23155854856E+01  0.54367106669E+02  0.40000051274E+02 0.  0.
         12    1    3    3    0    0 -0.20771094879E+02  0.30314647731E+02 -0.23155854856E+01  0.36820893331E+02  0.00000000000E+00 0. -1.
         11    1    4    4    0    0 -0.23136061576E+01  0.52877798694E+00  0.35555557820E+01  0.42748516690E+01  0.51100000000E-03 0. -1.
        -11    1    4    4    0    0 -0.51365472271E+01 -0.18497166507E+02  0.86593387097E+00  0.19216636749E+02  0.51100000000E-03 0.  1.
        -12    1    4    4    0    0  0.28221248264E+02 -0.12346259211E+02 -0.21059041674E+01  0.30875618252E+02  0.00000000000E+00 0.  1.
</event>
<event>
 8    1  0.1229941E-006  0.9118800E+02  0.7816164E-02  0.1184000E+00
        -11   -1    0    0    0    0  0.00000000000E+00  0.00000000000E+00  0.45593999997E+02  0.45594000000E+02  0.51100000000E-03 0. -1.
         11   -1    0    0    0    0 -0.00000000000E+00 -0.00000000000E+00 -0.45593999997E+02  0.45594000000E+02  0.51100000000E-03 0.  1.
         23    2    1    2    0    0  0.26645352591E-14  0.00000000000E+00  0.00000000000E+00  0.91188000000E+02  0.91188000000E+02 0.  0.
    9900012    2    3    3    0    0 -0.43793774322E+01 -0.34197865402E+02  0.12926988633E+02  0.54367082305E+02  0.39999995731E+02 0.  0.
        -12    1    3    3    0    0  0.43793774322E+01  0.34197865402E+02 -0.12926988633E+02  0.36820917695E+02  0.00000000000E+00 0.  1.
         11    1    4    4    0    0 -0.44597464698E+01 -0.14156099578E+00  0.36167847719E+01  0.57437366267E+01  0.51100000000E-03 0. -1.
        -11    1    4    4    0    0 -0.12874945551E+02 -0.58117663963E+01  0.10382189883E+02  0.17530850482E+02  0.51100000000E-03 0.  1.
        -12    1    4    4    0    0  0.12955314589E+02 -0.28244538010E+02 -0.10719860225E+01  0.31092495196E+02  0.00000000000E+00 0.  1.
</event>
<event>
 8    1  0.1229941E-006  0.9118800E+02  0.7816164E-02  0.1184000E+00
        -11   -1    0    0    0    0  0.00000000000E+00  0.00000000000E+00  0.45593999997E+02  0.45594000000E+02  0.51100000000E-03 0.  1.
         11   -1    0    0    0    0 -0.00000000000E+00 -0.00000000000E+00 -0.45593999997E+02  0.45594000000E+02  0.51100000000E-03 0. -1.
         23    2    1    2    0    0  0.00000000000E+00 -0.17763568394E-14  0.00000000000E+00  0.91188000000E+02  0.91188000000E+02 0.  0.
    9900012    2    3    3    0    0 -0.21665872839E+01  0.86257457319E+01  0.35730653109E+02  0.54367120577E+02  0.40000082979E+02 0.  0.
         12    1    3    3    0    0  0.21665872839E+01 -0.86257457319E+01 -0.35730653109E+02  0.36820879423E+02  0.00000000000E+00 0. -1.
         11    1    4    4    0    0  0.73966827739E+01 -0.72908665862E+01  0.37736608293E+01  0.11050256465E+02  0.51100000000E-03 0. -1.
        -11    1    4    4    0    0 -0.73303717110E+01  0.60392068775E+01  0.31801013013E+02  0.33189016226E+02  0.51100000000E-03 0.  1.
        -12    1    4    4    0    0 -0.22328983468E+01  0.98774054406E+01  0.15597926704E+00  0.10127847886E+02  0.00000000000E+00 0.  1.
</event>
<event>
 8    1  0.1229941E-006  0.9118800E+02  0.7816164E-02  0.1184000E+00
        -11   -1    0    0    0    0  0.00000000000E+00  0.00000000000E+00  0.45593999997E+02  0.45594000000E+02  0.51100000000E-03 0.  1.
         11   -1    0    0    0    0 -0.00000000000E+00 -0.00000000000E+00 -0.45593999997E+02  0.45594000000E+02  0.51100000000E-03 0. -1.
         23    2    1    2    0    0  0.00000000000E+00  0.00000000000E+00  0.35527136788E-14  0.91188000000E+02  0.91188000000E+02 0.  0.
    9900012    2    3    3    0    0  0.12811977083E+02 -0.17880422804E+02  0.29528378922E+02  0.54367062503E+02  0.39999950587E+02 0.  0.
         12    1    3    3    0    0 -0.12811977083E+02  0.17880422804E+02 -0.29528378922E+02  0.36820937497E+02  0.00000000000E+00 0. -1.
         11    1    4    4    0    0  0.84868457747E+01 -0.30282305319E+02  0.23378067437E+02  0.39186459447E+02  0.51100000000E-03 0. -1.
        -11    1    4    4    0    0 -0.83689969602E+00  0.26281379570E+01  0.64640173635E+00  0.28329041086E+01  0.51100000000E-03 0.  1.
         12    1    4    4    0    0  0.51620310045E+01  0.97737445579E+01  0.55039097487E+01  0.12347698947E+02  0.00000000000E+00 0. -1.
</event>
<event>
 8    1  0.1229941E-006  0.9118800E+02  0.7816164E-02  0.1184000E+00
        -11   -1    0    0    0    0  0.00000000000E+00  0.00000000000E+00  0.45593999997E+02  0.45594000000E+02  0.51100000000E-03 0. -1.
         11   -1    0    0    0    0 -0.00000000000E+00 -0.00000000000E+00 -0.45593999997E+02  0.45594000000E+02  0.51100000000E-03 0.  1.
         23    2    1    2    0    0  0.00000000000E+00  0.88817841970E-15  0.35527136788E-14  0.91188000000E+02  0.91188000000E+02 0.  0.
    9900012    2    3    3    0    0  0.27909809577E+02  0.73487080839E+01  0.22865241667E+02  0.54367078534E+02  0.39999987134E+02 0.  0.
        -12    1    3    3    0    0 -0.27909809577E+02 -0.73487080839E+01 -0.22865241667E+02  0.36820921466E+02  0.00000000000E+00 0.  1.
         11    1    4    4    0    0 -0.76564828275E+01 -0.57884594392E+00  0.35891936071E+00  0.76867168078E+01  0.51100000000E-03 0. -1.
        -11    1    4    4    0    0 -0.35243037523E+00 -0.29604308326E+01  0.13110698016E+00  0.29842163436E+01  0.51100000000E-03 0.  1.
         12    1    4    4    0    0  0.35918722779E+02  0.10887984860E+02  0.22375215326E+02  0.43696145383E+02  0.00000000000E+00 0. -1.
</event>
<event>
 8    1  0.1229941E-006  0.9118800E+02  0.7816164E-02  0.1184000E+00
        -11   -1    0    0    0    0  0.00000000000E+00  0.00000000000E+00  0.45593999997E+02  0.45594000000E+02  0.51100000000E-03 0.  1.
         11   -1    0    0    0    0 -0.00000000000E+00 -0.00000000000E+00 -0.45593999997E+02  0.45594000000E+02  0.51100000000E-03 0. -1.
         23    2    1    2    0    0 -0.17763568394E-14  0.00000000000E+00  0.00000000000E+00  0.91188000000E+02  0.91188000000E+02 0.  0.
    9900012    2    3    3    0    0 -0.13235880302E+02  0.33173634553E+02  0.89499193259E+01  0.54367087290E+02  0.40000007095E+02 0.  0.
         12    1    3    3    0    0  0.13235880302E+02 -0.33173634553E+02 -0.89499193259E+01  0.36820912710E+02  0.00000000000E+00 0. -1.
         11    1    4    4    0    0  0.56775339384E+01  0.11590506686E+02 -0.36474433303E+01  0.13411863404E+02  0.51100000000E-03 0. -1.
        -11    1    4    4    0    0 -0.50532393741E+01  0.22360874296E+02  0.14222872826E+02  0.26978399492E+02  0.51100000000E-03 0.  1.
         12    1    4    4    0    0 -0.13860174867E+02 -0.77774642820E+00 -0.16255101700E+01  0.13976824395E+02  0.00000000000E+00 0. -1.
</event>
<event>
 8    1  0.1229941E-006  0.9118800E+02  0.7816164E-02  0.1184000E+00
        -11   -1    0    0    0    0  0.00000000000E+00  0.00000000000E+00  0.45593999997E+02  0.45594000000E+02  0.51100000000E-03 0. -1.
         11   -1    0    0    0    0 -0.00000000000E+00 -0.00000000000E+00 -0.45593999997E+02  0.45594000000E+02  0.51100000000E-03 0.  1.
         23    2    1    2    0    0  0.00000000000E+00  0.35527136788E-14  0.00000000000E+00  0.91188000000E+02  0.91188000000E+02 0.  0.
    9900012    2    3    3    0    0  0.21302805621E+02  0.29119300203E+02  0.73509292612E+01  0.54367091095E+02  0.40000015768E+02 0.  0.
        -12    1    3    3    0    0 -0.21302805621E+02 -0.29119300203E+02 -0.73509292612E+01  0.36820908905E+02  0.00000000000E+00 0.  1.
         11    1    4    4    0    0  0.18382320319E+02  0.17745925040E+02  0.24701366851E+01  0.25669614943E+02  0.51100000000E-03 0. -1.
        -11    1    4    4    0    0  0.91117575469E+01 -0.39121707053E+01  0.69028636459E+01  0.12082165865E+02  0.51100000000E-03 0.  1.
        -12    1    4    4    0    0 -0.61912722450E+01  0.15285545868E+02 -0.20220710698E+01  0.16615310286E+02  0.00000000000E+00 0.  1.
</event>
<event>
 8    1  0.1229941E-006  0.9118800E+02  0.7816164E-02  0.1184000E+00
        -11   -1    0    0    0    0  0.00000000000E+00  0.00000000000E+00  0.45593999997E+02  0.45594000000E+02  0.51100000000E-03 0.  1.
         11   -1    0    0    0    0 -0.00000000000E+00 -0.00000000000E+00 -0.45593999997E+02  0.45594000000E+02  0.51100000000E-03 0. -1.
         23    2    1    2    0    0  0.88817841970E-15  0.00000000000E+00 -0.88817841970E-15  0.91188000000E+02  0.91188000000E+02 0.  0.
    9900012    2    3    3    0    0 -0.76583442095E+01  0.35830289317E+02  0.36495829838E+01  0.54367091204E+02  0.40000016019E+02 0.  0.
         12    1    3    3    0    0  0.76583442095E+01 -0.35830289317E+02 -0.36495829838E+01  0.36820908796E+02  0.00000000000E+00 0. -1.
         11    1    4    4    0    0  0.62027668349E+01  0.70086075768E+01  0.52506084325E+01  0.10731439127E+02  0.51100000000E-03 0. -1.
        -11    1    4    4    0    0 -0.15510415738E+02  0.30476342374E+02 -0.94242210879E+01  0.35471064041E+02  0.51100000000E-03 0.  1.
        -12    1    4    4    0    0  0.16493046935E+01 -0.16546606336E+01  0.78231956391E+01  0.81645880357E+01  0.00000000000E+00 0.  1.
</event>
<event>
 8    1  0.1229941E-006  0.9118800E+02  0.7816164E-02  0.1184000E+00
        -11   -1    0    0    0    0  0.00000000000E+00  0.00000000000E+00  0.45593999997E+02  0.45594000000E+02  0.51100000000E-03 0.  1.
         11   -1    0    0    0    0 -0.00000000000E+00 -0.00000000000E+00 -0.45593999997E+02  0.45594000000E+02  0.51100000000E-03 0. -1.
         23    2    1    2    0    0  0.00000000000E+00  0.00000000000E+00  0.00000000000E+00  0.91188000000E+02  0.91188000000E+02 0.  0.
    9900012    2    3    3    0    0  0.29035431734E+02 -0.13973938036E+02 -0.17817200181E+02  0.54367083899E+02  0.39999999365E+02 0.  0.
        -12    1    3    3    0    0 -0.29035431734E+02  0.13973938036E+02  0.17817200181E+02  0.36820916101E+02  0.00000000000E+00 0.  1.
         11    1    4    4    0    0 -0.43296845894E+01 -0.15915940076E+01 -0.19623453089E+01  0.50129970577E+01  0.51100000000E-03 0. -1.
        -11    1    4    4    0    0  0.31337579518E+02 -0.20076369851E+02 -0.17661197207E+02  0.41194931770E+02  0.51100000000E-03 0.  1.
        -12    1    4    4    0    0  0.20275368049E+01  0.76940258228E+01  0.18063423346E+01  0.81591550719E+01  0.00000000000E+00 0.  1.
</event>
<event>
 8    1  0.1229941E-006  0.9118800E+02  0.7816164E-02  0.1184000E+00
        -11   -1    0    0    0    0  0.00000000000E+00  0.00000000000E+00  0.45593999997E+02  0.45594000000E+02  0.51100000000E-03 0.  1.
         11   -1    0    0    0    0 -0.00000000000E+00 -0.00000000000E+00 -0.45593999997E+02  0.45594000000E+02  0.51100000000E-03 0. -1.
         23    2    1    2    0    0  0.00000000000E+00  0.00000000000E+00  0.00000000000E+00  0.91188000000E+02  0.91188000000E+02 0.  0.
    9900012    2    3    3    0    0 -0.79532456482E+01  0.21316072263E+02  0.28950846523E+02  0.54367074326E+02  0.39999977542E+02 0.  0.
         12    1    3    3    0    0  0.79532456482E+01 -0.21316072263E+02 -0.28950846523E+02  0.36820925674E+02  0.00000000000E+00 0. -1.
         11    1    4    4    0    0 -0.12405981372E+02  0.13148521389E+02 -0.42668996642E+01  0.18574133130E+02  0.51100000000E-03 0. -1.
        -11    1    4    4    0    0  0.45604015168E+01  0.24005148406E+01  0.57305593078E+01  0.77070775094E+01  0.51100000000E-03 0.  1.
         12    1    4    4    0    0 -0.10766579325E+00  0.57670360338E+01  0.27487186879E+02  0.28085863687E+02  0.00000000000E+00 0. -1.
</event>
<event>
 8    1  0.1229941E-006  0.9118800E+02  0.7816164E-02  0.1184000E+00
        -11   -1    0    0    0    0  0.00000000000E+00  0.00000000000E+00  0.45593999997E+02  0.45594000000E+02  0.51100000000E-03 0. -1.
         11   -1    0    0    0    0 -0.00000000000E+00 -0.00000000000E+00 -0.45593999997E+02  0.45594000000E+02  0.51100000000E-03 0.  1.
         23    2    1    2    0    0 -0.17763568394E-14 -0.17763568394E-14 -0.71054273576E-14  0.91188000000E+02  0.91188000000E+02 0.  0.
    9900012    2    3    3    0    0 -0.15682685621E+02 -0.97103564689E+01 -0.31867436669E+02  0.54367201925E+02  0.40000268427E+02 0.  0.
         12    1    3    3    0    0  0.15682685621E+02  0.97103564689E+01  0.31867436669E+02  0.36820798075E+02  0.00000000000E+00 0. -1.
         11    1    4    4    0    0 -0.33399022151E+01  0.34916400213E+01 -0.19498729694E+00  0.48357540417E+01  0.51100000000E-03 0. -1.
        -11    1    4    4    0    0 -0.14743099110E+02 -0.11402706458E+02 -0.38113197333E+02  0.42426365590E+02  0.51100000000E-03 0.  1.
        -12    1    4    4    0    0  0.24003157034E+01 -0.17992900320E+01  0.64407479612E+01  0.71050822933E+01  0.00000000000E+00 0.  1.
</event>
<event>
 8    1  0.1229941E-006  0.9118800E+02  0.7816164E-02  0.1184000E+00
        -11   -1    0    0    0    0  0.00000000000E+00  0.00000000000E+00  0.45593999997E+02  0.45594000000E+02  0.51100000000E-03 0.  1.
         11   -1    0    0    0    0 -0.00000000000E+00 -0.00000000000E+00 -0.45593999997E+02  0.45594000000E+02  0.51100000000E-03 0. -1.
         23    2    1    2    0    0  0.00000000000E+00  0.17763568394E-14  0.35527136788E-14  0.91188000000E+02  0.91188000000E+02 0.  0.
    9900012    2    3    3    0    0 -0.17124881185E+02  0.11278114754E+02  0.30582994144E+02  0.54367123329E+02  0.40000089253E+02 0.  0.
        -12    1    3    3    0    0  0.17124881185E+02 -0.11278114754E+02 -0.30582994144E+02  0.36820876671E+02  0.00000000000E+00 0.  1.
         11    1    4    4    0    0 -0.85480861220E+01  0.15971285132E+02  0.20116647667E+02  0.27070855892E+02  0.51100000000E-03 0. -1.
        -11    1    4    4    0    0  0.25883255905E+01  0.17329643398E+01  0.13670936611E+02  0.14021308885E+02  0.51100000000E-03 0.  1.
        -12    1    4    4    0    0 -0.11165120654E+02 -0.64261347176E+01 -0.32045901342E+01  0.13274958552E+02  0.00000000000E+00 0.  1.
</event>
<event>
 8    1  0.1229941E-006  0.9118800E+02  0.7816164E-02  0.1184000E+00
        -11   -1    0    0    0    0  0.00000000000E+00  0.00000000000E+00  0.45593999997E+02  0.45594000000E+02  0.51100000000E-03 0. -1.
         11   -1    0    0    0    0 -0.00000000000E+00 -0.00000000000E+00 -0.45593999997E+02  0.45594000000E+02  0.51100000000E-03 0.  1.
         23    2    1    2    0    0 -0.14210854715E-13 -0.35527136788E-14  0.13322676296E-14  0.91188000000E+02  0.91188000000E+02 0.  0.
    9900012    2    3    3    0    0 -0.34828910042E+02 -0.11646828707E+02  0.26607761202E+01  0.54367064064E+02  0.39999954146E+02 0.  0.
         12    1    3    3    0    0  0.34828910042E+02  0.11646828707E+02 -0.26607761202E+01  0.36820935936E+02  0.00000000000E+00 0. -1.
         11    1    4    4    0    0 -0.13613837430E+01  0.61888886872E+01 -0.76559172843E+01  0.99382482663E+01  0.51100000000E-03 0. -1.
        -11    1    4    4    0    0 -0.17192676449E+02 -0.36633899937E+01 -0.46292547613E+01  0.18177968798E+02  0.51100000000E-03 0.  1.
         12    1    4    4    0    0 -0.16274849851E+02 -0.14172327401E+02  0.14945948166E+02  0.26250846999E+02  0.00000000000E+00 0. -1.
</event>
<event>
 8    1  0.1229941E-006  0.9118800E+02  0.7816164E-02  0.1184000E+00
        -11   -1    0    0    0    0  0.00000000000E+00  0.00000000000E+00  0.45593999997E+02  0.45594000000E+02  0.51100000000E-03 0.  1.
         11   -1    0    0    0    0 -0.00000000000E+00 -0.00000000000E+00 -0.45593999997E+02  0.45594000000E+02  0.51100000000E-03 0. -1.
         23    2    1    2    0    0 -0.17763568394E-14 -0.35527136788E-14  0.35527136788E-14  0.91188000000E+02  0.91188000000E+02 0.  0.
    9900012    2    3    3    0    0 -0.70007205756E+01 -0.28936226431E+02  0.21667110146E+02  0.54367096280E+02  0.40000027590E+02 0.  0.
         12    1    3    3    0    0  0.70007205756E+01  0.28936226431E+02 -0.21667110146E+02  0.36820903720E+02  0.00000000000E+00 0. -1.
         11    1    4    4    0    0 -0.65474585191E+01 -0.29632805847E+01 -0.49169998287E+01  0.87078776094E+01  0.51100000000E-03 0. -1.
        -11    1    4    4    0    0 -0.10868535056E+02 -0.20349931691E+02  0.24478959443E+02  0.33637244681E+02  0.51100000000E-03 0.  1.
        -12    1    4    4    0    0  0.10415272999E+02 -0.56230141557E+01  0.21051505318E+01  0.12021973989E+02  0.00000000000E+00 0.  1.
</event>
<event>
 8    1  0.1229941E-006  0.9118800E+02  0.7816164E-02  0.1184000E+00
        -11   -1    0    0    0    0  0.00000000000E+00  0.00000000000E+00  0.45593999997E+02  0.45594000000E+02  0.51100000000E-03 0. -1.
         11   -1    0    0    0    0 -0.00000000000E+00 -0.00000000000E+00 -0.45593999997E+02  0.45594000000E+02  0.51100000000E-03 0.  1.
         23    2    1    2    0    0  0.00000000000E+00  0.00000000000E+00  0.00000000000E+00  0.91188000000E+02  0.91188000000E+02 0.  0.
    9900012    2    3    3    0    0 -0.15832502115E+02 -0.20087349137E+02  0.26487897045E+02  0.54367103644E+02  0.40000044378E+02 0.  0.
        -12    1    3    3    0    0  0.15832502115E+02  0.20087349137E+02 -0.26487897045E+02  0.36820896356E+02  0.00000000000E+00 0.  1.
         11    1    4    4    0    0 -0.70958150354E+01 -0.18228569013E+01  0.25229907982E+02  0.26272069871E+02  0.51100000000E-03 0. -1.
        -11    1    4    4    0    0 -0.13111219242E+02 -0.55536286075E+01 -0.16723206309E+01  0.14336788946E+02  0.51100000000E-03 0.  1.
        -12    1    4    4    0    0  0.43745321625E+01 -0.12710863629E+02  0.29303096938E+01  0.13758244827E+02  0.00000000000E+00 0.  1.
</event>
<event>
 8    1  0.1229941E-006  0.9118800E+02  0.7816164E-02  0.1184000E+00
        -11   -1    0    0    0    0  0.00000000000E+00  0.00000000000E+00  0.45593999997E+02  0.45594000000E+02  0.51100000000E-03 0.  1.
         11   -1    0    0    0    0 -0.00000000000E+00 -0.00000000000E+00 -0.45593999997E+02  0.45594000000E+02  0.51100000000E-03 0. -1.
         23    2    1    2    0    0  0.00000000000E+00  0.00000000000E+00 -0.17763568394E-14  0.91188000000E+02  0.91188000000E+02 0.  0.
    9900012    2    3    3    0    0  0.33409033161E+02  0.11106170920E+02  0.10782942838E+02  0.54367049639E+02  0.39999921262E+02 0.  0.
        -12    1    3    3    0    0 -0.33409033161E+02 -0.11106170920E+02 -0.10782942838E+02  0.36820950361E+02  0.00000000000E+00 0.  1.
         11    1    4    4    0    0  0.14239675200E+01  0.88710447109E+01 -0.77613996843E+01  0.11872760550E+02  0.51100000000E-03 0. -1.
        -11    1    4    4    0    0  0.18776743100E+02  0.61029488304E+01  0.20651529642E+02  0.28570924778E+02  0.51100000000E-03 0.  1.
        -12    1    4    4    0    0  0.13208322541E+02 -0.38678226209E+01 -0.21071871198E+01  0.13923364311E+02  0.00000000000E+00 0.  1.
</event>
<event>
 8    1  0.1229941E-006  0.9118800E+02  0.7816164E-02  0.1184000E+00
        -11   -1    0    0    0    0  0.00000000000E+00  0.00000000000E+00  0.45593999997E+02  0.45594000000E+02  0.51100000000E-03 0.  1.
         11   -1    0    0    0    0 -0.00000000000E+00 -0.00000000000E+00 -0.45593999997E+02  0.45594000000E+02  0.51100000000E-03 0. -1.
         23    2    1    2    0    0  0.35527136788E-14  0.00000000000E+00 -0.35527136788E-14  0.91188000000E+02  0.91188000000E+02 0.  0.
    9900012    2    3    3    0    0  0.17933329917E+02 -0.23870329089E+02 -0.21549509669E+02  0.54367105121E+02  0.40000047744E+02 0.  0.
        -12    1    3    3    0    0 -0.17933329917E+02  0.23870329089E+02  0.21549509669E+02  0.36820894879E+02  0.00000000000E+00 0.  1.
         11    1    4    4    0    0 -0.30671245345E+01 -0.18297021050E+02 -0.43634536823E+01  0.19058540356E+02  0.51100000000E-03 0. -1.
        -11    1    4    4    0    0  0.14235522159E+02 -0.10398505617E+02 -0.16703476109E+01  0.17707881624E+02  0.51100000000E-03 0.  1.
         12    1    4    4    0    0  0.67649322919E+01  0.48251975786E+01 -0.15515708376E+02  0.17600683140E+02  0.00000000000E+00 0. -1.
</event>
<event>
 8    1  0.1229941E-006  0.9118800E+02  0.7816164E-02  0.1184000E+00
        -11   -1    0    0    0    0  0.00000000000E+00  0.00000000000E+00  0.45593999997E+02  0.45594000000E+02  0.51100000000E-03 0.  1.
         11   -1    0    0    0    0 -0.00000000000E+00 -0.00000000000E+00 -0.45593999997E+02  0.45594000000E+02  0.51100000000E-03 0. -1.
         23    2    1    2    0    0 -0.17763568394E-14  0.53290705182E-14  0.00000000000E+00  0.91188000000E+02  0.91188000000E+02 0.  0.
    9900012    2    3    3    0    0  0.15571383537E+02  0.14405939534E+02 -0.30096209882E+02  0.54367069425E+02  0.39999966369E+02 0.  0.
        -12    1    3    3    0    0 -0.15571383537E+02 -0.14405939534E+02  0.30096209882E+02  0.36820930575E+02  0.00000000000E+00 0.  1.
         11    1    4    4    0    0 -0.16323456750E+01 -0.46351421424E+01  0.16526038568E+01  0.51846113501E+01  0.51100000000E-03 0. -1.
        -11    1    4    4    0    0  0.21479646027E+02  0.22404824192E+02 -0.22087756106E+02  0.38094885622E+02  0.51100000000E-03 0.  1.
         12    1    4    4    0    0 -0.42759168150E+01 -0.33637425154E+01 -0.96610576328E+01  0.11087572453E+02  0.00000000000E+00 0. -1.
</event>
<event>
 8    1  0.1229941E-006  0.9118800E+02  0.7816164E-02  0.1184000E+00
        -11   -1    0    0    0    0  0.00000000000E+00  0.00000000000E+00  0.45593999997E+02  0.45594000000E+02  0.51100000000E-03 0.  1.
         11   -1    0    0    0    0 -0.00000000000E+00 -0.00000000000E+00 -0.45593999997E+02  0.45594000000E+02  0.51100000000E-03 0. -1.
         23    2    1    2    0    0  0.00000000000E+00  0.66613381478E-15 -0.88817841970E-15  0.91188000000E+02  0.91188000000E+02 0.  0.
    9900012    2    3    3    0    0  0.36530000328E+02  0.13620499843E+01  0.44140344021E+01  0.54367084696E+02  0.40000001182E+02 0.  0.
        -12    1    3    3    0    0 -0.36530000328E+02 -0.13620499843E+01 -0.44140344021E+01  0.36820915304E+02  0.00000000000E+00 0.  1.
         11    1    4    4    0    0  0.17357076225E+02 -0.11242183658E+02  0.23687155359E+01  0.20815033078E+02  0.51100000000E-03 0.  1.
        -11    1    4    4    0    0  0.17286282298E+02 -0.21826277414E+01  0.54604221857E+01  0.18259124575E+02  0.51100000000E-03 0. -1.
        -12    1    4    4    0    0  0.18866418048E+01  0.14786861384E+02 -0.34151033195E+01  0.15292927044E+02  0.00000000000E+00 0.  1.
</event>
<event>
 8    1  0.1229941E-006  0.9118800E+02  0.7816164E-02  0.1184000E+00
        -11   -1    0    0    0    0  0.00000000000E+00  0.00000000000E+00  0.45593999997E+02  0.45594000000E+02  0.51100000000E-03 0. -1.
         11   -1    0    0    0    0 -0.00000000000E+00 -0.00000000000E+00 -0.45593999997E+02  0.45594000000E+02  0.51100000000E-03 0.  1.
         23    2    1    2    0    0 -0.35527136788E-14 -0.88817841970E-15  0.35527136788E-14  0.91188000000E+02  0.91188000000E+02 0.  0.
    9900012    2    3    3    0    0  0.23764197555E+02  0.41460628125E+01 -0.27818204397E+02  0.54367089933E+02  0.40000013121E+02 0.  0.
         12    1    3    3    0    0 -0.23764197555E+02 -0.41460628125E+01  0.27818204397E+02  0.36820910067E+02  0.00000000000E+00 0. -1.
         11    1    4    4    0    0 -0.53129159445E+01 -0.29462098235E+01 -0.33564236848E+01  0.69406633955E+01  0.51100000000E-03 0. -1.
        -11    1    4    4    0    0 -0.36526220305E+01 -0.45839308293E+01 -0.30186866408E+01  0.65929158073E+01  0.51100000000E-03 0.  1.
        -12    1    4    4    0    0  0.32729735530E+02  0.11676203465E+02 -0.21443094071E+02  0.40833510730E+02  0.00000000000E+00 0.  1.
</event>
<event>
 8    1  0.1229941E-006  0.9118800E+02  0.7816164E-02  0.1184000E+00
        -11   -1    0    0    0    0  0.00000000000E+00  0.00000000000E+00  0.45593999997E+02  0.45594000000E+02  0.51100000000E-03 0.  1.
         11   -1    0    0    0    0 -0.00000000000E+00 -0.00000000000E+00 -0.45593999997E+02  0.45594000000E+02  0.51100000000E-03 0. -1.
         23    2    1    2    0    0  0.35527136788E-14 -0.17763568394E-14 -0.35527136788E-14  0.91188000000E+02  0.91188000000E+02 0.  0.
    9900012    2    3    3    0    0 -0.21235907878E+02  0.92562605901E+01 -0.28620493082E+02  0.54367153081E+02  0.40000157079E+02 0.  0.
        -12    1    3    3    0    0  0.21235907878E+02 -0.92562605901E+01  0.28620493082E+02  0.36820846919E+02  0.00000000000E+00 0.  1.
         11    1    4    4    0    0 -0.12459983403E+02 -0.32358271622E+01 -0.51435853867E+01  0.13862836460E+02  0.51100000000E-03 0. -1.
        -11    1    4    4    0    0  0.29182390152E+01 -0.78835003851E+01 -0.11179691950E+02  0.13987537654E+02  0.51100000000E-03 0.  1.
        -12    1    4    4    0    0 -0.11694163490E+02  0.20375588137E+02 -0.12297215746E+02  0.26516778967E+02  0.00000000000E+00 0.  1.
</event>
<event>
 8    1  0.1229941E-006  0.9118800E+02  0.7816164E-02  0.1184000E+00
        -11   -1    0    0    0    0  0.00000000000E+00  0.00000000000E+00  0.45593999997E+02  0.45594000000E+02  0.51100000000E-03 0.  1.
         11   -1    0    0    0    0 -0.00000000000E+00 -0.00000000000E+00 -0.45593999997E+02  0.45594000000E+02  0.51100000000E-03 0. -1.
         23    2    1    2    0    0  0.00000000000E+00 -0.35527136788E-14  0.00000000000E+00  0.91188000000E+02  0.91188000000E+02 0.  0.
    9900012    2    3    3    0    0  0.17606077589E+02 -0.30890256500E+02  0.95708041864E+01  0.54367052057E+02  0.39999926774E+02 0.  0.
        -12    1    3    3    0    0 -0.17606077589E+02  0.30890256500E+02 -0.95708041864E+01  0.36820947943E+02  0.00000000000E+00 0.  1.
         11    1    4    4    0    0 -0.25104114895E+01 -0.16705056624E+02 -0.83510465220E+01  0.18844125370E+02  0.51100000000E-03 0. -1.
        -11    1    4    4    0    0  0.48771073365E+01 -0.14421561896E+02  0.69034421653E+01  0.16716014402E+02  0.51100000000E-03 0.  1.
        -12    1    4    4    0    0  0.15239381742E+02  0.23636202113E+00  0.11018408543E+02  0.18806912285E+02  0.00000000000E+00 0.  1.
</event>
<event>
 8    1  0.1229941E-006  0.9118800E+02  0.7816164E-02  0.1184000E+00
        -11   -1    0    0    0    0  0.00000000000E+00  0.00000000000E+00  0.45593999997E+02  0.45594000000E+02  0.51100000000E-03 0.  1.
         11   -1    0    0    0    0 -0.00000000000E+00 -0.00000000000E+00 -0.45593999997E+02  0.45594000000E+02  0.51100000000E-03 0. -1.
         23    2    1    2    0    0  0.00000000000E+00  0.10658141036E-13 -0.17763568394E-14  0.91188000000E+02  0.91188000000E+02 0.  0.
    9900012    2    3    3    0    0 -0.18071842271E+02  0.28432709065E+02 -0.14858299185E+02  0.54367089059E+02  0.40000011128E+02 0.  0.
        -12    1    3    3    0    0  0.18071842271E+02 -0.28432709065E+02  0.14858299185E+02  0.36820910941E+02  0.00000000000E+00 0.  1.
         11    1    4    4    0    0 -0.76506197643E+01  0.29366261428E+02 -0.74705384128E+01  0.31252491700E+02  0.51100000000E-03 0. -1.
        -11    1    4    4    0    0 -0.40584007880E+01 -0.87641183325E+01 -0.86256076135E+01  0.12949188935E+02  0.51100000000E-03 0.  1.
        -12    1    4    4    0    0 -0.63628217184E+01  0.78305659700E+01  0.12378468417E+01  0.10165408424E+02  0.00000000000E+00 0.  1.
</event>
<event>
 8    1  0.1229941E-006  0.9118800E+02  0.7816164E-02  0.1184000E+00
        -11   -1    0    0    0    0  0.00000000000E+00  0.00000000000E+00  0.45593999997E+02  0.45594000000E+02  0.51100000000E-03 0.  1.
         11   -1    0    0    0    0 -0.00000000000E+00 -0.00000000000E+00 -0.45593999997E+02  0.45594000000E+02  0.51100000000E-03 0. -1.
         23    2    1    2    0    0 -0.30531133177E-15  0.00000000000E+00  0.00000000000E+00  0.91188000000E+02  0.91188000000E+02 0.  0.
    9900012    2    3    3    0    0 -0.75100080471E-01  0.24402178772E+02 -0.27573738496E+02  0.54367040976E+02  0.39999901512E+02 0.  0.
        -12    1    3    3    0    0  0.75100080471E-01 -0.24402178772E+02  0.27573738496E+02  0.36820959024E+02  0.00000000000E+00 0.  1.
         11    1    4    4    0    0  0.67627348114E+01  0.90678373448E+00 -0.15206805787E+02  0.16667446756E+02  0.51100000000E-03 0. -1.
        -11    1    4    4    0    0 -0.63983873378E+01  0.22663487658E+02 -0.19456942131E+02  0.30547432473E+02  0.51100000000E-03 0.  1.
        -12    1    4    4    0    0 -0.43944755414E+00  0.83190737901E+00  0.70900094217E+01  0.71521617460E+01  0.00000000000E+00 0.  1.
</event>
<event>
 8    1  0.1229941E-006  0.9118800E+02  0.7816164E-02  0.1184000E+00
        -11   -1    0    0    0    0  0.00000000000E+00  0.00000000000E+00  0.45593999997E+02  0.45594000000E+02  0.51100000000E-03 0.  1.
         11   -1    0    0    0    0 -0.00000000000E+00 -0.00000000000E+00 -0.45593999997E+02  0.45594000000E+02  0.51100000000E-03 0. -1.
         23    2    1    2    0    0  0.00000000000E+00  0.00000000000E+00  0.00000000000E+00  0.91188000000E+02  0.91188000000E+02 0.  0.
    9900012    2    3    3    0    0 -0.35365008717E+02  0.95395500771E+01  0.37542010593E+01  0.54367070044E+02  0.39999967778E+02 0.  0.
         12    1    3    3    0    0  0.35365008717E+02 -0.95395500771E+01 -0.37542010593E+01  0.36820929956E+02  0.00000000000E+00 0. -1.
         11    1    4    4    0    0 -0.24921394527E+02  0.47711692918E+01 -0.58651613355E+01  0.26043042820E+02  0.51100000000E-03 0. -1.
        -11    1    4    4    0    0 -0.56795135049E+01  0.12551112306E+02 -0.15925501672E+01  0.13868075212E+02  0.51100000000E-03 0.  1.
        -12    1    4    4    0    0 -0.47641006857E+01 -0.77827315211E+01  0.11211912562E+02  0.14455952012E+02  0.00000000000E+00 0.  1.
</event>
<event>
 8    1  0.1229941E-006  0.9118800E+02  0.7816164E-02  0.1184000E+00
        -11   -1    0    0    0    0  0.00000000000E+00  0.00000000000E+00  0.45593999997E+02  0.45594000000E+02  0.51100000000E-03 0. -1.
         11   -1    0    0    0    0 -0.00000000000E+00 -0.00000000000E+00 -0.45593999997E+02  0.45594000000E+02  0.51100000000E-03 0.  1.
         23    2    1    2    0    0 -0.35527136788E-14  0.00000000000E+00  0.00000000000E+00  0.91188000000E+02  0.91188000000E+02 0.  0.
    9900012    2    3    3    0    0  0.26787047337E+02  0.38521726187E+01  0.24967869397E+02  0.54367086905E+02  0.40000006217E+02 0.  0.
        -12    1    3    3    0    0 -0.26787047337E+02 -0.38521726187E+01 -0.24967869397E+02  0.36820913095E+02  0.00000000000E+00 0.  1.
         11    1    4    4    0    0  0.21659328252E+02 -0.43003261302E+01  0.17280066992E+02  0.28039615201E+02  0.51100000000E-03 0. -1.
        -11    1    4    4    0    0  0.27932343286E+01 -0.60377122218E+01 -0.40291727551E+01  0.77775549010E+01  0.51100000000E-03 0.  1.
        -12    1    4    4    0    0  0.23344847568E+01  0.14190210971E+02  0.11716975161E+02  0.18549916803E+02  0.00000000000E+00 0.  1.
</event>
<event>
 8    1  0.1229941E-006  0.9118800E+02  0.7816164E-02  0.1184000E+00
        -11   -1    0    0    0    0  0.00000000000E+00  0.00000000000E+00  0.45593999997E+02  0.45594000000E+02  0.51100000000E-03 0.  1.
         11   -1    0    0    0    0 -0.00000000000E+00 -0.00000000000E+00 -0.45593999997E+02  0.45594000000E+02  0.51100000000E-03 0. -1.
         23    2    1    2    0    0  0.00000000000E+00  0.17763568394E-14  0.00000000000E+00  0.91188000000E+02  0.91188000000E+02 0.  0.
    9900012    2    3    3    0    0  0.25176909385E+02 -0.85981700798E+01 -0.25455352374E+02  0.54367078509E+02  0.39999987078E+02 0.  0.
        -12    1    3    3    0    0 -0.25176909385E+02  0.85981700798E+01  0.25455352374E+02  0.36820921491E+02  0.00000000000E+00 0.  1.
         11    1    4    4    0    0  0.11903273174E+02  0.43358035692E+01 -0.16859635820E+02  0.21088727442E+02  0.51100000000E-03 0. -1.
        -11    1    4    4    0    0  0.20626114223E+02 -0.86285958504E+01 -0.18940962693E+01  0.22438289935E+02  0.51100000000E-03 0.  1.
         12    1    4    4    0    0 -0.73524780122E+01 -0.43053777986E+01 -0.67016202848E+01  0.10840061132E+02  0.00000000000E+00 0. -1.
</event>
<event>
 8    1  0.1229941E-006  0.9118800E+02  0.7816164E-02  0.1184000E+00
        -11   -1    0    0    0    0  0.00000000000E+00  0.00000000000E+00  0.45593999997E+02  0.45594000000E+02  0.51100000000E-03 0.  1.
         11   -1    0    0    0    0 -0.00000000000E+00 -0.00000000000E+00 -0.45593999997E+02  0.45594000000E+02  0.51100000000E-03 0. -1.
         23    2    1    2    0    0  0.35527136788E-14  0.00000000000E+00  0.00000000000E+00  0.91188000000E+02  0.91188000000E+02 0.  0.
    9900012    2    3    3    0    0  0.19274240910E+02 -0.24922145216E+02  0.19057034360E+02  0.54367078726E+02  0.39999987573E+02 0.  0.
         12    1    3    3    0    0 -0.19274240910E+02  0.24922145216E+02 -0.19057034360E+02  0.36820921274E+02  0.00000000000E+00 0. -1.
         11    1    4    4    0    0 -0.92175147049E+00  0.13777444080E+00  0.15447355452E+02  0.15475445011E+02  0.51100000000E-03 0. -1.
        -11    1    4    4    0    0  0.42266769878E+01 -0.19238709519E+02  0.81209479540E+01  0.21305927303E+02  0.51100000000E-03 0.  1.
        -12    1    4    4    0    0  0.15969315393E+02 -0.58212101379E+01 -0.45112690467E+01  0.17585706412E+02  0.00000000000E+00 0.  1.
</event>
<event>
 8    1  0.1229941E-006  0.9118800E+02  0.7816164E-02  0.1184000E+00
        -11   -1    0    0    0    0  0.00000000000E+00  0.00000000000E+00  0.45593999997E+02  0.45594000000E+02  0.51100000000E-03 0.  1.
         11   -1    0    0    0    0 -0.00000000000E+00 -0.00000000000E+00 -0.45593999997E+02  0.45594000000E+02  0.51100000000E-03 0. -1.
         23    2    1    2    0    0  0.15543122345E-14  0.00000000000E+00 -0.71054273576E-14  0.91188000000E+02  0.91188000000E+02 0.  0.
    9900012    2    3    3    0    0 -0.16743160799E+01  0.86826580577E+01  0.35743376995E+02  0.54367070024E+02  0.39999967733E+02 0.  0.
         12    1    3    3    0    0  0.16743160799E+01 -0.86826580577E+01 -0.35743376995E+02  0.36820929976E+02  0.00000000000E+00 0. -1.
         11    1    4    4    0    0 -0.91157890332E+01 -0.36943946351E+00  0.32198393734E+01  0.96747848072E+01  0.51100000000E-03 0. -1.
        -11    1    4    4    0    0  0.27660832399E+01 -0.29525437776E+01 -0.41656299985E+01  0.58069961938E+01  0.51100000000E-03 0.  1.
        -12    1    4    4    0    0  0.46753897134E+01  0.12004641299E+02  0.36689167621E+02  0.38885289023E+02  0.00000000000E+00 0.  1.
</event>
<event>
 8    1  0.1229941E-006  0.9118800E+02  0.7816164E-02  0.1184000E+00
        -11   -1    0    0    0    0  0.00000000000E+00  0.00000000000E+00  0.45593999997E+02  0.45594000000E+02  0.51100000000E-03 0.  1.
         11   -1    0    0    0    0 -0.00000000000E+00 -0.00000000000E+00 -0.45593999997E+02  0.45594000000E+02  0.51100000000E-03 0. -1.
         23    2    1    2    0    0  0.26645352591E-14  0.35527136788E-14  0.35527136788E-14  0.91188000000E+02  0.91188000000E+02 0.  0.
    9900012    2    3    3    0    0 -0.45882143904E+01 -0.21939727114E+02  0.29212563364E+02  0.54367120116E+02  0.40000081929E+02 0.  0.
         12    1    3    3    0    0  0.45882143904E+01  0.21939727114E+02 -0.29212563364E+02  0.36820879884E+02  0.00000000000E+00 0. -1.
         11    1    4    4    0    0  0.92906248797E+01 -0.12085415574E+02 -0.11373228191E+01  0.15286153333E+02  0.51100000000E-03 0. -1.
        -11    1    4    4    0    0  0.41196430257E+00 -0.85125325731E+01  0.48157405336E+01  0.97889878201E+01  0.51100000000E-03 0.  1.
         12    1    4    4    0    0 -0.14290803573E+02 -0.13417789667E+01  0.25534145649E+02  0.29291978963E+02  0.00000000000E+00 0. -1.
</event>
<event>
 8    1  0.1229941E-006  0.9118800E+02  0.7816164E-02  0.1184000E+00
        -11   -1    0    0    0    0  0.00000000000E+00  0.00000000000E+00  0.45593999997E+02  0.45594000000E+02  0.51100000000E-03 0.  1.
         11   -1    0    0    0    0 -0.00000000000E+00 -0.00000000000E+00 -0.45593999997E+02  0.45594000000E+02  0.51100000000E-03 0. -1.
         23    2    1    2    0    0  0.00000000000E+00  0.00000000000E+00  0.00000000000E+00  0.91188000000E+02  0.91188000000E+02 0.  0.
    9900012    2    3    3    0    0 -0.30638676271E+02  0.99388361064E+01 -0.17840171009E+02  0.54367073227E+02  0.39999975037E+02 0.  0.
        -12    1    3    3    0    0  0.30638676271E+02 -0.99388361064E+01  0.17840171009E+02  0.36820926773E+02  0.00000000000E+00 0.  1.
         11    1    4    4    0    0 -0.30093963179E+02  0.78362588214E+01 -0.26225410158E+01  0.31207872304E+02  0.51100000000E-03 0. -1.
        -11    1    4    4    0    0 -0.86219441888E+01 -0.12442800689E+01 -0.73701715771E+01  0.11410766136E+02  0.51100000000E-03 0.  1.
        -12    1    4    4    0    0  0.80772310971E+01  0.33468573538E+01 -0.78474584160E+01  0.11748434787E+02  0.00000000000E+00 0.  1.
</event>
<event>
 8    1  0.1229941E-006  0.9118800E+02  0.7816164E-02  0.1184000E+00
        -11   -1    0    0    0    0  0.00000000000E+00  0.00000000000E+00  0.45593999997E+02  0.45594000000E+02  0.51100000000E-03 0. -1.
         11   -1    0    0    0    0 -0.00000000000E+00 -0.00000000000E+00 -0.45593999997E+02  0.45594000000E+02  0.51100000000E-03 0.  1.
         23    2    1    2    0    0  0.35527136788E-14  0.00000000000E+00 -0.35527136788E-14  0.91188000000E+02  0.91188000000E+02 0.  0.
    9900012    2    3    3    0    0  0.27578605814E+02 -0.77197739534E+01 -0.23143150029E+02  0.54367084724E+02  0.40000001244E+02 0.  0.
         12    1    3    3    0    0 -0.27578605814E+02  0.77197739534E+01  0.23143150029E+02  0.36820915276E+02  0.00000000000E+00 0. -1.
         11    1    4    4    0    0  0.10538813247E+02 -0.84301519090E+01  0.35564585271E+01  0.13956448093E+02  0.51100000000E-03 0. -1.
        -11    1    4    4    0    0  0.52550196281E+00  0.78093975409E+01 -0.19562289827E+02  0.21070026715E+02  0.51100000000E-03 0.  1.
        -12    1    4    4    0    0  0.16514290604E+02 -0.70990195853E+01 -0.71373187295E+01  0.19340609915E+02  0.00000000000E+00 0.  1.
</event>
<event>
 8    1  0.1229941E-006  0.9118800E+02  0.7816164E-02  0.1184000E+00
        -11   -1    0    0    0    0  0.00000000000E+00  0.00000000000E+00  0.45593999997E+02  0.45594000000E+02  0.51100000000E-03 0.  1.
         11   -1    0    0    0    0 -0.00000000000E+00 -0.00000000000E+00 -0.45593999997E+02  0.45594000000E+02  0.51100000000E-03 0. -1.
         23    2    1    2    0    0  0.00000000000E+00  0.00000000000E+00 -0.22204460493E-14  0.91188000000E+02  0.91188000000E+02 0.  0.
    9900012    2    3    3    0    0  0.41574855509E+01  0.36567670509E+02 -0.11389921763E+01  0.54367129346E+02  0.40000102970E+02 0.  0.
        -12    1    3    3    0    0 -0.41574855509E+01 -0.36567670509E+02  0.11389921763E+01  0.36820870654E+02  0.00000000000E+00 0.  1.
         11    1    4    4    0    0  0.14368766215E+02  0.17566608556E+02 -0.12506198319E+02  0.25912394243E+02  0.51100000000E-03 0. -1.
        -11    1    4    4    0    0 -0.54446506765E+01  0.31243136395E+01  0.10019055406E+02  0.11823156440E+02  0.51100000000E-03 0.  1.
         12    1    4    4    0    0 -0.47666299880E+01  0.15876748313E+02  0.13481507364E+01  0.16631578663E+02  0.00000000000E+00 0. -1.
</event>
<event>
 8    1  0.1229941E-006  0.9118800E+02  0.7816164E-02  0.1184000E+00
        -11   -1    0    0    0    0  0.00000000000E+00  0.00000000000E+00  0.45593999997E+02  0.45594000000E+02  0.51100000000E-03 0.  1.
         11   -1    0    0    0    0 -0.00000000000E+00 -0.00000000000E+00 -0.45593999997E+02  0.45594000000E+02  0.51100000000E-03 0. -1.
         23    2    1    2    0    0  0.71054273576E-14  0.17763568394E-14  0.00000000000E+00  0.91188000000E+02  0.91188000000E+02 0.  0.
    9900012    2    3    3    0    0  0.33267848318E+02 -0.15473814175E+02  0.30971063126E+01  0.54367072196E+02  0.39999972686E+02 0.  0.
         12    1    3    3    0    0 -0.33267848318E+02  0.15473814175E+02 -0.30971063126E+01  0.36820927804E+02  0.00000000000E+00 0. -1.
         11    1    4    4    0    0  0.10860183819E+02 -0.16929538578E+02 -0.77890577426E+01  0.21569012259E+02  0.51100000000E-03 0. -1.
        -11    1    4    4    0    0  0.26131893490E+02  0.22754303182E+01  0.65747858757E+01  0.27042212374E+02  0.51100000000E-03 0.  1.
        -12    1    4    4    0    0 -0.37242289917E+01 -0.81970591556E+00  0.43113781795E+01  0.57558475637E+01  0.00000000000E+00 0.  1.
</event>
<event>
 8    1  0.1229941E-006  0.9118800E+02  0.7816164E-02  0.1184000E+00
        -11   -1    0    0    0    0  0.00000000000E+00  0.00000000000E+00  0.45593999997E+02  0.45594000000E+02  0.51100000000E-03 0.  1.
         11   -1    0    0    0    0 -0.00000000000E+00 -0.00000000000E+00 -0.45593999997E+02  0.45594000000E+02  0.51100000000E-03 0. -1.
         23    2    1    2    0    0 -0.35527136788E-14  0.35527136788E-14 -0.17763568394E-14  0.91188000000E+02  0.91188000000E+02 0.  0.
    9900012    2    3    3    0    0 -0.26050632916E+02 -0.24263202424E+02 -0.94043341810E+01  0.54367082459E+02  0.39999996082E+02 0.  0.
         12    1    3    3    0    0  0.26050632916E+02  0.24263202424E+02  0.94043341810E+01  0.36820917541E+02  0.00000000000E+00 0. -1.
         11    1    4    4    0    0 -0.13304452181E+02  0.79222134766E+01  0.42339128096E+01  0.16052910395E+02  0.51100000000E-03 0. -1.
        -11    1    4    4    0    0 -0.80460290596E+01 -0.87993744242E+01 -0.38399781930E+01  0.12526492193E+02  0.51100000000E-03 0.  1.
         12    1    4    4    0    0 -0.47001516751E+01 -0.23386041476E+02 -0.97982687976E+01  0.25787679871E+02  0.00000000000E+00 0. -1.
</event>
<event>
 8    1  0.1229941E-006  0.9118800E+02  0.7816164E-02  0.1184000E+00
        -11   -1    0    0    0    0  0.00000000000E+00  0.00000000000E+00  0.45593999997E+02  0.45594000000E+02  0.51100000000E-03 0.  1.
         11   -1    0    0    0    0 -0.00000000000E+00 -0.00000000000E+00 -0.45593999997E+02  0.45594000000E+02  0.51100000000E-03 0. -1.
         23    2    1    2    0    0  0.00000000000E+00  0.00000000000E+00 -0.13322676296E-14  0.91188000000E+02  0.91188000000E+02 0.  0.
    9900012    2    3    3    0    0  0.77420781776E+00  0.36684782802E+02  0.30670704652E+01  0.54367087352E+02  0.40000007236E+02 0.  0.
         12    1    3    3    0    0 -0.77420781776E+00 -0.36684782802E+02 -0.30670704652E+01  0.36820912648E+02  0.00000000000E+00 0. -1.
         11    1    4    4    0    0 -0.55940700945E+00  0.18949783282E+01 -0.76454097202E+01  0.78965922471E+01  0.51100000000E-03 0. -1.
        -11    1    4    4    0    0  0.10645827269E+01  0.22193873665E+02  0.20719614272E+02  0.30380977280E+02  0.51100000000E-03 0.  1.
        -12    1    4    4    0    0  0.26903210027E+00  0.12595930809E+02 -0.10007134086E+02  0.16089517825E+02  0.00000000000E+00 0.  1.
</event>
<event>
 8    1  0.1229941E-006  0.9118800E+02  0.7816164E-02  0.1184000E+00
        -11   -1    0    0    0    0  0.00000000000E+00  0.00000000000E+00  0.45593999997E+02  0.45594000000E+02  0.51100000000E-03 0.  1.
         11   -1    0    0    0    0 -0.00000000000E+00 -0.00000000000E+00 -0.45593999997E+02  0.45594000000E+02  0.51100000000E-03 0. -1.
         23    2    1    2    0    0  0.35527136788E-14  0.35527136788E-14  0.88817841970E-15  0.91188000000E+02  0.91188000000E+02 0.  0.
    9900012    2    3    3    0    0 -0.28624363955E+02 -0.22752490269E+02 -0.43301592612E+01  0.54367077898E+02  0.39999985684E+02 0.  0.
        -12    1    3    3    0    0  0.28624363955E+02  0.22752490269E+02  0.43301592612E+01  0.36820922102E+02  0.00000000000E+00 0.  1.
         11    1    4    4    0    0  0.34113856930E+01  0.40455144677E+01  0.40700270039E+01  0.66759912918E+01  0.51100000000E-03 0. -1.
        -11    1    4    4    0    0 -0.24502980855E+01 -0.92544788113E+00 -0.79666499972E+01  0.83861747494E+01  0.51100000000E-03 0.  1.
         12    1    4    4    0    0 -0.29585451562E+02 -0.25872556855E+02 -0.43353626786E+00  0.39304911857E+02  0.00000000000E+00 0. -1.
</event>
<event>
 8    1  0.1229941E-006  0.9118800E+02  0.7816164E-02  0.1184000E+00
        -11   -1    0    0    0    0  0.00000000000E+00  0.00000000000E+00  0.45593999997E+02  0.45594000000E+02  0.51100000000E-03 0. -1.
         11   -1    0    0    0    0 -0.00000000000E+00 -0.00000000000E+00 -0.45593999997E+02  0.45594000000E+02  0.51100000000E-03 0.  1.
         23    2    1    2    0    0  0.31086244690E-14  0.00000000000E+00  0.00000000000E+00  0.91188000000E+02  0.91188000000E+02 0.  0.
    9900012    2    3    3    0    0  0.39765095341E+00  0.32990493869E+02  0.16347779388E+02  0.54367072487E+02  0.39999973349E+02 0.  0.
        -12    1    3    3    0    0 -0.39765095341E+00 -0.32990493869E+02 -0.16347779388E+02  0.36820927513E+02  0.00000000000E+00 0.  1.
         11    1    4    4    0    0 -0.97335139457E+00  0.19457671106E+02  0.16654353637E+02  0.25630370132E+02  0.51100000000E-03 0. -1.
        -11    1    4    4    0    0 -0.11769044306E+02  0.62793182778E+01  0.22002403757E+01  0.13519663453E+02  0.51100000000E-03 0.  1.
        -12    1    4    4    0    0  0.13140046654E+02  0.72535044853E+01 -0.25068146243E+01  0.15217038902E+02  0.00000000000E+00 0.  1.
</event>
<event>
 8    1  0.1229941E-006  0.9118800E+02  0.7816164E-02  0.1184000E+00
        -11   -1    0    0    0    0  0.00000000000E+00  0.00000000000E+00  0.45593999997E+02  0.45594000000E+02  0.51100000000E-03 0.  1.
         11   -1    0    0    0    0 -0.00000000000E+00 -0.00000000000E+00 -0.45593999997E+02  0.45594000000E+02  0.51100000000E-03 0. -1.
         23    2    1    2    0    0  0.35527136788E-14 -0.53290705182E-14  0.35527136788E-14  0.91188000000E+02  0.91188000000E+02 0.  0.
    9900012    2    3    3    0    0  0.30198740625E+02 -0.14823794057E+02  0.14969010661E+02  0.54367080868E+02  0.39999992454E+02 0.  0.
        -12    1    3    3    0    0 -0.30198740625E+02  0.14823794057E+02 -0.14969010661E+02  0.36820919132E+02  0.00000000000E+00 0.  1.
         11    1    4    4    0    0  0.76057780866E+01  0.43152910271E+01 -0.11488271104E+01  0.88198299838E+01  0.51100000000E-03 0. -1.
        -11    1    4    4    0    0 -0.56824856499E+01 -0.95525920394E+01  0.10250096738E+02  0.15119759959E+02  0.51100000000E-03 0.  1.
         12    1    4    4    0    0  0.28275448188E+02 -0.95864930446E+01  0.58677410337E+01  0.30427490925E+02  0.00000000000E+00 0. -1.
</event>
<event>
 8    1  0.1229941E-006  0.9118800E+02  0.7816164E-02  0.1184000E+00
        -11   -1    0    0    0    0  0.00000000000E+00  0.00000000000E+00  0.45593999997E+02  0.45594000000E+02  0.51100000000E-03 0.  1.
         11   -1    0    0    0    0 -0.00000000000E+00 -0.00000000000E+00 -0.45593999997E+02  0.45594000000E+02  0.51100000000E-03 0. -1.
         23    2    1    2    0    0  0.00000000000E+00  0.00000000000E+00 -0.35527136788E-14  0.91188000000E+02  0.91188000000E+02 0.  0.
    9900012    2    3    3    0    0 -0.19769644236E+02 -0.29676900172E+02 -0.91773812315E+01  0.54367060803E+02  0.39999946713E+02 0.  0.
        -12    1    3    3    0    0  0.19769644236E+02  0.29676900172E+02  0.91773812315E+01  0.36820939197E+02  0.00000000000E+00 0.  1.
         11    1    4    4    0    0 -0.10316369188E+02 -0.16993479555E+02 -0.21784962244E+02  0.29492209155E+02  0.51100000000E-03 0. -1.
        -11    1    4    4    0    0 -0.59017659312E+01  0.14419302377E+01  0.69972658513E+01  0.92667002526E+01  0.51100000000E-03 0.  1.
         12    1    4    4    0    0 -0.35515091171E+01 -0.14125350855E+02  0.56103151613E+01  0.15608151396E+02  0.00000000000E+00 0. -1.
</event>
<event>
 8    1  0.1229941E-006  0.9118800E+02  0.7816164E-02  0.1184000E+00
        -11   -1    0    0    0    0  0.00000000000E+00  0.00000000000E+00  0.45593999997E+02  0.45594000000E+02  0.51100000000E-03 0.  1.
         11   -1    0    0    0    0 -0.00000000000E+00 -0.00000000000E+00 -0.45593999997E+02  0.45594000000E+02  0.51100000000E-03 0. -1.
         23    2    1    2    0    0  0.35527136788E-14  0.00000000000E+00 -0.13322676296E-14  0.91188000000E+02  0.91188000000E+02 0.  0.
    9900012    2    3    3    0    0  0.26304802078E+02  0.25633325526E+02  0.26031196024E+01  0.54366997549E+02  0.39999802511E+02 0.  0.
         12    1    3    3    0    0 -0.26304802078E+02 -0.25633325526E+02 -0.26031196024E+01  0.36821002451E+02  0.00000000000E+00 0. -1.
         11    1    4    4    0    0 -0.19300574841E+00 -0.60667352291E+00 -0.93249840686E+01  0.93466909718E+01  0.51100000000E-03 0. -1.
        -11    1    4    4    0    0  0.12218415244E+02 -0.12877411106E+01  0.19251219720E+01  0.12435997874E+02  0.51100000000E-03 0.  1.
        -12    1    4    4    0    0  0.14279392582E+02  0.27527740159E+02  0.10002981699E+02  0.32584308703E+02  0.00000000000E+00 0.  1.
</event>
<event>
 8    1  0.1229941E-006  0.9118800E+02  0.7816164E-02  0.1184000E+00
        -11   -1    0    0    0    0  0.00000000000E+00  0.00000000000E+00  0.45593999997E+02  0.45594000000E+02  0.51100000000E-03 0.  1.
         11   -1    0    0    0    0 -0.00000000000E+00 -0.00000000000E+00 -0.45593999997E+02  0.45594000000E+02  0.51100000000E-03 0. -1.
         23    2    1    2    0    0  0.00000000000E+00  0.00000000000E+00 -0.77715611724E-15  0.91188000000E+02  0.91188000000E+02 0.  0.
    9900012    2    3    3    0    0 -0.41757122926E+01  0.36573401498E+02 -0.85411350919E+00  0.54367085017E+02  0.40000001913E+02 0.  0.
         12    1    3    3    0    0  0.41757122926E+01 -0.36573401498E+02  0.85411350919E+00  0.36820914983E+02  0.00000000000E+00 0. -1.
         11    1    4    4    0    0 -0.56808447840E+01  0.17167426362E+02 -0.10655733700E+02  0.20988977734E+02  0.51100000000E-03 0. -1.
        -11    1    4    4    0    0  0.55607907594E+01 -0.48100608534E+01  0.23540365725E+01  0.77201403957E+01  0.51100000000E-03 0.  1.
        -12    1    4    4    0    0 -0.40556582681E+01  0.24216035990E+02  0.74475836185E+01  0.25657966888E+02  0.00000000000E+00 0.  1.
</event>
<event>
 8    1  0.1229941E-006  0.9118800E+02  0.7816164E-02  0.1184000E+00
        -11   -1    0    0    0    0  0.00000000000E+00  0.00000000000E+00  0.45593999997E+02  0.45594000000E+02  0.51100000000E-03 0. -1.
         11   -1    0    0    0    0 -0.00000000000E+00 -0.00000000000E+00 -0.45593999997E+02  0.45594000000E+02  0.51100000000E-03 0.  1.
         23    2    1    2    0    0  0.00000000000E+00  0.00000000000E+00  0.13322676296E-14  0.91188000000E+02  0.91188000000E+02 0.  0.
    9900012    2    3    3    0    0  0.90777484904E+01  0.35461467583E+02  0.39823958425E+01  0.54367072833E+02  0.39999974137E+02 0.  0.
        -12    1    3    3    0    0 -0.90777484904E+01 -0.35461467583E+02 -0.39823958425E+01  0.36820927167E+02  0.00000000000E+00 0.  1.
         11    1    4    4    0    0  0.47112095444E+01  0.21718153409E+02  0.34932423540E+01  0.22496142454E+02  0.51100000000E-03 0. -1.
        -11    1    4    4    0    0  0.11488273529E+01 -0.48514207161E+01  0.96741584874E+01  0.10883263755E+02  0.51100000000E-03 0.  1.
         12    1    4    4    0    0  0.32177115931E+01  0.18594734890E+02 -0.91850049989E+01  0.20987666625E+02  0.00000000000E+00 0. -1.
</event>
<event>
 8    1  0.1229941E-006  0.9118800E+02  0.7816164E-02  0.1184000E+00
        -11   -1    0    0    0    0  0.00000000000E+00  0.00000000000E+00  0.45593999997E+02  0.45594000000E+02  0.51100000000E-03 0. -1.
         11   -1    0    0    0    0 -0.00000000000E+00 -0.00000000000E+00 -0.45593999997E+02  0.45594000000E+02  0.51100000000E-03 0.  1.
         23    2    1    2    0    0  0.00000000000E+00  0.00000000000E+00 -0.17763568394E-14  0.91188000000E+02  0.91188000000E+02 0.  0.
    9900012    2    3    3    0    0 -0.14121745886E+02  0.30539775228E+02 -0.14955896588E+02  0.54367076321E+02  0.39999982089E+02 0.  0.
         12    1    3    3    0    0  0.14121745886E+02 -0.30539775228E+02  0.14955896588E+02  0.36820923679E+02  0.00000000000E+00 0. -1.
         11    1    4    4    0    0 -0.12828018729E+02  0.19263069440E+02  0.20999003583E+01  0.23238620668E+02  0.51100000000E-03 0. -1.
        -11    1    4    4    0    0 -0.34856421790E+01  0.17696833003E+02 -0.77961406413E+01  0.19649615999E+02  0.51100000000E-03 0.  1.
        -12    1    4    4    0    0  0.21919150217E+01 -0.64201272159E+01 -0.92596563046E+01  0.11478839654E+02  0.00000000000E+00 0.  1.
</event>
<event>
 8    1  0.1229941E-006  0.9118800E+02  0.7816164E-02  0.1184000E+00
        -11   -1    0    0    0    0  0.00000000000E+00  0.00000000000E+00  0.45593999997E+02  0.45594000000E+02  0.51100000000E-03 0.  1.
         11   -1    0    0    0    0 -0.00000000000E+00 -0.00000000000E+00 -0.45593999997E+02  0.45594000000E+02  0.51100000000E-03 0. -1.
         23    2    1    2    0    0  0.35527136788E-14  0.00000000000E+00  0.00000000000E+00  0.91188000000E+02  0.91188000000E+02 0.  0.
    9900012    2    3    3    0    0  0.15636997316E+02  0.19417088853E+02 -0.27096838993E+02  0.54367113156E+02  0.40000066061E+02 0.  0.
        -12    1    3    3    0    0 -0.15636997316E+02 -0.19417088853E+02  0.27096838993E+02  0.36820886844E+02  0.00000000000E+00 0.  1.
         11    1    4    4    0    0  0.21241346660E+02  0.19984355735E+02 -0.23165367897E+02  0.37245181596E+02  0.51100000000E-03 0. -1.
        -11    1    4    4    0    0  0.17413500218E+01  0.11906309485E+01 -0.81856987529E+01  0.84531394339E+01  0.51100000000E-03 0.  1.
        -12    1    4    4    0    0 -0.73456993659E+01 -0.17578978297E+01  0.42542276573E+01  0.86687921255E+01  0.00000000000E+00 0.  1.
</event>
<event>
 8    1  0.1229941E-006  0.9118800E+02  0.7816164E-02  0.1184000E+00
        -11   -1    0    0    0    0  0.00000000000E+00  0.00000000000E+00  0.45593999997E+02  0.45594000000E+02  0.51100000000E-03 0.  1.
         11   -1    0    0    0    0 -0.00000000000E+00 -0.00000000000E+00 -0.45593999997E+02  0.45594000000E+02  0.51100000000E-03 0. -1.
         23    2    1    2    0    0  0.88817841970E-15 -0.35527136788E-14  0.00000000000E+00  0.91188000000E+02  0.91188000000E+02 0.  0.
    9900012    2    3    3    0    0 -0.62643551296E+01 -0.31548794355E+02  0.17922385582E+02  0.54367075576E+02  0.39999980391E+02 0.  0.
        -12    1    3    3    0    0  0.62643551296E+01  0.31548794355E+02 -0.17922385582E+02  0.36820924424E+02  0.00000000000E+00 0.  1.
         11    1    4    4    0    0 -0.77889764336E+00 -0.37225421845E+02  0.19471596295E+02  0.42017636482E+02  0.51100000000E-03 0. -1.
        -11    1    4    4    0    0 -0.77267294990E+01  0.22216244485E+01 -0.17431732748E+01  0.82265799254E+01  0.51100000000E-03 0.  1.
         12    1    4    4    0    0  0.22412720128E+01  0.34550030409E+01  0.19396256224E+00  0.41228591685E+01  0.00000000000E+00 0. -1.
</event>
<event>
 8    1  0.1229941E-006  0.9118800E+02  0.7816164E-02  0.1184000E+00
        -11   -1    0    0    0    0  0.00000000000E+00  0.00000000000E+00  0.45593999997E+02  0.45594000000E+02  0.51100000000E-03 0.  1.
         11   -1    0    0    0    0 -0.00000000000E+00 -0.00000000000E+00 -0.45593999997E+02  0.45594000000E+02  0.51100000000E-03 0. -1.
         23    2    1    2    0    0 -0.35527136788E-14 -0.17763568394E-14  0.00000000000E+00  0.91188000000E+02  0.91188000000E+02 0.  0.
    9900012    2    3    3    0    0 -0.17916401745E+02 -0.85759115445E+01 -0.31003795871E+02  0.54367094678E+02  0.40000023938E+02 0.  0.
        -12    1    3    3    0    0  0.17916401745E+02  0.85759115445E+01  0.31003795871E+02  0.36820905322E+02  0.00000000000E+00 0.  1.
         11    1    4    4    0    0 -0.88922619115E+01 -0.39920904321E+01 -0.16471210535E+02  0.19139223722E+02  0.51100000000E-03 0. -1.
        -11    1    4    4    0    0  0.20423978843E+00 -0.16067124339E+02 -0.12496851214E+02  0.20355969369E+02  0.51100000000E-03 0.  1.
        -12    1    4    4    0    0 -0.92283796215E+01  0.11483303226E+02 -0.20357341221E+01  0.14871901588E+02  0.00000000000E+00 0.  1.
</event>
<event>
 8    1  0.1229941E-006  0.9118800E+02  0.7816164E-02  0.1184000E+00
        -11   -1    0    0    0    0  0.00000000000E+00  0.00000000000E+00  0.45593999997E+02  0.45594000000E+02  0.51100000000E-03 0. -1.
         11   -1    0    0    0    0 -0.00000000000E+00 -0.00000000000E+00 -0.45593999997E+02  0.45594000000E+02  0.51100000000E-03 0.  1.
         23    2    1    2    0    0 -0.35527136788E-14  0.88817841970E-15  0.00000000000E+00  0.91188000000E+02  0.91188000000E+02 0.  0.
    9900012    2    3    3    0    0  0.30610850486E+02 -0.67693259581E+01  0.19311425525E+02  0.54367094291E+02  0.40000023055E+02 0.  0.
        -12    1    3    3    0    0 -0.30610850486E+02  0.67693259581E+01 -0.19311425525E+02  0.36820905709E+02  0.00000000000E+00 0.  1.
         11    1    4    4    0    0  0.76572464189E+01 -0.11403081580E+02  0.24608228586E+02  0.28182061789E+02  0.51100000000E-03 0. -1.
        -11    1    4    4    0    0  0.10186416916E+02 -0.27868520750E-01 -0.71813820900E+01  0.12463391000E+02  0.51100000000E-03 0.  1.
         12    1    4    4    0    0  0.12767187152E+02  0.46616241425E+01  0.18845790287E+01  0.13721641502E+02  0.00000000000E+00 0. -1.
</event>
<event>
 8    1  0.1229941E-006  0.9118800E+02  0.7816164E-02  0.1184000E+00
        -11   -1    0    0    0    0  0.00000000000E+00  0.00000000000E+00  0.45593999997E+02  0.45594000000E+02  0.51100000000E-03 0.  1.
         11   -1    0    0    0    0 -0.00000000000E+00 -0.00000000000E+00 -0.45593999997E+02  0.45594000000E+02  0.51100000000E-03 0. -1.
         23    2    1    2    0    0 -0.35527136788E-14  0.44408920985E-15  0.35527136788E-14  0.91188000000E+02  0.91188000000E+02 0.  0.
    9900012    2    3    3    0    0  0.19656609673E+02 -0.31752212388E+00 -0.31133567819E+02  0.54367052575E+02  0.39999927955E+02 0.  0.
        -12    1    3    3    0    0 -0.19656609673E+02  0.31752212388E+00  0.31133567819E+02  0.36820947425E+02  0.00000000000E+00 0.  1.
         11    1    4    4    0    0  0.50884193023E+01  0.66632059164E+01 -0.22745457545E+02  0.24241414218E+02  0.51100000000E-03 0. -1.
        -11    1    4    4    0    0  0.71132948464E+01  0.19089126608E+01 -0.15044101233E+02  0.16750160993E+02  0.51100000000E-03 0.  1.
        -12    1    4    4    0    0  0.74548955246E+01 -0.88896407011E+01  0.66559909592E+01  0.13375477364E+02  0.00000000000E+00 0.  1.
</event>
<event>
 8    1  0.1229941E-006  0.9118800E+02  0.7816164E-02  0.1184000E+00
        -11   -1    0    0    0    0  0.00000000000E+00  0.00000000000E+00  0.45593999997E+02  0.45594000000E+02  0.51100000000E-03 0. -1.
         11   -1    0    0    0    0 -0.00000000000E+00 -0.00000000000E+00 -0.45593999997E+02  0.45594000000E+02  0.51100000000E-03 0.  1.
         23    2    1    2    0    0 -0.35527136788E-14 -0.17763568394E-14  0.00000000000E+00  0.91188000000E+02  0.91188000000E+02 0.  0.
    9900012    2    3    3    0    0  0.22496002068E+02  0.12166865073E+02 -0.26489173347E+02  0.54367095348E+02  0.40000025466E+02 0.  0.
         12    1    3    3    0    0 -0.22496002068E+02 -0.12166865073E+02  0.26489173347E+02  0.36820904652E+02  0.00000000000E+00 0. -1.
         11    1    4    4    0    0  0.39586539157E+01  0.48479359117E+01  0.88640870918E+01  0.10851058182E+02  0.51100000000E-03 0. -1.
        -11    1    4    4    0    0  0.10614923350E+02  0.19766594209E-01 -0.29290946907E+02  0.31155040675E+02  0.51100000000E-03 0.  1.
         12    1    4    4    0    0  0.79224248021E+01  0.72991625667E+01 -0.60623135318E+01  0.12360996492E+02  0.00000000000E+00 0. -1.
</event>
<event>
 8    1  0.1229941E-006  0.9118800E+02  0.7816164E-02  0.1184000E+00
        -11   -1    0    0    0    0  0.00000000000E+00  0.00000000000E+00  0.45593999997E+02  0.45594000000E+02  0.51100000000E-03 0.  1.
         11   -1    0    0    0    0 -0.00000000000E+00 -0.00000000000E+00 -0.45593999997E+02  0.45594000000E+02  0.51100000000E-03 0. -1.
         23    2    1    2    0    0 -0.88817841970E-15  0.00000000000E+00  0.13322676296E-14  0.91188000000E+02  0.91188000000E+02 0.  0.
    9900012    2    3    3    0    0  0.46458005574E+01  0.36368388749E+02  0.33978202266E+01  0.54366968709E+02  0.39999736765E+02 0.  0.
         12    1    3    3    0    0 -0.46458005574E+01 -0.36368388749E+02 -0.33978202266E+01  0.36821031291E+02  0.00000000000E+00 0. -1.
         11    1    4    4    0    0  0.13738450354E+02  0.18771245859E+02  0.12237258216E+02  0.26284124070E+02  0.51100000000E-03 0.  1.
        -11    1    4    4    0    0 -0.94119826405E+01  0.20835151946E+02 -0.95088120393E+01  0.24760987067E+02  0.51100000000E-03 0. -1.
         12    1    4    4    0    0  0.31933284434E+00 -0.32380090562E+01  0.66937404986E+00  0.33218575725E+01  0.00000000000E+00 0. -1.
</event>
<event>
 8    1  0.1229941E-006  0.9118800E+02  0.7816164E-02  0.1184000E+00
        -11   -1    0    0    0    0  0.00000000000E+00  0.00000000000E+00  0.45593999997E+02  0.45594000000E+02  0.51100000000E-03 0.  1.
         11   -1    0    0    0    0 -0.00000000000E+00 -0.00000000000E+00 -0.45593999997E+02  0.45594000000E+02  0.51100000000E-03 0. -1.
         23    2    1    2    0    0 -0.35527136788E-14  0.17763568394E-14  0.00000000000E+00  0.91188000000E+02  0.91188000000E+02 0.  0.
    9900012    2    3    3    0    0  0.22785953010E+02 -0.60665535732E+01 -0.28280329044E+02  0.54367085594E+02  0.40000003229E+02 0.  0.
         12    1    3    3    0    0 -0.22785953010E+02  0.60665535732E+01  0.28280329044E+02  0.36820914406E+02  0.00000000000E+00 0. -1.
         11    1    4    4    0    0  0.50061385140E+01 -0.77553636235E+01 -0.26294731022E+02  0.27867902101E+02  0.51100000000E-03 0. -1.
        -11    1    4    4    0    0  0.12892747816E+01  0.36771294286E+00 -0.85842848427E+01  0.86883478747E+01  0.51100000000E-03 0.  1.
        -12    1    4    4    0    0  0.16490539715E+02  0.13210971074E+01  0.65986868204E+01  0.17810835618E+02  0.00000000000E+00 0.  1.
</event>
<event>
 8    1  0.1229941E-006  0.9118800E+02  0.7816164E-02  0.1184000E+00
        -11   -1    0    0    0    0  0.00000000000E+00  0.00000000000E+00  0.45593999997E+02  0.45594000000E+02  0.51100000000E-03 0.  1.
         11   -1    0    0    0    0 -0.00000000000E+00 -0.00000000000E+00 -0.45593999997E+02  0.45594000000E+02  0.51100000000E-03 0. -1.
         23    2    1    2    0    0  0.00000000000E+00  0.00000000000E+00 -0.44408920985E-15  0.91188000000E+02  0.91188000000E+02 0.  0.
    9900012    2    3    3    0    0 -0.32177421877E+02  0.17739297806E+02 -0.23896002500E+01  0.54367090796E+02  0.40000015087E+02 0.  0.
        -12    1    3    3    0    0  0.32177421877E+02 -0.17739297806E+02  0.23896002500E+01  0.36820909204E+02  0.00000000000E+00 0.  1.
         11    1    4    4    0    0 -0.31480458358E+02  0.13562568591E+02 -0.13700403027E+02  0.36914273237E+02  0.51100000000E-03 0. -1.
        -11    1    4    4    0    0  0.48062600155E+01 -0.18284316234E+01  0.45839280999E+01  0.68888093765E+01  0.51100000000E-03 0.  1.
         12    1    4    4    0    0 -0.55032235339E+01  0.60051608384E+01  0.67268746770E+01  0.10564008182E+02  0.00000000000E+00 0. -1.
</event>
<event>
 8    1  0.1229941E-006  0.9118800E+02  0.7816164E-02  0.1184000E+00
        -11   -1    0    0    0    0  0.00000000000E+00  0.00000000000E+00  0.45593999997E+02  0.45594000000E+02  0.51100000000E-03 0. -1.
         11   -1    0    0    0    0 -0.00000000000E+00 -0.00000000000E+00 -0.45593999997E+02  0.45594000000E+02  0.51100000000E-03 0.  1.
         23    2    1    2    0    0 -0.35527136788E-14  0.17763568394E-14  0.00000000000E+00  0.91188000000E+02  0.91188000000E+02 0.  0.
    9900012    2    3    3    0    0  0.27658912551E+02 -0.95467343502E+01  0.22352208370E+02  0.54367125495E+02  0.40000094192E+02 0.  0.
        -12    1    3    3    0    0 -0.27658912551E+02  0.95467343502E+01 -0.22352208370E+02  0.36820874505E+02  0.00000000000E+00 0.  1.
         11    1    4    4    0    0  0.24442272154E+02 -0.12496865957E+02  0.26792002327E+02  0.38358932672E+02  0.51100000000E-03 0. -1.
        -11    1    4    4    0    0 -0.45113924606E+01  0.40110697412E+01  0.14803568648E+01  0.62155288681E+01  0.51100000000E-03 0.  1.
         12    1    4    4    0    0  0.77280328579E+01 -0.10609381346E+01 -0.59201508222E+01  0.97926639550E+01  0.00000000000E+00 0. -1.
</event>
<event>
 8    1  0.1229941E-006  0.9118800E+02  0.7816164E-02  0.1184000E+00
        -11   -1    0    0    0    0  0.00000000000E+00  0.00000000000E+00  0.45593999997E+02  0.45594000000E+02  0.51100000000E-03 0.  1.
         11   -1    0    0    0    0 -0.00000000000E+00 -0.00000000000E+00 -0.45593999997E+02  0.45594000000E+02  0.51100000000E-03 0. -1.
         23    2    1    2    0    0  0.00000000000E+00  0.00000000000E+00 -0.26645352591E-14  0.91188000000E+02  0.91188000000E+02 0.  0.
    9900012    2    3    3    0    0 -0.13558903585E+02  0.33985608815E+02 -0.41127207046E+01  0.54367082785E+02  0.39999996825E+02 0.  0.
         12    1    3    3    0    0  0.13558903585E+02 -0.33985608815E+02  0.41127207046E+01  0.36820917215E+02  0.00000000000E+00 0. -1.
         11    1    4    4    0    0 -0.42458275355E+01 -0.27791679186E+01  0.13006259261E+01  0.52385545566E+01  0.51100000000E-03 0. -1.
        -11    1    4    4    0    0  0.79508189475E+01  0.16412523668E+02  0.72038339309E+01  0.19608204371E+02  0.51100000000E-03 0.  1.
        -12    1    4    4    0    0 -0.17263894996E+02  0.20352253066E+02 -0.12617180562E+02  0.29520323857E+02  0.00000000000E+00 0.  1.
</event>
<event>
 8    1  0.1229941E-006  0.9118800E+02  0.7816164E-02  0.1184000E+00
        -11   -1    0    0    0    0  0.00000000000E+00  0.00000000000E+00  0.45593999997E+02  0.45594000000E+02  0.51100000000E-03 0. -1.
         11   -1    0    0    0    0 -0.00000000000E+00 -0.00000000000E+00 -0.45593999997E+02  0.45594000000E+02  0.51100000000E-03 0.  1.
         23    2    1    2    0    0  0.00000000000E+00  0.00000000000E+00  0.35527136788E-14  0.91188000000E+02  0.91188000000E+02 0.  0.
    9900012    2    3    3    0    0  0.16479512193E+02 -0.28002337549E+02  0.17322363146E+02  0.54367224678E+02  0.40000320297E+02 0.  0.
        -12    1    3    3    0    0 -0.16479512193E+02  0.28002337549E+02 -0.17322363146E+02  0.36820775322E+02  0.00000000000E+00 0.  1.
         11    1    4    4    0    0  0.11680560195E+02 -0.20951380278E+02  0.81923737919E+01  0.25347796958E+02  0.51100000000E-03 0. -1.
        -11    1    4    4    0    0  0.14336750024E+02 -0.85118086805E+01  0.15421634891E+01  0.16744299232E+02  0.51100000000E-03 0.  1.
        -12    1    4    4    0    0 -0.95377980266E+01  0.14608514095E+01  0.75878258652E+01  0.12275128488E+02  0.00000000000E+00 0.  1.
</event>
<event>
 8    1  0.1229941E-006  0.9118800E+02  0.7816164E-02  0.1184000E+00
        -11   -1    0    0    0    0  0.00000000000E+00  0.00000000000E+00  0.45593999997E+02  0.45594000000E+02  0.51100000000E-03 0.  1.
         11   -1    0    0    0    0 -0.00000000000E+00 -0.00000000000E+00 -0.45593999997E+02  0.45594000000E+02  0.51100000000E-03 0. -1.
         23    2    1    2    0    0  0.00000000000E+00  0.88817841970E-15 -0.44408920985E-15  0.91188000000E+02  0.91188000000E+02 0.  0.
    9900012    2    3    3    0    0  0.36223440887E+02  0.60871628736E+01  0.25668844072E+01  0.54367080442E+02  0.39999991484E+02 0.  0.
        -12    1    3    3    0    0 -0.36223440887E+02 -0.60871628736E+01 -0.25668844072E+01  0.36820919558E+02  0.00000000000E+00 0.  1.
         11    1    4    4    0    0  0.36767409260E+01 -0.38595595666E+01 -0.90734936484E+01  0.10523445782E+02  0.51100000000E-03 0. -1.
        -11    1    4    4    0    0 -0.51309090570E+00  0.25512481044E+01  0.95545517611E+01  0.99026051514E+01  0.51100000000E-03 0.  1.
         12    1    4    4    0    0  0.33059790866E+02  0.73954743358E+01  0.20858262945E+01  0.33941029509E+02  0.00000000000E+00 0. -1.
</event>
<event>
 8    1  0.1229941E-006  0.9118800E+02  0.7816164E-02  0.1184000E+00
        -11   -1    0    0    0    0  0.00000000000E+00  0.00000000000E+00  0.45593999997E+02  0.45594000000E+02  0.51100000000E-03 0. -1.
         11   -1    0    0    0    0 -0.00000000000E+00 -0.00000000000E+00 -0.45593999997E+02  0.45594000000E+02  0.51100000000E-03 0.  1.
         23    2    1    2    0    0  0.00000000000E+00  0.00000000000E+00  0.00000000000E+00  0.91188000000E+02  0.91188000000E+02 0.  0.
    9900012    2    3    3    0    0 -0.29050350831E+01  0.22091237671E+02 -0.29314119109E+02  0.54367087602E+02  0.40000007807E+02 0.  0.
         12    1    3    3    0    0  0.29050350831E+01 -0.22091237671E+02  0.29314119109E+02  0.36820912398E+02  0.00000000000E+00 0. -1.
         11    1    4    4    0    0 -0.55357721078E+01 -0.32387819341E+01 -0.16869533408E+02  0.18047593715E+02  0.51100000000E-03 0. -1.
        -11    1    4    4    0    0 -0.90350883024E+01  0.12127360752E+02 -0.10883737605E+02  0.18632268889E+02  0.51100000000E-03 0.  1.
        -12    1    4    4    0    0  0.11665825327E+02  0.13202658853E+02 -0.15608480959E+01  0.17687224998E+02  0.00000000000E+00 0.  1.
</event>
<event>
 8    1  0.1229941E-006  0.9118800E+02  0.7816164E-02  0.1184000E+00
        -11   -1    0    0    0    0  0.00000000000E+00  0.00000000000E+00  0.45593999997E+02  0.45594000000E+02  0.51100000000E-03 0. -1.
         11   -1    0    0    0    0 -0.00000000000E+00 -0.00000000000E+00 -0.45593999997E+02  0.45594000000E+02  0.51100000000E-03 0.  1.
         23    2    1    2    0    0  0.00000000000E+00  0.00000000000E+00  0.00000000000E+00  0.91188000000E+02  0.91188000000E+02 0.  0.
    9900012    2    3    3    0    0  0.12487273833E+02 -0.33470616586E+02 -0.89199497020E+01  0.54367086308E+02  0.40000004857E+02 0.  0.
        -12    1    3    3    0    0 -0.12487273833E+02  0.33470616586E+02  0.89199497020E+01  0.36820913692E+02  0.00000000000E+00 0.  1.
         11    1    4    4    0    0  0.72385033362E+00 -0.11960393362E+02  0.40545881543E+01  0.12649689879E+02  0.51100000000E-03 0. -1.
        -11    1    4    4    0    0  0.16395413450E+02 -0.17988366052E+02  0.31808413045E+01  0.24546051558E+02  0.51100000000E-03 0.  1.
        -12    1    4    4    0    0 -0.46319899511E+01 -0.35218571719E+01 -0.16155379161E+02  0.17171344871E+02  0.00000000000E+00 0.  1.
</event>
<event>
 8    1  0.1229941E-006  0.9118800E+02  0.7816164E-02  0.1184000E+00
        -11   -1    0    0    0    0  0.00000000000E+00  0.00000000000E+00  0.45593999997E+02  0.45594000000E+02  0.51100000000E-03 0.  1.
         11   -1    0    0    0    0 -0.00000000000E+00 -0.00000000000E+00 -0.45593999997E+02  0.45594000000E+02  0.51100000000E-03 0. -1.
         23    2    1    2    0    0  0.17763568394E-14  0.35527136788E-14  0.71054273576E-14  0.91188000000E+02  0.91188000000E+02 0.  0.
    9900012    2    3    3    0    0 -0.12899229942E+02 -0.22159124046E+02  0.26426549213E+02  0.54367089977E+02  0.40000013221E+02 0.  0.
         12    1    3    3    0    0  0.12899229942E+02  0.22159124046E+02 -0.26426549213E+02  0.36820910023E+02  0.00000000000E+00 0. -1.
         11    1    4    4    0    0 -0.46679192479E+01  0.13439851065E+01 -0.79059189399E+01  0.92789719591E+01  0.51100000000E-03 0. -1.
        -11    1    4    4    0    0 -0.68676369552E+00 -0.18737543664E+02  0.15801537533E+02  0.24520517442E+02  0.51100000000E-03 0.  1.
         12    1    4    4    0    0 -0.75445469984E+01 -0.47655654883E+01  0.18530930620E+02  0.20567600576E+02  0.00000000000E+00 0. -1.
</event>
<event>
 8    1  0.1229941E-006  0.9118800E+02  0.7816164E-02  0.1184000E+00
        -11   -1    0    0    0    0  0.00000000000E+00  0.00000000000E+00  0.45593999997E+02  0.45594000000E+02  0.51100000000E-03 0.  1.
         11   -1    0    0    0    0 -0.00000000000E+00 -0.00000000000E+00 -0.45593999997E+02  0.45594000000E+02  0.51100000000E-03 0. -1.
         23    2    1    2    0    0 -0.35527136788E-14  0.17763568394E-14  0.35527136788E-14  0.91188000000E+02  0.91188000000E+02 0.  0.
    9900012    2    3    3    0    0  0.18738166907E+02 -0.14371507766E+02 -0.28251031706E+02  0.54367083023E+02  0.39999997368E+02 0.  0.
        -12    1    3    3    0    0 -0.18738166907E+02  0.14371507766E+02  0.28251031706E+02  0.36820916977E+02  0.00000000000E+00 0.  1.
         11    1    4    4    0    0 -0.50951614636E+01 -0.67135126266E+01 -0.10392737460E+02  0.13380617112E+02  0.51100000000E-03 0. -1.
        -11    1    4    4    0    0  0.26892189254E+02 -0.13395142435E+02 -0.12417682236E+02  0.32508745225E+02  0.51100000000E-03 0.  1.
         12    1    4    4    0    0 -0.30588608831E+01  0.57371472948E+01 -0.54406120107E+01  0.84777206864E+01  0.00000000000E+00 0. -1.
</event>
<event>
 8    1  0.1229941E-006  0.9118800E+02  0.7816164E-02  0.1184000E+00
        -11   -1    0    0    0    0  0.00000000000E+00  0.00000000000E+00  0.45593999997E+02  0.45594000000E+02  0.51100000000E-03 0.  1.
         11   -1    0    0    0    0 -0.00000000000E+00 -0.00000000000E+00 -0.45593999997E+02  0.45594000000E+02  0.51100000000E-03 0. -1.
         23    2    1    2    0    0 -0.53290705182E-14 -0.17763568394E-14  0.00000000000E+00  0.91188000000E+02  0.91188000000E+02 0.  0.
    9900012    2    3    3    0    0 -0.13822496797E+02 -0.83795645837E+01  0.33083264818E+02  0.54367069385E+02  0.39999966278E+02 0.  0.
         12    1    3    3    0    0  0.13822496797E+02  0.83795645837E+01 -0.33083264818E+02  0.36820930615E+02  0.00000000000E+00 0. -1.
         11    1    4    4    0    0  0.37217987667E+01 -0.61981592466E+01  0.30483835489E+01  0.78461204826E+01  0.51100000000E-03 0. -1.
        -11    1    4    4    0    0 -0.76160832704E+01 -0.16101348097E+02  0.19627965871E+02  0.26505002913E+02  0.51100000000E-03 0.  1.
         12    1    4    4    0    0 -0.99282122928E+01  0.13919942760E+02  0.10406915399E+02  0.20015945990E+02  0.00000000000E+00 0. -1.
</event>
<event>
 8    1  0.1229941E-006  0.9118800E+02  0.7816164E-02  0.1184000E+00
        -11   -1    0    0    0    0  0.00000000000E+00  0.00000000000E+00  0.45593999997E+02  0.45594000000E+02  0.51100000000E-03 0.  1.
         11   -1    0    0    0    0 -0.00000000000E+00 -0.00000000000E+00 -0.45593999997E+02  0.45594000000E+02  0.51100000000E-03 0. -1.
         23    2    1    2    0    0  0.00000000000E+00 -0.88817841970E-15  0.00000000000E+00  0.91188000000E+02  0.91188000000E+02 0.  0.
    9900012    2    3    3    0    0  0.35586996180E+01  0.76690186798E+01  0.35837157921E+02  0.54367080969E+02  0.39999992684E+02 0.  0.
         12    1    3    3    0    0 -0.35586996180E+01 -0.76690186798E+01 -0.35837157921E+02  0.36820919031E+02  0.00000000000E+00 0. -1.
         11    1    4    4    0    0 -0.81627750231E+01  0.34215962209E+01  0.12567544296E+02  0.15371447123E+02  0.51100000000E-03 0. -1.
        -11    1    4    4    0    0 -0.75483977844E+01  0.59100857224E-01  0.16502536154E+02  0.18147052152E+02  0.51100000000E-03 0.  1.
        -12    1    4    4    0    0  0.19269872425E+02  0.41883216017E+01  0.67670774710E+01  0.20848581694E+02  0.00000000000E+00 0.  1.
</event>
<event>
 8    1  0.1229941E-006  0.9118800E+02  0.7816164E-02  0.1184000E+00
        -11   -1    0    0    0    0  0.00000000000E+00  0.00000000000E+00  0.45593999997E+02  0.45594000000E+02  0.51100000000E-03 0.  1.
         11   -1    0    0    0    0 -0.00000000000E+00 -0.00000000000E+00 -0.45593999997E+02  0.45594000000E+02  0.51100000000E-03 0. -1.
         23    2    1    2    0    0  0.00000000000E+00 -0.35527136788E-14  0.00000000000E+00  0.91188000000E+02  0.91188000000E+02 0.  0.
    9900012    2    3    3    0    0  0.85450566675E+01 -0.26410520020E+02 -0.24191924355E+02  0.54367044483E+02  0.39999909509E+02 0.  0.
        -12    1    3    3    0    0 -0.85450566675E+01  0.26410520020E+02  0.24191924355E+02  0.36820955517E+02  0.00000000000E+00 0.  1.
         11    1    4    4    0    0 -0.44205251929E+01 -0.18016793804E+02 -0.94601131847E+01  0.20824016032E+02  0.51100000000E-03 0. -1.
        -11    1    4    4    0    0  0.15270701953E+02  0.10857439407E+01  0.65599534140E+00  0.15323299521E+02  0.51100000000E-03 0.  1.
         12    1    4    4    0    0 -0.23051200929E+01 -0.94794701567E+01 -0.15387806511E+02  0.18219728931E+02  0.00000000000E+00 0. -1.
</event>
<event>
 8    1  0.1229941E-006  0.9118800E+02  0.7816164E-02  0.1184000E+00
        -11   -1    0    0    0    0  0.00000000000E+00  0.00000000000E+00  0.45593999997E+02  0.45594000000E+02  0.51100000000E-03 0. -1.
         11   -1    0    0    0    0 -0.00000000000E+00 -0.00000000000E+00 -0.45593999997E+02  0.45594000000E+02  0.51100000000E-03 0.  1.
         23    2    1    2    0    0  0.00000000000E+00  0.44408920985E-15 -0.17763568394E-14  0.91188000000E+02  0.91188000000E+02 0.  0.
    9900012    2    3    3    0    0  0.33607799944E+02 -0.35537508749E+01 -0.14617227071E+02  0.54367126985E+02  0.40000097587E+02 0.  0.
         12    1    3    3    0    0 -0.33607799944E+02  0.35537508749E+01  0.14617227071E+02  0.36820873015E+02  0.00000000000E+00 0. -1.
         11    1    4    4    0    0 -0.41810052465E+01  0.42802131084E+01 -0.65421853496E+01  0.88657328255E+01  0.51100000000E-03 0.  1.
        -11    1    4    4    0    0  0.12366620813E+02 -0.61716396839E+00  0.78372100207E+01  0.14653875353E+02  0.51100000000E-03 0. -1.
        -12    1    4    4    0    0  0.25422184378E+02 -0.72168000149E+01 -0.15912251742E+02  0.30847518806E+02  0.00000000000E+00 0.  1.
</event>
<event>
 8    1  0.1229941E-006  0.9118800E+02  0.7816164E-02  0.1184000E+00
        -11   -1    0    0    0    0  0.00000000000E+00  0.00000000000E+00  0.45593999997E+02  0.45594000000E+02  0.51100000000E-03 0.  1.
         11   -1    0    0    0    0 -0.00000000000E+00 -0.00000000000E+00 -0.45593999997E+02  0.45594000000E+02  0.51100000000E-03 0. -1.
         23    2    1    2    0    0  0.17763568394E-14  0.00000000000E+00  0.35527136788E-14  0.91188000000E+02  0.91188000000E+02 0.  0.
    9900012    2    3    3    0    0  0.12553575819E+02 -0.15818809604E+02  0.30788847229E+02  0.54367080445E+02  0.39999991491E+02 0.  0.
         12    1    3    3    0    0 -0.12553575819E+02  0.15818809604E+02 -0.30788847229E+02  0.36820919555E+02  0.00000000000E+00 0. -1.
         11    1    4    4    0    0  0.16968530046E+01  0.24874892446E+01 -0.64669924328E+01  0.71336459296E+01  0.51100000000E-03 0. -1.
        -11    1    4    4    0    0  0.11577454479E+02 -0.89968280150E+00  0.14756196715E+02  0.18777439206E+02  0.51100000000E-03 0.  1.
         12    1    4    4    0    0 -0.72073166509E+00 -0.17406616047E+02  0.22499642947E+02  0.28455995310E+02  0.00000000000E+00 0. -1.
</event>
<event>
 8    1  0.1229941E-006  0.9118800E+02  0.7816164E-02  0.1184000E+00
        -11   -1    0    0    0    0  0.00000000000E+00  0.00000000000E+00  0.45593999997E+02  0.45594000000E+02  0.51100000000E-03 0.  1.
         11   -1    0    0    0    0 -0.00000000000E+00 -0.00000000000E+00 -0.45593999997E+02  0.45594000000E+02  0.51100000000E-03 0. -1.
         23    2    1    2    0    0  0.00000000000E+00  0.00000000000E+00  0.35527136788E-14  0.91188000000E+02  0.91188000000E+02 0.  0.
    9900012    2    3    3    0    0 -0.11327823382E+02 -0.23864993753E+02  0.25649987815E+02  0.54367090393E+02  0.40000014169E+02 0.  0.
         12    1    3    3    0    0  0.11327823382E+02  0.23864993753E+02 -0.25649987815E+02  0.36820909607E+02  0.00000000000E+00 0. -1.
         11    1    4    4    0    0 -0.36510362934E+01  0.56644390085E+01 -0.13431606603E+01  0.68716821898E+01  0.51100000000E-03 0. -1.
        -11    1    4    4    0    0 -0.62517831319E+01  0.17091588661E+01  0.48251560732E+00  0.64991413226E+01  0.51100000000E-03 0.  1.
         12    1    4    4    0    0 -0.14250039568E+01 -0.31238591627E+02  0.26510632868E+02  0.40996266881E+02  0.00000000000E+00 0. -1.
</event>
<event>
 8    1  0.1229941E-006  0.9118800E+02  0.7816164E-02  0.1184000E+00
        -11   -1    0    0    0    0  0.00000000000E+00  0.00000000000E+00  0.45593999997E+02  0.45594000000E+02  0.51100000000E-03 0.  1.
         11   -1    0    0    0    0 -0.00000000000E+00 -0.00000000000E+00 -0.45593999997E+02  0.45594000000E+02  0.51100000000E-03 0. -1.
         23    2    1    2    0    0  0.00000000000E+00  0.71054273576E-14 -0.53290705182E-14  0.91188000000E+02  0.91188000000E+02 0.  0.
    9900012    2    3    3    0    0  0.15118304217E+01  0.35603014238E+02 -0.92692990690E+01  0.54367079870E+02  0.39999990179E+02 0.  0.
        -12    1    3    3    0    0 -0.15118304217E+01 -0.35603014238E+02  0.92692990690E+01  0.36820920130E+02  0.00000000000E+00 0.  1.
         11    1    4    4    0    0  0.21360527860E+01  0.12594214198E+02 -0.17023533361E+02  0.21283271391E+02  0.51100000000E-03 0. -1.
        -11    1    4    4    0    0  0.57874006315E+01  0.21274181260E+01  0.93300779065E+01  0.11183481925E+02  0.51100000000E-03 0.  1.
        -12    1    4    4    0    0 -0.64116229959E+01  0.20881381914E+02 -0.15758436147E+01  0.21900326554E+02  0.00000000000E+00 0.  1.
</event>
<event>
 8    1  0.1229941E-006  0.9118800E+02  0.7816164E-02  0.1184000E+00
        -11   -1    0    0    0    0  0.00000000000E+00  0.00000000000E+00  0.45593999997E+02  0.45594000000E+02  0.51100000000E-03 0.  1.
         11   -1    0    0    0    0 -0.00000000000E+00 -0.00000000000E+00 -0.45593999997E+02  0.45594000000E+02  0.51100000000E-03 0. -1.
         23    2    1    2    0    0 -0.22204460493E-15  0.00000000000E+00 -0.71054273576E-14  0.91188000000E+02  0.91188000000E+02 0.  0.
    9900012    2    3    3    0    0  0.13865251403E+01 -0.17319833786E+02  0.32463537482E+02  0.54367077141E+02  0.39999983958E+02 0.  0.
         12    1    3    3    0    0 -0.13865251403E+01  0.17319833786E+02 -0.32463537482E+02  0.36820922859E+02  0.00000000000E+00 0. -1.
         11    1    4    4    0    0 -0.92716396128E+01 -0.47629460539E+01 -0.38882399522E+01  0.11125078265E+02  0.51100000000E-03 0. -1.
        -11    1    4    4    0    0 -0.26097943476E+00 -0.10402533750E+02  0.91692560882E+01  0.13869249300E+02  0.51100000000E-03 0.  1.
        -12    1    4    4    0    0  0.10919144188E+02 -0.21543539830E+01  0.27182521346E+02  0.29372749575E+02  0.00000000000E+00 0.  1.
</event>
<event>
 8    1  0.1229941E-006  0.9118800E+02  0.7816164E-02  0.1184000E+00
        -11   -1    0    0    0    0  0.00000000000E+00  0.00000000000E+00  0.45593999997E+02  0.45594000000E+02  0.51100000000E-03 0.  1.
         11   -1    0    0    0    0 -0.00000000000E+00 -0.00000000000E+00 -0.45593999997E+02  0.45594000000E+02  0.51100000000E-03 0. -1.
         23    2    1    2    0    0  0.00000000000E+00 -0.17763568394E-14  0.00000000000E+00  0.91188000000E+02  0.91188000000E+02 0.  0.
    9900012    2    3    3    0    0 -0.35477926954E+02  0.93500073857E+01 -0.31108295566E+01  0.54367038584E+02  0.39999896059E+02 0.  0.
         12    1    3    3    0    0  0.35477926954E+02 -0.93500073857E+01  0.31108295566E+01  0.36820961416E+02  0.00000000000E+00 0. -1.
         11    1    4    4    0    0 -0.14070429521E+02 -0.48222573070E+01 -0.97377078149E+01  0.17777910625E+02  0.51100000000E-03 0. -1.
        -11    1    4    4    0    0 -0.13567407888E+02  0.26027180295E+01  0.14923586623E+02  0.20336227179E+02  0.51100000000E-03 0.  1.
         12    1    4    4    0    0 -0.78400895461E+01  0.11569546663E+02 -0.82967083645E+01  0.16252900780E+02  0.00000000000E+00 0. -1.
</event>
<event>
 8    1  0.1229941E-006  0.9118800E+02  0.7816164E-02  0.1184000E+00
        -11   -1    0    0    0    0  0.00000000000E+00  0.00000000000E+00  0.45593999997E+02  0.45594000000E+02  0.51100000000E-03 0.  1.
         11   -1    0    0    0    0 -0.00000000000E+00 -0.00000000000E+00 -0.45593999997E+02  0.45594000000E+02  0.51100000000E-03 0. -1.
         23    2    1    2    0    0  0.00000000000E+00  0.00000000000E+00  0.00000000000E+00  0.91188000000E+02  0.91188000000E+02 0.  0.
    9900012    2    3    3    0    0  0.15315274816E+02  0.33038755467E+02  0.54463172624E+01  0.54367090489E+02  0.40000014387E+02 0.  0.
        -12    1    3    3    0    0 -0.15315274816E+02 -0.33038755467E+02 -0.54463172624E+01  0.36820909511E+02  0.00000000000E+00 0.  1.
         11    1    4    4    0    0  0.10379407435E+02  0.14509669700E+02 -0.11680267717E+02  0.21323490983E+02  0.51100000000E-03 0. -1.
        -11    1    4    4    0    0 -0.48485041055E+01  0.27601461248E+01 -0.24282623972E+01  0.60846410922E+01  0.51100000000E-03 0.  1.
         12    1    4    4    0    0  0.97843714865E+01  0.15768939642E+02  0.19554847376E+02  0.26958958413E+02  0.00000000000E+00 0. -1.
</event>
<event>
 8    1  0.1229941E-006  0.9118800E+02  0.7816164E-02  0.1184000E+00
        -11   -1    0    0    0    0  0.00000000000E+00  0.00000000000E+00  0.45593999997E+02  0.45594000000E+02  0.51100000000E-03 0.  1.
         11   -1    0    0    0    0 -0.00000000000E+00 -0.00000000000E+00 -0.45593999997E+02  0.45594000000E+02  0.51100000000E-03 0. -1.
         23    2    1    2    0    0  0.00000000000E+00  0.17763568394E-14 -0.11102230246E-15  0.91188000000E+02  0.91188000000E+02 0.  0.
    9900012    2    3    3    0    0 -0.36446850345E+02 -0.52241387026E+01 -0.33927831953E+00  0.54367086988E+02  0.40000006407E+02 0.  0.
        -12    1    3    3    0    0  0.36446850345E+02  0.52241387026E+01  0.33927831953E+00  0.36820913012E+02  0.00000000000E+00 0.  1.
         11    1    4    4    0    0  0.24555018437E+01 -0.89786994936E+00 -0.23951219196E+01  0.35457395591E+01  0.51100000000E-03 0. -1.
        -11    1    4    4    0    0 -0.14016768795E+02  0.14025135644E+02 -0.60073416972E-01  0.19828712676E+02  0.51100000000E-03 0.  1.
        -12    1    4    4    0    0 -0.24885583393E+02 -0.18351404397E+02  0.21159170170E+01  0.30992634754E+02  0.00000000000E+00 0.  1.
</event>
<event>
 8    1  0.1229941E-006  0.9118800E+02  0.7816164E-02  0.1184000E+00
        -11   -1    0    0    0    0  0.00000000000E+00  0.00000000000E+00  0.45593999997E+02  0.45594000000E+02  0.51100000000E-03 0. -1.
         11   -1    0    0    0    0 -0.00000000000E+00 -0.00000000000E+00 -0.45593999997E+02  0.45594000000E+02  0.51100000000E-03 0.  1.
         23    2    1    2    0    0  0.00000000000E+00  0.88817841970E-15 -0.35527136788E-14  0.91188000000E+02  0.91188000000E+02 0.  0.
    9900012    2    3    3    0    0  0.32403113104E+02  0.62334823779E+01 -0.16338981263E+02  0.54367077278E+02  0.39999984270E+02 0.  0.
         12    1    3    3    0    0 -0.32403113104E+02 -0.62334823779E+01  0.16338981263E+02  0.36820922722E+02  0.00000000000E+00 0. -1.
         11    1    4    4    0    0  0.11163016596E+01 -0.65440561423E+01  0.16136021762E+01  0.68318747378E+01  0.51100000000E-03 0. -1.
        -11    1    4    4    0    0  0.97553702190E+00  0.41952146058E+01  0.64019234411E+01  0.77159654015E+01  0.51100000000E-03 0.  1.
        -12    1    4    4    0    0  0.30311274423E+02  0.85823239143E+01 -0.24354506880E+02  0.39819237139E+02  0.00000000000E+00 0.  1.
</event>
<event>
 8    1  0.1229941E-006  0.9118800E+02  0.7816164E-02  0.1184000E+00
        -11   -1    0    0    0    0  0.00000000000E+00  0.00000000000E+00  0.45593999997E+02  0.45594000000E+02  0.51100000000E-03 0.  1.
         11   -1    0    0    0    0 -0.00000000000E+00 -0.00000000000E+00 -0.45593999997E+02  0.45594000000E+02  0.51100000000E-03 0. -1.
         23    2    1    2    0    0  0.35527136788E-14  0.00000000000E+00  0.00000000000E+00  0.91188000000E+02  0.91188000000E+02 0.  0.
    9900012    2    3    3    0    0  0.16004803745E+02 -0.24098691620E+02 -0.22779022175E+02  0.54367020491E+02  0.39999854814E+02 0.  0.
        -12    1    3    3    0    0 -0.16004803745E+02  0.24098691620E+02  0.22779022175E+02  0.36820979509E+02  0.00000000000E+00 0.  1.
         11    1    4    4    0    0 -0.58719569775E+01 -0.32397850359E+01 -0.17405212398E+02  0.18652546869E+02  0.51100000000E-03 0. -1.
        -11    1    4    4    0    0  0.21611647798E+02 -0.19413729137E+02 -0.10106698565E+02  0.30758763885E+02  0.51100000000E-03 0.  1.
         12    1    4    4    0    0  0.26511292475E+00 -0.14451774471E+01  0.47328887886E+01  0.49557097374E+01  0.00000000000E+00 0. -1.
</event>
<event>
 8    1  0.1229941E-006  0.9118800E+02  0.7816164E-02  0.1184000E+00
        -11   -1    0    0    0    0  0.00000000000E+00  0.00000000000E+00  0.45593999997E+02  0.45594000000E+02  0.51100000000E-03 0.  1.
         11   -1    0    0    0    0 -0.00000000000E+00 -0.00000000000E+00 -0.45593999997E+02  0.45594000000E+02  0.51100000000E-03 0. -1.
         23    2    1    2    0    0 -0.71054273576E-14 -0.17763568394E-14 -0.88817841970E-15  0.91188000000E+02  0.91188000000E+02 0.  0.
    9900012    2    3    3    0    0 -0.35141294740E+02  0.89983259336E+01 -0.63165888442E+01  0.54367085287E+02  0.40000002530E+02 0.  0.
         12    1    3    3    0    0  0.35141294740E+02 -0.89983259336E+01  0.63165888442E+01  0.36820914713E+02  0.00000000000E+00 0. -1.
         11    1    4    4    0    0  0.57020653387E+01 -0.25397984446E+01  0.16021077322E+00  0.62441807324E+01  0.51100000000E-03 0. -1.
        -11    1    4    4    0    0 -0.21547609875E+02  0.16168570369E+02  0.89550178164E+00  0.26954110685E+02  0.51100000000E-03 0.  1.
         12    1    4    4    0    0 -0.19295750204E+02 -0.46304459906E+01 -0.73723013990E+01  0.21168793870E+02  0.00000000000E+00 0. -1.
</event>
<event>
 8    1  0.1229941E-006  0.9118800E+02  0.7816164E-02  0.1184000E+00
        -11   -1    0    0    0    0  0.00000000000E+00  0.00000000000E+00  0.45593999997E+02  0.45594000000E+02  0.51100000000E-03 0.  1.
         11   -1    0    0    0    0 -0.00000000000E+00 -0.00000000000E+00 -0.45593999997E+02  0.45594000000E+02  0.51100000000E-03 0. -1.
         23    2    1    2    0    0  0.00000000000E+00  0.00000000000E+00 -0.71054273576E-14  0.91188000000E+02  0.91188000000E+02 0.  0.
    9900012    2    3    3    0    0  0.19798142248E+01  0.55456864400E+01 -0.36347017216E+02  0.54367082535E+02  0.39999996255E+02 0.  0.
        -12    1    3    3    0    0 -0.19798142248E+01 -0.55456864400E+01  0.36347017216E+02  0.36820917465E+02  0.00000000000E+00 0.  1.
         11    1    4    4    0    0 -0.56980075924E+00  0.49777085772E+01 -0.12291758909E+02  0.13273642790E+02  0.51100000000E-03 0. -1.
        -11    1    4    4    0    0  0.49401798805E+01 -0.11858752502E+01  0.76863451196E+01  0.92136626224E+01  0.51100000000E-03 0.  1.
        -12    1    4    4    0    0 -0.23905648964E+01  0.17538531131E+01 -0.31741603427E+02  0.31879777122E+02  0.00000000000E+00 0.  1.
</event>
<event>
 8    1  0.1229941E-006  0.9118800E+02  0.7816164E-02  0.1184000E+00
        -11   -1    0    0    0    0  0.00000000000E+00  0.00000000000E+00  0.45593999997E+02  0.45594000000E+02  0.51100000000E-03 0. -1.
         11   -1    0    0    0    0 -0.00000000000E+00 -0.00000000000E+00 -0.45593999997E+02  0.45594000000E+02  0.51100000000E-03 0.  1.
         23    2    1    2    0    0  0.00000000000E+00 -0.35527136788E-14 -0.44408920985E-15  0.91188000000E+02  0.91188000000E+02 0.  0.
    9900012    2    3    3    0    0  0.19743392768E+02 -0.30978025781E+02  0.25176392581E+01  0.54367107199E+02  0.40000052481E+02 0.  0.
        -12    1    3    3    0    0 -0.19743392768E+02  0.30978025781E+02 -0.25176392581E+01  0.36820892801E+02  0.00000000000E+00 0.  1.
         11    1    4    4    0    0  0.19996681914E+02 -0.18621851160E+02  0.37249986862E+01  0.27577458977E+02  0.51100000000E-03 0. -1.
        -11    1    4    4    0    0 -0.10280066162E+02 -0.60110163437E+01 -0.67550956142E+01  0.13690996852E+02  0.51100000000E-03 0.  1.
        -12    1    4    4    0    0  0.10026777016E+02 -0.63451582773E+01  0.55477361861E+01  0.13098651369E+02  0.00000000000E+00 0.  1.
</event>
<event>
 8    1  0.1229941E-006  0.9118800E+02  0.7816164E-02  0.1184000E+00
        -11   -1    0    0    0    0  0.00000000000E+00  0.00000000000E+00  0.45593999997E+02  0.45594000000E+02  0.51100000000E-03 0. -1.
         11   -1    0    0    0    0 -0.00000000000E+00 -0.00000000000E+00 -0.45593999997E+02  0.45594000000E+02  0.51100000000E-03 0.  1.
         23    2    1    2    0    0 -0.88817841970E-15  0.00000000000E+00  0.00000000000E+00  0.91188000000E+02  0.91188000000E+02 0.  0.
    9900012    2    3    3    0    0 -0.60471753499E+01 -0.34722638326E+02  0.10655983056E+02  0.54367083160E+02  0.39999997680E+02 0.  0.
        -12    1    3    3    0    0  0.60471753499E+01  0.34722638326E+02 -0.10655983056E+02  0.36820916840E+02  0.00000000000E+00 0.  1.
         11    1    4    4    0    0 -0.39273299318E+01 -0.84024148506E+01  0.10483476831E+02  0.13997420564E+02  0.51100000000E-03 0. -1.
        -11    1    4    4    0    0 -0.15083367023E+02 -0.19945428738E+02  0.42362243423E+01  0.25362840638E+02  0.51100000000E-03 0.  1.
        -12    1    4    4    0    0  0.12963521605E+02 -0.63747947381E+01 -0.40637181170E+01  0.15006821958E+02  0.00000000000E+00 0.  1.
</event>
<event>
 8    1  0.1229941E-006  0.9118800E+02  0.7816164E-02  0.1184000E+00
        -11   -1    0    0    0    0  0.00000000000E+00  0.00000000000E+00  0.45593999997E+02  0.45594000000E+02  0.51100000000E-03 0.  1.
         11   -1    0    0    0    0 -0.00000000000E+00 -0.00000000000E+00 -0.45593999997E+02  0.45594000000E+02  0.51100000000E-03 0. -1.
         23    2    1    2    0    0  0.00000000000E+00  0.00000000000E+00 -0.17763568394E-14  0.91188000000E+02  0.91188000000E+02 0.  0.
    9900012    2    3    3    0    0 -0.33969720833E+02  0.90697608028E+01  0.10935192292E+02  0.54367069472E+02  0.39999966476E+02 0.  0.
        -12    1    3    3    0    0  0.33969720833E+02 -0.90697608028E+01 -0.10935192292E+02  0.36820930528E+02  0.00000000000E+00 0.  1.
         11    1    4    4    0    0  0.38367224598E+01  0.17307248704E+01 -0.85607908383E+01  0.95395486187E+01  0.51100000000E-03 0. -1.
        -11    1    4    4    0    0 -0.30181057631E+02  0.10712686840E+02  0.15637071770E+02  0.35639527394E+02  0.51100000000E-03 0.  1.
         12    1    4    4    0    0 -0.76253856611E+01 -0.33736509074E+01  0.38589113609E+01  0.91879934598E+01  0.00000000000E+00 0. -1.
</event>
<event>
 8    1  0.1229941E-006  0.9118800E+02  0.7816164E-02  0.1184000E+00
        -11   -1    0    0    0    0  0.00000000000E+00  0.00000000000E+00  0.45593999997E+02  0.45594000000E+02  0.51100000000E-03 0. -1.
         11   -1    0    0    0    0 -0.00000000000E+00 -0.00000000000E+00 -0.45593999997E+02  0.45594000000E+02  0.51100000000E-03 0.  1.
         23    2    1    2    0    0  0.00000000000E+00  0.00000000000E+00  0.00000000000E+00  0.91188000000E+02  0.91188000000E+02 0.  0.
    9900012    2    3    3    0    0 -0.88206964717E+01  0.16476967312E+02  0.31725147353E+02  0.54367080503E+02  0.39999991623E+02 0.  0.
        -12    1    3    3    0    0  0.88206964717E+01 -0.16476967312E+02 -0.31725147353E+02  0.36820919497E+02  0.00000000000E+00 0.  1.
         11    1    4    4    0    0 -0.43523018979E+01  0.28787552024E+01  0.10125670910E+02  0.11391179700E+02  0.51100000000E-03 0. -1.
        -11    1    4    4    0    0 -0.16738663165E+01  0.21617802283E+02  0.21937150418E+01  0.21793200544E+02  0.51100000000E-03 0.  1.
         12    1    4    4    0    0 -0.27945282574E+01 -0.80195901736E+01  0.19405761401E+02  0.21182700260E+02  0.00000000000E+00 0. -1.
</event>
<event>
 8    1  0.1229941E-006  0.9118800E+02  0.7816164E-02  0.1184000E+00
        -11   -1    0    0    0    0  0.00000000000E+00  0.00000000000E+00  0.45593999997E+02  0.45594000000E+02  0.51100000000E-03 0. -1.
         11   -1    0    0    0    0 -0.00000000000E+00 -0.00000000000E+00 -0.45593999997E+02  0.45594000000E+02  0.51100000000E-03 0.  1.
         23    2    1    2    0    0  0.00000000000E+00  0.00000000000E+00  0.71054273576E-14  0.91188000000E+02  0.91188000000E+02 0.  0.
    9900012    2    3    3    0    0  0.14097174490E+02 -0.58499064347E+01  0.33508626896E+02  0.54367084607E+02  0.40000000979E+02 0.  0.
        -12    1    3    3    0    0 -0.14097174490E+02  0.58499064347E+01 -0.33508626896E+02  0.36820915393E+02  0.00000000000E+00 0.  1.
         11    1    4    4    0    0  0.71786789381E+01  0.73047430088E+01  0.22539557844E+02  0.24757309422E+02  0.51100000000E-03 0. -1.
        -11    1    4    4    0    0 -0.54237536757E+01 -0.49183488102E+01  0.12711936355E+02  0.14669716599E+02  0.51100000000E-03 0.  1.
        -12    1    4    4    0    0  0.12342249228E+02 -0.82363006333E+01 -0.17428673030E+01  0.14940058586E+02  0.00000000000E+00 0.  1.
</event>
<event>
 8    1  0.1229941E-006  0.9118800E+02  0.7816164E-02  0.1184000E+00
        -11   -1    0    0    0    0  0.00000000000E+00  0.00000000000E+00  0.45593999997E+02  0.45594000000E+02  0.51100000000E-03 0. -1.
         11   -1    0    0    0    0 -0.00000000000E+00 -0.00000000000E+00 -0.45593999997E+02  0.45594000000E+02  0.51100000000E-03 0.  1.
         23    2    1    2    0    0  0.00000000000E+00  0.35527136788E-14 -0.35527136788E-14  0.91188000000E+02  0.91188000000E+02 0.  0.
    9900012    2    3    3    0    0 -0.87208700713E+01 -0.26623952969E+02  0.23893334934E+02  0.54367083379E+02  0.39999998180E+02 0.  0.
        -12    1    3    3    0    0  0.87208700713E+01  0.26623952969E+02 -0.23893334934E+02  0.36820916621E+02  0.00000000000E+00 0.  1.
         11    1    4    4    0    0 -0.11647808673E+02  0.32096449458E+01  0.89074674611E+01  0.15010537779E+02  0.51100000000E-03 0. -1.
        -11    1    4    4    0    0 -0.54639318089E+01 -0.22719835020E+02  0.38122260254E+01  0.23676539479E+02  0.51100000000E-03 0.  1.
         12    1    4    4    0    0  0.83908704111E+01 -0.71137628951E+01  0.11173641448E+02  0.15680006122E+02  0.00000000000E+00 0. -1.
</event>
<event>
 8    1  0.1229941E-006  0.9118800E+02  0.7816164E-02  0.1184000E+00
        -11   -1    0    0    0    0  0.00000000000E+00  0.00000000000E+00  0.45593999997E+02  0.45594000000E+02  0.51100000000E-03 0. -1.
         11   -1    0    0    0    0 -0.00000000000E+00 -0.00000000000E+00 -0.45593999997E+02  0.45594000000E+02  0.51100000000E-03 0.  1.
         23    2    1    2    0    0  0.00000000000E+00  0.00000000000E+00  0.35527136788E-14  0.91188000000E+02  0.91188000000E+02 0.  0.
    9900012    2    3    3    0    0  0.23357430113E+02  0.97050023758E+01 -0.26758596619E+02  0.54367094177E+02  0.40000022796E+02 0.  0.
         12    1    3    3    0    0 -0.23357430113E+02 -0.97050023758E+01  0.26758596619E+02  0.36820905823E+02  0.00000000000E+00 0. -1.
         11    1    4    4    0    0 -0.52058789307E+01  0.11020730463E+02 -0.24493989463E+01  0.12432104843E+02  0.51100000000E-03 0. -1.
        -11    1    4    4    0    0  0.14901113344E+02  0.81798766986E+01 -0.85899336846E+01  0.19045748152E+02  0.51100000000E-03 0.  1.
         12    1    4    4    0    0  0.13662195700E+02 -0.94956047853E+01 -0.15719263988E+02  0.22889241182E+02  0.00000000000E+00 0. -1.
</event>
<event>
 8    1  0.1229941E-006  0.9118800E+02  0.7816164E-02  0.1184000E+00
        -11   -1    0    0    0    0  0.00000000000E+00  0.00000000000E+00  0.45593999997E+02  0.45594000000E+02  0.51100000000E-03 0.  1.
         11   -1    0    0    0    0 -0.00000000000E+00 -0.00000000000E+00 -0.45593999997E+02  0.45594000000E+02  0.51100000000E-03 0. -1.
         23    2    1    2    0    0 -0.44408920985E-15  0.00000000000E+00  0.00000000000E+00  0.91188000000E+02  0.91188000000E+02 0.  0.
    9900012    2    3    3    0    0  0.36160294400E+01 -0.34302990021E+02  0.12884487963E+02  0.54367070851E+02  0.39999969619E+02 0.  0.
         12    1    3    3    0    0 -0.36160294400E+01  0.34302990021E+02 -0.12884487963E+02  0.36820929149E+02  0.00000000000E+00 0. -1.
         11    1    4    4    0    0  0.28087469835E+01  0.15993788128E+01  0.11228124989E+02  0.11684085897E+02  0.51100000000E-03 0. -1.
        -11    1    4    4    0    0 -0.54688812965E+01 -0.29427770260E+02  0.87784312205E+01  0.31192357719E+02  0.51100000000E-03 0.  1.
        -12    1    4    4    0    0  0.62761637530E+01 -0.64745985745E+01 -0.71220682472E+01  0.11490627236E+02  0.00000000000E+00 0.  1.
</event>
<event>
 8    1  0.1229941E-006  0.9118800E+02  0.7816164E-02  0.1184000E+00
        -11   -1    0    0    0    0  0.00000000000E+00  0.00000000000E+00  0.45593999997E+02  0.45594000000E+02  0.51100000000E-03 0. -1.
         11   -1    0    0    0    0 -0.00000000000E+00 -0.00000000000E+00 -0.45593999997E+02  0.45594000000E+02  0.51100000000E-03 0.  1.
         23    2    1    2    0    0 -0.17763568394E-14  0.00000000000E+00 -0.35527136788E-14  0.91188000000E+02  0.91188000000E+02 0.  0.
    9900012    2    3    3    0    0 -0.10033487883E+02  0.22793666881E+02 -0.27121167739E+02  0.54367083817E+02  0.39999999178E+02 0.  0.
         12    1    3    3    0    0  0.10033487883E+02 -0.22793666881E+02  0.27121167739E+02  0.36820916183E+02  0.00000000000E+00 0. -1.
         11    1    4    4    0    0 -0.45521614469E+01  0.74233553677E+01  0.42260421977E+01  0.96792464413E+01  0.51100000000E-03 0. -1.
        -11    1    4    4    0    0 -0.51597116446E+01 -0.65211530190E+01 -0.15736758430E+02  0.17798697343E+02  0.51100000000E-03 0.  1.
        -12    1    4    4    0    0 -0.32161479197E+00  0.21891464533E+02 -0.15610451507E+02  0.26889140033E+02  0.00000000000E+00 0.  1.
</event>
<event>
 8    1  0.1229941E-006  0.9118800E+02  0.7816164E-02  0.1184000E+00
        -11   -1    0    0    0    0  0.00000000000E+00  0.00000000000E+00  0.45593999997E+02  0.45594000000E+02  0.51100000000E-03 0.  1.
         11   -1    0    0    0    0 -0.00000000000E+00 -0.00000000000E+00 -0.45593999997E+02  0.45594000000E+02  0.51100000000E-03 0. -1.
         23    2    1    2    0    0  0.00000000000E+00  0.00000000000E+00  0.00000000000E+00  0.91188000000E+02  0.91188000000E+02 0.  0.
    9900012    2    3    3    0    0  0.12636911824E+02  0.27469219725E+01 -0.34475285050E+02  0.54367049441E+02  0.39999920811E+02 0.  0.
        -12    1    3    3    0    0 -0.12636911824E+02 -0.27469219725E+01  0.34475285050E+02  0.36820950559E+02  0.00000000000E+00 0.  1.
         11    1    4    4    0    0  0.51209184011E+01  0.31927481508E+01 -0.11252960021E+02  0.12768968460E+02  0.51100000000E-03 0. -1.
        -11    1    4    4    0    0 -0.10049405945E+01  0.66933213669E+01  0.67936307745E+01  0.95897797618E+01  0.51100000000E-03 0.  1.
        -12    1    4    4    0    0  0.85209340175E+01 -0.71391475452E+01 -0.30015955803E+02  0.32008301220E+02  0.00000000000E+00 0.  1.
</event>
<event>
 8    1  0.1229941E-006  0.9118800E+02  0.7816164E-02  0.1184000E+00
        -11   -1    0    0    0    0  0.00000000000E+00  0.00000000000E+00  0.45593999997E+02  0.45594000000E+02  0.51100000000E-03 0.  1.
         11   -1    0    0    0    0 -0.00000000000E+00 -0.00000000000E+00 -0.45593999997E+02  0.45594000000E+02  0.51100000000E-03 0. -1.
         23    2    1    2    0    0  0.17763568394E-14 -0.88817841970E-15  0.00000000000E+00  0.91188000000E+02  0.91188000000E+02 0.  0.
    9900012    2    3    3    0    0 -0.47925013024E+01  0.62832802469E+01 -0.35962943614E+02  0.54367068551E+02  0.39999964375E+02 0.  0.
        -12    1    3    3    0    0  0.47925013024E+01 -0.62832802469E+01  0.35962943614E+02  0.36820931449E+02  0.00000000000E+00 0.  1.
         11    1    4    4    0    0  0.10833963092E+02 -0.69293150769E+01 -0.74025827038E+01  0.14838746398E+02  0.51100000000E-03 0. -1.
        -11    1    4    4    0    0 -0.42431428102E+01 -0.37406163168E+01 -0.19445553068E+01  0.59814519090E+01  0.51100000000E-03 0.  1.
         12    1    4    4    0    0 -0.11383321584E+02  0.16953211641E+02 -0.26615805604E+02  0.33546870244E+02  0.00000000000E+00 0. -1.
</event>
<event>
 8    1  0.1229941E-006  0.9118800E+02  0.7816164E-02  0.1184000E+00
        -11   -1    0    0    0    0  0.00000000000E+00  0.00000000000E+00  0.45593999997E+02  0.45594000000E+02  0.51100000000E-03 0.  1.
         11   -1    0    0    0    0 -0.00000000000E+00 -0.00000000000E+00 -0.45593999997E+02  0.45594000000E+02  0.51100000000E-03 0. -1.
         23    2    1    2    0    0  0.00000000000E+00 -0.88817841970E-15  0.71054273576E-14  0.91188000000E+02  0.91188000000E+02 0.  0.
    9900012    2    3    3    0    0 -0.42904286619E+01 -0.60395803276E+01  0.36067881997E+02  0.54367130640E+02  0.40000105920E+02 0.  0.
         12    1    3    3    0    0  0.42904286619E+01  0.60395803276E+01 -0.36067881997E+02  0.36820869360E+02  0.00000000000E+00 0. -1.
         11    1    4    4    0    0  0.17305216627E+02 -0.65365145670E+01  0.18316208685E+02  0.26032288529E+02  0.51100000000E-03 0.  1.
        -11    1    4    4    0    0 -0.85682239915E+01  0.22085621386E+01  0.84612619164E+01  0.12242759598E+02  0.51100000000E-03 0. -1.
         12    1    4    4    0    0 -0.13027421297E+02 -0.17116278992E+01  0.92904113961E+01  0.16092082514E+02  0.00000000000E+00 0. -1.
</event>
<event>
 8    1  0.1229941E-006  0.9118800E+02  0.7816164E-02  0.1184000E+00
        -11   -1    0    0    0    0  0.00000000000E+00  0.00000000000E+00  0.45593999997E+02  0.45594000000E+02  0.51100000000E-03 0.  1.
         11   -1    0    0    0    0 -0.00000000000E+00 -0.00000000000E+00 -0.45593999997E+02  0.45594000000E+02  0.51100000000E-03 0. -1.
         23    2    1    2    0    0  0.00000000000E+00  0.88817841970E-15  0.00000000000E+00  0.91188000000E+02  0.91188000000E+02 0.  0.
    9900012    2    3    3    0    0  0.36311152727E+02  0.34061332012E+01 -0.50674194817E+01  0.54367078013E+02  0.39999985946E+02 0.  0.
        -12    1    3    3    0    0 -0.36311152727E+02 -0.34061332012E+01  0.50674194817E+01  0.36820921987E+02  0.00000000000E+00 0.  1.
         11    1    4    4    0    0  0.14037331828E+02 -0.16790984646E+02 -0.82948477290E+01  0.23404878750E+02  0.51100000000E-03 0. -1.
        -11    1    4    4    0    0  0.13030468261E+02  0.14185947729E+02  0.47293248492E+01  0.19834332100E+02  0.51100000000E-03 0.  1.
         12    1    4    4    0    0  0.92433526384E+01  0.60111701181E+01 -0.15018966019E+01  0.11127867163E+02  0.00000000000E+00 0. -1.
</event>
<event>
 8    1  0.1229941E-006  0.9118800E+02  0.7816164E-02  0.1184000E+00
        -11   -1    0    0    0    0  0.00000000000E+00  0.00000000000E+00  0.45593999997E+02  0.45594000000E+02  0.51100000000E-03 0. -1.
         11   -1    0    0    0    0 -0.00000000000E+00 -0.00000000000E+00 -0.45593999997E+02  0.45594000000E+02  0.51100000000E-03 0.  1.
         23    2    1    2    0    0  0.00000000000E+00  0.00000000000E+00  0.17763568394E-14  0.91188000000E+02  0.91188000000E+02 0.  0.
    9900012    2    3    3    0    0 -0.12266822529E+02 -0.32495015626E+02  0.12221933333E+02  0.54367127796E+02  0.40000099436E+02 0.  0.
        -12    1    3    3    0    0  0.12266822529E+02  0.32495015626E+02 -0.12221933333E+02  0.36820872204E+02  0.00000000000E+00 0.  1.
         11    1    4    4    0    0 -0.88752119053E+01 -0.18545304031E+02  0.24433793833E+02  0.31932866601E+02  0.51100000000E-03 0. -1.
        -11    1    4    4    0    0  0.41537472923E+01 -0.67244060812E+01 -0.28367676566E+01  0.83975296792E+01  0.51100000000E-03 0.  1.
        -12    1    4    4    0    0 -0.75453579156E+01 -0.72253055133E+01 -0.93750928432E+01  0.14036731516E+02  0.00000000000E+00 0.  1.
</event>
<event>
 8    1  0.1229941E-006  0.9118800E+02  0.7816164E-02  0.1184000E+00
        -11   -1    0    0    0    0  0.00000000000E+00  0.00000000000E+00  0.45593999997E+02  0.45594000000E+02  0.51100000000E-03 0.  1.
         11   -1    0    0    0    0 -0.00000000000E+00 -0.00000000000E+00 -0.45593999997E+02  0.45594000000E+02  0.51100000000E-03 0. -1.
         23    2    1    2    0    0  0.00000000000E+00  0.00000000000E+00  0.17763568394E-14  0.91188000000E+02  0.91188000000E+02 0.  0.
    9900012    2    3    3    0    0 -0.23985381211E+02 -0.24907670053E+02  0.12651919087E+02  0.54367331946E+02  0.40000564834E+02 0.  0.
         12    1    3    3    0    0  0.23985381211E+02  0.24907670053E+02 -0.12651919087E+02  0.36820668054E+02  0.00000000000E+00 0. -1.
         11    1    4    4    0    0  0.76266172961E+01 -0.55377118234E+01  0.22175290293E+01  0.96824056348E+01  0.51100000000E-03 0. -1.
        -11    1    4    4    0    0 -0.28664643100E+02 -0.19708629177E+02  0.10061373994E+01  0.34800921551E+02  0.51100000000E-03 0.  1.
         12    1    4    4    0    0 -0.29473554075E+01  0.33867094695E+00  0.94282526587E+01  0.98840047605E+01  0.00000000000E+00 0. -1.
</event>
<event>
 8    1  0.1229941E-006  0.9118800E+02  0.7816164E-02  0.1184000E+00
        -11   -1    0    0    0    0  0.00000000000E+00  0.00000000000E+00  0.45593999997E+02  0.45594000000E+02  0.51100000000E-03 0.  1.
         11   -1    0    0    0    0 -0.00000000000E+00 -0.00000000000E+00 -0.45593999997E+02  0.45594000000E+02  0.51100000000E-03 0. -1.
         23    2    1    2    0    0  0.00000000000E+00  0.00000000000E+00  0.00000000000E+00  0.91188000000E+02  0.91188000000E+02 0.  0.
    9900012    2    3    3    0    0  0.33312011036E+02  0.78436619562E+01 -0.13585526779E+02  0.54367086785E+02  0.40000005944E+02 0.  0.
        -12    1    3    3    0    0 -0.33312011036E+02 -0.78436619562E+01  0.13585526779E+02  0.36820913215E+02  0.00000000000E+00 0.  1.
         11    1    4    4    0    0  0.34196470629E+01 -0.77976258365E+01 -0.47558287546E+01  0.97526848675E+01  0.51100000000E-03 0. -1.
        -11    1    4    4    0    0 -0.15703603641E+01  0.10525422732E+02 -0.68938576253E+01  0.12679740872E+02  0.51100000000E-03 0.  1.
         12    1    4    4    0    0  0.31462724337E+02  0.51158650604E+01 -0.19358403993E+01  0.31934661045E+02  0.00000000000E+00 0. -1.
</event>
<event>
 8    1  0.1229941E-006  0.9118800E+02  0.7816164E-02  0.1184000E+00
        -11   -1    0    0    0    0  0.00000000000E+00  0.00000000000E+00  0.45593999997E+02  0.45594000000E+02  0.51100000000E-03 0. -1.
         11   -1    0    0    0    0 -0.00000000000E+00 -0.00000000000E+00 -0.45593999997E+02  0.45594000000E+02  0.51100000000E-03 0.  1.
         23    2    1    2    0    0  0.00000000000E+00  0.00000000000E+00 -0.66613381478E-15  0.91188000000E+02  0.91188000000E+02 0.  0.
    9900012    2    3    3    0    0  0.21160864503E+02  0.30115337908E+02 -0.10320737923E+01  0.54367069265E+02  0.39999966004E+02 0.  0.
         12    1    3    3    0    0 -0.21160864503E+02 -0.30115337908E+02  0.10320737923E+01  0.36820930735E+02  0.00000000000E+00 0. -1.
         11    1    4    4    0    0 -0.50294713670E+01 -0.14950688256E+01  0.41906593256E+01  0.67150903843E+01  0.51100000000E-03 0. -1.
        -11    1    4    4    0    0  0.21904246036E+02  0.32104605302E+02  0.23502777214E+01  0.38936171892E+02  0.51100000000E-03 0.  1.
        -12    1    4    4    0    0  0.42860898348E+01 -0.49419856831E+00 -0.75730108393E+01  0.87158069889E+01  0.00000000000E+00 0.  1.
</event>
<event>
 8    1  0.1229941E-006  0.9118800E+02  0.7816164E-02  0.1184000E+00
        -11   -1    0    0    0    0  0.00000000000E+00  0.00000000000E+00  0.45593999997E+02  0.45594000000E+02  0.51100000000E-03 0.  1.
         11   -1    0    0    0    0 -0.00000000000E+00 -0.00000000000E+00 -0.45593999997E+02  0.45594000000E+02  0.51100000000E-03 0. -1.
         23    2    1    2    0    0  0.35527136788E-14  0.00000000000E+00 -0.17763568394E-14  0.91188000000E+02  0.91188000000E+02 0.  0.
    9900012    2    3    3    0    0 -0.18934828875E+02 -0.27673995518E+02  0.15211980207E+02  0.54367053322E+02  0.39999929657E+02 0.  0.
         12    1    3    3    0    0  0.18934828875E+02  0.27673995518E+02 -0.15211980207E+02  0.36820946678E+02  0.00000000000E+00 0. -1.
         11    1    4    4    0    0 -0.85358396950E-01  0.53838217469E+01  0.88203940512E+01  0.10334029908E+02  0.51100000000E-03 0. -1.
        -11    1    4    4    0    0 -0.17490071147E+02 -0.13117899640E+02  0.94434897793E+01  0.23815150202E+02  0.51100000000E-03 0.  1.
        -12    1    4    4    0    0 -0.13593993309E+01 -0.19939917626E+02 -0.30519036239E+01  0.20217873211E+02  0.00000000000E+00 0.  1.
</event>
<event>
 8    1  0.1229941E-006  0.9118800E+02  0.7816164E-02  0.1184000E+00
        -11   -1    0    0    0    0  0.00000000000E+00  0.00000000000E+00  0.45593999997E+02  0.45594000000E+02  0.51100000000E-03 0.  1.
         11   -1    0    0    0    0 -0.00000000000E+00 -0.00000000000E+00 -0.45593999997E+02  0.45594000000E+02  0.51100000000E-03 0. -1.
         23    2    1    2    0    0 -0.30531133177E-15  0.17763568394E-14 -0.71054273576E-14  0.91188000000E+02  0.91188000000E+02 0.  0.
    9900012    2    3    3    0    0 -0.24476384048E+00 -0.96729451320E+01  0.35526806673E+02  0.54367085166E+02  0.40000002253E+02 0.  0.
         12    1    3    3    0    0  0.24476384048E+00  0.96729451320E+01 -0.35526806673E+02  0.36820914834E+02  0.00000000000E+00 0. -1.
         11    1    4    4    0    0  0.32442039828E+01  0.65935318432E+01  0.12624638985E+02  0.14607567608E+02  0.51100000000E-03 0. -1.
        -11    1    4    4    0    0  0.60018801864E+01  0.25181861092E+01  0.16537192998E+02  0.17771960487E+02  0.51100000000E-03 0.  1.
         12    1    4    4    0    0 -0.94908480096E+01 -0.18784663084E+02  0.63649746895E+01  0.21987557071E+02  0.00000000000E+00 0. -1.
</event>
<event>
 8    1  0.1229941E-006  0.9118800E+02  0.7816164E-02  0.1184000E+00
        -11   -1    0    0    0    0  0.00000000000E+00  0.00000000000E+00  0.45593999997E+02  0.45594000000E+02  0.51100000000E-03 0.  1.
         11   -1    0    0    0    0 -0.00000000000E+00 -0.00000000000E+00 -0.45593999997E+02  0.45594000000E+02  0.51100000000E-03 0. -1.
         23    2    1    2    0    0  0.00000000000E+00  0.00000000000E+00  0.71054273576E-14  0.91188000000E+02  0.91188000000E+02 0.  0.
    9900012    2    3    3    0    0  0.49123767961E+01 -0.55055826451E+01  0.36074055003E+02  0.54367077546E+02  0.39999984881E+02 0.  0.
         12    1    3    3    0    0 -0.49123767961E+01  0.55055826451E+01 -0.36074055003E+02  0.36820922454E+02  0.00000000000E+00 0. -1.
         11    1    4    4    0    0 -0.94743537293E+01 -0.10211914737E+02  0.13588334401E+02  0.19459943813E+02  0.51100000000E-03 0. -1.
        -11    1    4    4    0    0  0.20599166864E+01  0.81745577897E+01  0.20214452003E+02  0.21901842887E+02  0.51100000000E-03 0.  1.
        -12    1    4    4    0    0  0.12326813839E+02 -0.34682256980E+01  0.22712685994E+01  0.13005290845E+02  0.00000000000E+00 0.  1.
</event>
<event>
 8    1  0.1229941E-006  0.9118800E+02  0.7816164E-02  0.1184000E+00
        -11   -1    0    0    0    0  0.00000000000E+00  0.00000000000E+00  0.45593999997E+02  0.45594000000E+02  0.51100000000E-03 0.  1.
         11   -1    0    0    0    0 -0.00000000000E+00 -0.00000000000E+00 -0.45593999997E+02  0.45594000000E+02  0.51100000000E-03 0. -1.
         23    2    1    2    0    0  0.17763568394E-14 -0.88817841970E-15  0.00000000000E+00  0.91188000000E+02  0.91188000000E+02 0.  0.
    9900012    2    3    3    0    0 -0.12497640740E+02 -0.58881526742E+01 -0.34130896846E+02  0.54367089019E+02  0.40000011036E+02 0.  0.
        -12    1    3    3    0    0  0.12497640740E+02  0.58881526742E+01  0.34130896846E+02  0.36820910981E+02  0.00000000000E+00 0.  1.
         11    1    4    4    0    0 -0.11532620663E+02 -0.53755174681E+01  0.12175004058E+01  0.12782012162E+02  0.51100000000E-03 0.  1.
        -11    1    4    4    0    0 -0.20787815135E+01 -0.47888031360E+01  0.69964782871E+00  0.52672075525E+01  0.51100000000E-03 0. -1.
         12    1    4    4    0    0  0.11137614367E+01  0.42761679299E+01 -0.36048045080E+02  0.36317869305E+02  0.00000000000E+00 0. -1.
</event>
<event>
 8    1  0.1229941E-006  0.9118800E+02  0.7816164E-02  0.1184000E+00
        -11   -1    0    0    0    0  0.00000000000E+00  0.00000000000E+00  0.45593999997E+02  0.45594000000E+02  0.51100000000E-03 0. -1.
         11   -1    0    0    0    0 -0.00000000000E+00 -0.00000000000E+00 -0.45593999997E+02  0.45594000000E+02  0.51100000000E-03 0.  1.
         23    2    1    2    0    0 -0.17763568394E-14  0.00000000000E+00  0.00000000000E+00  0.91188000000E+02  0.91188000000E+02 0.  0.
    9900012    2    3    3    0    0 -0.95473232974E+01  0.34576667676E+02 -0.83116632353E+01  0.54367067428E+02  0.39999961816E+02 0.  0.
        -12    1    3    3    0    0  0.95473232974E+01 -0.34576667676E+02  0.83116632353E+01  0.36820932572E+02  0.00000000000E+00 0.  1.
         11    1    4    4    0    0  0.94064649869E+00 -0.24193984003E+01 -0.39809600705E+01  0.47525096317E+01  0.51100000000E-03 0. -1.
        -11    1    4    4    0    0  0.48102138987E+01  0.33246058665E+02 -0.16147838884E+01  0.33631028854E+02  0.51100000000E-03 0.  1.
        -12    1    4    4    0    0 -0.15298183695E+02  0.37500074109E+01 -0.27159192764E+01  0.15983528943E+02  0.00000000000E+00 0.  1.
</event>
<event>
 8    1  0.1229941E-006  0.9118800E+02  0.7816164E-02  0.1184000E+00
        -11   -1    0    0    0    0  0.00000000000E+00  0.00000000000E+00  0.45593999997E+02  0.45594000000E+02  0.51100000000E-03 0. -1.
         11   -1    0    0    0    0 -0.00000000000E+00 -0.00000000000E+00 -0.45593999997E+02  0.45594000000E+02  0.51100000000E-03 0.  1.
         23    2    1    2    0    0  0.00000000000E+00 -0.35527136788E-14  0.71054273576E-14  0.91188000000E+02  0.91188000000E+02 0.  0.
    9900012    2    3    3    0    0  0.13326799499E+02 -0.20290583128E+02  0.27685163337E+02  0.54367087226E+02  0.40000006948E+02 0.  0.
        -12    1    3    3    0    0 -0.13326799499E+02  0.20290583128E+02 -0.27685163337E+02  0.36820912774E+02  0.00000000000E+00 0.  1.
         11    1    4    4    0    0  0.39910791705E+01  0.12902152791E+01 -0.24296458366E+00  0.42014759861E+01  0.51100000000E-03 0. -1.
        -11    1    4    4    0    0  0.15110880914E+02  0.32529501099E+01  0.61549158002E+01  0.16637409510E+02  0.51100000000E-03 0.  1.
         12    1    4    4    0    0 -0.57751605860E+01 -0.24833748517E+02  0.21773212121E+02  0.33528201730E+02  0.00000000000E+00 0. -1.
</event>
<event>
 8    1  0.1229941E-006  0.9118800E+02  0.7816164E-02  0.1184000E+00
        -11   -1    0    0    0    0  0.00000000000E+00  0.00000000000E+00  0.45593999997E+02  0.45594000000E+02  0.51100000000E-03 0. -1.
         11   -1    0    0    0    0 -0.00000000000E+00 -0.00000000000E+00 -0.45593999997E+02  0.45594000000E+02  0.51100000000E-03 0.  1.
         23    2    1    2    0    0  0.00000000000E+00  0.00000000000E+00  0.00000000000E+00  0.91188000000E+02  0.91188000000E+02 0.  0.
    9900012    2    3    3    0    0 -0.23596806240E+02  0.11503202971E+02  0.25819690813E+02  0.54366954700E+02  0.39999704829E+02 0.  0.
        -12    1    3    3    0    0  0.23596806240E+02 -0.11503202971E+02 -0.25819690813E+02  0.36821045300E+02  0.00000000000E+00 0.  1.
         11    1    4    4    0    0 -0.12208432963E+02  0.99813980320E+01  0.43282696617E+01  0.16352616323E+02  0.51100000000E-03 0. -1.
        -11    1    4    4    0    0  0.84938861770E+01 -0.54686058574E+01  0.89050977406E+01  0.13466718919E+02  0.51100000000E-03 0.  1.
         12    1    4    4    0    0 -0.19882259454E+02  0.69904107966E+01  0.12586323410E+02  0.24547619459E+02  0.00000000000E+00 0. -1.
</event>
<event>
 8    1  0.1229941E-006  0.9118800E+02  0.7816164E-02  0.1184000E+00
        -11   -1    0    0    0    0  0.00000000000E+00  0.00000000000E+00  0.45593999997E+02  0.45594000000E+02  0.51100000000E-03 0.  1.
         11   -1    0    0    0    0 -0.00000000000E+00 -0.00000000000E+00 -0.45593999997E+02  0.45594000000E+02  0.51100000000E-03 0. -1.
         23    2    1    2    0    0 -0.88817841970E-15  0.00000000000E+00 -0.17763568394E-14  0.91188000000E+02  0.91188000000E+02 0.  0.
    9900012    2    3    3    0    0  0.67849327078E+01  0.33409369905E+02 -0.13912514082E+02  0.54367090758E+02  0.40000015002E+02 0.  0.
        -12    1    3    3    0    0 -0.67849327078E+01 -0.33409369905E+02  0.13912514082E+02  0.36820909242E+02  0.00000000000E+00 0.  1.
         11    1    4    4    0    0 -0.30520730931E+01  0.72677125410E+01  0.93153674966E+01  0.12202904064E+02  0.51100000000E-03 0.  1.
        -11    1    4    4    0    0  0.40983565055E+00  0.24160711364E+02 -0.21567127683E+02  0.32389024925E+02  0.51100000000E-03 0. -1.
        -12    1    4    4    0    0  0.94271701504E+01  0.19809460003E+01 -0.16607538961E+01  0.97751617687E+01  0.00000000000E+00 0.  1.
</event>
<event>
 8    1  0.1229941E-006  0.9118800E+02  0.7816164E-02  0.1184000E+00
        -11   -1    0    0    0    0  0.00000000000E+00  0.00000000000E+00  0.45593999997E+02  0.45594000000E+02  0.51100000000E-03 0. -1.
         11   -1    0    0    0    0 -0.00000000000E+00 -0.00000000000E+00 -0.45593999997E+02  0.45594000000E+02  0.51100000000E-03 0.  1.
         23    2    1    2    0    0  0.88817841970E-15  0.00000000000E+00  0.17763568394E-14  0.91188000000E+02  0.91188000000E+02 0.  0.
    9900012    2    3    3    0    0 -0.22454797857E+01 -0.34812472930E+02 -0.11782645991E+02  0.54367065771E+02  0.39999958038E+02 0.  0.
         12    1    3    3    0    0  0.22454797857E+01  0.34812472930E+02  0.11782645991E+02  0.36820934229E+02  0.00000000000E+00 0. -1.
         11    1    4    4    0    0  0.13065001498E+02 -0.16309317172E+02 -0.11911918085E+02  0.24053729097E+02  0.51100000000E-03 0. -1.
        -11    1    4    4    0    0  0.38492207926E-01 -0.68085415038E+01 -0.69781934500E+01  0.97495078413E+01  0.51100000000E-03 0.  1.
         12    1    4    4    0    0 -0.15348973492E+02 -0.11694614253E+02  0.71074655432E+01  0.20563828832E+02  0.00000000000E+00 0. -1.
</event>
<event>
 8    1  0.1229941E-006  0.9118800E+02  0.7816164E-02  0.1184000E+00
        -11   -1    0    0    0    0  0.00000000000E+00  0.00000000000E+00  0.45593999997E+02  0.45594000000E+02  0.51100000000E-03 0.  1.
         11   -1    0    0    0    0 -0.00000000000E+00 -0.00000000000E+00 -0.45593999997E+02  0.45594000000E+02  0.51100000000E-03 0. -1.
         23    2    1    2    0    0  0.44408920985E-15  0.00000000000E+00  0.66613381478E-15  0.91188000000E+02  0.91188000000E+02 0.  0.
    9900012    2    3    3    0    0 -0.25920929837E+01  0.36709516314E+02 -0.12114491177E+01  0.54367147986E+02  0.40000145464E+02 0.  0.
        -12    1    3    3    0    0  0.25920929837E+01 -0.36709516314E+02  0.12114491177E+01  0.36820852014E+02  0.00000000000E+00 0.  1.
         11    1    4    4    0    0  0.36990870252E+01  0.18819845120E+02 -0.12490393306E+02  0.22888419350E+02  0.51100000000E-03 0. -1.
        -11    1    4    4    0    0 -0.22706549890E+01  0.16929010426E+02  0.17211297114E+02  0.24248216774E+02  0.51100000000E-03 0.  1.
         12    1    4    4    0    0 -0.40205250200E+01  0.96066076834E+00 -0.59323529266E+01  0.72305118625E+01  0.00000000000E+00 0. -1.
</event>
<event>
 8    1  0.1229941E-006  0.9118800E+02  0.7816164E-02  0.1184000E+00
        -11   -1    0    0    0    0  0.00000000000E+00  0.00000000000E+00  0.45593999997E+02  0.45594000000E+02  0.51100000000E-03 0. -1.
         11   -1    0    0    0    0 -0.00000000000E+00 -0.00000000000E+00 -0.45593999997E+02  0.45594000000E+02  0.51100000000E-03 0.  1.
         23    2    1    2    0    0 -0.35527136788E-14  0.26645352591E-14 -0.35527136788E-14  0.91188000000E+02  0.91188000000E+02 0.  0.
    9900012    2    3    3    0    0  0.25291213668E+02 -0.20492316531E+01  0.26682005165E+02  0.54367160265E+02  0.40000173455E+02 0.  0.
        -12    1    3    3    0    0 -0.25291213668E+02  0.20492316531E+01 -0.26682005165E+02  0.36820839735E+02  0.00000000000E+00 0.  1.
         11    1    4    4    0    0  0.28147647999E+02  0.11903067703E+02  0.24434177156E+02  0.39128022211E+02  0.51100000000E-03 0. -1.
        -11    1    4    4    0    0  0.11986704362E+01 -0.52974455557E+01  0.48328238553E-01  0.54315813636E+01  0.51100000000E-03 0.  1.
         12    1    4    4    0    0 -0.40551047673E+01 -0.86548538003E+01  0.21994997706E+01  0.98075566896E+01  0.00000000000E+00 0. -1.
</event>
<event>
 8    1  0.1229941E-006  0.9118800E+02  0.7816164E-02  0.1184000E+00
        -11   -1    0    0    0    0  0.00000000000E+00  0.00000000000E+00  0.45593999997E+02  0.45594000000E+02  0.51100000000E-03 0. -1.
         11   -1    0    0    0    0 -0.00000000000E+00 -0.00000000000E+00 -0.45593999997E+02  0.45594000000E+02  0.51100000000E-03 0.  1.
         23    2    1    2    0    0  0.35527136788E-14  0.00000000000E+00  0.00000000000E+00  0.91188000000E+02  0.91188000000E+02 0.  0.
    9900012    2    3    3    0    0  0.17761552394E+02  0.45736846988E+01  0.31927856357E+02  0.54367090903E+02  0.40000015331E+02 0.  0.
        -12    1    3    3    0    0 -0.17761552394E+02 -0.45736846988E+01 -0.31927856357E+02  0.36820909097E+02  0.00000000000E+00 0.  1.
         11    1    4    4    0    0 -0.61574654585E+01  0.76641213283E+01  0.11807250501E+01  0.99018810593E+01  0.51100000000E-03 0. -1.
        -11    1    4    4    0    0  0.12677442974E+01  0.19083589126E+01 -0.28385161846E+01  0.36477642103E+01  0.51100000000E-03 0.  1.
         12    1    4    4    0    0  0.22651273555E+02 -0.49987955421E+01  0.33585647492E+02  0.40817445633E+02  0.00000000000E+00 0. -1.
</event>
<event>
 8    1  0.1229941E-006  0.9118800E+02  0.7816164E-02  0.1184000E+00
        -11   -1    0    0    0    0  0.00000000000E+00  0.00000000000E+00  0.45593999997E+02  0.45594000000E+02  0.51100000000E-03 0. -1.
         11   -1    0    0    0    0 -0.00000000000E+00 -0.00000000000E+00 -0.45593999997E+02  0.45594000000E+02  0.51100000000E-03 0.  1.
         23    2    1    2    0    0  0.00000000000E+00  0.00000000000E+00 -0.35527136788E-14  0.91188000000E+02  0.91188000000E+02 0.  0.
    9900012    2    3    3    0    0 -0.11669943573E+02  0.28842497571E+02  0.19690169961E+02  0.54367081458E+02  0.39999993801E+02 0.  0.
        -12    1    3    3    0    0  0.11669943573E+02 -0.28842497571E+02 -0.19690169961E+02  0.36820918542E+02  0.00000000000E+00 0.  1.
         11    1    4    4    0    0  0.46371214835E+01  0.16995436332E+02 -0.69377700188E+00  0.17630345390E+02  0.51100000000E-03 0. -1.
        -11    1    4    4    0    0 -0.63454356515E+01  0.21416536420E+01  0.21754001152E+02  0.22761542134E+02  0.51100000000E-03 0.  1.
        -12    1    4    4    0    0 -0.99616294049E+01  0.97054075974E+01 -0.13700541893E+01  0.13975193935E+02  0.00000000000E+00 0.  1.
</event>
<event>
 8    1  0.1229941E-006  0.9118800E+02  0.7816164E-02  0.1184000E+00
        -11   -1    0    0    0    0  0.00000000000E+00  0.00000000000E+00  0.45593999997E+02  0.45594000000E+02  0.51100000000E-03 0.  1.
         11   -1    0    0    0    0 -0.00000000000E+00 -0.00000000000E+00 -0.45593999997E+02  0.45594000000E+02  0.51100000000E-03 0. -1.
         23    2    1    2    0    0  0.00000000000E+00  0.00000000000E+00  0.00000000000E+00  0.91188000000E+02  0.91188000000E+02 0.  0.
    9900012    2    3    3    0    0 -0.33161278185E+02  0.14735972409E+02 -0.62418407050E+01  0.54367084353E+02  0.40000000400E+02 0.  0.
        -12    1    3    3    0    0  0.33161278185E+02 -0.14735972409E+02  0.62418407050E+01  0.36820915647E+02  0.00000000000E+00 0.  1.
         11    1    4    4    0    0 -0.49736311969E+01 -0.55526556231E+01 -0.78153595504E+00  0.74953179026E+01  0.51100000000E-03 0. -1.
        -11    1    4    4    0    0 -0.33908455833E+02  0.11455408153E+02 -0.22187414096E+01  0.35859901933E+02  0.51100000000E-03 0.  1.
        -12    1    4    4    0    0  0.57208088452E+01  0.88332198787E+01 -0.32415633404E+01  0.11011864518E+02  0.00000000000E+00 0.  1.
</event>
<event>
 8    1  0.1229941E-006  0.9118800E+02  0.7816164E-02  0.1184000E+00
        -11   -1    0    0    0    0  0.00000000000E+00  0.00000000000E+00  0.45593999997E+02  0.45594000000E+02  0.51100000000E-03 0.  1.
         11   -1    0    0    0    0 -0.00000000000E+00 -0.00000000000E+00 -0.45593999997E+02  0.45594000000E+02  0.51100000000E-03 0. -1.
         23    2    1    2    0    0  0.35527136788E-14 -0.35527136788E-14  0.00000000000E+00  0.91188000000E+02  0.91188000000E+02 0.  0.
    9900012    2    3    3    0    0  0.15301631029E+02 -0.31427462329E+02  0.11573897081E+02  0.54367076679E+02  0.39999982905E+02 0.  0.
         12    1    3    3    0    0 -0.15301631029E+02  0.31427462329E+02 -0.11573897081E+02  0.36820923321E+02  0.00000000000E+00 0. -1.
         11    1    4    4    0    0  0.20487926293E+02 -0.22420323403E+02  0.30277159780E+01  0.30522009920E+02  0.51100000000E-03 0. -1.
        -11    1    4    4    0    0 -0.86604303652E-01 -0.11949915161E+02  0.12068533432E+02  0.16984035802E+02  0.51100000000E-03 0.  1.
        -12    1    4    4    0    0 -0.50996909605E+01  0.29427762349E+01 -0.35223523285E+01  0.68610309566E+01  0.00000000000E+00 0.  1.
</event>
<event>
 8    1  0.1229941E-006  0.9118800E+02  0.7816164E-02  0.1184000E+00
        -11   -1    0    0    0    0  0.00000000000E+00  0.00000000000E+00  0.45593999997E+02  0.45594000000E+02  0.51100000000E-03 0. -1.
         11   -1    0    0    0    0 -0.00000000000E+00 -0.00000000000E+00 -0.45593999997E+02  0.45594000000E+02  0.51100000000E-03 0.  1.
         23    2    1    2    0    0  0.00000000000E+00  0.35527136788E-14 -0.17763568394E-14  0.91188000000E+02  0.91188000000E+02 0.  0.
    9900012    2    3    3    0    0 -0.19312180121E+02  0.28739398467E+02 -0.12524791294E+02  0.54367031487E+02  0.39999879882E+02 0.  0.
         12    1    3    3    0    0  0.19312180121E+02 -0.28739398467E+02  0.12524791294E+02  0.36820968513E+02  0.00000000000E+00 0. -1.
         11    1    4    4    0    0  0.20187349577E+01  0.48805223203E+01 -0.12401119907E+01  0.54251881957E+01  0.51100000000E-03 0. -1.
        -11    1    4    4    0    0 -0.12225647984E+02  0.10968503054E+02 -0.23718521453E+02  0.28850351611E+02  0.51100000000E-03 0.  1.
        -12    1    4    4    0    0 -0.91052670951E+01  0.12890373092E+02  0.12433842151E+02  0.20091491681E+02  0.00000000000E+00 0.  1.
</event>
<event>
 8    1  0.1229941E-006  0.9118800E+02  0.7816164E-02  0.1184000E+00
        -11   -1    0    0    0    0  0.00000000000E+00  0.00000000000E+00  0.45593999997E+02  0.45594000000E+02  0.51100000000E-03 0. -1.
         11   -1    0    0    0    0 -0.00000000000E+00 -0.00000000000E+00 -0.45593999997E+02  0.45594000000E+02  0.51100000000E-03 0.  1.
         23    2    1    2    0    0  0.00000000000E+00  0.00000000000E+00  0.17763568394E-14  0.91188000000E+02  0.91188000000E+02 0.  0.
    9900012    2    3    3    0    0 -0.26702739626E+02  0.20293507376E+02 -0.15195932964E+02  0.54367093930E+02  0.40000022233E+02 0.  0.
         12    1    3    3    0    0  0.26702739626E+02 -0.20293507376E+02  0.15195932964E+02  0.36820906070E+02  0.00000000000E+00 0. -1.
         11    1    4    4    0    0 -0.87520187596E+01 -0.74974401371E+01 -0.14207174924E+02  0.18293530566E+02  0.51100000000E-03 0. -1.
        -11    1    4    4    0    0 -0.22869770396E+01 -0.87079905878E+00 -0.23360401223E+01  0.33831403599E+01  0.51100000000E-03 0.  1.
        -12    1    4    4    0    0 -0.15663743827E+02  0.28661746572E+02  0.13472820816E+01  0.32690423005E+02  0.00000000000E+00 0.  1.
</event>
<event>
 8    1  0.1229941E-006  0.9118800E+02  0.7816164E-02  0.1184000E+00
        -11   -1    0    0    0    0  0.00000000000E+00  0.00000000000E+00  0.45593999997E+02  0.45594000000E+02  0.51100000000E-03 0.  1.
         11   -1    0    0    0    0 -0.00000000000E+00 -0.00000000000E+00 -0.45593999997E+02  0.45594000000E+02  0.51100000000E-03 0. -1.
         23    2    1    2    0    0 -0.35527136788E-14 -0.35527136788E-14  0.17763568394E-14  0.91188000000E+02  0.91188000000E+02 0.  0.
    9900012    2    3    3    0    0 -0.22060488588E+02 -0.26701884810E+02  0.12495004856E+02  0.54367069057E+02  0.39999965529E+02 0.  0.
         12    1    3    3    0    0  0.22060488588E+02  0.26701884810E+02 -0.12495004856E+02  0.36820930943E+02  0.00000000000E+00 0. -1.
         11    1    4    4    0    0 -0.57200613521E+01 -0.15689654318E+02 -0.35397874723E+01  0.17070865535E+02  0.51100000000E-03 0. -1.
        -11    1    4    4    0    0 -0.11912320976E+02 -0.85658974265E+01 -0.51237663305E+01  0.15541266725E+02  0.51100000000E-03 0.  1.
         12    1    4    4    0    0 -0.44281062597E+01 -0.24463330660E+01  0.21158558659E+02  0.21754936797E+02  0.00000000000E+00 0. -1.
</event>
<event>
 8    1  0.1229941E-006  0.9118800E+02  0.7816164E-02  0.1184000E+00
        -11   -1    0    0    0    0  0.00000000000E+00  0.00000000000E+00  0.45593999997E+02  0.45594000000E+02  0.51100000000E-03 0.  1.
         11   -1    0    0    0    0 -0.00000000000E+00 -0.00000000000E+00 -0.45593999997E+02  0.45594000000E+02  0.51100000000E-03 0. -1.
         23    2    1    2    0    0 -0.71054273576E-14  0.11102230246E-14  0.00000000000E+00  0.91188000000E+02  0.91188000000E+02 0.  0.
    9900012    2    3    3    0    0 -0.35823268502E+02  0.17280577083E+01 -0.83358820479E+01  0.54367086389E+02  0.40000005042E+02 0.  0.
        -12    1    3    3    0    0  0.35823268502E+02 -0.17280577083E+01  0.83358820479E+01  0.36820913611E+02  0.00000000000E+00 0.  1.
         11    1    4    4    0    0 -0.74916583667E+01 -0.10076365576E+02  0.11288832424E+01  0.12606842029E+02  0.51100000000E-03 0. -1.
        -11    1    4    4    0    0 -0.16842406443E+02 -0.62898900480E+01  0.79780408577E+00  0.17996273593E+02  0.51100000000E-03 0.  1.
         12    1    4    4    0    0 -0.11489203692E+02  0.18094313332E+02 -0.10262569376E+02  0.23763970767E+02  0.00000000000E+00 0. -1.
</event>
<event>
 8    1  0.1229941E-006  0.9118800E+02  0.7816164E-02  0.1184000E+00
        -11   -1    0    0    0    0  0.00000000000E+00  0.00000000000E+00  0.45593999997E+02  0.45594000000E+02  0.51100000000E-03 0.  1.
         11   -1    0    0    0    0 -0.00000000000E+00 -0.00000000000E+00 -0.45593999997E+02  0.45594000000E+02  0.51100000000E-03 0. -1.
         23    2    1    2    0    0  0.35527136788E-14 -0.35527136788E-14  0.88817841970E-15  0.91188000000E+02  0.91188000000E+02 0.  0.
    9900012    2    3    3    0    0  0.17959299002E+02 -0.31471097502E+02 -0.65430360649E+01  0.54367112998E+02  0.40000065702E+02 0.  0.
        -12    1    3    3    0    0 -0.17959299002E+02  0.31471097502E+02  0.65430360649E+01  0.36820887002E+02  0.00000000000E+00 0.  1.
         11    1    4    4    0    0  0.12822356874E+01 -0.32134567824E+02  0.65668062990E+00  0.32166843291E+02  0.51100000000E-03 0. -1.
        -11    1    4    4    0    0  0.10893078207E+02  0.19213412227E+01 -0.10644985320E+02  0.15351430476E+02  0.51100000000E-03 0.  1.
        -12    1    4    4    0    0  0.57839851072E+01 -0.12578709012E+01  0.34452686253E+01  0.68488392319E+01  0.00000000000E+00 0.  1.
</event>
<event>
 8    1  0.1229941E-006  0.9118800E+02  0.7816164E-02  0.1184000E+00
        -11   -1    0    0    0    0  0.00000000000E+00  0.00000000000E+00  0.45593999997E+02  0.45594000000E+02  0.51100000000E-03 0.  1.
         11   -1    0    0    0    0 -0.00000000000E+00 -0.00000000000E+00 -0.45593999997E+02  0.45594000000E+02  0.51100000000E-03 0. -1.
         23    2    1    2    0    0  0.00000000000E+00  0.44408920985E-15  0.00000000000E+00  0.91188000000E+02  0.91188000000E+02 0.  0.
    9900012    2    3    3    0    0  0.19282029538E+02 -0.25159618182E+01 -0.31267451368E+02  0.54367078746E+02  0.39999987617E+02 0.  0.
        -12    1    3    3    0    0 -0.19282029538E+02  0.25159618182E+01  0.31267451368E+02  0.36820921254E+02  0.00000000000E+00 0.  1.
         11    1    4    4    0    0  0.16364875523E+02 -0.60096804233E+01 -0.17398717611E+02  0.24630078856E+02  0.51100000000E-03 0. -1.
        -11    1    4    4    0    0  0.20660022761E+01  0.13440779925E+02 -0.14313959365E+02  0.19743666411E+02  0.51100000000E-03 0.  1.
        -12    1    4    4    0    0  0.85115173920E+00 -0.99470613197E+01  0.44522560824E+00  0.99933334791E+01  0.00000000000E+00 0.  1.
</event>
<event>
 8    1  0.1229941E-006  0.9118800E+02  0.7816164E-02  0.1184000E+00
        -11   -1    0    0    0    0  0.00000000000E+00  0.00000000000E+00  0.45593999997E+02  0.45594000000E+02  0.51100000000E-03 0.  1.
         11   -1    0    0    0    0 -0.00000000000E+00 -0.00000000000E+00 -0.45593999997E+02  0.45594000000E+02  0.51100000000E-03 0. -1.
         23    2    1    2    0    0  0.00000000000E+00  0.00000000000E+00  0.35527136788E-14  0.91188000000E+02  0.91188000000E+02 0.  0.
    9900012    2    3    3    0    0  0.17469437734E+02 -0.11261855173E+02 -0.30393571493E+02  0.54367084411E+02  0.40000000532E+02 0.  0.
        -12    1    3    3    0    0 -0.17469437734E+02  0.11261855173E+02  0.30393571493E+02  0.36820915589E+02  0.00000000000E+00 0.  1.
         11    1    4    4    0    0  0.77315045754E+01  0.44478165091E+01 -0.14504320861E+02  0.17027464832E+02  0.51100000000E-03 0. -1.
        -11    1    4    4    0    0  0.13643494645E+02 -0.21492521064E+02 -0.16496746812E+02  0.30335063268E+02  0.51100000000E-03 0.  1.
        -12    1    4    4    0    0 -0.39055614863E+01  0.57828493823E+01  0.60749618073E+00  0.70045563108E+01  0.00000000000E+00 0.  1.
</event>
<event>
 8    1  0.1229941E-006  0.9118800E+02  0.7816164E-02  0.1184000E+00
        -11   -1    0    0    0    0  0.00000000000E+00  0.00000000000E+00  0.45593999997E+02  0.45594000000E+02  0.51100000000E-03 0.  1.
         11   -1    0    0    0    0 -0.00000000000E+00 -0.00000000000E+00 -0.45593999997E+02  0.45594000000E+02  0.51100000000E-03 0. -1.
         23    2    1    2    0    0  0.44408920985E-15  0.00000000000E+00  0.00000000000E+00  0.91188000000E+02  0.91188000000E+02 0.  0.
    9900012    2    3    3    0    0  0.27581593821E+00  0.25562623220E+02  0.26500120883E+02  0.54367079491E+02  0.39999989316E+02 0.  0.
         12    1    3    3    0    0 -0.27581593821E+00 -0.25562623220E+02 -0.26500120883E+02  0.36820920509E+02  0.00000000000E+00 0. -1.
         11    1    4    4    0    0 -0.18019899169E+01  0.12867153836E+02  0.25001702786E+00  0.12995126943E+02  0.51100000000E-03 0. -1.
        -11    1    4    4    0    0 -0.98329056981E+01 -0.44117539757E+01  0.11956862932E+02  0.16097086042E+02  0.51100000000E-03 0.  1.
        -12    1    4    4    0    0  0.11910711553E+02  0.17107223360E+02  0.14293240923E+02  0.25274866505E+02  0.00000000000E+00 0.  1.
</event>
<event>
 8    1  0.1229941E-006  0.9118800E+02  0.7816164E-02  0.1184000E+00
        -11   -1    0    0    0    0  0.00000000000E+00  0.00000000000E+00  0.45593999997E+02  0.45594000000E+02  0.51100000000E-03 0. -1.
         11   -1    0    0    0    0 -0.00000000000E+00 -0.00000000000E+00 -0.45593999997E+02  0.45594000000E+02  0.51100000000E-03 0.  1.
         23    2    1    2    0    0  0.00000000000E+00  0.88817841970E-15  0.00000000000E+00  0.91188000000E+02  0.91188000000E+02 0.  0.
    9900012    2    3    3    0    0  0.33366367772E+02  0.29143676104E+01 -0.15296141803E+02  0.54367082156E+02  0.39999995390E+02 0.  0.
         12    1    3    3    0    0 -0.33366367772E+02 -0.29143676104E+01  0.15296141803E+02  0.36820917844E+02  0.00000000000E+00 0. -1.
         11    1    4    4    0    0 -0.28419398407E+01  0.23665974305E+01 -0.11449296343E+02  0.12031782597E+02  0.51100000000E-03 0. -1.
        -11    1    4    4    0    0  0.10714031790E+02  0.86980769074E+01 -0.68412968584E+01  0.15402933553E+02  0.51100000000E-03 0.  1.
         12    1    4    4    0    0  0.25494275822E+02 -0.81503067275E+01  0.29944513979E+01  0.26932366005E+02  0.00000000000E+00 0. -1.
</event>
<event>
 8    1  0.1229941E-006  0.9118800E+02  0.7816164E-02  0.1184000E+00
        -11   -1    0    0    0    0  0.00000000000E+00  0.00000000000E+00  0.45593999997E+02  0.45594000000E+02  0.51100000000E-03 0.  1.
         11   -1    0    0    0    0 -0.00000000000E+00 -0.00000000000E+00 -0.45593999997E+02  0.45594000000E+02  0.51100000000E-03 0. -1.
         23    2    1    2    0    0  0.00000000000E+00  0.66613381478E-15  0.00000000000E+00  0.91188000000E+02  0.91188000000E+02 0.  0.
    9900012    2    3    3    0    0  0.12072250677E+02 -0.80724689276E+00 -0.34776275643E+02  0.54367078887E+02  0.39999987939E+02 0.  0.
        -12    1    3    3    0    0 -0.12072250677E+02  0.80724689276E+00  0.34776275643E+02  0.36820921113E+02  0.00000000000E+00 0.  1.
         11    1    4    4    0    0  0.62619932002E+01  0.70323988407E+01 -0.10681098395E+02  0.14239138158E+02  0.51100000000E-03 0. -1.
        -11    1    4    4    0    0  0.14264036957E+02 -0.14232239951E+02 -0.10006451328E+02  0.22497743726E+02  0.51100000000E-03 0.  1.
         12    1    4    4    0    0 -0.84537794799E+01  0.63925942172E+01 -0.14088725921E+02  0.17630197004E+02  0.00000000000E+00 0. -1.
</event>
<event>
 8    1  0.1229941E-006  0.9118800E+02  0.7816164E-02  0.1184000E+00
        -11   -1    0    0    0    0  0.00000000000E+00  0.00000000000E+00  0.45593999997E+02  0.45594000000E+02  0.51100000000E-03 0. -1.
         11   -1    0    0    0    0 -0.00000000000E+00 -0.00000000000E+00 -0.45593999997E+02  0.45594000000E+02  0.51100000000E-03 0.  1.
         23    2    1    2    0    0  0.17763568394E-14 -0.88817841970E-15  0.71054273576E-14  0.91188000000E+02  0.91188000000E+02 0.  0.
    9900012    2    3    3    0    0 -0.50485945377E+01  0.56194610381E+01 -0.36037665266E+02  0.54367082480E+02  0.39999996131E+02 0.  0.
         12    1    3    3    0    0  0.50485945377E+01 -0.56194610381E+01  0.36037665266E+02  0.36820917520E+02  0.00000000000E+00 0. -1.
         11    1    4    4    0    0 -0.11410740969E+02 -0.21901212754E+01 -0.16476933209E+02  0.20161621187E+02  0.51100000000E-03 0. -1.
        -11    1    4    4    0    0 -0.32562173897E+01  0.64507491319E+01 -0.22837795366E+02  0.23953705632E+02  0.51100000000E-03 0.  1.
         12    1    4    4    0    0  0.96183638212E+01  0.13588331815E+01  0.32770633089E+01  0.10251755661E+02  0.00000000000E+00 0. -1.
</event>
<event>
 8    1  0.1229941E-006  0.9118800E+02  0.7816164E-02  0.1184000E+00
        -11   -1    0    0    0    0  0.00000000000E+00  0.00000000000E+00  0.45593999997E+02  0.45594000000E+02  0.51100000000E-03 0. -1.
         11   -1    0    0    0    0 -0.00000000000E+00 -0.00000000000E+00 -0.45593999997E+02  0.45594000000E+02  0.51100000000E-03 0.  1.
         23    2    1    2    0    0  0.00000000000E+00 -0.88817841970E-15  0.00000000000E+00  0.91188000000E+02  0.91188000000E+02 0.  0.
    9900012    2    3    3    0    0  0.33015154738E+02 -0.61968904915E+01 -0.15079039628E+02  0.54367091127E+02  0.40000015843E+02 0.  0.
         12    1    3    3    0    0 -0.33015154738E+02  0.61968904915E+01  0.15079039628E+02  0.36820908873E+02  0.00000000000E+00 0. -1.
         11    1    4    4    0    0  0.15294800129E+02  0.24752229811E+01  0.82058662728E+01  0.17532651863E+02  0.51100000000E-03 0. -1.
        -11    1    4    4    0    0  0.12290439699E+02 -0.26206722863E+01 -0.25482121463E+02  0.28412344954E+02  0.51100000000E-03 0.  1.
        -12    1    4    4    0    0  0.54299149089E+01 -0.60514411864E+01  0.21972155624E+01  0.84220943107E+01  0.00000000000E+00 0.  1.
</event>
<event>
 8    1  0.1229941E-006  0.9118800E+02  0.7816164E-02  0.1184000E+00
        -11   -1    0    0    0    0  0.00000000000E+00  0.00000000000E+00  0.45593999997E+02  0.45594000000E+02  0.51100000000E-03 0. -1.
         11   -1    0    0    0    0 -0.00000000000E+00 -0.00000000000E+00 -0.45593999997E+02  0.45594000000E+02  0.51100000000E-03 0.  1.
         23    2    1    2    0    0 -0.35527136788E-14  0.00000000000E+00  0.00000000000E+00  0.91188000000E+02  0.91188000000E+02 0.  0.
    9900012    2    3    3    0    0 -0.23530586946E+02  0.18960209561E+02  0.21038093497E+02  0.54367089547E+02  0.40000012240E+02 0.  0.
        -12    1    3    3    0    0  0.23530586946E+02 -0.18960209561E+02 -0.21038093497E+02  0.36820910453E+02  0.00000000000E+00 0.  1.
         11    1    4    4    0    0  0.85097311228E+01  0.37251171701E+01  0.12801013846E+02  0.15816383198E+02  0.51100000000E-03 0. -1.
        -11    1    4    4    0    0 -0.25773216042E+02  0.11557664941E+02  0.95318076186E+00  0.28262109579E+02  0.51100000000E-03 0.  1.
         12    1    4    4    0    0 -0.62671020272E+01  0.36774274492E+01  0.72838988894E+01  0.10288596770E+02  0.00000000000E+00 0. -1.
</event>
<event>
 8    1  0.1229941E-006  0.9118800E+02  0.7816164E-02  0.1184000E+00
        -11   -1    0    0    0    0  0.00000000000E+00  0.00000000000E+00  0.45593999997E+02  0.45594000000E+02  0.51100000000E-03 0.  1.
         11   -1    0    0    0    0 -0.00000000000E+00 -0.00000000000E+00 -0.45593999997E+02  0.45594000000E+02  0.51100000000E-03 0. -1.
         23    2    1    2    0    0  0.00000000000E+00  0.00000000000E+00  0.35527136788E-14  0.91188000000E+02  0.91188000000E+02 0.  0.
    9900012    2    3    3    0    0  0.32003495135E+02 -0.17544023834E+02 -0.48747107241E+01  0.54367091839E+02  0.40000017466E+02 0.  0.
        -12    1    3    3    0    0 -0.32003495135E+02  0.17544023834E+02  0.48747107241E+01  0.36820908161E+02  0.00000000000E+00 0.  1.
         11    1    4    4    0    0  0.17690398534E+01 -0.65904969525E+01 -0.59264569923E+01  0.90380885605E+01  0.51100000000E-03 0. -1.
        -11    1    4    4    0    0  0.14472961388E+02 -0.65930298258E+01  0.16440025444E+02  0.22873764239E+02  0.51100000000E-03 0.  1.
        -12    1    4    4    0    0  0.15761493894E+02 -0.43604970555E+01 -0.15388279175E+02  0.22455239039E+02  0.00000000000E+00 0.  1.
</event>
<event>
 8    1  0.1229941E-006  0.9118800E+02  0.7816164E-02  0.1184000E+00
        -11   -1    0    0    0    0  0.00000000000E+00  0.00000000000E+00  0.45593999997E+02  0.45594000000E+02  0.51100000000E-03 0.  1.
         11   -1    0    0    0    0 -0.00000000000E+00 -0.00000000000E+00 -0.45593999997E+02  0.45594000000E+02  0.51100000000E-03 0. -1.
         23    2    1    2    0    0  0.71054273576E-14  0.00000000000E+00  0.35527136788E-14  0.91188000000E+02  0.91188000000E+02 0.  0.
    9900012    2    3    3    0    0 -0.32445817789E+02  0.10457827678E+02 -0.13916968772E+02  0.54367091923E+02  0.40000017658E+02 0.  0.
        -12    1    3    3    0    0  0.32445817789E+02 -0.10457827678E+02  0.13916968772E+02  0.36820908077E+02  0.00000000000E+00 0.  1.
         11    1    4    4    0    0 -0.23115945088E+02  0.74768636483E+01 -0.22761944994E+02  0.33291989239E+02  0.51100000000E-03 0. -1.
        -11    1    4    4    0    0  0.40052750165E+00 -0.26885912319E+01  0.94145013438E+01  0.97990704103E+01  0.51100000000E-03 0.  1.
         12    1    4    4    0    0 -0.97304002031E+01  0.56695552621E+01 -0.56952512218E+00  0.11276032274E+02  0.00000000000E+00 0. -1.
</event>
<event>
 8    1  0.1229941E-006  0.9118800E+02  0.7816164E-02  0.1184000E+00
        -11   -1    0    0    0    0  0.00000000000E+00  0.00000000000E+00  0.45593999997E+02  0.45594000000E+02  0.51100000000E-03 0.  1.
         11   -1    0    0    0    0 -0.00000000000E+00 -0.00000000000E+00 -0.45593999997E+02  0.45594000000E+02  0.51100000000E-03 0. -1.
         23    2    1    2    0    0  0.00000000000E+00 -0.35527136788E-14  0.00000000000E+00  0.91188000000E+02  0.91188000000E+02 0.  0.
    9900012    2    3    3    0    0 -0.25714733333E+02  0.22789771895E+02  0.13235006810E+02  0.54366992156E+02  0.39999790218E+02 0.  0.
         12    1    3    3    0    0  0.25714733333E+02 -0.22789771895E+02 -0.13235006810E+02  0.36821007844E+02  0.00000000000E+00 0. -1.
         11    1    4    4    0    0 -0.87130710529E+01  0.95716908478E+01 -0.94385971762E+01  0.16019425388E+02  0.51100000000E-03 0. -1.
        -11    1    4    4    0    0  0.47912302494E+01  0.36757802357E+01  0.91547283900E+00  0.61078096257E+01  0.51100000000E-03 0.  1.
        -12    1    4    4    0    0 -0.21792892529E+02  0.95423008114E+01  0.21758131147E+02  0.32239757142E+02  0.00000000000E+00 0.  1.
</event>
<event>
 8    1  0.1229941E-006  0.9118800E+02  0.7816164E-02  0.1184000E+00
        -11   -1    0    0    0    0  0.00000000000E+00  0.00000000000E+00  0.45593999997E+02  0.45594000000E+02  0.51100000000E-03 0.  1.
         11   -1    0    0    0    0 -0.00000000000E+00 -0.00000000000E+00 -0.45593999997E+02  0.45594000000E+02  0.51100000000E-03 0. -1.
         23    2    1    2    0    0 -0.17763568394E-14  0.00000000000E+00 -0.88817841970E-15  0.91188000000E+02  0.91188000000E+02 0.  0.
    9900012    2    3    3    0    0  0.57549934603E+01 -0.36342553623E+02 -0.13707516903E+01  0.54367080487E+02  0.39999991586E+02 0.  0.
         12    1    3    3    0    0 -0.57549934603E+01  0.36342553623E+02  0.13707516903E+01  0.36820919513E+02  0.00000000000E+00 0. -1.
         11    1    4    4    0    0 -0.56474071079E+01  0.21603500050E+01 -0.54453754526E+01  0.81371022648E+01  0.51100000000E-03 0. -1.
        -11    1    4    4    0    0 -0.48998388631E+01 -0.97851381424E+01 -0.49290797363E+01  0.12002215490E+02  0.51100000000E-03 0.  1.
        -12    1    4    4    0    0  0.16302239431E+02 -0.28717765486E+02  0.90037034986E+01  0.34227762732E+02  0.00000000000E+00 0.  1.
</event>
<event>
 8    1  0.1229941E-006  0.9118800E+02  0.7816164E-02  0.1184000E+00
        -11   -1    0    0    0    0  0.00000000000E+00  0.00000000000E+00  0.45593999997E+02  0.45594000000E+02  0.51100000000E-03 0. -1.
         11   -1    0    0    0    0 -0.00000000000E+00 -0.00000000000E+00 -0.45593999997E+02  0.45594000000E+02  0.51100000000E-03 0.  1.
         23    2    1    2    0    0 -0.88817841970E-15  0.00000000000E+00  0.00000000000E+00  0.91188000000E+02  0.91188000000E+02 0.  0.
    9900012    2    3    3    0    0  0.48728223977E+01 -0.15821263863E+02 -0.32889550613E+02  0.54367091159E+02  0.40000015916E+02 0.  0.
         12    1    3    3    0    0 -0.48728223977E+01  0.15821263863E+02  0.32889550613E+02  0.36820908841E+02  0.00000000000E+00 0. -1.
         11    1    4    4    0    0 -0.51061738860E+01 -0.81070971167E+01 -0.15910164379E+02  0.18572327971E+02  0.51100000000E-03 0. -1.
        -11    1    4    4    0    0  0.83931486432E+01 -0.16389032990E+02 -0.21458198739E+01  0.18537796247E+02  0.51100000000E-03 0.  1.
         12    1    4    4    0    0  0.15858476404E+01  0.86748662436E+01 -0.14833566360E+02  0.17256966942E+02  0.00000000000E+00 0. -1.
</event>
<event>
 8    1  0.1229941E-006  0.9118800E+02  0.7816164E-02  0.1184000E+00
        -11   -1    0    0    0    0  0.00000000000E+00  0.00000000000E+00  0.45593999997E+02  0.45594000000E+02  0.51100000000E-03 0. -1.
         11   -1    0    0    0    0 -0.00000000000E+00 -0.00000000000E+00 -0.45593999997E+02  0.45594000000E+02  0.51100000000E-03 0.  1.
         23    2    1    2    0    0  0.00000000000E+00  0.00000000000E+00  0.00000000000E+00  0.91188000000E+02  0.91188000000E+02 0.  0.
    9900012    2    3    3    0    0 -0.20220707645E+02 -0.22286531924E+02  0.21218344305E+02  0.54367018782E+02  0.39999850916E+02 0.  0.
        -12    1    3    3    0    0  0.20220707645E+02  0.22286531924E+02 -0.21218344305E+02  0.36820981218E+02  0.00000000000E+00 0.  1.
         11    1    4    4    0    0 -0.13533813012E+02 -0.21397202510E+02 -0.14453263755E+01  0.25359285054E+02  0.51100000000E-03 0. -1.
        -11    1    4    4    0    0 -0.62681906795E+01 -0.59340814657E+00 -0.41918360153E-01  0.62963564887E+01  0.51100000000E-03 0.  1.
        -12    1    4    4    0    0 -0.41870395342E+00 -0.29592126803E+00  0.22705589040E+02  0.22711377239E+02  0.00000000000E+00 0.  1.
</event>
<event>
 8    1  0.1229941E-006  0.9118800E+02  0.7816164E-02  0.1184000E+00
        -11   -1    0    0    0    0  0.00000000000E+00  0.00000000000E+00  0.45593999997E+02  0.45594000000E+02  0.51100000000E-03 0. -1.
         11   -1    0    0    0    0 -0.00000000000E+00 -0.00000000000E+00 -0.45593999997E+02  0.45594000000E+02  0.51100000000E-03 0.  1.
         23    2    1    2    0    0  0.00000000000E+00  0.00000000000E+00  0.00000000000E+00  0.91188000000E+02  0.91188000000E+02 0.  0.
    9900012    2    3    3    0    0  0.12545804316E+02 -0.32620691728E+02 -0.11587648377E+02  0.54367077555E+02  0.39999984903E+02 0.  0.
        -12    1    3    3    0    0 -0.12545804316E+02  0.32620691728E+02  0.11587648377E+02  0.36820922445E+02  0.00000000000E+00 0.  1.
         11    1    4    4    0    0 -0.81507579418E+01 -0.82179099095E+01 -0.18169309398E+01  0.11716233892E+02  0.51100000000E-03 0. -1.
        -11    1    4    4    0    0  0.13721311059E+02 -0.15285918976E+01 -0.12445479152E+02  0.18587655095E+02  0.51100000000E-03 0.  1.
         12    1    4    4    0    0  0.69752511994E+01 -0.22874189921E+02  0.26747617147E+01  0.24063188568E+02  0.00000000000E+00 0. -1.
</event>
<event>
 8    1  0.1229941E-006  0.9118800E+02  0.7816164E-02  0.1184000E+00
        -11   -1    0    0    0    0  0.00000000000E+00  0.00000000000E+00  0.45593999997E+02  0.45594000000E+02  0.51100000000E-03 0. -1.
         11   -1    0    0    0    0 -0.00000000000E+00 -0.00000000000E+00 -0.45593999997E+02  0.45594000000E+02  0.51100000000E-03 0.  1.
         23    2    1    2    0    0  0.00000000000E+00 -0.17763568394E-14  0.00000000000E+00  0.91188000000E+02  0.91188000000E+02 0.  0.
    9900012    2    3    3    0    0  0.21057185096E+02  0.13017016497E+02 -0.27256842424E+02  0.54367038285E+02  0.39999895379E+02 0.  0.
         12    1    3    3    0    0 -0.21057185096E+02 -0.13017016497E+02  0.27256842424E+02  0.36820961715E+02  0.00000000000E+00 0. -1.
         11    1    4    4    0    0  0.17568792878E+02  0.11930877178E+02  0.17259289062E+01  0.21306974076E+02  0.51100000000E-03 0. -1.
        -11    1    4    4    0    0 -0.60119044364E+01 -0.11236047846E+01 -0.10116740955E+02  0.11821756658E+02  0.51100000000E-03 0.  1.
        -12    1    4    4    0    0  0.95002966544E+01  0.22097441035E+01 -0.18866030376E+02  0.21238307552E+02  0.00000000000E+00 0.  1.
</event>
<event>
 8    1  0.1229941E-006  0.9118800E+02  0.7816164E-02  0.1184000E+00
        -11   -1    0    0    0    0  0.00000000000E+00  0.00000000000E+00  0.45593999997E+02  0.45594000000E+02  0.51100000000E-03 0.  1.
         11   -1    0    0    0    0 -0.00000000000E+00 -0.00000000000E+00 -0.45593999997E+02  0.45594000000E+02  0.51100000000E-03 0. -1.
         23    2    1    2    0    0 -0.35527136788E-14 -0.11102230246E-15 -0.35527136788E-14  0.91188000000E+02  0.91188000000E+02 0.  0.
    9900012    2    3    3    0    0  0.21657614517E+02 -0.92246281585E+00  0.29763680773E+02  0.54367083425E+02  0.39999998284E+02 0.  0.
         12    1    3    3    0    0 -0.21657614517E+02  0.92246281585E+00 -0.29763680773E+02  0.36820916575E+02  0.00000000000E+00 0. -1.
         11    1    4    4    0    0 -0.73325515268E+01  0.31243789001E+00  0.13359490936E+02  0.15242700800E+02  0.51100000000E-03 0. -1.
        -11    1    4    4    0    0  0.29029366655E+02  0.25855641024E+00  0.19984976690E+02  0.35244436062E+02  0.51100000000E-03 0.  1.
         12    1    4    4    0    0 -0.39200610374E-01 -0.14934571161E+01 -0.35807868531E+01  0.38799465632E+01  0.00000000000E+00 0. -1.
</event>
<event>
 8    1  0.1229941E-006  0.9118800E+02  0.7816164E-02  0.1184000E+00
        -11   -1    0    0    0    0  0.00000000000E+00  0.00000000000E+00  0.45593999997E+02  0.45594000000E+02  0.51100000000E-03 0.  1.
         11   -1    0    0    0    0 -0.00000000000E+00 -0.00000000000E+00 -0.45593999997E+02  0.45594000000E+02  0.51100000000E-03 0. -1.
         23    2    1    2    0    0  0.22204460493E-15  0.00000000000E+00 -0.88817841970E-15  0.91188000000E+02  0.91188000000E+02 0.  0.
    9900012    2    3    3    0    0  0.11269302092E+01 -0.36275713180E+02 -0.62115485083E+01  0.54367072890E+02  0.39999974267E+02 0.  0.
        -12    1    3    3    0    0 -0.11269302092E+01  0.36275713180E+02  0.62115485083E+01  0.36820927110E+02  0.00000000000E+00 0.  1.
         11    1    4    4    0    0 -0.34179858494E+01 -0.55503428515E+01 -0.96499819807E+01  0.11645217281E+02  0.51100000000E-03 0. -1.
        -11    1    4    4    0    0  0.44068156118E+01  0.40659614543E+01 -0.39159096946E+01  0.71614534406E+01  0.51100000000E-03 0.  1.
         12    1    4    4    0    0  0.13810044674E+00 -0.34791331783E+02  0.73543431670E+01  0.35560402168E+02  0.00000000000E+00 0. -1.
</event>
<event>
 8    1  0.1229941E-006  0.9118800E+02  0.7816164E-02  0.1184000E+00
        -11   -1    0    0    0    0  0.00000000000E+00  0.00000000000E+00  0.45593999997E+02  0.45594000000E+02  0.51100000000E-03 0.  1.
         11   -1    0    0    0    0 -0.00000000000E+00 -0.00000000000E+00 -0.45593999997E+02  0.45594000000E+02  0.51100000000E-03 0. -1.
         23    2    1    2    0    0 -0.35527136788E-14  0.00000000000E+00 -0.17763568394E-14  0.91188000000E+02  0.91188000000E+02 0.  0.
    9900012    2    3    3    0    0 -0.25149109688E+02  0.22482425534E+02 -0.14759484869E+02  0.54367087876E+02  0.40000008432E+02 0.  0.
         12    1    3    3    0    0  0.25149109688E+02 -0.22482425534E+02  0.14759484869E+02  0.36820912124E+02  0.00000000000E+00 0. -1.
         11    1    4    4    0    0 -0.41727408201E+01 -0.55743257558E+00  0.65969339770E+01  0.78257290514E+01  0.51100000000E-03 0. -1.
        -11    1    4    4    0    0 -0.10317235000E+02  0.11724655297E+02  0.46043336003E+01  0.16282283871E+02  0.51100000000E-03 0.  1.
         12    1    4    4    0    0 -0.10659133868E+02  0.11315202813E+02 -0.25960752446E+02  0.30259074954E+02  0.00000000000E+00 0. -1.
</event>
<event>
 8    1  0.1229941E-006  0.9118800E+02  0.7816164E-02  0.1184000E+00
        -11   -1    0    0    0    0  0.00000000000E+00  0.00000000000E+00  0.45593999997E+02  0.45594000000E+02  0.51100000000E-03 0. -1.
         11   -1    0    0    0    0 -0.00000000000E+00 -0.00000000000E+00 -0.45593999997E+02  0.45594000000E+02  0.51100000000E-03 0.  1.
         23    2    1    2    0    0  0.00000000000E+00 -0.17763568394E-14  0.00000000000E+00  0.91188000000E+02  0.91188000000E+02 0.  0.
    9900012    2    3    3    0    0  0.16681410009E+02 -0.62493927739E+01 -0.32225069925E+02  0.54367089071E+02  0.40000011156E+02 0.  0.
         12    1    3    3    0    0 -0.16681410009E+02  0.62493927739E+01  0.32225069925E+02  0.36820910929E+02  0.00000000000E+00 0. -1.
         11    1    4    4    0    0  0.23724427685E+02 -0.12116222138E+02 -0.21850812663E+02  0.34454452864E+02  0.51100000000E-03 0. -1.
        -11    1    4    4    0    0  0.13727733618E+01  0.50396765126E+01 -0.10194109688E+02  0.11454375524E+02  0.51100000000E-03 0.  1.
         12    1    4    4    0    0 -0.84157910378E+01  0.82715285162E+00 -0.18014757451E+00  0.84582606830E+01  0.00000000000E+00 0. -1.
</event>
<event>
 8    1  0.1229941E-006  0.9118800E+02  0.7816164E-02  0.1184000E+00
        -11   -1    0    0    0    0  0.00000000000E+00  0.00000000000E+00  0.45593999997E+02  0.45594000000E+02  0.51100000000E-03 0.  1.
         11   -1    0    0    0    0 -0.00000000000E+00 -0.00000000000E+00 -0.45593999997E+02  0.45594000000E+02  0.51100000000E-03 0. -1.
         23    2    1    2    0    0  0.00000000000E+00  0.00000000000E+00 -0.35527136788E-14  0.91188000000E+02  0.91188000000E+02 0.  0.
    9900012    2    3    3    0    0 -0.24591426325E+02 -0.21676216439E+02  0.16768619406E+02  0.54367038517E+02  0.39999895906E+02 0.  0.
        -12    1    3    3    0    0  0.24591426325E+02  0.21676216439E+02 -0.16768619406E+02  0.36820961483E+02  0.00000000000E+00 0.  1.
         11    1    4    4    0    0  0.10196763094E+01 -0.10695588263E+02 -0.82824558368E+01  0.13565928756E+02  0.51100000000E-03 0. -1.
        -11    1    4    4    0    0 -0.54406985922E+01 -0.27243343946E+01  0.16151049362E+02  0.17259188707E+02  0.51100000000E-03 0.  1.
        -12    1    4    4    0    0 -0.20170404042E+02 -0.82562937807E+01  0.89000258807E+01  0.23541921053E+02  0.00000000000E+00 0.  1.
</event>
<event>
 8    1  0.1229941E-006  0.9118800E+02  0.7816164E-02  0.1184000E+00
        -11   -1    0    0    0    0  0.00000000000E+00  0.00000000000E+00  0.45593999997E+02  0.45594000000E+02  0.51100000000E-03 0.  1.
         11   -1    0    0    0    0 -0.00000000000E+00 -0.00000000000E+00 -0.45593999997E+02  0.45594000000E+02  0.51100000000E-03 0. -1.
         23    2    1    2    0    0  0.00000000000E+00 -0.17763568394E-14 -0.35527136788E-14  0.91188000000E+02  0.91188000000E+02 0.  0.
    9900012    2    3    3    0    0 -0.26394127353E+02  0.15833704321E+02  0.20209485948E+02  0.54367089182E+02  0.40000011407E+02 0.  0.
         12    1    3    3    0    0  0.26394127353E+02 -0.15833704321E+02 -0.20209485948E+02  0.36820910818E+02  0.00000000000E+00 0. -1.
         11    1    4    4    0    0  0.15102193369E+01 -0.39590093919E+01  0.25191945723E+01  0.49295901823E+01  0.51100000000E-03 0. -1.
        -11    1    4    4    0    0 -0.14139608232E+02  0.27038001745E+02  0.13219465473E+02  0.33252613837E+02  0.51100000000E-03 0.  1.
         12    1    4    4    0    0 -0.13764738458E+02 -0.72452880322E+01  0.44708259021E+01  0.16184885163E+02  0.00000000000E+00 0. -1.
</event>
<event>
 8    1  0.1229941E-006  0.9118800E+02  0.7816164E-02  0.1184000E+00
        -11   -1    0    0    0    0  0.00000000000E+00  0.00000000000E+00  0.45593999997E+02  0.45594000000E+02  0.51100000000E-03 0.  1.
         11   -1    0    0    0    0 -0.00000000000E+00 -0.00000000000E+00 -0.45593999997E+02  0.45594000000E+02  0.51100000000E-03 0. -1.
         23    2    1    2    0    0  0.17763568394E-14  0.00000000000E+00  0.00000000000E+00  0.91188000000E+02  0.91188000000E+02 0.  0.
    9900012    2    3    3    0    0 -0.13310355199E+02  0.17584283821E+02 -0.29485722871E+02  0.54367075973E+02  0.39999981295E+02 0.  0.
        -12    1    3    3    0    0  0.13310355199E+02 -0.17584283821E+02  0.29485722871E+02  0.36820924027E+02  0.00000000000E+00 0.  1.
         11    1    4    4    0    0  0.47280331625E+01  0.45236057530E+01 -0.19834254019E+01  0.68374910004E+01  0.51100000000E-03 0. -1.
        -11    1    4    4    0    0 -0.13683258514E+02  0.76208273573E+01 -0.34354651039E+02  0.37756464632E+02  0.51100000000E-03 0.  1.
        -12    1    4    4    0    0 -0.43551298467E+01  0.54398507109E+01  0.68523535703E+01  0.97731203406E+01  0.00000000000E+00 0.  1.
</event>
<event>
 8    1  0.1229941E-006  0.9118800E+02  0.7816164E-02  0.1184000E+00
        -11   -1    0    0    0    0  0.00000000000E+00  0.00000000000E+00  0.45593999997E+02  0.45594000000E+02  0.51100000000E-03 0.  1.
         11   -1    0    0    0    0 -0.00000000000E+00 -0.00000000000E+00 -0.45593999997E+02  0.45594000000E+02  0.51100000000E-03 0. -1.
         23    2    1    2    0    0  0.00000000000E+00 -0.22204460493E-14  0.00000000000E+00  0.91188000000E+02  0.91188000000E+02 0.  0.
    9900012    2    3    3    0    0  0.56098342990E+01 -0.16529381084E+01 -0.36353510588E+02  0.54367079624E+02  0.39999989619E+02 0.  0.
        -12    1    3    3    0    0 -0.56098342990E+01  0.16529381084E+01  0.36353510588E+02  0.36820920376E+02  0.00000000000E+00 0.  1.
         11    1    4    4    0    0  0.13565401614E+02  0.15267461414E+02 -0.20542102672E+02  0.28967110340E+02  0.51100000000E-03 0. -1.
        -11    1    4    4    0    0  0.10454839959E+01 -0.54185119218E+00 -0.73600305347E+00  0.13886469155E+01  0.51100000000E-03 0.  1.
        -12    1    4    4    0    0 -0.90010513107E+01 -0.16378548331E+02 -0.15075404863E+02  0.24011322369E+02  0.00000000000E+00 0.  1.
</event>
<event>
 8    1  0.1229941E-006  0.9118800E+02  0.7816164E-02  0.1184000E+00
        -11   -1    0    0    0    0  0.00000000000E+00  0.00000000000E+00  0.45593999997E+02  0.45594000000E+02  0.51100000000E-03 0.  1.
         11   -1    0    0    0    0 -0.00000000000E+00 -0.00000000000E+00 -0.45593999997E+02  0.45594000000E+02  0.51100000000E-03 0. -1.
         23    2    1    2    0    0  0.35527136788E-14 -0.17763568394E-14  0.00000000000E+00  0.91188000000E+02  0.91188000000E+02 0.  0.
    9900012    2    3    3    0    0 -0.25062668431E+02  0.10998420423E+02 -0.24630818793E+02  0.54367084271E+02  0.40000000213E+02 0.  0.
        -12    1    3    3    0    0  0.25062668431E+02 -0.10998420423E+02  0.24630818793E+02  0.36820915729E+02  0.00000000000E+00 0.  1.
         11    1    4    4    0    0 -0.12863656595E+02  0.13800846308E+02 -0.16075980286E+02  0.24786572216E+02  0.51100000000E-03 0. -1.
        -11    1    4    4    0    0  0.76886067639E+01  0.15898420617E+01 -0.34980473952E+01  0.85952665806E+01  0.51100000000E-03 0.  1.
         12    1    4    4    0    0 -0.19887618599E+02 -0.43922679470E+01 -0.50567911120E+01  0.20985245474E+02  0.00000000000E+00 0. -1.
</event>
<event>
 8    1  0.1229941E-006  0.9118800E+02  0.7816164E-02  0.1184000E+00
        -11   -1    0    0    0    0  0.00000000000E+00  0.00000000000E+00  0.45593999997E+02  0.45594000000E+02  0.51100000000E-03 0.  1.
         11   -1    0    0    0    0 -0.00000000000E+00 -0.00000000000E+00 -0.45593999997E+02  0.45594000000E+02  0.51100000000E-03 0. -1.
         23    2    1    2    0    0  0.88817841970E-15  0.00000000000E+00  0.00000000000E+00  0.91188000000E+02  0.91188000000E+02 0.  0.
    9900012    2    3    3    0    0  0.36011395547E+01  0.77090763458E+01 -0.35824319598E+02  0.54367082863E+02  0.39999997002E+02 0.  0.
        -12    1    3    3    0    0 -0.36011395547E+01 -0.77090763458E+01  0.35824319598E+02  0.36820917137E+02  0.00000000000E+00 0.  1.
         11    1    4    4    0    0 -0.12072850047E+02 -0.18685621269E+01 -0.29418378736E+02  0.31854140083E+02  0.51100000000E-03 0. -1.
        -11    1    4    4    0    0  0.77962496653E+01 -0.63552675185E+00 -0.55405960760E+01  0.95855937862E+01  0.51100000000E-03 0.  1.
        -12    1    4    4    0    0  0.78777399365E+01  0.10213165224E+02 -0.86534478534E+00  0.12927348994E+02  0.00000000000E+00 0.  1.
</event>
<event>
 8    1  0.1229941E-006  0.9118800E+02  0.7816164E-02  0.1184000E+00
        -11   -1    0    0    0    0  0.00000000000E+00  0.00000000000E+00  0.45593999997E+02  0.45594000000E+02  0.51100000000E-03 0.  1.
         11   -1    0    0    0    0 -0.00000000000E+00 -0.00000000000E+00 -0.45593999997E+02  0.45594000000E+02  0.51100000000E-03 0. -1.
         23    2    1    2    0    0  0.00000000000E+00  0.35527136788E-14 -0.17763568394E-14  0.91188000000E+02  0.91188000000E+02 0.  0.
    9900012    2    3    3    0    0  0.13643690445E+02 -0.31504810022E+02 -0.13307017690E+02  0.54367081172E+02  0.39999993149E+02 0.  0.
        -12    1    3    3    0    0 -0.13643690445E+02  0.31504810022E+02  0.13307017690E+02  0.36820918828E+02  0.00000000000E+00 0.  1.
         11    1    4    4    0    0  0.57189882728E+01 -0.13186337194E+02 -0.21013596702E+02  0.25458938746E+02  0.51100000000E-03 0. -1.
        -11    1    4    4    0    0 -0.51802695755E+01 -0.30890675760E+01  0.63695453134E+01  0.87720373417E+01  0.51100000000E-03 0.  1.
         12    1    4    4    0    0  0.13104971748E+02 -0.15229405252E+02  0.13370336989E+01  0.20136105084E+02  0.00000000000E+00 0. -1.
</event>
<event>
 8    1  0.1229941E-006  0.9118800E+02  0.7816164E-02  0.1184000E+00
        -11   -1    0    0    0    0  0.00000000000E+00  0.00000000000E+00  0.45593999997E+02  0.45594000000E+02  0.51100000000E-03 0.  1.
         11   -1    0    0    0    0 -0.00000000000E+00 -0.00000000000E+00 -0.45593999997E+02  0.45594000000E+02  0.51100000000E-03 0. -1.
         23    2    1    2    0    0  0.35527136788E-14  0.00000000000E+00  0.35527136788E-14  0.91188000000E+02  0.91188000000E+02 0.  0.
    9900012    2    3    3    0    0 -0.15984878666E+02 -0.12195549802E+02 -0.30846905485E+02  0.54367090738E+02  0.40000014955E+02 0.  0.
        -12    1    3    3    0    0  0.15984878666E+02  0.12195549802E+02  0.30846905485E+02  0.36820909262E+02  0.00000000000E+00 0.  1.
         11    1    4    4    0    0  0.27230231444E+01 -0.44594563357E+01 -0.73626103454E+01  0.90282687828E+01  0.51100000000E-03 0. -1.
        -11    1    4    4    0    0 -0.65148927586E+01  0.12495011292E+02 -0.38105301864E+01  0.14597577724E+02  0.51100000000E-03 0.  1.
        -12    1    4    4    0    0 -0.12193009052E+02 -0.20231104758E+02 -0.19673764953E+02  0.30741244231E+02  0.00000000000E+00 0.  1.
</event>
<event>
 8    1  0.1229941E-006  0.9118800E+02  0.7816164E-02  0.1184000E+00
        -11   -1    0    0    0    0  0.00000000000E+00  0.00000000000E+00  0.45593999997E+02  0.45594000000E+02  0.51100000000E-03 0. -1.
         11   -1    0    0    0    0 -0.00000000000E+00 -0.00000000000E+00 -0.45593999997E+02  0.45594000000E+02  0.51100000000E-03 0.  1.
         23    2    1    2    0    0 -0.35527136788E-14  0.00000000000E+00  0.88817841970E-15  0.91188000000E+02  0.91188000000E+02 0.  0.
    9900012    2    3    3    0    0 -0.23626964312E+02 -0.28036619611E+02 -0.33903183049E+01  0.54367085563E+02  0.40000003158E+02 0.  0.
         12    1    3    3    0    0  0.23626964312E+02  0.28036619611E+02  0.33903183049E+01  0.36820914437E+02  0.00000000000E+00 0. -1.
         11    1    4    4    0    0 -0.14755849713E+02 -0.80381083434E+01  0.75714625869E+01  0.18430228769E+02  0.51100000000E-03 0. -1.
        -11    1    4    4    0    0 -0.17394698039E+02 -0.14473238605E+02 -0.25947774468E+01  0.22776808948E+02  0.51100000000E-03 0.  1.
         12    1    4    4    0    0  0.85235834409E+01 -0.55252726626E+01 -0.83670034450E+01  0.13160047846E+02  0.00000000000E+00 0. -1.
</event>
<event>
 8    1  0.1229941E-006  0.9118800E+02  0.7816164E-02  0.1184000E+00
        -11   -1    0    0    0    0  0.00000000000E+00  0.00000000000E+00  0.45593999997E+02  0.45594000000E+02  0.51100000000E-03 0. -1.
         11   -1    0    0    0    0 -0.00000000000E+00 -0.00000000000E+00 -0.45593999997E+02  0.45594000000E+02  0.51100000000E-03 0.  1.
         23    2    1    2    0    0  0.00000000000E+00  0.00000000000E+00  0.35527136788E-14  0.91188000000E+02  0.91188000000E+02 0.  0.
    9900012    2    3    3    0    0 -0.18038757336E+02 -0.12330306133E+02  0.29636917068E+02  0.54367081097E+02  0.39999992977E+02 0.  0.
        -12    1    3    3    0    0  0.18038757336E+02  0.12330306133E+02 -0.29636917068E+02  0.36820918903E+02  0.00000000000E+00 0.  1.
         11    1    4    4    0    0 -0.18496344245E+02 -0.72372561994E+01  0.27000970806E+02  0.33519323568E+02  0.51100000000E-03 0. -1.
        -11    1    4    4    0    0 -0.80040037172E+01 -0.56904553100E+01 -0.34485818935E+01  0.10408557752E+02  0.51100000000E-03 0.  1.
        -12    1    4    4    0    0  0.84615906263E+01  0.59740537684E+00  0.60845281557E+01  0.10439199777E+02  0.00000000000E+00 0.  1.
</event>
<event>
 8    1  0.1229941E-006  0.9118800E+02  0.7816164E-02  0.1184000E+00
        -11   -1    0    0    0    0  0.00000000000E+00  0.00000000000E+00  0.45593999997E+02  0.45594000000E+02  0.51100000000E-03 0.  1.
         11   -1    0    0    0    0 -0.00000000000E+00 -0.00000000000E+00 -0.45593999997E+02  0.45594000000E+02  0.51100000000E-03 0. -1.
         23    2    1    2    0    0  0.00000000000E+00 -0.13322676296E-14  0.00000000000E+00  0.91188000000E+02  0.91188000000E+02 0.  0.
    9900012    2    3    3    0    0 -0.15874134863E+02 -0.28371727703E+01 -0.33102006006E+02  0.54367075126E+02  0.39999979364E+02 0.  0.
        -12    1    3    3    0    0  0.15874134863E+02  0.28371727703E+01  0.33102006006E+02  0.36820924874E+02  0.00000000000E+00 0.  1.
         11    1    4    4    0    0  0.20698716650E+01  0.13673482632E+02 -0.65285978437E+01  0.15292844277E+02  0.51100000000E-03 0. -1.
        -11    1    4    4    0    0 -0.36699970324E+01  0.15793532533E+01 -0.12750502087E+00  0.39974357666E+01  0.51100000000E-03 0.  1.
        -12    1    4    4    0    0 -0.14274009496E+02 -0.18090008656E+02 -0.26445903142E+02  0.35076795082E+02  0.00000000000E+00 0.  1.
</event>
<event>
 8    1  0.1229941E-006  0.9118800E+02  0.7816164E-02  0.1184000E+00
        -11   -1    0    0    0    0  0.00000000000E+00  0.00000000000E+00  0.45593999997E+02  0.45594000000E+02  0.51100000000E-03 0. -1.
         11   -1    0    0    0    0 -0.00000000000E+00 -0.00000000000E+00 -0.45593999997E+02  0.45594000000E+02  0.51100000000E-03 0.  1.
         23    2    1    2    0    0  0.35527136788E-14  0.00000000000E+00 -0.77715611724E-15  0.91188000000E+02  0.91188000000E+02 0.  0.
    9900012    2    3    3    0    0  0.25303503637E+02  0.26747225855E+02  0.31059127563E+00  0.54367111170E+02  0.40000061535E+02 0.  0.
        -12    1    3    3    0    0 -0.25303503637E+02 -0.26747225855E+02 -0.31059127563E+00  0.36820888830E+02  0.00000000000E+00 0.  1.
         11    1    4    4    0    0  0.14034510105E+02  0.10895786430E+02 -0.92673265240E+01  0.20039186036E+02  0.51100000000E-03 0.  1.
        -11    1    4    4    0    0  0.17855517343E+02  0.11813175004E+02 -0.75873550782E+00  0.21423031604E+02  0.51100000000E-03 0. -1.
         12    1    4    4    0    0 -0.65865238108E+01  0.40382644209E+01  0.10336653307E+02  0.12904893531E+02  0.00000000000E+00 0. -1.
</event>
<event>
 8    1  0.1229941E-006  0.9118800E+02  0.7816164E-02  0.1184000E+00
        -11   -1    0    0    0    0  0.00000000000E+00  0.00000000000E+00  0.45593999997E+02  0.45594000000E+02  0.51100000000E-03 0. -1.
         11   -1    0    0    0    0 -0.00000000000E+00 -0.00000000000E+00 -0.45593999997E+02  0.45594000000E+02  0.51100000000E-03 0.  1.
         23    2    1    2    0    0  0.44408920985E-15  0.35527136788E-14  0.35527136788E-14  0.91188000000E+02  0.91188000000E+02 0.  0.
    9900012    2    3    3    0    0  0.27537208238E+01  0.26036103163E+02  0.25890518552E+02  0.54367073923E+02  0.39999976622E+02 0.  0.
        -12    1    3    3    0    0 -0.27537208238E+01 -0.26036103163E+02 -0.25890518552E+02  0.36820926077E+02  0.00000000000E+00 0.  1.
         11    1    4    4    0    0  0.36926203608E+00  0.20000438649E+02  0.19217650401E+02  0.27739358100E+02  0.51100000000E-03 0. -1.
        -11    1    4    4    0    0  0.48379824965E+01 -0.54941098241E+01  0.11708940620E+02  0.13809077018E+02  0.51100000000E-03 0.  1.
        -12    1    4    4    0    0 -0.24535237089E+01  0.11529774338E+02 -0.50360724691E+01  0.12818638804E+02  0.00000000000E+00 0.  1.
</event>
<event>
 8    1  0.1229941E-006  0.9118800E+02  0.7816164E-02  0.1184000E+00
        -11   -1    0    0    0    0  0.00000000000E+00  0.00000000000E+00  0.45593999997E+02  0.45594000000E+02  0.51100000000E-03 0. -1.
         11   -1    0    0    0    0 -0.00000000000E+00 -0.00000000000E+00 -0.45593999997E+02  0.45594000000E+02  0.51100000000E-03 0.  1.
         23    2    1    2    0    0  0.35527136788E-14 -0.71054273576E-14  0.00000000000E+00  0.91188000000E+02  0.91188000000E+02 0.  0.
    9900012    2    3    3    0    0  0.22242829605E+02  0.28937340349E+02  0.48648942984E+01  0.54367077526E+02  0.39999984836E+02 0.  0.
         12    1    3    3    0    0 -0.22242829605E+02 -0.28937340349E+02 -0.48648942984E+01  0.36820922474E+02  0.00000000000E+00 0. -1.
         11    1    4    4    0    0 -0.21572745615E+00  0.76750337142E+00 -0.27254034057E+01  0.28396168308E+01  0.51100000000E-03 0. -1.
        -11    1    4    4    0    0  0.17817765677E+02  0.32125040872E+02 -0.54447575580E+01  0.37136725891E+02  0.51100000000E-03 0.  1.
         12    1    4    4    0    0  0.46407913840E+01 -0.39552038948E+01  0.13035055262E+02  0.14390734804E+02  0.00000000000E+00 0. -1.
</event>
<event>
 8    1  0.1229941E-006  0.9118800E+02  0.7816164E-02  0.1184000E+00
        -11   -1    0    0    0    0  0.00000000000E+00  0.00000000000E+00  0.45593999997E+02  0.45594000000E+02  0.51100000000E-03 0.  1.
         11   -1    0    0    0    0 -0.00000000000E+00 -0.00000000000E+00 -0.45593999997E+02  0.45594000000E+02  0.51100000000E-03 0. -1.
         23    2    1    2    0    0 -0.71054273576E-14 -0.26645352591E-14 -0.44408920985E-15  0.91188000000E+02  0.91188000000E+02 0.  0.
    9900012    2    3    3    0    0 -0.36378292799E+02 -0.53196865780E+01 -0.20250256468E+01  0.54367082288E+02  0.39999995692E+02 0.  0.
        -12    1    3    3    0    0  0.36378292799E+02  0.53196865780E+01  0.20250256468E+01  0.36820917712E+02  0.00000000000E+00 0.  1.
         11    1    4    4    0    0 -0.89278088634E+01  0.10486563970E+02  0.71034046789E+01  0.15496198027E+02  0.51100000000E-03 0. -1.
        -11    1    4    4    0    0 -0.24171473480E+02 -0.13727921302E+02  0.12135639056E+01  0.27824246460E+02  0.51100000000E-03 0.  1.
        -12    1    4    4    0    0 -0.32790104565E+01 -0.20783292460E+01 -0.10341994231E+02  0.11046637801E+02  0.00000000000E+00 0.  1.
</event>
<event>
 8    1  0.1229941E-006  0.9118800E+02  0.7816164E-02  0.1184000E+00
        -11   -1    0    0    0    0  0.00000000000E+00  0.00000000000E+00  0.45593999997E+02  0.45594000000E+02  0.51100000000E-03 0.  1.
         11   -1    0    0    0    0 -0.00000000000E+00 -0.00000000000E+00 -0.45593999997E+02  0.45594000000E+02  0.51100000000E-03 0. -1.
         23    2    1    2    0    0  0.00000000000E+00  0.35527136788E-14  0.00000000000E+00  0.91188000000E+02  0.91188000000E+02 0.  0.
    9900012    2    3    3    0    0  0.11376972904E+02 -0.27995523148E+02  0.21037917190E+02  0.54367098484E+02  0.40000032614E+02 0.  0.
        -12    1    3    3    0    0 -0.11376972904E+02  0.27995523148E+02 -0.21037917190E+02  0.36820901516E+02  0.00000000000E+00 0.  1.
         11    1    4    4    0    0  0.16697101356E+02 -0.92581403504E+01  0.78549124963E+01  0.20644757374E+02  0.51100000000E-03 0. -1.
        -11    1    4    4    0    0  0.16122602229E+01  0.54546100316E+01  0.39117941636E+01  0.69032084905E+01  0.51100000000E-03 0.  1.
        -12    1    4    4    0    0 -0.69323886753E+01 -0.24191992829E+02  0.92712105301E+01  0.26819132620E+02  0.00000000000E+00 0.  1.
</event>
<event>
 8    1  0.1229941E-006  0.9118800E+02  0.7816164E-02  0.1184000E+00
        -11   -1    0    0    0    0  0.00000000000E+00  0.00000000000E+00  0.45593999997E+02  0.45594000000E+02  0.51100000000E-03 0. -1.
         11   -1    0    0    0    0 -0.00000000000E+00 -0.00000000000E+00 -0.45593999997E+02  0.45594000000E+02  0.51100000000E-03 0.  1.
         23    2    1    2    0    0  0.35527136788E-14  0.27755575616E-15 -0.35527136788E-14  0.91188000000E+02  0.91188000000E+02 0.  0.
    9900012    2    3    3    0    0 -0.23979954162E+02 -0.39726699779E+00 -0.27938905500E+02  0.54367102900E+02  0.40000042682E+02 0.  0.
         12    1    3    3    0    0  0.23979954162E+02  0.39726699779E+00  0.27938905500E+02  0.36820897100E+02  0.00000000000E+00 0. -1.
         11    1    4    4    0    0 -0.94569671728E+01  0.56358854559E+01 -0.22990544860E+02  0.25490441075E+02  0.51100000000E-03 0. -1.
        -11    1    4    4    0    0  0.55541263254E+01 -0.21130296566E+01  0.33264370942E+01  0.68101686889E+01  0.51100000000E-03 0.  1.
        -12    1    4    4    0    0 -0.20077113315E+02 -0.39201227971E+01 -0.82747977343E+01  0.22066493136E+02  0.00000000000E+00 0.  1.
</event>
<event>
 8    1  0.1229941E-006  0.9118800E+02  0.7816164E-02  0.1184000E+00
        -11   -1    0    0    0    0  0.00000000000E+00  0.00000000000E+00  0.45593999997E+02  0.45594000000E+02  0.51100000000E-03 0.  1.
         11   -1    0    0    0    0 -0.00000000000E+00 -0.00000000000E+00 -0.45593999997E+02  0.45594000000E+02  0.51100000000E-03 0. -1.
         23    2    1    2    0    0  0.00000000000E+00  0.00000000000E+00  0.00000000000E+00  0.91188000000E+02  0.91188000000E+02 0.  0.
    9900012    2    3    3    0    0 -0.11389511895E+02 -0.40776712873E+01 -0.34776882616E+02  0.54367082727E+02  0.39999996693E+02 0.  0.
        -12    1    3    3    0    0  0.11389511895E+02  0.40776712873E+01  0.34776882616E+02  0.36820917273E+02  0.00000000000E+00 0.  1.
         11    1    4    4    0    0  0.23786201001E+01 -0.76240703798E+01 -0.16041402376E+02  0.17919566769E+02  0.51100000000E-03 0. -1.
        -11    1    4    4    0    0  0.46342999035E+01 -0.14621240825E+01  0.43367486362E+01  0.65132120665E+01  0.51100000000E-03 0.  1.
        -12    1    4    4    0    0 -0.18402431899E+02  0.50085231750E+01 -0.23072228876E+02  0.29934303891E+02  0.00000000000E+00 0.  1.
</event>
<event>
 8    1  0.1229941E-006  0.9118800E+02  0.7816164E-02  0.1184000E+00
        -11   -1    0    0    0    0  0.00000000000E+00  0.00000000000E+00  0.45593999997E+02  0.45594000000E+02  0.51100000000E-03 0.  1.
         11   -1    0    0    0    0 -0.00000000000E+00 -0.00000000000E+00 -0.45593999997E+02  0.45594000000E+02  0.51100000000E-03 0. -1.
         23    2    1    2    0    0  0.00000000000E+00  0.11102230246E-14 -0.88817841970E-15  0.91188000000E+02  0.91188000000E+02 0.  0.
    9900012    2    3    3    0    0  0.36811698385E+02  0.60752258972E+00  0.55703688928E+00  0.54367075083E+02  0.39999979266E+02 0.  0.
         12    1    3    3    0    0 -0.36811698385E+02 -0.60752258972E+00 -0.55703688928E+00  0.36820924917E+02  0.00000000000E+00 0. -1.
         11    1    4    4    0    0  0.31499856294E+01  0.58200351784E+01  0.11670547482E+02  0.13416292250E+02  0.51100000000E-03 0. -1.
        -11    1    4    4    0    0  0.84630105067E+01  0.69525481285E+01 -0.31271916384E+00  0.10957110287E+02  0.51100000000E-03 0.  1.
        -12    1    4    4    0    0  0.25198702248E+02 -0.12165060717E+02 -0.10800791429E+02  0.29993672545E+02  0.00000000000E+00 0.  1.
</event>
<event>
 8    1  0.1229941E-006  0.9118800E+02  0.7816164E-02  0.1184000E+00
        -11   -1    0    0    0    0  0.00000000000E+00  0.00000000000E+00  0.45593999997E+02  0.45594000000E+02  0.51100000000E-03 0.  1.
         11   -1    0    0    0    0 -0.00000000000E+00 -0.00000000000E+00 -0.45593999997E+02  0.45594000000E+02  0.51100000000E-03 0. -1.
         23    2    1    2    0    0 -0.35527136788E-14 -0.88817841970E-15 -0.35527136788E-14  0.91188000000E+02  0.91188000000E+02 0.  0.
    9900012    2    3    3    0    0 -0.26708624628E+02  0.74205738318E+01  0.24235577448E+02  0.54367098873E+02  0.40000033502E+02 0.  0.
         12    1    3    3    0    0  0.26708624628E+02 -0.74205738318E+01 -0.24235577448E+02  0.36820901127E+02  0.00000000000E+00 0. -1.
         11    1    4    4    0    0 -0.16333093648E+01 -0.57492420619E+01 -0.37488081294E+01  0.70551432601E+01  0.51100000000E-03 0. -1.
        -11    1    4    4    0    0 -0.12665483052E+02  0.88352516396E+01 -0.10113285899E+01  0.15475752591E+02  0.51100000000E-03 0.  1.
         12    1    4    4    0    0 -0.12409832211E+02  0.43345642541E+01  0.28995714168E+02  0.31836203022E+02  0.00000000000E+00 0. -1.
</event>
<event>
 8    1  0.1229941E-006  0.9118800E+02  0.7816164E-02  0.1184000E+00
        -11   -1    0    0    0    0  0.00000000000E+00  0.00000000000E+00  0.45593999997E+02  0.45594000000E+02  0.51100000000E-03 0.  1.
         11   -1    0    0    0    0 -0.00000000000E+00 -0.00000000000E+00 -0.45593999997E+02  0.45594000000E+02  0.51100000000E-03 0. -1.
         23    2    1    2    0    0 -0.71054273576E-14 -0.71054273576E-14  0.00000000000E+00  0.91188000000E+02  0.91188000000E+02 0.  0.
    9900012    2    3    3    0    0 -0.17781690790E+02 -0.26907284015E+02 -0.17764832229E+02  0.54367085773E+02  0.40000003637E+02 0.  0.
        -12    1    3    3    0    0  0.17781690790E+02  0.26907284015E+02  0.17764832229E+02  0.36820914227E+02  0.00000000000E+00 0.  1.
         11    1    4    4    0    0 -0.19658366678E+01  0.22573803542E+01 -0.24183495601E+01  0.38482066894E+01  0.51100000000E-03 0. -1.
        -11    1    4    4    0    0 -0.20342466149E+02 -0.50718803735E+01  0.11076825929E+01  0.20994448326E+02  0.51100000000E-03 0.  1.
         12    1    4    4    0    0  0.45266120270E+01 -0.24092783996E+02 -0.16454165261E+02  0.29524430757E+02  0.00000000000E+00 0. -1.
</event>
<event>
 8    1  0.1229941E-006  0.9118800E+02  0.7816164E-02  0.1184000E+00
        -11   -1    0    0    0    0  0.00000000000E+00  0.00000000000E+00  0.45593999997E+02  0.45594000000E+02  0.51100000000E-03 0. -1.
         11   -1    0    0    0    0 -0.00000000000E+00 -0.00000000000E+00 -0.45593999997E+02  0.45594000000E+02  0.51100000000E-03 0.  1.
         23    2    1    2    0    0 -0.35527136788E-14  0.00000000000E+00  0.44408920985E-15  0.91188000000E+02  0.91188000000E+02 0.  0.
    9900012    2    3    3    0    0  0.24004253565E+02 -0.27668171242E+02  0.37485758292E+01  0.54367031655E+02  0.39999880265E+02 0.  0.
         12    1    3    3    0    0 -0.24004253565E+02  0.27668171242E+02 -0.37485758292E+01  0.36820968345E+02  0.00000000000E+00 0. -1.
         11    1    4    4    0    0  0.21891637597E+02 -0.18769303427E+02  0.16748441755E+02  0.33347276490E+02  0.51100000000E-03 0. -1.
        -11    1    4    4    0    0 -0.29300844169E+01 -0.51178327851E+00  0.16503087525E+01  0.34015931641E+01  0.51100000000E-03 0.  1.
        -12    1    4    4    0    0  0.50427003843E+01 -0.83870845365E+01 -0.14650174678E+02  0.17618162001E+02  0.00000000000E+00 0.  1.
</event>
<event>
 8    1  0.1229941E-006  0.9118800E+02  0.7816164E-02  0.1184000E+00
        -11   -1    0    0    0    0  0.00000000000E+00  0.00000000000E+00  0.45593999997E+02  0.45594000000E+02  0.51100000000E-03 0.  1.
         11   -1    0    0    0    0 -0.00000000000E+00 -0.00000000000E+00 -0.45593999997E+02  0.45594000000E+02  0.51100000000E-03 0. -1.
         23    2    1    2    0    0  0.35527136788E-14  0.00000000000E+00  0.00000000000E+00  0.91188000000E+02  0.91188000000E+02 0.  0.
    9900012    2    3    3    0    0 -0.16306061793E+02  0.31395025053E+02 -0.10209907141E+02  0.54367116617E+02  0.40000073953E+02 0.  0.
        -12    1    3    3    0    0  0.16306061793E+02 -0.31395025053E+02  0.10209907141E+02  0.36820883383E+02  0.00000000000E+00 0.  1.
         11    1    4    4    0    0  0.36856812034E+01 -0.14942009152E+01 -0.35290260065E+01  0.53170393193E+01  0.51100000000E-03 0. -1.
        -11    1    4    4    0    0 -0.21593743677E+02  0.80320584632E+01 -0.71934680560E+01  0.24136066624E+02  0.51100000000E-03 0.  1.
         12    1    4    4    0    0  0.16020006800E+01  0.24857167505E+02  0.51258692172E+00  0.24914010674E+02  0.00000000000E+00 0. -1.
</event>
<event>
 8    1  0.1229941E-006  0.9118800E+02  0.7816164E-02  0.1184000E+00
        -11   -1    0    0    0    0  0.00000000000E+00  0.00000000000E+00  0.45593999997E+02  0.45594000000E+02  0.51100000000E-03 0. -1.
         11   -1    0    0    0    0 -0.00000000000E+00 -0.00000000000E+00 -0.45593999997E+02  0.45594000000E+02  0.51100000000E-03 0.  1.
         23    2    1    2    0    0  0.00000000000E+00  0.00000000000E+00 -0.88817841970E-15  0.91188000000E+02  0.91188000000E+02 0.  0.
    9900012    2    3    3    0    0 -0.29181363732E+02  0.21272245657E+02 -0.71916371065E+01  0.54367081098E+02  0.39999992979E+02 0.  0.
         12    1    3    3    0    0  0.29181363732E+02 -0.21272245657E+02  0.71916371065E+01  0.36820918902E+02  0.00000000000E+00 0. -1.
         11    1    4    4    0    0 -0.33038949160E+02  0.11941968330E+02  0.24634265193E+01  0.35217200907E+02  0.51100000000E-03 0. -1.
        -11    1    4    4    0    0 -0.24664778663E-02 -0.30442764227E+01 -0.39509039076E+01  0.49877115965E+01  0.51100000000E-03 0.  1.
         12    1    4    4    0    0  0.38600519068E+01  0.12374553750E+02 -0.57041597181E+01  0.14162168595E+02  0.00000000000E+00 0. -1.
</event>
<event>
 8    1  0.1229941E-006  0.9118800E+02  0.7816164E-02  0.1184000E+00
        -11   -1    0    0    0    0  0.00000000000E+00  0.00000000000E+00  0.45593999997E+02  0.45594000000E+02  0.51100000000E-03 0. -1.
         11   -1    0    0    0    0 -0.00000000000E+00 -0.00000000000E+00 -0.45593999997E+02  0.45594000000E+02  0.51100000000E-03 0.  1.
         23    2    1    2    0    0  0.13322676296E-14  0.00000000000E+00  0.00000000000E+00  0.91188000000E+02  0.91188000000E+02 0.  0.
    9900012    2    3    3    0    0  0.22372654852E+01 -0.34593351716E+02  0.12412733665E+02  0.54367064422E+02  0.39999954963E+02 0.  0.
        -12    1    3    3    0    0 -0.22372654852E+01  0.34593351716E+02 -0.12412733665E+02  0.36820935578E+02  0.00000000000E+00 0.  1.
         11    1    4    4    0    0 -0.10800378339E+02 -0.19792602787E+02  0.13360047863E+02  0.26208513436E+02  0.51100000000E-03 0. -1.
        -11    1    4    4    0    0  0.13973462140E+01  0.49777516324E+01 -0.61404000658E+00  0.52064991257E+01  0.51100000000E-03 0.  1.
         12    1    4    4    0    0  0.11640297610E+02 -0.19778500562E+02 -0.33327419220E+00  0.22952051860E+02  0.00000000000E+00 0. -1.
</event>
<event>
 8    1  0.1229941E-006  0.9118800E+02  0.7816164E-02  0.1184000E+00
        -11   -1    0    0    0    0  0.00000000000E+00  0.00000000000E+00  0.45593999997E+02  0.45594000000E+02  0.51100000000E-03 0. -1.
         11   -1    0    0    0    0 -0.00000000000E+00 -0.00000000000E+00 -0.45593999997E+02  0.45594000000E+02  0.51100000000E-03 0.  1.
         23    2    1    2    0    0  0.44408920985E-15  0.44408920985E-15  0.71054273576E-14  0.91188000000E+02  0.91188000000E+02 0.  0.
    9900012    2    3    3    0    0 -0.18898818853E+01  0.22944053709E+01 -0.36700704212E+02  0.54367114089E+02  0.40000068190E+02 0.  0.
         12    1    3    3    0    0  0.18898818853E+01 -0.22944053709E+01  0.36700704212E+02  0.36820885911E+02  0.00000000000E+00 0. -1.
         11    1    4    4    0    0 -0.37282149901E+01 -0.83143852048E+01 -0.87425771788E+01  0.12627796496E+02  0.51100000000E-03 0. -1.
        -11    1    4    4    0    0 -0.23757247712E+01  0.88270362271E+01 -0.33400786721E+02  0.34629080129E+02  0.51100000000E-03 0.  1.
         12    1    4    4    0    0  0.42140578760E+01  0.17817543486E+01  0.54426596870E+01  0.71102374651E+01  0.00000000000E+00 0. -1.
</event>
<event>
 8    1  0.1229941E-006  0.9118800E+02  0.7816164E-02  0.1184000E+00
        -11   -1    0    0    0    0  0.00000000000E+00  0.00000000000E+00  0.45593999997E+02  0.45594000000E+02  0.51100000000E-03 0.  1.
         11   -1    0    0    0    0 -0.00000000000E+00 -0.00000000000E+00 -0.45593999997E+02  0.45594000000E+02  0.51100000000E-03 0. -1.
         23    2    1    2    0    0 -0.88817841970E-15  0.00000000000E+00  0.00000000000E+00  0.91188000000E+02  0.91188000000E+02 0.  0.
    9900012    2    3    3    0    0  0.58246718238E+01  0.35589488855E+02  0.74320682229E+01  0.54367161377E+02  0.40000175992E+02 0.  0.
         12    1    3    3    0    0 -0.58246718238E+01 -0.35589488855E+02 -0.74320682229E+01  0.36820838623E+02  0.00000000000E+00 0. -1.
         11    1    4    4    0    0 -0.19872253173E+01  0.12181397160E+02 -0.42537241918E+01  0.13054871543E+02  0.51100000000E-03 0. -1.
        -11    1    4    4    0    0  0.30210658874E+01 -0.71354807715E+01  0.61744933407E+01  0.99078904521E+01  0.51100000000E-03 0.  1.
        -12    1    4    4    0    0  0.47908312537E+01  0.30543572466E+02  0.55112990740E+01  0.31404399382E+02  0.00000000000E+00 0.  1.
</event>
<event>
 8    1  0.1229941E-006  0.9118800E+02  0.7816164E-02  0.1184000E+00
        -11   -1    0    0    0    0  0.00000000000E+00  0.00000000000E+00  0.45593999997E+02  0.45594000000E+02  0.51100000000E-03 0.  1.
         11   -1    0    0    0    0 -0.00000000000E+00 -0.00000000000E+00 -0.45593999997E+02  0.45594000000E+02  0.51100000000E-03 0. -1.
         23    2    1    2    0    0  0.00000000000E+00  0.35527136788E-14  0.88817841970E-15  0.91188000000E+02  0.91188000000E+02 0.  0.
    9900012    2    3    3    0    0  0.18462535176E+02  0.31271395169E+02 -0.60839154257E+01  0.54367090344E+02  0.40000014058E+02 0.  0.
        -12    1    3    3    0    0 -0.18462535176E+02 -0.31271395169E+02  0.60839154257E+01  0.36820909656E+02  0.00000000000E+00 0.  1.
         11    1    4    4    0    0  0.86480883869E+01  0.15836457906E+02 -0.11544577783E+02  0.21421020241E+02  0.51100000000E-03 0. -1.
        -11    1    4    4    0    0  0.62115215777E+01 -0.56931891333E+01  0.76768690887E+01  0.11398671944E+02  0.51100000000E-03 0.  1.
        -12    1    4    4    0    0  0.36029252118E+01  0.21128126397E+02 -0.22162067318E+01  0.21547398159E+02  0.00000000000E+00 0.  1.
</event>
<event>
 8    1  0.1229941E-006  0.9118800E+02  0.7816164E-02  0.1184000E+00
        -11   -1    0    0    0    0  0.00000000000E+00  0.00000000000E+00  0.45593999997E+02  0.45594000000E+02  0.51100000000E-03 0. -1.
         11   -1    0    0    0    0 -0.00000000000E+00 -0.00000000000E+00 -0.45593999997E+02  0.45594000000E+02  0.51100000000E-03 0.  1.
         23    2    1    2    0    0  0.00000000000E+00  0.00000000000E+00  0.35527136788E-14  0.91188000000E+02  0.91188000000E+02 0.  0.
    9900012    2    3    3    0    0  0.10962836982E+02  0.18895867336E+02 -0.29640296155E+02  0.54367017487E+02  0.39999847965E+02 0.  0.
         12    1    3    3    0    0 -0.10962836982E+02 -0.18895867336E+02  0.29640296155E+02  0.36820982513E+02  0.00000000000E+00 0. -1.
         11    1    4    4    0    0  0.34664318415E+01 -0.38212261288E+01  0.85920507547E+00  0.52303109336E+01  0.51100000000E-03 0. -1.
        -11    1    4    4    0    0  0.89427860976E+01  0.14554308692E+02 -0.35541780363E+02  0.39433735258E+02  0.51100000000E-03 0.  1.
        -12    1    4    4    0    0 -0.14463809573E+01  0.81627847723E+01  0.50422791332E+01  0.97029712960E+01  0.00000000000E+00 0.  1.
</event>
<event>
 8    1  0.1229941E-006  0.9118800E+02  0.7816164E-02  0.1184000E+00
        -11   -1    0    0    0    0  0.00000000000E+00  0.00000000000E+00  0.45593999997E+02  0.45594000000E+02  0.51100000000E-03 0.  1.
         11   -1    0    0    0    0 -0.00000000000E+00 -0.00000000000E+00 -0.45593999997E+02  0.45594000000E+02  0.51100000000E-03 0. -1.
         23    2    1    2    0    0  0.35527136788E-14  0.00000000000E+00  0.00000000000E+00  0.91188000000E+02  0.91188000000E+02 0.  0.
    9900012    2    3    3    0    0 -0.23385767796E+02  0.26840470676E+02 -0.94061536710E+01  0.54367072141E+02  0.39999972559E+02 0.  0.
        -12    1    3    3    0    0  0.23385767796E+02 -0.26840470676E+02  0.94061536710E+01  0.36820927859E+02  0.00000000000E+00 0.  1.
         11    1    4    4    0    0 -0.14734009141E+02  0.33956924330E+01  0.35968159890E+00  0.15124520607E+02  0.51100000000E-03 0. -1.
        -11    1    4    4    0    0  0.13209816639E+01  0.15335087507E+02 -0.18224924869E+02  0.23854932155E+02  0.51100000000E-03 0.  1.
        -12    1    4    4    0    0 -0.99727403193E+01  0.81096907363E+01  0.84590895987E+01  0.15387619379E+02  0.00000000000E+00 0.  1.
</event>
<event>
 8    1  0.1229941E-006  0.9118800E+02  0.7816164E-02  0.1184000E+00
        -11   -1    0    0    0    0  0.00000000000E+00  0.00000000000E+00  0.45593999997E+02  0.45594000000E+02  0.51100000000E-03 0.  1.
         11   -1    0    0    0    0 -0.00000000000E+00 -0.00000000000E+00 -0.45593999997E+02  0.45594000000E+02  0.51100000000E-03 0. -1.
         23    2    1    2    0    0  0.35527136788E-14 -0.35527136788E-14  0.00000000000E+00  0.91188000000E+02  0.91188000000E+02 0.  0.
    9900012    2    3    3    0    0  0.28712086861E+02 -0.20898619769E+02 -0.97284811868E+01  0.54367087649E+02  0.40000007913E+02 0.  0.
        -12    1    3    3    0    0 -0.28712086861E+02  0.20898619769E+02  0.97284811868E+01  0.36820912351E+02  0.00000000000E+00 0.  1.
         11    1    4    4    0    0  0.23541939042E+02 -0.18821352768E+01 -0.13715313876E+02  0.27310715150E+02  0.51100000000E-03 0. -1.
        -11    1    4    4    0    0  0.96428207446E+00 -0.18949641482E+02 -0.26911135844E+01  0.19164050845E+02  0.51100000000E-03 0.  1.
         12    1    4    4    0    0  0.42058657449E+01 -0.66843010430E-01  0.66779462735E+01  0.78923216536E+01  0.00000000000E+00 0. -1.
</event>
<event>
 8    1  0.1229941E-006  0.9118800E+02  0.7816164E-02  0.1184000E+00
        -11   -1    0    0    0    0  0.00000000000E+00  0.00000000000E+00  0.45593999997E+02  0.45594000000E+02  0.51100000000E-03 0. -1.
         11   -1    0    0    0    0 -0.00000000000E+00 -0.00000000000E+00 -0.45593999997E+02  0.45594000000E+02  0.51100000000E-03 0.  1.
         23    2    1    2    0    0 -0.35527136788E-14 -0.35527136788E-14 -0.35527136788E-14  0.91188000000E+02  0.91188000000E+02 0.  0.
    9900012    2    3    3    0    0 -0.22024402294E+02 -0.19011839051E+02 -0.22566687970E+02  0.54367085746E+02  0.40000003575E+02 0.  0.
         12    1    3    3    0    0  0.22024402294E+02  0.19011839051E+02  0.22566687970E+02  0.36820914254E+02  0.00000000000E+00 0. -1.
         11    1    4    4    0    0 -0.24869092280E+01 -0.64115698583E+01  0.34474574689E+01  0.76927179083E+01  0.51100000000E-03 0. -1.
        -11    1    4    4    0    0 -0.10698265558E+02 -0.13397623387E+02  0.20250208186E+01  0.17264121985E+02  0.51100000000E-03 0.  1.
         12    1    4    4    0    0 -0.88392275087E+01  0.79735419341E+00 -0.28039166258E+02  0.29410245852E+02  0.00000000000E+00 0. -1.
</event>
<event>
 8    1  0.1229941E-006  0.9118800E+02  0.7816164E-02  0.1184000E+00
        -11   -1    0    0    0    0  0.00000000000E+00  0.00000000000E+00  0.45593999997E+02  0.45594000000E+02  0.51100000000E-03 0. -1.
         11   -1    0    0    0    0 -0.00000000000E+00 -0.00000000000E+00 -0.45593999997E+02  0.45594000000E+02  0.51100000000E-03 0.  1.
         23    2    1    2    0    0  0.00000000000E+00  0.00000000000E+00  0.00000000000E+00  0.91188000000E+02  0.91188000000E+02 0.  0.
    9900012    2    3    3    0    0 -0.20147980260E+02  0.29174753083E+02 -0.99334124290E+01  0.54367081917E+02  0.39999994846E+02 0.  0.
         12    1    3    3    0    0  0.20147980260E+02 -0.29174753083E+02  0.99334124290E+01  0.36820918083E+02  0.00000000000E+00 0. -1.
         11    1    4    4    0    0  0.88712699335E+01  0.45871695805E+01 -0.20299936487E+01  0.10191291845E+02  0.51100000000E-03 0. -1.
        -11    1    4    4    0    0 -0.14230106389E+02  0.24833236227E+02 -0.62162890030E+01  0.29288697454E+02  0.51100000000E-03 0.  1.
         12    1    4    4    0    0 -0.14789143804E+02 -0.24565272410E+00 -0.16871297773E+01  0.14887092618E+02  0.00000000000E+00 0. -1.
</event>
<event>
 8    1  0.1229941E-006  0.9118800E+02  0.7816164E-02  0.1184000E+00
        -11   -1    0    0    0    0  0.00000000000E+00  0.00000000000E+00  0.45593999997E+02  0.45594000000E+02  0.51100000000E-03 0. -1.
         11   -1    0    0    0    0 -0.00000000000E+00 -0.00000000000E+00 -0.45593999997E+02  0.45594000000E+02  0.51100000000E-03 0.  1.
         23    2    1    2    0    0  0.17763568394E-14 -0.35527136788E-14 -0.35527136788E-14  0.91188000000E+02  0.91188000000E+02 0.  0.
    9900012    2    3    3    0    0 -0.36366715804E+01 -0.20163664040E+02 -0.30593787722E+02  0.54367101384E+02  0.40000039226E+02 0.  0.
         12    1    3    3    0    0  0.36366715804E+01  0.20163664040E+02  0.30593787722E+02  0.36820898616E+02  0.00000000000E+00 0. -1.
         11    1    4    4    0    0 -0.16555073166E+02 -0.43027562354E+00 -0.10305857203E+02  0.19505544791E+02  0.51100000000E-03 0. -1.
        -11    1    4    4    0    0  0.58052404530E+01 -0.14807594290E+00 -0.10139225703E+02  0.11684461533E+02  0.51100000000E-03 0.  1.
        -12    1    4    4    0    0  0.71131611330E+01 -0.19585312473E+02 -0.10148704817E+02  0.23177095060E+02  0.00000000000E+00 0.  1.
</event>
<event>
 8    1  0.1229941E-006  0.9118800E+02  0.7816164E-02  0.1184000E+00
        -11   -1    0    0    0    0  0.00000000000E+00  0.00000000000E+00  0.45593999997E+02  0.45594000000E+02  0.51100000000E-03 0.  1.
         11   -1    0    0    0    0 -0.00000000000E+00 -0.00000000000E+00 -0.45593999997E+02  0.45594000000E+02  0.51100000000E-03 0. -1.
         23    2    1    2    0    0  0.00000000000E+00 -0.35527136788E-14  0.35527136788E-14  0.91188000000E+02  0.91188000000E+02 0.  0.
    9900012    2    3    3    0    0 -0.97648040568E+01 -0.28877354639E+02  0.20652533795E+02  0.54367079841E+02  0.39999990114E+02 0.  0.
         12    1    3    3    0    0  0.97648040568E+01  0.28877354639E+02 -0.20652533795E+02  0.36820920159E+02  0.00000000000E+00 0. -1.
         11    1    4    4    0    0 -0.51602413491E+01 -0.30406256509E+02  0.59726895310E+01  0.31414034223E+02  0.51100000000E-03 0. -1.
        -11    1    4    4    0    0 -0.27392000498E+01  0.45105258612E+01  0.17604766145E+02  0.18378679271E+02  0.51100000000E-03 0.  1.
         12    1    4    4    0    0 -0.18653626579E+01 -0.29816239912E+01 -0.29249218809E+01  0.45743663473E+01  0.00000000000E+00 0. -1.
</event>
<event>
 8    1  0.1229941E-006  0.9118800E+02  0.7816164E-02  0.1184000E+00
        -11   -1    0    0    0    0  0.00000000000E+00  0.00000000000E+00  0.45593999997E+02  0.45594000000E+02  0.51100000000E-03 0.  1.
         11   -1    0    0    0    0 -0.00000000000E+00 -0.00000000000E+00 -0.45593999997E+02  0.45594000000E+02  0.51100000000E-03 0. -1.
         23    2    1    2    0    0  0.00000000000E+00  0.35527136788E-14  0.66613381478E-15  0.91188000000E+02  0.91188000000E+02 0.  0.
    9900012    2    3    3    0    0 -0.30360248898E+02 -0.20779382413E+02  0.14995613852E+01  0.54367134570E+02  0.40000114880E+02 0.  0.
        -12    1    3    3    0    0  0.30360248898E+02  0.20779382413E+02 -0.14995613852E+01  0.36820865430E+02  0.00000000000E+00 0.  1.
         11    1    4    4    0    0 -0.20188229678E+02 -0.45269112821E+01  0.13400191779E+01  0.20732901267E+02  0.51100000000E-03 0. -1.
        -11    1    4    4    0    0 -0.17455914711E+02 -0.43521217048E+01 -0.51383942118E+01  0.18709703821E+02  0.51100000000E-03 0.  1.
        -12    1    4    4    0    0  0.72838954903E+01 -0.11900349426E+02  0.52979364191E+01  0.14924529483E+02  0.00000000000E+00 0.  1.
</event>
<event>
 8    1  0.1229941E-006  0.9118800E+02  0.7816164E-02  0.1184000E+00
        -11   -1    0    0    0    0  0.00000000000E+00  0.00000000000E+00  0.45593999997E+02  0.45594000000E+02  0.51100000000E-03 0.  1.
         11   -1    0    0    0    0 -0.00000000000E+00 -0.00000000000E+00 -0.45593999997E+02  0.45594000000E+02  0.51100000000E-03 0. -1.
         23    2    1    2    0    0  0.00000000000E+00  0.00000000000E+00  0.00000000000E+00  0.91188000000E+02  0.91188000000E+02 0.  0.
    9900012    2    3    3    0    0  0.34237730864E+02  0.65504489575E+01  0.11859616692E+02  0.54367067036E+02  0.39999960922E+02 0.  0.
         12    1    3    3    0    0 -0.34237730864E+02 -0.65504489575E+01 -0.11859616692E+02  0.36820932964E+02  0.00000000000E+00 0. -1.
         11    1    4    4    0    0 -0.29971592406E+01  0.11080065456E+02 -0.11709833366E+01  0.11537851458E+02  0.51100000000E-03 0. -1.
        -11    1    4    4    0    0  0.20302415109E+02 -0.27250372000E+01  0.15412440380E+02  0.25635077642E+02  0.51100000000E-03 0.  1.
        -12    1    4    4    0    0  0.16932474995E+02 -0.18045792988E+01 -0.23818403511E+01  0.17194137936E+02  0.00000000000E+00 0.  1.
</event>
<event>
 8    1  0.1229941E-006  0.9118800E+02  0.7816164E-02  0.1184000E+00
        -11   -1    0    0    0    0  0.00000000000E+00  0.00000000000E+00  0.45593999997E+02  0.45594000000E+02  0.51100000000E-03 0.  1.
         11   -1    0    0    0    0 -0.00000000000E+00 -0.00000000000E+00 -0.45593999997E+02  0.45594000000E+02  0.51100000000E-03 0. -1.
         23    2    1    2    0    0  0.35527136788E-14 -0.35527136788E-14  0.66613381478E-15  0.91188000000E+02  0.91188000000E+02 0.  0.
    9900012    2    3    3    0    0 -0.22575326399E+02 -0.29086952893E+02 -0.29093777510E+00  0.54367070688E+02  0.39999969247E+02 0.  0.
         12    1    3    3    0    0  0.22575326399E+02  0.29086952893E+02  0.29093777510E+00  0.36820929312E+02  0.00000000000E+00 0. -1.
         11    1    4    4    0    0  0.71929371247E+00  0.16949739560E+01  0.13723050677E+01  0.22964193032E+01  0.51100000000E-03 0. -1.
        -11    1    4    4    0    0 -0.28043808684E+02 -0.18055034503E+02 -0.11520567582E+02  0.35286866595E+02  0.51100000000E-03 0.  1.
        -12    1    4    4    0    0  0.47491885722E+01 -0.12726892346E+02  0.98573247388E+01  0.16783784790E+02  0.00000000000E+00 0.  1.
</event>
<event>
 8    1  0.1229941E-006  0.9118800E+02  0.7816164E-02  0.1184000E+00
        -11   -1    0    0    0    0  0.00000000000E+00  0.00000000000E+00  0.45593999997E+02  0.45594000000E+02  0.51100000000E-03 0.  1.
         11   -1    0    0    0    0 -0.00000000000E+00 -0.00000000000E+00 -0.45593999997E+02  0.45594000000E+02  0.51100000000E-03 0. -1.
         23    2    1    2    0    0  0.00000000000E+00 -0.17763568394E-14 -0.88817841970E-15  0.91188000000E+02  0.91188000000E+02 0.  0.
    9900012    2    3    3    0    0 -0.34266869746E+02 -0.13135425121E+02 -0.30036307042E+01  0.54367088106E+02  0.40000008954E+02 0.  0.
         12    1    3    3    0    0  0.34266869746E+02  0.13135425121E+02  0.30036307042E+01  0.36820911894E+02  0.00000000000E+00 0. -1.
         11    1    4    4    0    0 -0.21779117273E+02  0.44373544257E+01  0.12076450619E+01  0.22259345686E+02  0.51100000000E-03 0. -1.
        -11    1    4    4    0    0 -0.66077682697E+01  0.47157164207E+01 -0.40134241903E+01  0.90558355141E+01  0.51100000000E-03 0.  1.
        -12    1    4    4    0    0 -0.58799842033E+01 -0.22288495968E+02 -0.19785157587E+00  0.23051906905E+02  0.00000000000E+00 0.  1.
</event>
<event>
 8    1  0.1229941E-006  0.9118800E+02  0.7816164E-02  0.1184000E+00
        -11   -1    0    0    0    0  0.00000000000E+00  0.00000000000E+00  0.45593999997E+02  0.45594000000E+02  0.51100000000E-03 0.  1.
         11   -1    0    0    0    0 -0.00000000000E+00 -0.00000000000E+00 -0.45593999997E+02  0.45594000000E+02  0.51100000000E-03 0. -1.
         23    2    1    2    0    0 -0.88817841970E-15  0.00000000000E+00  0.00000000000E+00  0.91188000000E+02  0.91188000000E+02 0.  0.
    9900012    2    3    3    0    0  0.78951367022E+01 -0.15201261123E+02  0.32594003407E+02  0.54367074137E+02  0.39999977110E+02 0.  0.
         12    1    3    3    0    0 -0.78951367022E+01  0.15201261123E+02 -0.32594003407E+02  0.36820925863E+02  0.00000000000E+00 0. -1.
         11    1    4    4    0    0  0.42867751712E+00 -0.14745773926E+02  0.65949007590E+01  0.16159032439E+02  0.51100000000E-03 0. -1.
        -11    1    4    4    0    0 -0.55460516471E+01  0.42188575513E+00  0.24449576210E+02  0.25074258784E+02  0.51100000000E-03 0.  1.
        -12    1    4    4    0    0  0.13012510832E+02 -0.87737295275E+00  0.15495264388E+01  0.13133782914E+02  0.00000000000E+00 0.  1.
</event>
<event>
 8    1  0.1229941E-006  0.9118800E+02  0.7816164E-02  0.1184000E+00
        -11   -1    0    0    0    0  0.00000000000E+00  0.00000000000E+00  0.45593999997E+02  0.45594000000E+02  0.51100000000E-03 0.  1.
         11   -1    0    0    0    0 -0.00000000000E+00 -0.00000000000E+00 -0.45593999997E+02  0.45594000000E+02  0.51100000000E-03 0. -1.
         23    2    1    2    0    0  0.00000000000E+00  0.00000000000E+00 -0.17763568394E-14  0.91188000000E+02  0.91188000000E+02 0.  0.
    9900012    2    3    3    0    0 -0.17639629917E+02  0.30496906653E+02  0.10703330408E+02  0.54367093699E+02  0.40000021706E+02 0.  0.
         12    1    3    3    0    0  0.17639629917E+02 -0.30496906653E+02 -0.10703330408E+02  0.36820906301E+02  0.00000000000E+00 0. -1.
         11    1    4    4    0    0  0.53107596082E-01 -0.47246953085E+01  0.76044262433E+00  0.47857955891E+01  0.51100000000E-03 0. -1.
        -11    1    4    4    0    0 -0.21195116781E+02  0.14202323568E+02 -0.11861775941E+01  0.25541064731E+02  0.51100000000E-03 0.  1.
        -12    1    4    4    0    0  0.35023792678E+01  0.21019278393E+02  0.11129065378E+02  0.24040233379E+02  0.00000000000E+00 0.  1.
</event>
<event>
 8    1  0.1229941E-006  0.9118800E+02  0.7816164E-02  0.1184000E+00
        -11   -1    0    0    0    0  0.00000000000E+00  0.00000000000E+00  0.45593999997E+02  0.45594000000E+02  0.51100000000E-03 0.  1.
         11   -1    0    0    0    0 -0.00000000000E+00 -0.00000000000E+00 -0.45593999997E+02  0.45594000000E+02  0.51100000000E-03 0. -1.
         23    2    1    2    0    0  0.44408920985E-15  0.71054273576E-14  0.00000000000E+00  0.91188000000E+02  0.91188000000E+02 0.  0.
    9900012    2    3    3    0    0 -0.35699635561E+01  0.22885762584E+02  0.28623023583E+02  0.54367078666E+02  0.39999987435E+02 0.  0.
         12    1    3    3    0    0  0.35699635561E+01 -0.22885762584E+02 -0.28623023583E+02  0.36820921334E+02  0.00000000000E+00 0. -1.
         11    1    4    4    0    0 -0.44934127595E+01  0.28825279137E+01 -0.14063706356E+01  0.55206525000E+01  0.51100000000E-03 0. -1.
        -11    1    4    4    0    0  0.10509018031E+01 -0.34071394305E+01  0.24544020108E+02  0.24801651498E+02  0.51100000000E-03 0.  1.
         12    1    4    4    0    0 -0.12745259970E+00  0.23410374101E+02  0.54853741107E+01  0.24044774668E+02  0.00000000000E+00 0. -1.
</event>
<event>
 8    1  0.1229941E-006  0.9118800E+02  0.7816164E-02  0.1184000E+00
        -11   -1    0    0    0    0  0.00000000000E+00  0.00000000000E+00  0.45593999997E+02  0.45594000000E+02  0.51100000000E-03 0.  1.
         11   -1    0    0    0    0 -0.00000000000E+00 -0.00000000000E+00 -0.45593999997E+02  0.45594000000E+02  0.51100000000E-03 0. -1.
         23    2    1    2    0    0  0.00000000000E+00  0.00000000000E+00  0.00000000000E+00  0.91188000000E+02  0.91188000000E+02 0.  0.
    9900012    2    3    3    0    0 -0.30510854559E+02  0.16820387855E+02 -0.11914376786E+02  0.54366945320E+02  0.39999683446E+02 0.  0.
        -12    1    3    3    0    0  0.30510854559E+02 -0.16820387855E+02  0.11914376786E+02  0.36821054680E+02  0.00000000000E+00 0.  1.
         11    1    4    4    0    0 -0.30159289364E+01  0.53628322211E+01  0.95531084006E+01  0.11362995959E+02  0.51100000000E-03 0. -1.
        -11    1    4    4    0    0 -0.14854348342E+01  0.11122529879E+02 -0.72614161227E+01  0.13365827768E+02  0.51100000000E-03 0.  1.
         12    1    4    4    0    0 -0.26009490788E+02  0.33502575427E+00 -0.14206069064E+02  0.29638121593E+02  0.00000000000E+00 0. -1.
</event>
<event>
 8    1  0.1229941E-006  0.9118800E+02  0.7816164E-02  0.1184000E+00
        -11   -1    0    0    0    0  0.00000000000E+00  0.00000000000E+00  0.45593999997E+02  0.45594000000E+02  0.51100000000E-03 0.  1.
         11   -1    0    0    0    0 -0.00000000000E+00 -0.00000000000E+00 -0.45593999997E+02  0.45594000000E+02  0.51100000000E-03 0. -1.
         23    2    1    2    0    0  0.88817841970E-15  0.35527136788E-14  0.35527136788E-14  0.91188000000E+02  0.91188000000E+02 0.  0.
    9900012    2    3    3    0    0 -0.71565474075E+01 -0.20511330356E+02 -0.29729597155E+02  0.54367084874E+02  0.40000001586E+02 0.  0.
        -12    1    3    3    0    0  0.71565474075E+01  0.20511330356E+02  0.29729597155E+02  0.36820915126E+02  0.00000000000E+00 0.  1.
         11    1    4    4    0    0 -0.88241022346E+01  0.13516605262E+01 -0.10227966424E+02  0.13575826452E+02  0.51100000000E-03 0. -1.
        -11    1    4    4    0    0 -0.10842782590E+02 -0.20387088936E+02 -0.14313998140E+02  0.27167809492E+02  0.51100000000E-03 0.  1.
        -12    1    4    4    0    0  0.12510337417E+02 -0.14759019464E+01 -0.51876325908E+01  0.13623448930E+02  0.00000000000E+00 0.  1.
</event>
<event>
 8    1  0.1229941E-006  0.9118800E+02  0.7816164E-02  0.1184000E+00
        -11   -1    0    0    0    0  0.00000000000E+00  0.00000000000E+00  0.45593999997E+02  0.45594000000E+02  0.51100000000E-03 0.  1.
         11   -1    0    0    0    0 -0.00000000000E+00 -0.00000000000E+00 -0.45593999997E+02  0.45594000000E+02  0.51100000000E-03 0. -1.
         23    2    1    2    0    0  0.00000000000E+00  0.00000000000E+00  0.17763568394E-14  0.91188000000E+02  0.91188000000E+02 0.  0.
    9900012    2    3    3    0    0  0.22054060907E+02 -0.24982613557E+02 -0.15661097903E+02  0.54367047132E+02  0.39999915547E+02 0.  0.
        -12    1    3    3    0    0 -0.22054060907E+02  0.24982613557E+02  0.15661097903E+02  0.36820952868E+02  0.00000000000E+00 0.  1.
         11    1    4    4    0    0 -0.60453665768E+01 -0.33679634912E+01  0.19075556216E+01  0.71783287635E+01  0.51100000000E-03 0.  1.
        -11    1    4    4    0    0  0.12150367172E+02 -0.22744445571E+02 -0.17563584677E+02  0.31199691244E+02  0.51100000000E-03 0. -1.
        -12    1    4    4    0    0  0.15949060311E+02  0.11297955058E+01 -0.50688474456E-02  0.15989027125E+02  0.00000000000E+00 0.  1.
</event>
<event>
 8    1  0.1229941E-006  0.9118800E+02  0.7816164E-02  0.1184000E+00
        -11   -1    0    0    0    0  0.00000000000E+00  0.00000000000E+00  0.45593999997E+02  0.45594000000E+02  0.51100000000E-03 0. -1.
         11   -1    0    0    0    0 -0.00000000000E+00 -0.00000000000E+00 -0.45593999997E+02  0.45594000000E+02  0.51100000000E-03 0.  1.
         23    2    1    2    0    0 -0.17763568394E-14 -0.88817841970E-15 -0.71054273576E-14  0.91188000000E+02  0.91188000000E+02 0.  0.
    9900012    2    3    3    0    0 -0.85519315598E+01 -0.67613941841E+01 -0.35169979900E+02  0.54367089217E+02  0.40000011489E+02 0.  0.
         12    1    3    3    0    0  0.85519315598E+01  0.67613941841E+01  0.35169979900E+02  0.36820910783E+02  0.00000000000E+00 0. -1.
         11    1    4    4    0    0 -0.10864928357E+01  0.26978678894E+00 -0.10833661087E+02  0.10891348145E+02  0.51100000000E-03 0. -1.
        -11    1    4    4    0    0  0.28930462940E+01 -0.19495938497E+02 -0.11660582183E+02  0.22900447852E+02  0.51100000000E-03 0.  1.
         12    1    4    4    0    0 -0.10358485018E+02  0.12464757524E+02 -0.12675736630E+02  0.20575293220E+02  0.00000000000E+00 0. -1.
</event>
<event>
 8    1  0.1229941E-006  0.9118800E+02  0.7816164E-02  0.1184000E+00
        -11   -1    0    0    0    0  0.00000000000E+00  0.00000000000E+00  0.45593999997E+02  0.45594000000E+02  0.51100000000E-03 0.  1.
         11   -1    0    0    0    0 -0.00000000000E+00 -0.00000000000E+00 -0.45593999997E+02  0.45594000000E+02  0.51100000000E-03 0. -1.
         23    2    1    2    0    0  0.00000000000E+00 -0.17763568394E-14  0.00000000000E+00  0.91188000000E+02  0.91188000000E+02 0.  0.
    9900012    2    3    3    0    0  0.27148585104E+01  0.14688455987E+02  0.33654984446E+02  0.54367093247E+02  0.40000020676E+02 0.  0.
         12    1    3    3    0    0 -0.27148585104E+01 -0.14688455987E+02 -0.33654984446E+02  0.36820906753E+02  0.00000000000E+00 0. -1.
         11    1    4    4    0    0 -0.66845532838E+01  0.23391088716E+02  0.28238309149E+02  0.37272354202E+02  0.51100000000E-03 0. -1.
        -11    1    4    4    0    0  0.33580533637E+01  0.20109895720E+01  0.12773965468E+01  0.41173223885E+01  0.51100000000E-03 0.  1.
         12    1    4    4    0    0  0.60413584306E+01 -0.10713622301E+02  0.41392787508E+01  0.12977416657E+02  0.00000000000E+00 0. -1.
</event>
<event>
 8    1  0.1229941E-006  0.9118800E+02  0.7816164E-02  0.1184000E+00
        -11   -1    0    0    0    0  0.00000000000E+00  0.00000000000E+00  0.45593999997E+02  0.45594000000E+02  0.51100000000E-03 0.  1.
         11   -1    0    0    0    0 -0.00000000000E+00 -0.00000000000E+00 -0.45593999997E+02  0.45594000000E+02  0.51100000000E-03 0. -1.
         23    2    1    2    0    0  0.00000000000E+00  0.17763568394E-14  0.35527136788E-14  0.91188000000E+02  0.91188000000E+02 0.  0.
    9900012    2    3    3    0    0  0.16529593937E+02 -0.97173212917E+01  0.31434489213E+02  0.54367069527E+02  0.39999966600E+02 0.  0.
         12    1    3    3    0    0 -0.16529593937E+02  0.97173212917E+01 -0.31434489213E+02  0.36820930473E+02  0.00000000000E+00 0. -1.
         11    1    4    4    0    0 -0.16111191054E+01 -0.54473145517E+01 -0.15554069806E+01  0.58896716151E+01  0.51100000000E-03 0. -1.
        -11    1    4    4    0    0 -0.24652497970E+01 -0.38852514702E+01 -0.40238814418E+01  0.61126309939E+01  0.51100000000E-03 0.  1.
        -12    1    4    4    0    0  0.20605962839E+02 -0.38475526979E+00  0.37013777636E+02  0.42364766918E+02  0.00000000000E+00 0.  1.
</event>
<event>
 8    1  0.1229941E-006  0.9118800E+02  0.7816164E-02  0.1184000E+00
        -11   -1    0    0    0    0  0.00000000000E+00  0.00000000000E+00  0.45593999997E+02  0.45594000000E+02  0.51100000000E-03 0. -1.
         11   -1    0    0    0    0 -0.00000000000E+00 -0.00000000000E+00 -0.45593999997E+02  0.45594000000E+02  0.51100000000E-03 0.  1.
         23    2    1    2    0    0  0.17763568394E-14  0.00000000000E+00  0.53290705182E-14  0.91188000000E+02  0.91188000000E+02 0.  0.
    9900012    2    3    3    0    0 -0.12047932946E+02 -0.33370856299E+02 -0.98495284668E+01  0.54367082719E+02  0.39999996675E+02 0.  0.
         12    1    3    3    0    0  0.12047932946E+02  0.33370856299E+02  0.98495284668E+01  0.36820917281E+02  0.00000000000E+00 0. -1.
         11    1    4    4    0    0 -0.27260674133E+01 -0.22533206909E+02  0.61805051893E+01  0.23523934658E+02  0.51100000000E-03 0. -1.
        -11    1    4    4    0    0 -0.78726661178E+01 -0.17526477890E+02 -0.97112332890E+01  0.21528222204E+02  0.51100000000E-03 0.  1.
         12    1    4    4    0    0 -0.14491994149E+01  0.66888284997E+01 -0.63188003670E+01  0.93149258570E+01  0.00000000000E+00 0. -1.
</event>
<event>
 8    1  0.1229941E-006  0.9118800E+02  0.7816164E-02  0.1184000E+00
        -11   -1    0    0    0    0  0.00000000000E+00  0.00000000000E+00  0.45593999997E+02  0.45594000000E+02  0.51100000000E-03 0.  1.
         11   -1    0    0    0    0 -0.00000000000E+00 -0.00000000000E+00 -0.45593999997E+02  0.45594000000E+02  0.51100000000E-03 0. -1.
         23    2    1    2    0    0  0.00000000000E+00  0.00000000000E+00 -0.44408920985E-15  0.91188000000E+02  0.91188000000E+02 0.  0.
    9900012    2    3    3    0    0  0.36658237877E+02  0.32772232088E+01  0.11012430565E+01  0.54367091096E+02  0.40000015772E+02 0.  0.
        -12    1    3    3    0    0 -0.36658237877E+02 -0.32772232088E+01 -0.11012430565E+01  0.36820908904E+02  0.00000000000E+00 0.  1.
         11    1    4    4    0    0  0.13207684343E+02  0.72693054945E+01  0.29298023222E+01  0.15358042518E+02  0.51100000000E-03 0.  1.
        -11    1    4    4    0    0  0.83577671729E+01  0.55078437059E+01 -0.14150326757E+02  0.17332638633E+02  0.51100000000E-03 0. -1.
        -12    1    4    4    0    0  0.15092786361E+02 -0.94999259915E+01  0.12321767491E+02  0.21676409945E+02  0.00000000000E+00 0.  1.
</event>
<event>
 8    1  0.1229941E-006  0.9118800E+02  0.7816164E-02  0.1184000E+00
        -11   -1    0    0    0    0  0.00000000000E+00  0.00000000000E+00  0.45593999997E+02  0.45594000000E+02  0.51100000000E-03 0.  1.
         11   -1    0    0    0    0 -0.00000000000E+00 -0.00000000000E+00 -0.45593999997E+02  0.45594000000E+02  0.51100000000E-03 0. -1.
         23    2    1    2    0    0  0.88817841970E-15 -0.71054273576E-14  0.00000000000E+00  0.91188000000E+02  0.91188000000E+02 0.  0.
    9900012    2    3    3    0    0 -0.48026105285E+01 -0.33504823205E+02  0.14496271037E+02  0.54367080405E+02  0.39999991399E+02 0.  0.
         12    1    3    3    0    0  0.48026105285E+01  0.33504823205E+02 -0.14496271037E+02  0.36820919595E+02  0.00000000000E+00 0. -1.
         11    1    4    4    0    0 -0.16564304690E-01 -0.94984118671E+01  0.32819773391E+01  0.10049451621E+02  0.51100000000E-03 0. -1.
        -11    1    4    4    0    0  0.36541061629E+01 -0.27674396398E+02 -0.22540662354E+01  0.28005455231E+02  0.51100000000E-03 0.  1.
         12    1    4    4    0    0 -0.84401523867E+01  0.36679850609E+01  0.13468359933E+02  0.16312173552E+02  0.00000000000E+00 0. -1.
</event>
<event>
 8    1  0.1229941E-006  0.9118800E+02  0.7816164E-02  0.1184000E+00
        -11   -1    0    0    0    0  0.00000000000E+00  0.00000000000E+00  0.45593999997E+02  0.45594000000E+02  0.51100000000E-03 0.  1.
         11   -1    0    0    0    0 -0.00000000000E+00 -0.00000000000E+00 -0.45593999997E+02  0.45594000000E+02  0.51100000000E-03 0. -1.
         23    2    1    2    0    0  0.00000000000E+00  0.13322676296E-14  0.00000000000E+00  0.91188000000E+02  0.91188000000E+02 0.  0.
    9900012    2    3    3    0    0  0.34759153079E+02 -0.19944295568E+01 -0.11983484918E+02  0.54367076834E+02  0.39999983258E+02 0.  0.
        -12    1    3    3    0    0 -0.34759153079E+02  0.19944295568E+01  0.11983484918E+02  0.36820923166E+02  0.00000000000E+00 0.  1.
         11    1    4    4    0    0  0.74653300035E+01 -0.45034994580E+01 -0.10975389303E+02  0.14016840944E+02  0.51100000000E-03 0. -1.
        -11    1    4    4    0    0  0.84892017809E+01 -0.13226516212E+02 -0.17890546076E+01  0.15817964302E+02  0.51100000000E-03 0.  1.
         12    1    4    4    0    0  0.18804621294E+02  0.15735586114E+02  0.78095899194E+00  0.24532271589E+02  0.00000000000E+00 0. -1.
</event>
<event>
 8    1  0.1229941E-006  0.9118800E+02  0.7816164E-02  0.1184000E+00
        -11   -1    0    0    0    0  0.00000000000E+00  0.00000000000E+00  0.45593999997E+02  0.45594000000E+02  0.51100000000E-03 0. -1.
         11   -1    0    0    0    0 -0.00000000000E+00 -0.00000000000E+00 -0.45593999997E+02  0.45594000000E+02  0.51100000000E-03 0.  1.
         23    2    1    2    0    0  0.00000000000E+00  0.88817841970E-15  0.00000000000E+00  0.91188000000E+02  0.91188000000E+02 0.  0.
    9900012    2    3    3    0    0  0.31453980241E+02  0.78609290211E+01 -0.17453721974E+02  0.54367088973E+02  0.40000010932E+02 0.  0.
         12    1    3    3    0    0 -0.31453980241E+02 -0.78609290211E+01  0.17453721974E+02  0.36820911027E+02  0.00000000000E+00 0. -1.
         11    1    4    4    0    0 -0.35983679483E+01  0.79575681439E+01  0.42240442062E+01  0.97012211795E+01  0.51100000000E-03 0. -1.
        -11    1    4    4    0    0  0.92840468326E+01 -0.61234000101E+01 -0.12317683194E+02  0.16595628123E+02  0.51100000000E-03 0.  1.
        -12    1    4    4    0    0  0.25768301357E+02  0.60267608873E+01 -0.93600829863E+01  0.28070239670E+02  0.00000000000E+00 0.  1.
</event>
<event>
 8    1  0.1229941E-006  0.9118800E+02  0.7816164E-02  0.1184000E+00
        -11   -1    0    0    0    0  0.00000000000E+00  0.00000000000E+00  0.45593999997E+02  0.45594000000E+02  0.51100000000E-03 0.  1.
         11   -1    0    0    0    0 -0.00000000000E+00 -0.00000000000E+00 -0.45593999997E+02  0.45594000000E+02  0.51100000000E-03 0. -1.
         23    2    1    2    0    0  0.00000000000E+00  0.00000000000E+00  0.22204460493E-15  0.91188000000E+02  0.91188000000E+02 0.  0.
    9900012    2    3    3    0    0  0.36085317837E+02  0.70815541457E+01 -0.18658994753E+01  0.54367079949E+02  0.39999990360E+02 0.  0.
        -12    1    3    3    0    0 -0.36085317837E+02 -0.70815541457E+01  0.18658994753E+01  0.36820920051E+02  0.00000000000E+00 0.  1.
         11    1    4    4    0    0  0.37631865407E+01 -0.65612570721E+01 -0.35975425353E+01  0.83757972672E+01  0.51100000000E-03 0. -1.
        -11    1    4    4    0    0  0.37600779391E+02  0.85104234182E+01  0.21948220912E+01  0.38614287017E+02  0.51100000000E-03 0.  1.
        -12    1    4    4    0    0 -0.52786480943E+01  0.51323877996E+01 -0.46317903120E+00  0.73769956652E+01  0.00000000000E+00 0.  1.
</event>
<event>
 8    1  0.1229941E-006  0.9118800E+02  0.7816164E-02  0.1184000E+00
        -11   -1    0    0    0    0  0.00000000000E+00  0.00000000000E+00  0.45593999997E+02  0.45594000000E+02  0.51100000000E-03 0. -1.
         11   -1    0    0    0    0 -0.00000000000E+00 -0.00000000000E+00 -0.45593999997E+02  0.45594000000E+02  0.51100000000E-03 0.  1.
         23    2    1    2    0    0  0.00000000000E+00  0.00000000000E+00  0.00000000000E+00  0.91188000000E+02  0.91188000000E+02 0.  0.
    9900012    2    3    3    0    0 -0.16128496726E+02  0.25014020203E+02  0.21678366323E+02  0.54367066012E+02  0.39999958587E+02 0.  0.
        -12    1    3    3    0    0  0.16128496726E+02 -0.25014020203E+02 -0.21678366323E+02  0.36820933988E+02  0.00000000000E+00 0.  1.
         11    1    4    4    0    0 -0.38724307269E+00  0.38148282228E+01  0.10012359461E+02  0.10721483750E+02  0.51100000000E-03 0. -1.
        -11    1    4    4    0    0 -0.98392922593E+01  0.22350749018E-01  0.18218712963E+02  0.20705885009E+02  0.51100000000E-03 0.  1.
        -12    1    4    4    0    0 -0.59019613939E+01  0.21176841231E+02 -0.65527061006E+01  0.22939697253E+02  0.00000000000E+00 0.  1.
</event>
<event>
 8    1  0.1229941E-006  0.9118800E+02  0.7816164E-02  0.1184000E+00
        -11   -1    0    0    0    0  0.00000000000E+00  0.00000000000E+00  0.45593999997E+02  0.45594000000E+02  0.51100000000E-03 0.  1.
         11   -1    0    0    0    0 -0.00000000000E+00 -0.00000000000E+00 -0.45593999997E+02  0.45594000000E+02  0.51100000000E-03 0. -1.
         23    2    1    2    0    0  0.00000000000E+00  0.00000000000E+00 -0.35527136788E-14  0.91188000000E+02  0.91188000000E+02 0.  0.
    9900012    2    3    3    0    0  0.12639521362E+02 -0.20558349046E+02  0.27809653117E+02  0.54367081730E+02  0.39999994419E+02 0.  0.
         12    1    3    3    0    0 -0.12639521362E+02  0.20558349046E+02 -0.27809653117E+02  0.36820918270E+02  0.00000000000E+00 0. -1.
         11    1    4    4    0    0 -0.52461621318E+01  0.28445201289E+01 -0.17223234907E+01  0.62112728442E+01  0.51100000000E-03 0. -1.
        -11    1    4    4    0    0  0.27714428257E+01 -0.16567629230E+02  0.32997175267E+01  0.17118860057E+02  0.51100000000E-03 0.  1.
        -12    1    4    4    0    0  0.15114240669E+02 -0.68352399458E+01  0.26232259081E+02  0.31036948829E+02  0.00000000000E+00 0.  1.
</event>
<event>
 8    1  0.1229941E-006  0.9118800E+02  0.7816164E-02  0.1184000E+00
        -11   -1    0    0    0    0  0.00000000000E+00  0.00000000000E+00  0.45593999997E+02  0.45594000000E+02  0.51100000000E-03 0.  1.
         11   -1    0    0    0    0 -0.00000000000E+00 -0.00000000000E+00 -0.45593999997E+02  0.45594000000E+02  0.51100000000E-03 0. -1.
         23    2    1    2    0    0  0.00000000000E+00  0.00000000000E+00 -0.35527136788E-14  0.91188000000E+02  0.91188000000E+02 0.  0.
    9900012    2    3    3    0    0  0.96699397717E+01 -0.26224451833E+02 -0.23969826105E+02  0.54367052529E+02  0.39999927851E+02 0.  0.
        -12    1    3    3    0    0 -0.96699397717E+01  0.26224451833E+02  0.23969826105E+02  0.36820947471E+02  0.00000000000E+00 0.  1.
         11    1    4    4    0    0  0.54167332033E+01 -0.28546188019E+02 -0.25649372880E+02  0.38757143579E+02  0.51100000000E-03 0. -1.
        -11    1    4    4    0    0  0.56007430855E+01  0.79539417883E+01  0.10196550053E+01  0.97812683059E+01  0.51100000000E-03 0.  1.
         12    1    4    4    0    0 -0.13475365170E+01 -0.56322056020E+01  0.65989176964E+00  0.58286406439E+01  0.00000000000E+00 0. -1.
</event>
<event>
 8    1  0.1229941E-006  0.9118800E+02  0.7816164E-02  0.1184000E+00
        -11   -1    0    0    0    0  0.00000000000E+00  0.00000000000E+00  0.45593999997E+02  0.45594000000E+02  0.51100000000E-03 0.  1.
         11   -1    0    0    0    0 -0.00000000000E+00 -0.00000000000E+00 -0.45593999997E+02  0.45594000000E+02  0.51100000000E-03 0. -1.
         23    2    1    2    0    0  0.00000000000E+00 -0.17763568394E-14  0.00000000000E+00  0.91188000000E+02  0.91188000000E+02 0.  0.
    9900012    2    3    3    0    0 -0.19061617085E+02 -0.11940979370E+02 -0.29152139319E+02  0.54367089350E+02  0.40000011792E+02 0.  0.
        -12    1    3    3    0    0  0.19061617085E+02  0.11940979370E+02  0.29152139319E+02  0.36820910650E+02  0.00000000000E+00 0.  1.
         11    1    4    4    0    0 -0.22482861165E+02 -0.41601373496E+01 -0.18406450629E+02  0.29352737759E+02  0.51100000000E-03 0.  1.
        -11    1    4    4    0    0  0.80538036078E+01 -0.18078013582E+01  0.34384747939E+01  0.89417563975E+01  0.51100000000E-03 0. -1.
         12    1    4    4    0    0 -0.46325595280E+01 -0.59730406624E+01 -0.14184163483E+02  0.16072595194E+02  0.00000000000E+00 0. -1.
</event>
<event>
 8    1  0.1229941E-006  0.9118800E+02  0.7816164E-02  0.1184000E+00
        -11   -1    0    0    0    0  0.00000000000E+00  0.00000000000E+00  0.45593999997E+02  0.45594000000E+02  0.51100000000E-03 0. -1.
         11   -1    0    0    0    0 -0.00000000000E+00 -0.00000000000E+00 -0.45593999997E+02  0.45594000000E+02  0.51100000000E-03 0.  1.
         23    2    1    2    0    0  0.35527136788E-14  0.00000000000E+00 -0.88817841970E-15  0.91188000000E+02  0.91188000000E+02 0.  0.
    9900012    2    3    3    0    0  0.25994862481E+02 -0.25948665147E+02 -0.25911124620E+01  0.54367082547E+02  0.39999996282E+02 0.  0.
         12    1    3    3    0    0 -0.25994862481E+02  0.25948665147E+02  0.25911124620E+01  0.36820917453E+02  0.00000000000E+00 0. -1.
         11    1    4    4    0    0  0.40261012230E+00  0.74368113928E+01 -0.33574069174E+00  0.74552652988E+01  0.51100000000E-03 0. -1.
        -11    1    4    4    0    0  0.13111120364E+02 -0.92905414070E+01 -0.97046771489E+01  0.18772224047E+02  0.51100000000E-03 0.  1.
         12    1    4    4    0    0  0.12481131995E+02 -0.24094935133E+02  0.74493053786E+01  0.28139593201E+02  0.00000000000E+00 0. -1.
</event>
<event>
 8    1  0.1229941E-006  0.9118800E+02  0.7816164E-02  0.1184000E+00
        -11   -1    0    0    0    0  0.00000000000E+00  0.00000000000E+00  0.45593999997E+02  0.45594000000E+02  0.51100000000E-03 0. -1.
         11   -1    0    0    0    0 -0.00000000000E+00 -0.00000000000E+00 -0.45593999997E+02  0.45594000000E+02  0.51100000000E-03 0.  1.
         23    2    1    2    0    0  0.00000000000E+00  0.00000000000E+00  0.00000000000E+00  0.91188000000E+02  0.91188000000E+02 0.  0.
    9900012    2    3    3    0    0 -0.13210135589E+02 -0.10086564852E+02  0.32856174085E+02  0.54367154704E+02  0.40000160779E+02 0.  0.
        -12    1    3    3    0    0  0.13210135589E+02  0.10086564852E+02 -0.32856174085E+02  0.36820845296E+02  0.00000000000E+00 0.  1.
         11    1    4    4    0    0 -0.21965169195E+02 -0.10597437804E+02  0.28621987423E+02  0.37603091762E+02  0.51100000000E-03 0. -1.
        -11    1    4    4    0    0  0.39062961261E+01  0.35262658457E+01 -0.40933317731E+01  0.66670132372E+01  0.51100000000E-03 0.  1.
        -12    1    4    4    0    0  0.48487374799E+01 -0.30153928938E+01  0.83275184350E+01  0.10097049705E+02  0.00000000000E+00 0.  1.
</event>
<event>
 8    1  0.1229941E-006  0.9118800E+02  0.7816164E-02  0.1184000E+00
        -11   -1    0    0    0    0  0.00000000000E+00  0.00000000000E+00  0.45593999997E+02  0.45594000000E+02  0.51100000000E-03 0. -1.
         11   -1    0    0    0    0 -0.00000000000E+00 -0.00000000000E+00 -0.45593999997E+02  0.45594000000E+02  0.51100000000E-03 0.  1.
         23    2    1    2    0    0  0.00000000000E+00  0.00000000000E+00  0.00000000000E+00  0.91188000000E+02  0.91188000000E+02 0.  0.
    9900012    2    3    3    0    0 -0.33489910549E+02 -0.15619372325E+01  0.15223849524E+02  0.54367090848E+02  0.40000015206E+02 0.  0.
        -12    1    3    3    0    0  0.33489910549E+02  0.15619372325E+01 -0.15223849524E+02  0.36820909152E+02  0.00000000000E+00 0.  1.
         11    1    4    4    0    0  0.52056978511E+01  0.50551056892E+01  0.38482664403E+00  0.72664623754E+01  0.51100000000E-03 0.  1.
        -11    1    4    4    0    0 -0.34230141802E+02 -0.90141939741E+01  0.46246338810E+01  0.35697976688E+02  0.51100000000E-03 0. -1.
         12    1    4    4    0    0 -0.44654665974E+01  0.23971510524E+01  0.10214388999E+02  0.11402651785E+02  0.00000000000E+00 0. -1.
</event>
<event>
 8    1  0.1229941E-006  0.9118800E+02  0.7816164E-02  0.1184000E+00
        -11   -1    0    0    0    0  0.00000000000E+00  0.00000000000E+00  0.45593999997E+02  0.45594000000E+02  0.51100000000E-03 0. -1.
         11   -1    0    0    0    0 -0.00000000000E+00 -0.00000000000E+00 -0.45593999997E+02  0.45594000000E+02  0.51100000000E-03 0.  1.
         23    2    1    2    0    0  0.00000000000E+00 -0.88817841970E-15  0.17763568394E-14  0.91188000000E+02  0.91188000000E+02 0.  0.
    9900012    2    3    3    0    0  0.35556127880E+02 -0.53427065231E+01  0.79370851090E+01  0.54367081179E+02  0.39999993163E+02 0.  0.
        -12    1    3    3    0    0 -0.35556127880E+02  0.53427065231E+01 -0.79370851090E+01  0.36820918821E+02  0.00000000000E+00 0.  1.
         11    1    4    4    0    0  0.31892104811E+01 -0.73946319040E+01 -0.31627823741E+01  0.86518689943E+01  0.51100000000E-03 0. -1.
        -11    1    4    4    0    0  0.15294279705E+02  0.14723151577E+02 -0.99858494811E+00  0.21252843485E+02  0.51100000000E-03 0.  1.
         12    1    4    4    0    0  0.17072637694E+02 -0.12671226196E+02  0.12098452431E+02  0.24462368699E+02  0.00000000000E+00 0. -1.
</event>
<event>
 8    1  0.1229941E-006  0.9118800E+02  0.7816164E-02  0.1184000E+00
        -11   -1    0    0    0    0  0.00000000000E+00  0.00000000000E+00  0.45593999997E+02  0.45594000000E+02  0.51100000000E-03 0.  1.
         11   -1    0    0    0    0 -0.00000000000E+00 -0.00000000000E+00 -0.45593999997E+02  0.45594000000E+02  0.51100000000E-03 0. -1.
         23    2    1    2    0    0  0.71054273576E-14 -0.17763568394E-14  0.17763568394E-14  0.91188000000E+02  0.91188000000E+02 0.  0.
    9900012    2    3    3    0    0 -0.32463706879E+02  0.12942064257E+02 -0.11592678015E+02  0.54367089159E+02  0.40000011357E+02 0.  0.
         12    1    3    3    0    0  0.32463706879E+02 -0.12942064257E+02  0.11592678015E+02  0.36820910841E+02  0.00000000000E+00 0. -1.
         11    1    4    4    0    0 -0.92842601940E+01  0.13351070484E+02 -0.13724344884E+02  0.21279243717E+02  0.51100000000E-03 0. -1.
        -11    1    4    4    0    0  0.11693570311E+01  0.46247749936E+01 -0.53064336312E+01  0.71354171393E+01  0.51100000000E-03 0.  1.
        -12    1    4    4    0    0 -0.24348803716E+02 -0.50337812205E+01  0.74381005000E+01  0.25952428303E+02  0.00000000000E+00 0.  1.
</event>
<event>
 8    1  0.1229941E-006  0.9118800E+02  0.7816164E-02  0.1184000E+00
        -11   -1    0    0    0    0  0.00000000000E+00  0.00000000000E+00  0.45593999997E+02  0.45594000000E+02  0.51100000000E-03 0.  1.
         11   -1    0    0    0    0 -0.00000000000E+00 -0.00000000000E+00 -0.45593999997E+02  0.45594000000E+02  0.51100000000E-03 0. -1.
         23    2    1    2    0    0  0.00000000000E+00  0.00000000000E+00  0.00000000000E+00  0.91188000000E+02  0.91188000000E+02 0.  0.
    9900012    2    3    3    0    0 -0.18746867035E+02 -0.16489432789E+02 -0.27063505546E+02  0.54367085430E+02  0.40000002855E+02 0.  0.
        -12    1    3    3    0    0  0.18746867035E+02  0.16489432789E+02  0.27063505546E+02  0.36820914570E+02  0.00000000000E+00 0.  1.
         11    1    4    4    0    0  0.13637165991E+01 -0.10257730362E+02 -0.83294823264E+01  0.13283863565E+02  0.51100000000E-03 0. -1.
        -11    1    4    4    0    0 -0.19296645687E+02 -0.12421180268E+02 -0.23786437826E+02  0.33052093409E+02  0.51100000000E-03 0.  1.
        -12    1    4    4    0    0 -0.81393794695E+00  0.61894778407E+01  0.50524146060E+01  0.80311284558E+01  0.00000000000E+00 0.  1.
</event>
<event>
 8    1  0.1229941E-006  0.9118800E+02  0.7816164E-02  0.1184000E+00
        -11   -1    0    0    0    0  0.00000000000E+00  0.00000000000E+00  0.45593999997E+02  0.45594000000E+02  0.51100000000E-03 0. -1.
         11   -1    0    0    0    0 -0.00000000000E+00 -0.00000000000E+00 -0.45593999997E+02  0.45594000000E+02  0.51100000000E-03 0.  1.
         23    2    1    2    0    0  0.35527136788E-14  0.00000000000E+00  0.00000000000E+00  0.91188000000E+02  0.91188000000E+02 0.  0.
    9900012    2    3    3    0    0  0.18475370563E+02  0.24052871445E+02 -0.20878251438E+02  0.54367064036E+02  0.39999954082E+02 0.  0.
         12    1    3    3    0    0 -0.18475370563E+02 -0.24052871445E+02  0.20878251438E+02  0.36820935964E+02  0.00000000000E+00 0. -1.
         11    1    4    4    0    0  0.10351229557E+02  0.16748702789E+02  0.51359579980E+01  0.20348097289E+02  0.51100000000E-03 0. -1.
        -11    1    4    4    0    0 -0.78956309854E+00 -0.53805480499E+01 -0.28346225888E+01  0.61326008093E+01  0.51100000000E-03 0.  1.
        -12    1    4    4    0    0  0.89137041048E+01  0.12684716705E+02 -0.23179586848E+02  0.27886365937E+02  0.00000000000E+00 0.  1.
</event>
<event>
 8    1  0.1229941E-006  0.9118800E+02  0.7816164E-02  0.1184000E+00
        -11   -1    0    0    0    0  0.00000000000E+00  0.00000000000E+00  0.45593999997E+02  0.45594000000E+02  0.51100000000E-03 0. -1.
         11   -1    0    0    0    0 -0.00000000000E+00 -0.00000000000E+00 -0.45593999997E+02  0.45594000000E+02  0.51100000000E-03 0.  1.
         23    2    1    2    0    0  0.00000000000E+00 -0.88817841970E-15  0.00000000000E+00  0.91188000000E+02  0.91188000000E+02 0.  0.
    9900012    2    3    3    0    0  0.33333891311E+02  0.62138570478E+01  0.14353356766E+02  0.54367093169E+02  0.40000020498E+02 0.  0.
        -12    1    3    3    0    0 -0.33333891311E+02 -0.62138570478E+01 -0.14353356766E+02  0.36820906831E+02  0.00000000000E+00 0.  1.
         11    1    4    4    0    0  0.10026694946E+02  0.56858891405E+01 -0.30711756092E+01  0.11928791504E+02  0.51100000000E-03 0. -1.
        -11    1    4    4    0    0  0.13513104564E+02 -0.10447927626E+02 -0.29238498361E+01  0.17329514845E+02  0.51100000000E-03 0.  1.
        -12    1    4    4    0    0  0.97940918014E+01  0.10975895533E+02  0.20348382212E+02  0.25108786821E+02  0.00000000000E+00 0.  1.
</event>
<event>
 8    1  0.1229941E-006  0.9118800E+02  0.7816164E-02  0.1184000E+00
        -11   -1    0    0    0    0  0.00000000000E+00  0.00000000000E+00  0.45593999997E+02  0.45594000000E+02  0.51100000000E-03 0.  1.
         11   -1    0    0    0    0 -0.00000000000E+00 -0.00000000000E+00 -0.45593999997E+02  0.45594000000E+02  0.51100000000E-03 0. -1.
         23    2    1    2    0    0  0.00000000000E+00  0.00000000000E+00  0.00000000000E+00  0.91188000000E+02  0.91188000000E+02 0.  0.
    9900012    2    3    3    0    0 -0.13578930917E+02  0.32880164384E+02  0.95020080066E+01  0.54367072107E+02  0.39999972482E+02 0.  0.
         12    1    3    3    0    0  0.13578930917E+02 -0.32880164384E+02 -0.95020080066E+01  0.36820927893E+02  0.00000000000E+00 0. -1.
         11    1    4    4    0    0 -0.87172361154E+01 -0.32766681241E+00 -0.69364926760E+01  0.11145066260E+02  0.51100000000E-03 0. -1.
        -11    1    4    4    0    0 -0.58157107457E+01  0.32066465703E+02  0.65740662138E+01  0.33246038275E+02  0.51100000000E-03 0.  1.
        -12    1    4    4    0    0  0.95401594413E+00  0.11413654935E+01  0.98644344688E+01  0.99759675721E+01  0.00000000000E+00 0.  1.
</event>
<event>
 8    1  0.1229941E-006  0.9118800E+02  0.7816164E-02  0.1184000E+00
        -11   -1    0    0    0    0  0.00000000000E+00  0.00000000000E+00  0.45593999997E+02  0.45594000000E+02  0.51100000000E-03 0. -1.
         11   -1    0    0    0    0 -0.00000000000E+00 -0.00000000000E+00 -0.45593999997E+02  0.45594000000E+02  0.51100000000E-03 0.  1.
         23    2    1    2    0    0  0.35527136788E-14 -0.44408920985E-15  0.00000000000E+00  0.91188000000E+02  0.91188000000E+02 0.  0.
    9900012    2    3    3    0    0  0.24802664169E+02 -0.38496379393E+01  0.26940429768E+02  0.54367100795E+02  0.40000037883E+02 0.  0.
        -12    1    3    3    0    0 -0.24802664169E+02  0.38496379393E+01 -0.26940429768E+02  0.36820899205E+02  0.00000000000E+00 0.  1.
         11    1    4    4    0    0  0.59390775122E+01 -0.77010076699E+01  0.17505651682E+02  0.20025633621E+02  0.51100000000E-03 0. -1.
        -11    1    4    4    0    0 -0.56692821414E+01 -0.39689263142E+01  0.65588837182E-02  0.69204898213E+01  0.51100000000E-03 0.  1.
         12    1    4    4    0    0  0.24532868798E+02  0.78202960448E+01  0.94282192023E+01  0.27420977353E+02  0.00000000000E+00 0. -1.
</event>
<event>
 8    1  0.1229941E-006  0.9118800E+02  0.7816164E-02  0.1184000E+00
        -11   -1    0    0    0    0  0.00000000000E+00  0.00000000000E+00  0.45593999997E+02  0.45594000000E+02  0.51100000000E-03 0.  1.
         11   -1    0    0    0    0 -0.00000000000E+00 -0.00000000000E+00 -0.45593999997E+02  0.45594000000E+02  0.51100000000E-03 0. -1.
         23    2    1    2    0    0  0.00000000000E+00  0.00000000000E+00  0.00000000000E+00  0.91188000000E+02  0.91188000000E+02 0.  0.
    9900012    2    3    3    0    0  0.24082827361E+02 -0.23146342549E+02  0.15493397486E+02  0.54367066922E+02  0.39999960662E+02 0.  0.
         12    1    3    3    0    0 -0.24082827361E+02  0.23146342549E+02 -0.15493397486E+02  0.36820933078E+02  0.00000000000E+00 0. -1.
         11    1    4    4    0    0 -0.25724398610E+01  0.27511282218E+01 -0.65613333868E+00  0.38231746691E+01  0.51100000000E-03 0. -1.
        -11    1    4    4    0    0  0.15996661205E+02  0.13996656949E+01 -0.18329899754E+01  0.16162056994E+02  0.51100000000E-03 0.  1.
        -12    1    4    4    0    0  0.10658606018E+02 -0.27297136465E+02  0.17982520800E+02  0.34381835259E+02  0.00000000000E+00 0.  1.
</event>
<event>
 8    1  0.1229941E-006  0.9118800E+02  0.7816164E-02  0.1184000E+00
        -11   -1    0    0    0    0  0.00000000000E+00  0.00000000000E+00  0.45593999997E+02  0.45594000000E+02  0.51100000000E-03 0. -1.
         11   -1    0    0    0    0 -0.00000000000E+00 -0.00000000000E+00 -0.45593999997E+02  0.45594000000E+02  0.51100000000E-03 0.  1.
         23    2    1    2    0    0  0.35527136788E-14  0.00000000000E+00  0.00000000000E+00  0.91188000000E+02  0.91188000000E+02 0.  0.
    9900012    2    3    3    0    0  0.15496705346E+02 -0.33332797317E+02  0.21345335586E+01  0.54367088997E+02  0.40000010987E+02 0.  0.
         12    1    3    3    0    0 -0.15496705346E+02  0.33332797317E+02 -0.21345335586E+01  0.36820911003E+02  0.00000000000E+00 0. -1.
         11    1    4    4    0    0 -0.77836817248E+01 -0.14287282950E+02 -0.33685120056E+01  0.16615024185E+02  0.51100000000E-03 0. -1.
        -11    1    4    4    0    0  0.27575118793E+02 -0.15438971609E+02  0.58220662891E+01  0.32134801648E+02  0.51100000000E-03 0.  1.
        -12    1    4    4    0    0 -0.42947317220E+01 -0.36065427581E+01 -0.31902072482E+00  0.56172631639E+01  0.00000000000E+00 0.  1.
</event>
<event>
 8    1  0.1229941E-006  0.9118800E+02  0.7816164E-02  0.1184000E+00
        -11   -1    0    0    0    0  0.00000000000E+00  0.00000000000E+00  0.45593999997E+02  0.45594000000E+02  0.51100000000E-03 0.  1.
         11   -1    0    0    0    0 -0.00000000000E+00 -0.00000000000E+00 -0.45593999997E+02  0.45594000000E+02  0.51100000000E-03 0. -1.
         23    2    1    2    0    0 -0.88817841970E-15  0.88817841970E-15  0.00000000000E+00  0.91188000000E+02  0.91188000000E+02 0.  0.
    9900012    2    3    3    0    0 -0.68705472601E+01  0.56392317206E+01 -0.35731990591E+02  0.54367075166E+02  0.39999979455E+02 0.  0.
        -12    1    3    3    0    0  0.68705472601E+01 -0.56392317206E+01  0.35731990591E+02  0.36820924834E+02  0.00000000000E+00 0.  1.
         11    1    4    4    0    0  0.96295807654E+00  0.21283795107E+01 -0.14440719196E+02  0.14628453738E+02  0.51100000000E-03 0. -1.
        -11    1    4    4    0    0  0.89746500185E+01  0.89796512380E+00  0.34984337755E+01  0.96741781801E+01  0.51100000000E-03 0.  1.
         12    1    4    4    0    0 -0.16808155355E+02  0.26128870862E+01 -0.24789705171E+02  0.30064443248E+02  0.00000000000E+00 0. -1.
</event>
<event>
 8    1  0.1229941E-006  0.9118800E+02  0.7816164E-02  0.1184000E+00
        -11   -1    0    0    0    0  0.00000000000E+00  0.00000000000E+00  0.45593999997E+02  0.45594000000E+02  0.51100000000E-03 0. -1.
         11   -1    0    0    0    0 -0.00000000000E+00 -0.00000000000E+00 -0.45593999997E+02  0.45594000000E+02  0.51100000000E-03 0.  1.
         23    2    1    2    0    0  0.44408920985E-15 -0.13322676296E-14  0.00000000000E+00  0.91188000000E+02  0.91188000000E+02 0.  0.
    9900012    2    3    3    0    0  0.32740515293E+01  0.37250012115E+01 -0.36485404423E+02  0.54367084974E+02  0.40000001815E+02 0.  0.
         12    1    3    3    0    0 -0.32740515293E+01 -0.37250012115E+01  0.36485404423E+02  0.36820915026E+02  0.00000000000E+00 0. -1.
         11    1    4    4    0    0  0.37908133700E+00 -0.10859732381E+02 -0.72832297895E+01  0.13081396197E+02  0.51100000000E-03 0. -1.
        -11    1    4    4    0    0 -0.22906133245E+01  0.13697870730E+02 -0.25512280012E+01  0.14120458085E+02  0.51100000000E-03 0.  1.
        -12    1    4    4    0    0  0.51855835168E+01  0.88686286202E+00 -0.26650946632E+02  0.27165230692E+02  0.00000000000E+00 0.  1.
</event>
<event>
 8    1  0.1229941E-006  0.9118800E+02  0.7816164E-02  0.1184000E+00
        -11   -1    0    0    0    0  0.00000000000E+00  0.00000000000E+00  0.45593999997E+02  0.45594000000E+02  0.51100000000E-03 0.  1.
         11   -1    0    0    0    0 -0.00000000000E+00 -0.00000000000E+00 -0.45593999997E+02  0.45594000000E+02  0.51100000000E-03 0. -1.
         23    2    1    2    0    0  0.00000000000E+00  0.00000000000E+00  0.00000000000E+00  0.91188000000E+02  0.91188000000E+02 0.  0.
    9900012    2    3    3    0    0  0.31408732465E+02 -0.82080491648E+01 -0.17375242498E+02  0.54367087491E+02  0.40000007553E+02 0.  0.
        -12    1    3    3    0    0 -0.31408732465E+02  0.82080491648E+01  0.17375242498E+02  0.36820912509E+02  0.00000000000E+00 0.  1.
         11    1    4    4    0    0  0.42855049240E+01 -0.20144360533E+01 -0.24467671736E+02  0.24921686650E+02  0.51100000000E-03 0. -1.
        -11    1    4    4    0    0  0.11999444207E+02 -0.43215464876E+01  0.29085181958E+00  0.12757234040E+02  0.51100000000E-03 0.  1.
         12    1    4    4    0    0  0.15123783334E+02 -0.18720666240E+01  0.68015774184E+01  0.16688166800E+02  0.00000000000E+00 0. -1.
</event>
<event>
 8    1  0.1229941E-006  0.9118800E+02  0.7816164E-02  0.1184000E+00
        -11   -1    0    0    0    0  0.00000000000E+00  0.00000000000E+00  0.45593999997E+02  0.45594000000E+02  0.51100000000E-03 0. -1.
         11   -1    0    0    0    0 -0.00000000000E+00 -0.00000000000E+00 -0.45593999997E+02  0.45594000000E+02  0.51100000000E-03 0.  1.
         23    2    1    2    0    0 -0.71054273576E-14  0.00000000000E+00  0.00000000000E+00  0.91188000000E+02  0.91188000000E+02 0.  0.
    9900012    2    3    3    0    0 -0.34044884224E+02 -0.61986502452E+01  0.12581858609E+02  0.54367074255E+02  0.39999977379E+02 0.  0.
        -12    1    3    3    0    0  0.34044884224E+02  0.61986502452E+01 -0.12581858609E+02  0.36820925745E+02  0.00000000000E+00 0.  1.
         11    1    4    4    0    0 -0.31199426713E+02  0.37295772787E+01 -0.32174896126E+01  0.31585854644E+02  0.51100000000E-03 0. -1.
        -11    1    4    4    0    0 -0.45178091802E+00  0.24167586113E+01  0.70380744727E+01  0.74551539708E+01  0.51100000000E-03 0.  1.
        -12    1    4    4    0    0 -0.23936765928E+01 -0.12344986135E+02  0.87612737485E+01  0.15326065640E+02  0.00000000000E+00 0.  1.
</event>
<event>
 8    1  0.1229941E-006  0.9118800E+02  0.7816164E-02  0.1184000E+00
        -11   -1    0    0    0    0  0.00000000000E+00  0.00000000000E+00  0.45593999997E+02  0.45594000000E+02  0.51100000000E-03 0. -1.
         11   -1    0    0    0    0 -0.00000000000E+00 -0.00000000000E+00 -0.45593999997E+02  0.45594000000E+02  0.51100000000E-03 0.  1.
         23    2    1    2    0    0  0.00000000000E+00  0.35527136788E-14  0.00000000000E+00  0.91188000000E+02  0.91188000000E+02 0.  0.
    9900012    2    3    3    0    0  0.21913033403E+02 -0.28272247548E+02 -0.87337710716E+01  0.54367085135E+02  0.40000002182E+02 0.  0.
        -12    1    3    3    0    0 -0.21913033403E+02  0.28272247548E+02  0.87337710716E+01  0.36820914865E+02  0.00000000000E+00 0.  1.
         11    1    4    4    0    0  0.18314299891E+02 -0.12508011625E+02  0.54085471116E+00  0.22184599600E+02  0.51100000000E-03 0. -1.
        -11    1    4    4    0    0  0.10755040553E+02 -0.19425089122E+02 -0.94769634156E+01  0.24141620089E+02  0.51100000000E-03 0.  1.
        -12    1    4    4    0    0 -0.71563070412E+01  0.36608531979E+01  0.20233763286E+00  0.80408654461E+01  0.00000000000E+00 0.  1.
</event>
<event>
 8    1  0.1229941E-006  0.9118800E+02  0.7816164E-02  0.1184000E+00
        -11   -1    0    0    0    0  0.00000000000E+00  0.00000000000E+00  0.45593999997E+02  0.45594000000E+02  0.51100000000E-03 0. -1.
         11   -1    0    0    0    0 -0.00000000000E+00 -0.00000000000E+00 -0.45593999997E+02  0.45594000000E+02  0.51100000000E-03 0.  1.
         23    2    1    2    0    0  0.00000000000E+00  0.35527136788E-14  0.17763568394E-14  0.91188000000E+02  0.91188000000E+02 0.  0.
    9900012    2    3    3    0    0 -0.22781900467E+02  0.28705596829E+02  0.35712405967E+01  0.54367081521E+02  0.39999993944E+02 0.  0.
        -12    1    3    3    0    0  0.22781900467E+02 -0.28705596829E+02 -0.35712405967E+01  0.36820918479E+02  0.00000000000E+00 0.  1.
         11    1    4    4    0    0  0.82441634440E+00 -0.12921957995E+01  0.48550642633E+01  0.50912750422E+01  0.51100000000E-03 0. -1.
        -11    1    4    4    0    0 -0.10229191226E+02 -0.44313939225E+01 -0.48706754050E+01  0.12165405229E+02  0.51100000000E-03 0.  1.
        -12    1    4    4    0    0 -0.13377125586E+02  0.34429186551E+02  0.35868517384E+01  0.37110401250E+02  0.00000000000E+00 0.  1.
</event>
<event>
 8    1  0.1229941E-006  0.9118800E+02  0.7816164E-02  0.1184000E+00
        -11   -1    0    0    0    0  0.00000000000E+00  0.00000000000E+00  0.45593999997E+02  0.45594000000E+02  0.51100000000E-03 0. -1.
         11   -1    0    0    0    0 -0.00000000000E+00 -0.00000000000E+00 -0.45593999997E+02  0.45594000000E+02  0.51100000000E-03 0.  1.
         23    2    1    2    0    0  0.00000000000E+00 -0.88817841970E-15  0.00000000000E+00  0.91188000000E+02  0.91188000000E+02 0.  0.
    9900012    2    3    3    0    0  0.92695278654E+01 -0.34022781020E+01 -0.35472242274E+02  0.54367087259E+02  0.40000007025E+02 0.  0.
         12    1    3    3    0    0 -0.92695278654E+01  0.34022781020E+01  0.35472242274E+02  0.36820912741E+02  0.00000000000E+00 0. -1.
         11    1    4    4    0    0  0.12615658411E+02 -0.26896685532E+01  0.77800676756E+00  0.12922633202E+02  0.51100000000E-03 0. -1.
        -11    1    4    4    0    0 -0.99479425211E+01 -0.58151254853E+01 -0.23996011385E+02  0.26619275112E+02  0.51100000000E-03 0.  1.
         12    1    4    4    0    0  0.66018119754E+01  0.51025159365E+01 -0.12254237656E+02  0.14825178946E+02  0.00000000000E+00 0. -1.
</event>
<event>
 8    1  0.1229941E-006  0.9118800E+02  0.7816164E-02  0.1184000E+00
        -11   -1    0    0    0    0  0.00000000000E+00  0.00000000000E+00  0.45593999997E+02  0.45594000000E+02  0.51100000000E-03 0.  1.
         11   -1    0    0    0    0 -0.00000000000E+00 -0.00000000000E+00 -0.45593999997E+02  0.45594000000E+02  0.51100000000E-03 0. -1.
         23    2    1    2    0    0 -0.17763568394E-14 -0.71054273576E-14  0.00000000000E+00  0.91188000000E+02  0.91188000000E+02 0.  0.
    9900012    2    3    3    0    0  0.15313662735E+02  0.32911940849E+02  0.61703899755E+01  0.54367111509E+02  0.40000062307E+02 0.  0.
         12    1    3    3    0    0 -0.15313662735E+02 -0.32911940849E+02 -0.61703899755E+01  0.36820888491E+02  0.00000000000E+00 0. -1.
         11    1    4    4    0    0  0.86660861251E+00  0.98677464671E+01  0.41887216689E+00  0.99145794151E+01  0.51100000000E-03 0. -1.
        -11    1    4    4    0    0  0.23694040020E+02  0.70805154850E+01  0.77026027205E+01  0.25901183775E+02  0.51100000000E-03 0.  1.
        -12    1    4    4    0    0 -0.92469858975E+01  0.15963678897E+02 -0.19510849119E+01  0.18551348319E+02  0.00000000000E+00 0.  1.
</event>
<event>
 8    1  0.1229941E-006  0.9118800E+02  0.7816164E-02  0.1184000E+00
        -11   -1    0    0    0    0  0.00000000000E+00  0.00000000000E+00  0.45593999997E+02  0.45594000000E+02  0.51100000000E-03 0.  1.
         11   -1    0    0    0    0 -0.00000000000E+00 -0.00000000000E+00 -0.45593999997E+02  0.45594000000E+02  0.51100000000E-03 0. -1.
         23    2    1    2    0    0  0.71054273576E-14  0.00000000000E+00  0.00000000000E+00  0.91188000000E+02  0.91188000000E+02 0.  0.
    9900012    2    3    3    0    0 -0.27636149279E+02  0.19166796180E+02  0.14988582223E+02  0.54367076331E+02  0.39999982112E+02 0.  0.
        -12    1    3    3    0    0  0.27636149279E+02 -0.19166796180E+02 -0.14988582223E+02  0.36820923669E+02  0.00000000000E+00 0.  1.
         11    1    4    4    0    0 -0.47321087182E+01 -0.45470101086E+01 -0.80771274274E+01  0.10407119755E+02  0.51100000000E-03 0. -1.
        -11    1    4    4    0    0  0.74784275884E+00  0.24949609016E+01 -0.21643202446E+01  0.33864998264E+01  0.51100000000E-03 0.  1.
        -12    1    4    4    0    0 -0.23651883320E+02  0.21218845387E+02  0.25230029895E+02  0.40573456750E+02  0.00000000000E+00 0.  1.
</event>
<event>
 8    1  0.1229941E-006  0.9118800E+02  0.7816164E-02  0.1184000E+00
        -11   -1    0    0    0    0  0.00000000000E+00  0.00000000000E+00  0.45593999997E+02  0.45594000000E+02  0.51100000000E-03 0. -1.
         11   -1    0    0    0    0 -0.00000000000E+00 -0.00000000000E+00 -0.45593999997E+02  0.45594000000E+02  0.51100000000E-03 0.  1.
         23    2    1    2    0    0 -0.17763568394E-14 -0.35527136788E-14 -0.71054273576E-14  0.91188000000E+02  0.91188000000E+02 0.  0.
    9900012    2    3    3    0    0 -0.47916101037E+01 -0.15539698333E+02 -0.33035415779E+02  0.54367075957E+02  0.39999981259E+02 0.  0.
         12    1    3    3    0    0  0.47916101037E+01  0.15539698333E+02  0.33035415779E+02  0.36820924043E+02  0.00000000000E+00 0. -1.
         11    1    4    4    0    0 -0.85686623864E+01 -0.47632159311E+00 -0.58798797972E+01  0.10402972846E+02  0.51100000000E-03 0. -1.
        -11    1    4    4    0    0 -0.91595341369E+01 -0.73474584876E+01 -0.26386838792E+02  0.28881611339E+02  0.51100000000E-03 0.  1.
         12    1    4    4    0    0  0.12936586420E+02 -0.77159182526E+01 -0.76869718981E+00  0.15082491772E+02  0.00000000000E+00 0. -1.
</event>
<event>
 8    1  0.1229941E-006  0.9118800E+02  0.7816164E-02  0.1184000E+00
        -11   -1    0    0    0    0  0.00000000000E+00  0.00000000000E+00  0.45593999997E+02  0.45594000000E+02  0.51100000000E-03 0. -1.
         11   -1    0    0    0    0 -0.00000000000E+00 -0.00000000000E+00 -0.45593999997E+02  0.45594000000E+02  0.51100000000E-03 0.  1.
         23    2    1    2    0    0 -0.15543122345E-14  0.35527136788E-14 -0.71054273576E-14  0.91188000000E+02  0.91188000000E+02 0.  0.
    9900012    2    3    3    0    0 -0.19309661370E+01 -0.17758224411E+02 -0.32197779795E+02  0.54367079476E+02  0.39999989282E+02 0.  0.
         12    1    3    3    0    0  0.19309661370E+01  0.17758224411E+02  0.32197779795E+02  0.36820920524E+02  0.00000000000E+00 0. -1.
         11    1    4    4    0    0 -0.27000883014E+01  0.80028571529E+01 -0.61124204159E+01  0.10425827691E+02  0.51100000000E-03 0. -1.
        -11    1    4    4    0    0  0.84420266671E+01 -0.32686949563E+01 -0.15445736197E+02  0.17903154691E+02  0.51100000000E-03 0.  1.
        -12    1    4    4    0    0 -0.76729045027E+01 -0.22492386608E+02 -0.10639623182E+02  0.26038097094E+02  0.00000000000E+00 0.  1.
</event>
<event>
 8    1  0.1229941E-006  0.9118800E+02  0.7816164E-02  0.1184000E+00
        -11   -1    0    0    0    0  0.00000000000E+00  0.00000000000E+00  0.45593999997E+02  0.45594000000E+02  0.51100000000E-03 0.  1.
         11   -1    0    0    0    0 -0.00000000000E+00 -0.00000000000E+00 -0.45593999997E+02  0.45594000000E+02  0.51100000000E-03 0. -1.
         23    2    1    2    0    0 -0.22759572005E-14  0.35527136788E-14  0.35527136788E-14  0.91188000000E+02  0.91188000000E+02 0.  0.
    9900012    2    3    3    0    0 -0.27212437662E+00 -0.30730975568E+02  0.20280860781E+02  0.54367078976E+02  0.39999988141E+02 0.  0.
         12    1    3    3    0    0  0.27212437662E+00  0.30730975568E+02 -0.20280860781E+02  0.36820921024E+02  0.00000000000E+00 0. -1.
         11    1    4    4    0    0 -0.10021428514E+02 -0.12048874521E+01 -0.27677037551E+01  0.10466182091E+02  0.51100000000E-03 0. -1.
        -11    1    4    4    0    0  0.14418563304E+02 -0.28641884395E+02  0.17276745645E+02  0.36424421063E+02  0.51100000000E-03 0.  1.
        -12    1    4    4    0    0 -0.46692591668E+01 -0.88420372166E+00  0.57718188917E+01  0.74764758213E+01  0.00000000000E+00 0.  1.
</event>
<event>
 8    1  0.1229941E-006  0.9118800E+02  0.7816164E-02  0.1184000E+00
        -11   -1    0    0    0    0  0.00000000000E+00  0.00000000000E+00  0.45593999997E+02  0.45594000000E+02  0.51100000000E-03 0. -1.
         11   -1    0    0    0    0 -0.00000000000E+00 -0.00000000000E+00 -0.45593999997E+02  0.45594000000E+02  0.51100000000E-03 0.  1.
         23    2    1    2    0    0  0.35527136788E-14  0.17763568394E-14  0.35527136788E-14  0.91188000000E+02  0.91188000000E+02 0.  0.
    9900012    2    3    3    0    0 -0.28620043085E+02 -0.15900978006E+02 -0.16847321625E+02  0.54367079130E+02  0.39999988493E+02 0.  0.
        -12    1    3    3    0    0  0.28620043085E+02  0.15900978006E+02  0.16847321625E+02  0.36820920870E+02  0.00000000000E+00 0.  1.
         11    1    4    4    0    0 -0.29591087549E+01 -0.19962369071E+02 -0.10883153332E+02  0.22928051166E+02  0.51100000000E-03 0. -1.
        -11    1    4    4    0    0 -0.45150037025E+01  0.28031142820E+01 -0.85823326239E+01  0.10094510471E+02  0.51100000000E-03 0.  1.
         12    1    4    4    0    0 -0.21145930628E+02  0.12582767826E+01  0.26181643307E+01  0.21344517494E+02  0.00000000000E+00 0. -1.
</event>
<event>
 8    1  0.1229941E-006  0.9118800E+02  0.7816164E-02  0.1184000E+00
        -11   -1    0    0    0    0  0.00000000000E+00  0.00000000000E+00  0.45593999997E+02  0.45594000000E+02  0.51100000000E-03 0. -1.
         11   -1    0    0    0    0 -0.00000000000E+00 -0.00000000000E+00 -0.45593999997E+02  0.45594000000E+02  0.51100000000E-03 0.  1.
         23    2    1    2    0    0  0.00000000000E+00  0.00000000000E+00  0.00000000000E+00  0.91188000000E+02  0.91188000000E+02 0.  0.
    9900012    2    3    3    0    0  0.28389568731E+02  0.16396655409E+02 -0.16761907771E+02  0.54367089182E+02  0.40000011409E+02 0.  0.
         12    1    3    3    0    0 -0.28389568731E+02 -0.16396655409E+02  0.16761907771E+02  0.36820910818E+02  0.00000000000E+00 0. -1.
         11    1    4    4    0    0  0.94642758992E+01 -0.29880778102E+01  0.51183922642E+01  0.11166873642E+02  0.51100000000E-03 0. -1.
        -11    1    4    4    0    0  0.12123059372E+01  0.19495227992E+02 -0.11752543786E+02  0.22795962051E+02  0.51100000000E-03 0.  1.
         12    1    4    4    0    0  0.17712986894E+02 -0.11049477227E+00 -0.10127756249E+02  0.20404253489E+02  0.00000000000E+00 0. -1.
</event>
<event>
 8    1  0.1229941E-006  0.9118800E+02  0.7816164E-02  0.1184000E+00
        -11   -1    0    0    0    0  0.00000000000E+00  0.00000000000E+00  0.45593999997E+02  0.45594000000E+02  0.51100000000E-03 0.  1.
         11   -1    0    0    0    0 -0.00000000000E+00 -0.00000000000E+00 -0.45593999997E+02  0.45594000000E+02  0.51100000000E-03 0. -1.
         23    2    1    2    0    0  0.35527136788E-14  0.17763568394E-14  0.00000000000E+00  0.91188000000E+02  0.91188000000E+02 0.  0.
    9900012    2    3    3    0    0  0.27649296179E+02 -0.99687835385E+01  0.22179276739E+02  0.54367074684E+02  0.39999978358E+02 0.  0.
        -12    1    3    3    0    0 -0.27649296179E+02  0.99687835385E+01 -0.22179276739E+02  0.36820925316E+02  0.00000000000E+00 0.  1.
         11    1    4    4    0    0  0.27745410125E+02 -0.10171166127E+02  0.27950639804E+02  0.40675529119E+02  0.51100000000E-03 0. -1.
        -11    1    4    4    0    0  0.15871042452E+01 -0.49337751266E+01 -0.64165680017E+01  0.82482350879E+01  0.51100000000E-03 0.  1.
         12    1    4    4    0    0 -0.16832181908E+01  0.51361577147E+01  0.64520493624E+00  0.54433104778E+01  0.00000000000E+00 0. -1.
</event>
<event>
 8    1  0.1229941E-006  0.9118800E+02  0.7816164E-02  0.1184000E+00
        -11   -1    0    0    0    0  0.00000000000E+00  0.00000000000E+00  0.45593999997E+02  0.45594000000E+02  0.51100000000E-03 0. -1.
         11   -1    0    0    0    0 -0.00000000000E+00 -0.00000000000E+00 -0.45593999997E+02  0.45594000000E+02  0.51100000000E-03 0.  1.
         23    2    1    2    0    0  0.00000000000E+00 -0.17763568394E-14  0.00000000000E+00  0.91188000000E+02  0.91188000000E+02 0.  0.
    9900012    2    3    3    0    0  0.15550511711E+02  0.81282089536E+01  0.32371176087E+02  0.54367092400E+02  0.40000018743E+02 0.  0.
        -12    1    3    3    0    0 -0.15550511711E+02 -0.81282089536E+01 -0.32371176087E+02  0.36820907600E+02  0.00000000000E+00 0.  1.
         11    1    4    4    0    0  0.15903857109E+02  0.63887644639E+01  0.16744719500E+02  0.23961106270E+02  0.51100000000E-03 0. -1.
        -11    1    4    4    0    0  0.53170323525E+01 -0.31870873432E+01 -0.53102664340E+01  0.81625540508E+01  0.51100000000E-03 0.  1.
        -12    1    4    4    0    0 -0.56703777511E+01  0.49265318329E+01  0.20936723022E+02  0.22243432078E+02  0.00000000000E+00 0.  1.
</event>
<event>
 8    1  0.1229941E-006  0.9118800E+02  0.7816164E-02  0.1184000E+00
        -11   -1    0    0    0    0  0.00000000000E+00  0.00000000000E+00  0.45593999997E+02  0.45594000000E+02  0.51100000000E-03 0.  1.
         11   -1    0    0    0    0 -0.00000000000E+00 -0.00000000000E+00 -0.45593999997E+02  0.45594000000E+02  0.51100000000E-03 0. -1.
         23    2    1    2    0    0 -0.35527136788E-14  0.00000000000E+00 -0.35527136788E-14  0.91188000000E+02  0.91188000000E+02 0.  0.
    9900012    2    3    3    0    0  0.17089868935E+02 -0.13519168819E+02 -0.29680801502E+02  0.54367061343E+02  0.39999947943E+02 0.  0.
        -12    1    3    3    0    0 -0.17089868935E+02  0.13519168819E+02  0.29680801502E+02  0.36820938657E+02  0.00000000000E+00 0.  1.
         11    1    4    4    0    0 -0.12582673686E+00 -0.12548355603E+02 -0.10726609036E+02  0.16508700808E+02  0.51100000000E-03 0. -1.
        -11    1    4    4    0    0  0.21602545688E+02 -0.91630860918E+01 -0.14062088361E+02  0.27356433545E+02  0.51100000000E-03 0.  1.
         12    1    4    4    0    0 -0.43868500158E+01  0.81922728757E+01 -0.48921041049E+01  0.10501926990E+02  0.00000000000E+00 0. -1.
</event>
<event>
 8    1  0.1229941E-006  0.9118800E+02  0.7816164E-02  0.1184000E+00
        -11   -1    0    0    0    0  0.00000000000E+00  0.00000000000E+00  0.45593999997E+02  0.45594000000E+02  0.51100000000E-03 0. -1.
         11   -1    0    0    0    0 -0.00000000000E+00 -0.00000000000E+00 -0.45593999997E+02  0.45594000000E+02  0.51100000000E-03 0.  1.
         23    2    1    2    0    0  0.35527136788E-14  0.00000000000E+00  0.00000000000E+00  0.91188000000E+02  0.91188000000E+02 0.  0.
    9900012    2    3    3    0    0 -0.22092283570E+02  0.16759393297E+02  0.24224683194E+02  0.54367061217E+02  0.39999947657E+02 0.  0.
         12    1    3    3    0    0  0.22092283570E+02 -0.16759393297E+02 -0.24224683194E+02  0.36820938783E+02  0.00000000000E+00 0. -1.
         11    1    4    4    0    0 -0.14009428669E+02  0.14066312754E+01  0.41551794306E+01  0.14680198212E+02  0.51100000000E-03 0. -1.
        -11    1    4    4    0    0 -0.17025516370E+02  0.39757009491E+01  0.17957059073E+02  0.25062529332E+02  0.51100000000E-03 0.  1.
        -12    1    4    4    0    0  0.89426614694E+01  0.11377061072E+02  0.21124446899E+01  0.14624333673E+02  0.00000000000E+00 0.  1.
</event>
<event>
 8    1  0.1229941E-006  0.9118800E+02  0.7816164E-02  0.1184000E+00
        -11   -1    0    0    0    0  0.00000000000E+00  0.00000000000E+00  0.45593999997E+02  0.45594000000E+02  0.51100000000E-03 0.  1.
         11   -1    0    0    0    0 -0.00000000000E+00 -0.00000000000E+00 -0.45593999997E+02  0.45594000000E+02  0.51100000000E-03 0. -1.
         23    2    1    2    0    0  0.71054273576E-14 -0.17763568394E-14  0.88817841970E-15  0.91188000000E+02  0.91188000000E+02 0.  0.
    9900012    2    3    3    0    0  0.36057599176E+02 -0.43409595167E+01  0.60650915143E+01  0.54367085794E+02  0.40000003684E+02 0.  0.
         12    1    3    3    0    0 -0.36057599176E+02  0.43409595167E+01 -0.60650915143E+01  0.36820914206E+02  0.00000000000E+00 0. -1.
         11    1    4    4    0    0 -0.49856016313E+00  0.66003919453E+01 -0.20748776868E+00  0.66224457343E+01  0.51100000000E-03 0. -1.
        -11    1    4    4    0    0  0.14214227243E+02  0.94602277480E+01  0.24049428687E+01  0.17243083124E+02  0.51100000000E-03 0.  1.
         12    1    4    4    0    0  0.22341932097E+02 -0.20401579210E+02  0.38676364143E+01  0.30501556936E+02  0.00000000000E+00 0. -1.
</event>
<event>
 8    1  0.1229941E-006  0.9118800E+02  0.7816164E-02  0.1184000E+00
        -11   -1    0    0    0    0  0.00000000000E+00  0.00000000000E+00  0.45593999997E+02  0.45594000000E+02  0.51100000000E-03 0.  1.
         11   -1    0    0    0    0 -0.00000000000E+00 -0.00000000000E+00 -0.45593999997E+02  0.45594000000E+02  0.51100000000E-03 0. -1.
         23    2    1    2    0    0  0.71054273576E-14  0.00000000000E+00 -0.88817841970E-15  0.91188000000E+02  0.91188000000E+02 0.  0.
    9900012    2    3    3    0    0 -0.24795179107E+02  0.26092566667E+02  0.77560647319E+01  0.54367089061E+02  0.40000011133E+02 0.  0.
         12    1    3    3    0    0  0.24795179107E+02 -0.26092566667E+02 -0.77560647319E+01  0.36820910939E+02  0.00000000000E+00 0. -1.
         11    1    4    4    0    0 -0.11459886947E+02 -0.76877762574E+01  0.59663704800E+01  0.15034243898E+02  0.51100000000E-03 0. -1.
        -11    1    4    4    0    0 -0.71684366591E+01  0.49780559886E+01  0.43786099725E+01  0.97642076542E+01  0.51100000000E-03 0.  1.
        -12    1    4    4    0    0 -0.61668555002E+01  0.28802286936E+02 -0.25889157206E+01  0.29568637509E+02  0.00000000000E+00 0.  1.
</event>
<event>
 8    1  0.1229941E-006  0.9118800E+02  0.7816164E-02  0.1184000E+00
        -11   -1    0    0    0    0  0.00000000000E+00  0.00000000000E+00  0.45593999997E+02  0.45594000000E+02  0.51100000000E-03 0.  1.
         11   -1    0    0    0    0 -0.00000000000E+00 -0.00000000000E+00 -0.45593999997E+02  0.45594000000E+02  0.51100000000E-03 0. -1.
         23    2    1    2    0    0  0.88817841970E-15 -0.17763568394E-14  0.00000000000E+00  0.91188000000E+02  0.91188000000E+02 0.  0.
    9900012    2    3    3    0    0 -0.45877836525E+01  0.56896799957E+01  0.36088224803E+02  0.54367079497E+02  0.39999989329E+02 0.  0.
         12    1    3    3    0    0  0.45877836525E+01 -0.56896799957E+01 -0.36088224803E+02  0.36820920503E+02  0.00000000000E+00 0. -1.
         11    1    4    4    0    0 -0.56377470723E+01  0.14216870092E+02  0.70824440911E+01  0.16854216144E+02  0.51100000000E-03 0. -1.
        -11    1    4    4    0    0 -0.52114104367E+01 -0.29223954896E+01  0.28472307408E+02  0.29092464377E+02  0.51100000000E-03 0.  1.
        -12    1    4    4    0    0  0.62613738565E+01 -0.56047946067E+01  0.53347330403E+00  0.84203989763E+01  0.00000000000E+00 0.  1.
</event>
<event>
 8    1  0.1229941E-006  0.9118800E+02  0.7816164E-02  0.1184000E+00
        -11   -1    0    0    0    0  0.00000000000E+00  0.00000000000E+00  0.45593999997E+02  0.45594000000E+02  0.51100000000E-03 0. -1.
         11   -1    0    0    0    0 -0.00000000000E+00 -0.00000000000E+00 -0.45593999997E+02  0.45594000000E+02  0.51100000000E-03 0.  1.
         23    2    1    2    0    0  0.00000000000E+00  0.00000000000E+00 -0.35527136788E-14  0.91188000000E+02  0.91188000000E+02 0.  0.
    9900012    2    3    3    0    0 -0.24603132788E+02  0.19467542369E+02 -0.19273829702E+02  0.54367083929E+02  0.39999999433E+02 0.  0.
         12    1    3    3    0    0  0.24603132788E+02 -0.19467542369E+02  0.19273829702E+02  0.36820916071E+02  0.00000000000E+00 0. -1.
         11    1    4    4    0    0 -0.24349239446E+02  0.84040770173E+01  0.32175085567E+01  0.25958935527E+02  0.51100000000E-03 0. -1.
        -11    1    4    4    0    0 -0.53112403544E+00  0.10772266193E+02 -0.24283791204E+02  0.26571155924E+02  0.51100000000E-03 0.  1.
        -12    1    4    4    0    0  0.27723069292E+00  0.29119915904E+00  0.17924529445E+01  0.18369924784E+01  0.00000000000E+00 0.  1.
</event>
<event>
 8    1  0.1229941E-006  0.9118800E+02  0.7816164E-02  0.1184000E+00
        -11   -1    0    0    0    0  0.00000000000E+00  0.00000000000E+00  0.45593999997E+02  0.45594000000E+02  0.51100000000E-03 0.  1.
         11   -1    0    0    0    0 -0.00000000000E+00 -0.00000000000E+00 -0.45593999997E+02  0.45594000000E+02  0.51100000000E-03 0. -1.
         23    2    1    2    0    0  0.88817841970E-15  0.00000000000E+00  0.00000000000E+00  0.91188000000E+02  0.91188000000E+02 0.  0.
    9900012    2    3    3    0    0  0.16927170430E+01  0.36534716971E+02  0.42567653362E+01  0.54367205789E+02  0.40000277237E+02 0.  0.
         12    1    3    3    0    0 -0.16927170430E+01 -0.36534716971E+02 -0.42567653362E+01  0.36820794211E+02  0.00000000000E+00 0. -1.
         11    1    4    4    0    0 -0.30945634059E+01  0.42201189437E+02 -0.44516023584E-01  0.42314521084E+02  0.51100000000E-03 0. -1.
        -11    1    4    4    0    0  0.11527675912E+01 -0.50074406095E+01  0.60736803133E+01  0.79556852242E+01  0.51100000000E-03 0.  1.
         12    1    4    4    0    0  0.36345128577E+01 -0.65903185647E+00 -0.17723989535E+01  0.40969994815E+01  0.00000000000E+00 0. -1.
</event>
<event>
 8    1  0.1229941E-006  0.9118800E+02  0.7816164E-02  0.1184000E+00
        -11   -1    0    0    0    0  0.00000000000E+00  0.00000000000E+00  0.45593999997E+02  0.45594000000E+02  0.51100000000E-03 0.  1.
         11   -1    0    0    0    0 -0.00000000000E+00 -0.00000000000E+00 -0.45593999997E+02  0.45594000000E+02  0.51100000000E-03 0. -1.
         23    2    1    2    0    0 -0.35527136788E-14  0.00000000000E+00  0.71054273576E-14  0.91188000000E+02  0.91188000000E+02 0.  0.
    9900012    2    3    3    0    0  0.31284795333E+02 -0.52850017025E+01 -0.18684489937E+02  0.54367084392E+02  0.40000000488E+02 0.  0.
        -12    1    3    3    0    0 -0.31284795333E+02  0.52850017025E+01  0.18684489937E+02  0.36820915608E+02  0.00000000000E+00 0.  1.
         11    1    4    4    0    0  0.87966267167E+01  0.34420981082E+01 -0.17601245716E+02  0.19975798658E+02  0.51100000000E-03 0. -1.
        -11    1    4    4    0    0  0.25394139801E+02 -0.10773015840E+02 -0.60922999973E+01  0.28249536741E+02  0.51100000000E-03 0.  1.
        -12    1    4    4    0    0 -0.29059711849E+01  0.20459160292E+01  0.50090557769E+01  0.61417489938E+01  0.00000000000E+00 0.  1.
</event>
<event>
 8    1  0.1229941E-006  0.9118800E+02  0.7816164E-02  0.1184000E+00
        -11   -1    0    0    0    0  0.00000000000E+00  0.00000000000E+00  0.45593999997E+02  0.45594000000E+02  0.51100000000E-03 0.  1.
         11   -1    0    0    0    0 -0.00000000000E+00 -0.00000000000E+00 -0.45593999997E+02  0.45594000000E+02  0.51100000000E-03 0. -1.
         23    2    1    2    0    0  0.88817841970E-15  0.00000000000E+00  0.00000000000E+00  0.91188000000E+02  0.91188000000E+02 0.  0.
    9900012    2    3    3    0    0  0.35991861341E+01 -0.33339498523E+02  0.15208656273E+02  0.54367088438E+02  0.40000009713E+02 0.  0.
         12    1    3    3    0    0 -0.35991861341E+01  0.33339498523E+02 -0.15208656273E+02  0.36820911562E+02  0.00000000000E+00 0. -1.
         11    1    4    4    0    0  0.69401785025E+01 -0.12324416666E+02  0.37474619143E+01  0.14632183530E+02  0.51100000000E-03 0. -1.
        -11    1    4    4    0    0  0.21843400093E+01  0.58992458443E+01 -0.47055373975E+01  0.78558592954E+01  0.51100000000E-03 0.  1.
        -12    1    4    4    0    0 -0.55253323777E+01 -0.26914327701E+02  0.16166731756E+02  0.31879045613E+02  0.00000000000E+00 0.  1.
</event>
<event>
 8    1  0.1229941E-006  0.9118800E+02  0.7816164E-02  0.1184000E+00
        -11   -1    0    0    0    0  0.00000000000E+00  0.00000000000E+00  0.45593999997E+02  0.45594000000E+02  0.51100000000E-03 0.  1.
         11   -1    0    0    0    0 -0.00000000000E+00 -0.00000000000E+00 -0.45593999997E+02  0.45594000000E+02  0.51100000000E-03 0. -1.
         23    2    1    2    0    0  0.00000000000E+00  0.00000000000E+00  0.17763568394E-14  0.91188000000E+02  0.91188000000E+02 0.  0.
    9900012    2    3    3    0    0  0.14139675864E+02  0.30218068336E+02 -0.15579382975E+02  0.54367092062E+02  0.40000017975E+02 0.  0.
        -12    1    3    3    0    0 -0.14139675864E+02 -0.30218068336E+02  0.15579382975E+02  0.36820907938E+02  0.00000000000E+00 0.  1.
         11    1    4    4    0    0  0.95882929250E+01  0.60551039224E+01  0.47543246355E+01  0.12296472979E+02  0.51100000000E-03 0.  1.
        -11    1    4    4    0    0  0.13938496390E+02  0.21869821149E+02 -0.19350514340E+02  0.32357582793E+02  0.51100000000E-03 0. -1.
         12    1    4    4    0    0 -0.93871134507E+01  0.22931432638E+01 -0.98319326993E+00  0.97130362900E+01  0.00000000000E+00 0. -1.
</event>
<event>
 8    1  0.1229941E-006  0.9118800E+02  0.7816164E-02  0.1184000E+00
        -11   -1    0    0    0    0  0.00000000000E+00  0.00000000000E+00  0.45593999997E+02  0.45594000000E+02  0.51100000000E-03 0.  1.
         11   -1    0    0    0    0 -0.00000000000E+00 -0.00000000000E+00 -0.45593999997E+02  0.45594000000E+02  0.51100000000E-03 0. -1.
         23    2    1    2    0    0 -0.88817841970E-15  0.00000000000E+00  0.00000000000E+00  0.91188000000E+02  0.91188000000E+02 0.  0.
    9900012    2    3    3    0    0 -0.67194820565E+01  0.34161660622E+02  0.11984090099E+02  0.54366961027E+02  0.39999719253E+02 0.  0.
         12    1    3    3    0    0  0.67194820565E+01 -0.34161660622E+02 -0.11984090099E+02  0.36821038973E+02  0.00000000000E+00 0. -1.
         11    1    4    4    0    0 -0.13759467219E+02  0.93926166497E+01  0.32013455054E+01  0.16964456932E+02  0.51100000000E-03 0. -1.
        -11    1    4    4    0    0 -0.42457880241E+01  0.22774900355E+02  0.11132950669E+02  0.25703412089E+02  0.51100000000E-03 0.  1.
        -12    1    4    4    0    0  0.11285773187E+02  0.19941436169E+01 -0.23502060758E+01  0.11699092007E+02  0.00000000000E+00 0.  1.
</event>
<event>
 8    1  0.1229941E-006  0.9118800E+02  0.7816164E-02  0.1184000E+00
        -11   -1    0    0    0    0  0.00000000000E+00  0.00000000000E+00  0.45593999997E+02  0.45594000000E+02  0.51100000000E-03 0.  1.
         11   -1    0    0    0    0 -0.00000000000E+00 -0.00000000000E+00 -0.45593999997E+02  0.45594000000E+02  0.51100000000E-03 0. -1.
         23    2    1    2    0    0 -0.17763568394E-14 -0.26645352591E-14  0.00000000000E+00  0.91188000000E+02  0.91188000000E+02 0.  0.
    9900012    2    3    3    0    0  0.84605253468E+01 -0.41996363794E+00 -0.35833252380E+02  0.54367097855E+02  0.40000031181E+02 0.  0.
        -12    1    3    3    0    0 -0.84605253468E+01  0.41996363794E+00  0.35833252380E+02  0.36820902145E+02  0.00000000000E+00 0.  1.
         11    1    4    4    0    0 -0.64872589524E+01 -0.10200976541E+02 -0.11943306962E+02  0.16993735097E+02  0.51100000000E-03 0. -1.
        -11    1    4    4    0    0  0.10663780829E+01 -0.22966908385E+01  0.35346246081E+01  0.43480481143E+01  0.51100000000E-03 0.  1.
         12    1    4    4    0    0  0.13881406216E+02  0.12077703741E+02 -0.27424570027E+02  0.33025314644E+02  0.00000000000E+00 0. -1.
</event>
<event>
 8    1  0.1229941E-006  0.9118800E+02  0.7816164E-02  0.1184000E+00
        -11   -1    0    0    0    0  0.00000000000E+00  0.00000000000E+00  0.45593999997E+02  0.45594000000E+02  0.51100000000E-03 0. -1.
         11   -1    0    0    0    0 -0.00000000000E+00 -0.00000000000E+00 -0.45593999997E+02  0.45594000000E+02  0.51100000000E-03 0.  1.
         23    2    1    2    0    0  0.35527136788E-14 -0.17763568394E-14  0.00000000000E+00  0.91188000000E+02  0.91188000000E+02 0.  0.
    9900012    2    3    3    0    0  0.28745404574E+02 -0.11738216193E+02 -0.19791307662E+02  0.54367083900E+02  0.39999999366E+02 0.  0.
         12    1    3    3    0    0 -0.28745404574E+02  0.11738216193E+02  0.19791307662E+02  0.36820916100E+02  0.00000000000E+00 0. -1.
         11    1    4    4    0    0 -0.59412691457E+01 -0.43534280731E+00  0.96570700798E+00  0.60349641845E+01  0.51100000000E-03 0. -1.
        -11    1    4    4    0    0  0.13733375702E+02 -0.16873017990E+02 -0.12771238106E+02  0.25227145444E+02  0.51100000000E-03 0.  1.
        -12    1    4    4    0    0  0.20953298018E+02  0.55701446039E+01 -0.79857765636E+01  0.23104974271E+02  0.00000000000E+00 0.  1.
</event>
<event>
 8    1  0.1229941E-006  0.9118800E+02  0.7816164E-02  0.1184000E+00
        -11   -1    0    0    0    0  0.00000000000E+00  0.00000000000E+00  0.45593999997E+02  0.45594000000E+02  0.51100000000E-03 0. -1.
         11   -1    0    0    0    0 -0.00000000000E+00 -0.00000000000E+00 -0.45593999997E+02  0.45594000000E+02  0.51100000000E-03 0.  1.
         23    2    1    2    0    0  0.00000000000E+00  0.00000000000E+00  0.71054273576E-14  0.91188000000E+02  0.91188000000E+02 0.  0.
    9900012    2    3    3    0    0  0.97980839926E+01 -0.14592086088E+02  0.32355047895E+02  0.54367074555E+02  0.39999978063E+02 0.  0.
        -12    1    3    3    0    0 -0.97980839926E+01  0.14592086088E+02 -0.32355047895E+02  0.36820925445E+02  0.00000000000E+00 0.  1.
         11    1    4    4    0    0 -0.23426624234E+01 -0.10879372645E+02  0.90674684426E+01  0.14355061846E+02  0.51100000000E-03 0. -1.
        -11    1    4    4    0    0  0.38587653370E+00 -0.45697575749E+01  0.27207404870E+02  0.27591202675E+02  0.51100000000E-03 0.  1.
         12    1    4    4    0    0  0.11754869882E+02  0.85704413184E+00 -0.39198254178E+01  0.12420810034E+02  0.00000000000E+00 0. -1.
</event>
<event>
 8    1  0.1229941E-006  0.9118800E+02  0.7816164E-02  0.1184000E+00
        -11   -1    0    0    0    0  0.00000000000E+00  0.00000000000E+00  0.45593999997E+02  0.45594000000E+02  0.51100000000E-03 0. -1.
         11   -1    0    0    0    0 -0.00000000000E+00 -0.00000000000E+00 -0.45593999997E+02  0.45594000000E+02  0.51100000000E-03 0.  1.
         23    2    1    2    0    0  0.00000000000E+00  0.00000000000E+00  0.71054273576E-14  0.91188000000E+02  0.91188000000E+02 0.  0.
    9900012    2    3    3    0    0 -0.99261133423E+01 -0.67288956252E+01  0.34813409928E+02  0.54367091901E+02  0.40000017606E+02 0.  0.
        -12    1    3    3    0    0  0.99261133423E+01  0.67288956252E+01 -0.34813409928E+02  0.36820908099E+02  0.00000000000E+00 0.  1.
         11    1    4    4    0    0 -0.10703575365E+01  0.53292133862E+01  0.31841177888E+01  0.62995862503E+01  0.51100000000E-03 0. -1.
        -11    1    4    4    0    0  0.10471871128E+01 -0.12608257667E+01 -0.67713642521E+01  0.69668971974E+01  0.51100000000E-03 0.  1.
        -12    1    4    4    0    0 -0.99029429185E+01 -0.10797283245E+02  0.38400656392E+02  0.41100608453E+02  0.00000000000E+00 0.  1.
</event>
<event>
 8    1  0.1229941E-006  0.9118800E+02  0.7816164E-02  0.1184000E+00
        -11   -1    0    0    0    0  0.00000000000E+00  0.00000000000E+00  0.45593999997E+02  0.45594000000E+02  0.51100000000E-03 0. -1.
         11   -1    0    0    0    0 -0.00000000000E+00 -0.00000000000E+00 -0.45593999997E+02  0.45594000000E+02  0.51100000000E-03 0.  1.
         23    2    1    2    0    0  0.88817841970E-15  0.35527136788E-14  0.00000000000E+00  0.91188000000E+02  0.91188000000E+02 0.  0.
    9900012    2    3    3    0    0  0.73718649964E+01  0.26923840263E+02 -0.24011273201E+02  0.54367098208E+02  0.40000031985E+02 0.  0.
         12    1    3    3    0    0 -0.73718649964E+01 -0.26923840263E+02  0.24011273201E+02  0.36820901792E+02  0.00000000000E+00 0. -1.
         11    1    4    4    0    0  0.11236550964E+02  0.10952918897E+02 -0.24395977351E+02  0.29006727170E+02  0.51100000000E-03 0.  1.
        -11    1    4    4    0    0  0.64553177234E+01  0.12999727898E+02  0.13552289017E+01  0.14577403677E+02  0.51100000000E-03 0. -1.
         12    1    4    4    0    0 -0.10320003691E+02  0.29711934686E+01 -0.97052475083E+00  0.10782967361E+02  0.00000000000E+00 0. -1.
</event>
<event>
 8    1  0.1229941E-006  0.9118800E+02  0.7816164E-02  0.1184000E+00
        -11   -1    0    0    0    0  0.00000000000E+00  0.00000000000E+00  0.45593999997E+02  0.45594000000E+02  0.51100000000E-03 0.  1.
         11   -1    0    0    0    0 -0.00000000000E+00 -0.00000000000E+00 -0.45593999997E+02  0.45594000000E+02  0.51100000000E-03 0. -1.
         23    2    1    2    0    0  0.00000000000E+00 -0.17763568394E-14  0.35527136788E-14  0.91188000000E+02  0.91188000000E+02 0.  0.
    9900012    2    3    3    0    0  0.17241938194E+02 -0.15325300185E+02  0.28698958810E+02  0.54367088886E+02  0.40000010734E+02 0.  0.
         12    1    3    3    0    0 -0.17241938194E+02  0.15325300185E+02 -0.28698958810E+02  0.36820911114E+02  0.00000000000E+00 0. -1.
         11    1    4    4    0    0  0.74059089948E+01  0.82012292674E+01  0.83995255567E+01  0.13880190178E+02  0.51100000000E-03 0. -1.
        -11    1    4    4    0    0  0.13572116149E+02 -0.26880628810E+01  0.72961479944E+01  0.15641668537E+02  0.51100000000E-03 0.  1.
        -12    1    4    4    0    0 -0.37360869495E+01 -0.20838466571E+02  0.13003285259E+02  0.24845230171E+02  0.00000000000E+00 0.  1.
</event>
<event>
 8    1  0.1229941E-006  0.9118800E+02  0.7816164E-02  0.1184000E+00
        -11   -1    0    0    0    0  0.00000000000E+00  0.00000000000E+00  0.45593999997E+02  0.45594000000E+02  0.51100000000E-03 0. -1.
         11   -1    0    0    0    0 -0.00000000000E+00 -0.00000000000E+00 -0.45593999997E+02  0.45594000000E+02  0.51100000000E-03 0.  1.
         23    2    1    2    0    0  0.00000000000E+00  0.00000000000E+00  0.00000000000E+00  0.91188000000E+02  0.91188000000E+02 0.  0.
    9900012    2    3    3    0    0  0.32810065633E+02 -0.98097040650E+01 -0.13529527177E+02  0.54367098241E+02  0.40000032061E+02 0.  0.
         12    1    3    3    0    0 -0.32810065633E+02  0.98097040650E+01  0.13529527177E+02  0.36820901759E+02  0.00000000000E+00 0. -1.
         11    1    4    4    0    0  0.92361407793E+00 -0.40000849072E+01  0.56715228887E+01  0.70014223104E+01  0.51100000000E-03 0. -1.
        -11    1    4    4    0    0  0.33472035309E+02 -0.12615128371E+02 -0.13114109986E+02  0.38098536620E+02  0.51100000000E-03 0.  1.
        -12    1    4    4    0    0 -0.15855837540E+01  0.68055092133E+01 -0.60869400791E+01  0.92671393116E+01  0.00000000000E+00 0.  1.
</event>
<event>
 8    1  0.1229941E-006  0.9118800E+02  0.7816164E-02  0.1184000E+00
        -11   -1    0    0    0    0  0.00000000000E+00  0.00000000000E+00  0.45593999997E+02  0.45594000000E+02  0.51100000000E-03 0.  1.
         11   -1    0    0    0    0 -0.00000000000E+00 -0.00000000000E+00 -0.45593999997E+02  0.45594000000E+02  0.51100000000E-03 0. -1.
         23    2    1    2    0    0 -0.35527136788E-14  0.00000000000E+00  0.35527136788E-14  0.91188000000E+02  0.91188000000E+02 0.  0.
    9900012    2    3    3    0    0  0.25137729376E+02 -0.11192264074E+02 -0.24466448987E+02  0.54367091004E+02  0.40000015561E+02 0.  0.
        -12    1    3    3    0    0 -0.25137729376E+02  0.11192264074E+02  0.24466448987E+02  0.36820908996E+02  0.00000000000E+00 0.  1.
         11    1    4    4    0    0 -0.37240975411E+01 -0.41060329987E+01 -0.16128116926E+02  0.17054165630E+02  0.51100000000E-03 0. -1.
        -11    1    4    4    0    0  0.15327996002E+02  0.61005079536E+01 -0.81853974272E+01  0.18416416319E+02  0.51100000000E-03 0.  1.
         12    1    4    4    0    0  0.13533830915E+02 -0.13186739029E+02 -0.15293463331E+00  0.18896509055E+02  0.00000000000E+00 0. -1.
</event>
<event>
 8    1  0.1229941E-006  0.9118800E+02  0.7816164E-02  0.1184000E+00
        -11   -1    0    0    0    0  0.00000000000E+00  0.00000000000E+00  0.45593999997E+02  0.45594000000E+02  0.51100000000E-03 0.  1.
         11   -1    0    0    0    0 -0.00000000000E+00 -0.00000000000E+00 -0.45593999997E+02  0.45594000000E+02  0.51100000000E-03 0. -1.
         23    2    1    2    0    0 -0.17763568394E-14  0.35527136788E-14  0.00000000000E+00  0.91188000000E+02  0.91188000000E+02 0.  0.
    9900012    2    3    3    0    0 -0.11152423772E+02  0.31247204066E+02 -0.15969509698E+02  0.54366952243E+02  0.39999699228E+02 0.  0.
        -12    1    3    3    0    0  0.11152423772E+02 -0.31247204066E+02  0.15969509698E+02  0.36821047757E+02  0.00000000000E+00 0.  1.
         11    1    4    4    0    0  0.74024778309E+00  0.16612066273E+02 -0.17255333402E+02  0.23963623343E+02  0.51100000000E-03 0. -1.
        -11    1    4    4    0    0 -0.11832691267E+01  0.22942104016E+01 -0.10140988452E+02  0.10464376438E+02  0.51100000000E-03 0.  1.
        -12    1    4    4    0    0 -0.10709402428E+02  0.12340927391E+02  0.11426812156E+02  0.19938952462E+02  0.00000000000E+00 0.  1.
</event>
<event>
 8    1  0.1229941E-006  0.9118800E+02  0.7816164E-02  0.1184000E+00
        -11   -1    0    0    0    0  0.00000000000E+00  0.00000000000E+00  0.45593999997E+02  0.45594000000E+02  0.51100000000E-03 0. -1.
         11   -1    0    0    0    0 -0.00000000000E+00 -0.00000000000E+00 -0.45593999997E+02  0.45594000000E+02  0.51100000000E-03 0.  1.
         23    2    1    2    0    0  0.00000000000E+00  0.00000000000E+00  0.00000000000E+00  0.91188000000E+02  0.91188000000E+02 0.  0.
    9900012    2    3    3    0    0  0.18406664410E+02  0.63214490289E+01 -0.31257204314E+02  0.54367097865E+02  0.40000031203E+02 0.  0.
         12    1    3    3    0    0 -0.18406664410E+02 -0.63214490289E+01  0.31257204314E+02  0.36820902135E+02  0.00000000000E+00 0. -1.
         11    1    4    4    0    0 -0.30630099147E+01  0.18137545206E+01  0.47400455404E+01  0.59278804969E+01  0.51100000000E-03 0. -1.
        -11    1    4    4    0    0  0.13685491605E+02 -0.91073882193E+01 -0.21647025259E+02  0.27181444103E+02  0.51100000000E-03 0.  1.
         12    1    4    4    0    0  0.77841827191E+01  0.13615082728E+02 -0.14350224595E+02  0.21257773266E+02  0.00000000000E+00 0. -1.
</event>
<event>
 8    1  0.1229941E-006  0.9118800E+02  0.7816164E-02  0.1184000E+00
        -11   -1    0    0    0    0  0.00000000000E+00  0.00000000000E+00  0.45593999997E+02  0.45594000000E+02  0.51100000000E-03 0. -1.
         11   -1    0    0    0    0 -0.00000000000E+00 -0.00000000000E+00 -0.45593999997E+02  0.45594000000E+02  0.51100000000E-03 0.  1.
         23    2    1    2    0    0  0.00000000000E+00  0.00000000000E+00  0.00000000000E+00  0.91188000000E+02  0.91188000000E+02 0.  0.
    9900012    2    3    3    0    0 -0.13156176841E+02  0.28008276148E+02 -0.19955684653E+02  0.54367110931E+02  0.40000060989E+02 0.  0.
         12    1    3    3    0    0  0.13156176841E+02 -0.28008276148E+02  0.19955684653E+02  0.36820889069E+02  0.00000000000E+00 0. -1.
         11    1    4    4    0    0 -0.15083422200E+02  0.19151249874E+01 -0.40561107288E+01  0.15736243627E+02  0.51100000000E-03 0. -1.
        -11    1    4    4    0    0  0.62566384205E+01  0.13072032559E+02  0.34618378086E+01  0.14899928886E+02  0.51100000000E-03 0.  1.
        -12    1    4    4    0    0 -0.43293930623E+01  0.13021118602E+02 -0.19361411733E+02  0.23730938418E+02  0.00000000000E+00 0.  1.
</event>
<event>
 8    1  0.1229941E-006  0.9118800E+02  0.7816164E-02  0.1184000E+00
        -11   -1    0    0    0    0  0.00000000000E+00  0.00000000000E+00  0.45593999997E+02  0.45594000000E+02  0.51100000000E-03 0. -1.
         11   -1    0    0    0    0 -0.00000000000E+00 -0.00000000000E+00 -0.45593999997E+02  0.45594000000E+02  0.51100000000E-03 0.  1.
         23    2    1    2    0    0  0.00000000000E+00  0.00000000000E+00  0.35527136788E-14  0.91188000000E+02  0.91188000000E+02 0.  0.
    9900012    2    3    3    0    0  0.23973699827E+02 -0.16653845324E+02  0.22443068239E+02  0.54367079867E+02  0.39999990173E+02 0.  0.
        -12    1    3    3    0    0 -0.23973699827E+02  0.16653845324E+02 -0.22443068239E+02  0.36820920133E+02  0.00000000000E+00 0.  1.
         11    1    4    4    0    0  0.15852758046E+02  0.49626265239E+01  0.15945078400E+02  0.23025705747E+02  0.51100000000E-03 0. -1.
        -11    1    4    4    0    0 -0.54686366563E+01 -0.14008452400E+02  0.40689011424E+01  0.15578789501E+02  0.51100000000E-03 0.  1.
        -12    1    4    4    0    0  0.13589578437E+02 -0.76080194476E+01  0.24290886958E+01  0.15762584620E+02  0.00000000000E+00 0.  1.
</event>
<event>
 8    1  0.1229941E-006  0.9118800E+02  0.7816164E-02  0.1184000E+00
        -11   -1    0    0    0    0  0.00000000000E+00  0.00000000000E+00  0.45593999997E+02  0.45594000000E+02  0.51100000000E-03 0.  1.
         11   -1    0    0    0    0 -0.00000000000E+00 -0.00000000000E+00 -0.45593999997E+02  0.45594000000E+02  0.51100000000E-03 0. -1.
         23    2    1    2    0    0  0.00000000000E+00 -0.88817841970E-15  0.35527136788E-14  0.91188000000E+02  0.91188000000E+02 0.  0.
    9900012    2    3    3    0    0 -0.18805236549E+02  0.11138652468E+01  0.31637039668E+02  0.54367083439E+02  0.39999998316E+02 0.  0.
         12    1    3    3    0    0  0.18805236549E+02 -0.11138652468E+01 -0.31637039668E+02  0.36820916561E+02  0.00000000000E+00 0. -1.
         11    1    4    4    0    0 -0.10981076108E+02 -0.27054322256E+01  0.14642445231E+02  0.18501475580E+02  0.51100000000E-03 0.  1.
        -11    1    4    4    0    0 -0.81883547763E+00 -0.69650833067E+01  0.21204498207E+02  0.22334135790E+02  0.51100000000E-03 0. -1.
         12    1    4    4    0    0 -0.70053249628E+01  0.10784380779E+02 -0.42099037701E+01  0.13531472070E+02  0.00000000000E+00 0. -1.
</event>
<event>
 8    1  0.1229941E-006  0.9118800E+02  0.7816164E-02  0.1184000E+00
        -11   -1    0    0    0    0  0.00000000000E+00  0.00000000000E+00  0.45593999997E+02  0.45594000000E+02  0.51100000000E-03 0. -1.
         11   -1    0    0    0    0 -0.00000000000E+00 -0.00000000000E+00 -0.45593999997E+02  0.45594000000E+02  0.51100000000E-03 0.  1.
         23    2    1    2    0    0  0.00000000000E+00 -0.35527136788E-14  0.00000000000E+00  0.91188000000E+02  0.91188000000E+02 0.  0.
    9900012    2    3    3    0    0  0.19310324299E+02 -0.27649109573E+02  0.14779043846E+02  0.54367054579E+02  0.39999932524E+02 0.  0.
        -12    1    3    3    0    0 -0.19310324299E+02  0.27649109573E+02 -0.14779043846E+02  0.36820945421E+02  0.00000000000E+00 0.  1.
         11    1    4    4    0    0 -0.10428791322E+02 -0.96503450379E+01  0.29757819314E+01  0.14517028833E+02  0.51100000000E-03 0. -1.
        -11    1    4    4    0    0  0.88699458038E+01 -0.32115722655E+01 -0.34797956273E+01  0.10054805460E+02  0.51100000000E-03 0.  1.
         12    1    4    4    0    0  0.20869169817E+02 -0.14787192269E+02  0.15283057541E+02  0.29795220286E+02  0.00000000000E+00 0. -1.
</event>
<event>
 8    1  0.1229941E-006  0.9118800E+02  0.7816164E-02  0.1184000E+00
        -11   -1    0    0    0    0  0.00000000000E+00  0.00000000000E+00  0.45593999997E+02  0.45594000000E+02  0.51100000000E-03 0. -1.
         11   -1    0    0    0    0 -0.00000000000E+00 -0.00000000000E+00 -0.45593999997E+02  0.45594000000E+02  0.51100000000E-03 0.  1.
         23    2    1    2    0    0  0.00000000000E+00  0.00000000000E+00 -0.35527136788E-14  0.91188000000E+02  0.91188000000E+02 0.  0.
    9900012    2    3    3    0    0  0.13113366444E+02  0.22751464526E+02  0.25810650788E+02  0.54367092737E+02  0.40000019513E+02 0.  0.
        -12    1    3    3    0    0 -0.13113366444E+02 -0.22751464526E+02 -0.25810650788E+02  0.36820907263E+02  0.00000000000E+00 0.  1.
         11    1    4    4    0    0  0.32975170588E+01  0.15094981200E+02  0.22599520207E+02  0.27376456857E+02  0.51100000000E-03 0. -1.
        -11    1    4    4    0    0  0.80383006725E+01  0.10746424837E+02  0.11686986403E+02  0.17795661716E+02  0.51100000000E-03 0.  1.
        -12    1    4    4    0    0  0.17775487127E+01 -0.30899415112E+01 -0.84758558217E+01  0.91949741641E+01  0.00000000000E+00 0.  1.
</event>
<event>
 8    1  0.1229941E-006  0.9118800E+02  0.7816164E-02  0.1184000E+00
        -11   -1    0    0    0    0  0.00000000000E+00  0.00000000000E+00  0.45593999997E+02  0.45594000000E+02  0.51100000000E-03 0. -1.
         11   -1    0    0    0    0 -0.00000000000E+00 -0.00000000000E+00 -0.45593999997E+02  0.45594000000E+02  0.51100000000E-03 0.  1.
         23    2    1    2    0    0  0.00000000000E+00  0.44408920985E-15  0.88817841970E-15  0.91188000000E+02  0.91188000000E+02 0.  0.
    9900012    2    3    3    0    0  0.36319459114E+02  0.35286601349E+01  0.49215719480E+01  0.54367130603E+02  0.40000105837E+02 0.  0.
         12    1    3    3    0    0 -0.36319459114E+02 -0.35286601349E+01 -0.49215719480E+01  0.36820869397E+02  0.00000000000E+00 0. -1.
         11    1    4    4    0    0  0.21294856828E+02 -0.22171836944E+01 -0.48369772974E+01  0.21949559916E+02  0.51100000000E-03 0.  1.
        -11    1    4    4    0    0  0.44458888775E+01  0.11762489052E+01 -0.91692342556E+01  0.10257891913E+02  0.51100000000E-03 0. -1.
         12    1    4    4    0    0  0.10578713408E+02  0.45695949241E+01  0.18927783501E+02  0.22159678775E+02  0.00000000000E+00 0. -1.
</event>
<event>
 8    1  0.1229941E-006  0.9118800E+02  0.7816164E-02  0.1184000E+00
        -11   -1    0    0    0    0  0.00000000000E+00  0.00000000000E+00  0.45593999997E+02  0.45594000000E+02  0.51100000000E-03 0.  1.
         11   -1    0    0    0    0 -0.00000000000E+00 -0.00000000000E+00 -0.45593999997E+02  0.45594000000E+02  0.51100000000E-03 0. -1.
         23    2    1    2    0    0  0.88817841970E-15  0.00000000000E+00  0.17763568394E-14  0.91188000000E+02  0.91188000000E+02 0.  0.
    9900012    2    3    3    0    0 -0.48632277363E+01 -0.34769979000E+02  0.11098490844E+02  0.54367096662E+02  0.40000028459E+02 0.  0.
         12    1    3    3    0    0  0.48632277363E+01  0.34769979000E+02 -0.11098490844E+02  0.36820903338E+02  0.00000000000E+00 0. -1.
         11    1    4    4    0    0 -0.50941494097E+01  0.49296633400E+01 -0.47465600810E+01  0.85312233424E+01  0.51100000000E-03 0. -1.
        -11    1    4    4    0    0  0.32324921835E+01 -0.30760527351E+02  0.47786519166E+01  0.31296877848E+02  0.51100000000E-03 0.  1.
         12    1    4    4    0    0 -0.30015705100E+01 -0.89391149889E+01  0.11066399008E+02  0.14538995471E+02  0.00000000000E+00 0. -1.
</event>
<event>
 8    1  0.1229941E-006  0.9118800E+02  0.7816164E-02  0.1184000E+00
        -11   -1    0    0    0    0  0.00000000000E+00  0.00000000000E+00  0.45593999997E+02  0.45594000000E+02  0.51100000000E-03 0.  1.
         11   -1    0    0    0    0 -0.00000000000E+00 -0.00000000000E+00 -0.45593999997E+02  0.45594000000E+02  0.51100000000E-03 0. -1.
         23    2    1    2    0    0 -0.53290705182E-14 -0.35527136788E-14  0.00000000000E+00  0.91188000000E+02  0.91188000000E+02 0.  0.
    9900012    2    3    3    0    0 -0.10359883296E+02  0.30785921523E+02 -0.17340096607E+02  0.54367094304E+02  0.40000023084E+02 0.  0.
        -12    1    3    3    0    0  0.10359883296E+02 -0.30785921523E+02  0.17340096607E+02  0.36820905696E+02  0.00000000000E+00 0.  1.
         11    1    4    4    0    0  0.90589910562E+01  0.11826376743E+02 -0.20906427643E+01  0.15043247430E+02  0.51100000000E-03 0. -1.
        -11    1    4    4    0    0 -0.23109172070E+02  0.81362601586E+01 -0.12750061669E+02  0.27618773252E+02  0.51100000000E-03 0.  1.
        -12    1    4    4    0    0  0.36902977174E+01  0.10823284622E+02 -0.24993921739E+01  0.11705073622E+02  0.00000000000E+00 0.  1.
</event>
<event>
 8    1  0.1229941E-006  0.9118800E+02  0.7816164E-02  0.1184000E+00
        -11   -1    0    0    0    0  0.00000000000E+00  0.00000000000E+00  0.45593999997E+02  0.45594000000E+02  0.51100000000E-03 0.  1.
         11   -1    0    0    0    0 -0.00000000000E+00 -0.00000000000E+00 -0.45593999997E+02  0.45594000000E+02  0.51100000000E-03 0. -1.
         23    2    1    2    0    0  0.35527136788E-14 -0.35527136788E-14 -0.17763568394E-14  0.91188000000E+02  0.91188000000E+02 0.  0.
    9900012    2    3    3    0    0  0.22983108794E+02 -0.26151645873E+02 -0.11985337571E+02  0.54367079474E+02  0.39999989277E+02 0.  0.
        -12    1    3    3    0    0 -0.22983108794E+02  0.26151645873E+02  0.11985337571E+02  0.36820920526E+02  0.00000000000E+00 0.  1.
         11    1    4    4    0    0  0.20882447414E+01 -0.67245036641E+01 -0.19167228210E+02  0.20419656048E+02  0.51100000000E-03 0. -1.
        -11    1    4    4    0    0  0.22990133208E+02 -0.16319899742E+02  0.30328121782E+01  0.28356362646E+02  0.51100000000E-03 0.  1.
        -12    1    4    4    0    0 -0.20952691556E+01 -0.31072424663E+01  0.41490784602E+01  0.55910607802E+01  0.00000000000E+00 0.  1.
</event>
<event>
 8    1  0.1229941E-006  0.9118800E+02  0.7816164E-02  0.1184000E+00
        -11   -1    0    0    0    0  0.00000000000E+00  0.00000000000E+00  0.45593999997E+02  0.45594000000E+02  0.51100000000E-03 0.  1.
         11   -1    0    0    0    0 -0.00000000000E+00 -0.00000000000E+00 -0.45593999997E+02  0.45594000000E+02  0.51100000000E-03 0. -1.
         23    2    1    2    0    0  0.00000000000E+00 -0.35527136788E-14  0.00000000000E+00  0.91188000000E+02  0.91188000000E+02 0.  0.
    9900012    2    3    3    0    0 -0.19822058767E+02 -0.29019793868E+02  0.10987162598E+02  0.54367079427E+02  0.39999989171E+02 0.  0.
        -12    1    3    3    0    0  0.19822058767E+02  0.29019793868E+02 -0.10987162598E+02  0.36820920573E+02  0.00000000000E+00 0.  1.
         11    1    4    4    0    0 -0.14940507940E+02 -0.36365911706E+02  0.15705628592E+02  0.42336332877E+02  0.51100000000E-03 0. -1.
        -11    1    4    4    0    0 -0.37844100194E+00  0.77278311428E+00 -0.39309980868E+01  0.40240722600E+01  0.51100000000E-03 0.  1.
         12    1    4    4    0    0 -0.45031098245E+01  0.65733347243E+01 -0.78746790756E+00  0.80066742905E+01  0.00000000000E+00 0. -1.
</event>
<event>
 8    1  0.1229941E-006  0.9118800E+02  0.7816164E-02  0.1184000E+00
        -11   -1    0    0    0    0  0.00000000000E+00  0.00000000000E+00  0.45593999997E+02  0.45594000000E+02  0.51100000000E-03 0. -1.
         11   -1    0    0    0    0 -0.00000000000E+00 -0.00000000000E+00 -0.45593999997E+02  0.45594000000E+02  0.51100000000E-03 0.  1.
         23    2    1    2    0    0  0.00000000000E+00  0.35527136788E-14  0.00000000000E+00  0.91188000000E+02  0.91188000000E+02 0.  0.
    9900012    2    3    3    0    0 -0.37496529239E+01 -0.23951573266E+02 -0.27713581475E+02  0.54367077182E+02  0.39999984053E+02 0.  0.
         12    1    3    3    0    0  0.37496529239E+01  0.23951573266E+02  0.27713581475E+02  0.36820922818E+02  0.00000000000E+00 0. -1.
         11    1    4    4    0    0 -0.42624728142E+01 -0.61774565122E+01  0.33882461780E+01  0.82346739994E+01  0.51100000000E-03 0. -1.
        -11    1    4    4    0    0 -0.63667069413E+01 -0.22452942260E+02 -0.29573984038E+02  0.37673466864E+02  0.51100000000E-03 0.  1.
        -12    1    4    4    0    0  0.68795268316E+01  0.46788255059E+01 -0.15278436154E+01  0.84589363193E+01  0.00000000000E+00 0.  1.
</event>
<event>
 8    1  0.1229941E-006  0.9118800E+02  0.7816164E-02  0.1184000E+00
        -11   -1    0    0    0    0  0.00000000000E+00  0.00000000000E+00  0.45593999997E+02  0.45594000000E+02  0.51100000000E-03 0. -1.
         11   -1    0    0    0    0 -0.00000000000E+00 -0.00000000000E+00 -0.45593999997E+02  0.45594000000E+02  0.51100000000E-03 0.  1.
         23    2    1    2    0    0  0.00000000000E+00  0.17763568394E-14  0.35527136788E-14  0.91188000000E+02  0.91188000000E+02 0.  0.
    9900012    2    3    3    0    0 -0.18414521002E+02 -0.38219006862E+01  0.31655623200E+02  0.54367082184E+02  0.39999995456E+02 0.  0.
        -12    1    3    3    0    0  0.18414521002E+02  0.38219006862E+01 -0.31655623200E+02  0.36820917816E+02  0.00000000000E+00 0.  1.
         11    1    4    4    0    0 -0.61037292328E+01  0.57098767408E+01  0.13507175226E+02  0.15884016677E+02  0.51100000000E-03 0. -1.
        -11    1    4    4    0    0 -0.34598067922E+01  0.10714682500E+02  0.28720909176E+01  0.11619965173E+02  0.51100000000E-03 0.  1.
        -12    1    4    4    0    0 -0.88509849769E+01 -0.20246459927E+02  0.15276357057E+02  0.26863100334E+02  0.00000000000E+00 0.  1.
</event>
<event>
 8    1  0.1229941E-006  0.9118800E+02  0.7816164E-02  0.1184000E+00
        -11   -1    0    0    0    0  0.00000000000E+00  0.00000000000E+00  0.45593999997E+02  0.45594000000E+02  0.51100000000E-03 0. -1.
         11   -1    0    0    0    0 -0.00000000000E+00 -0.00000000000E+00 -0.45593999997E+02  0.45594000000E+02  0.51100000000E-03 0.  1.
         23    2    1    2    0    0  0.35527136788E-14  0.00000000000E+00 -0.35527136788E-14  0.91188000000E+02  0.91188000000E+02 0.  0.
    9900012    2    3    3    0    0 -0.16303551402E+02  0.15025009390E+02  0.29397642975E+02  0.54367107725E+02  0.40000053680E+02 0.  0.
        -12    1    3    3    0    0  0.16303551402E+02 -0.15025009390E+02 -0.29397642975E+02  0.36820892275E+02  0.00000000000E+00 0.  1.
         11    1    4    4    0    0 -0.38563499975E+01  0.98459967625E+01  0.77069267003E+01  0.13084792966E+02  0.51100000000E-03 0. -1.
        -11    1    4    4    0    0  0.79498182771E+01  0.98495136064E+01  0.25254664084E+01  0.12906994606E+02  0.51100000000E-03 0.  1.
         12    1    4    4    0    0 -0.20397019682E+02 -0.46705009792E+01  0.19165249866E+02  0.28375320152E+02  0.00000000000E+00 0. -1.
</event>
<event>
 8    1  0.1229941E-006  0.9118800E+02  0.7816164E-02  0.1184000E+00
        -11   -1    0    0    0    0  0.00000000000E+00  0.00000000000E+00  0.45593999997E+02  0.45594000000E+02  0.51100000000E-03 0.  1.
         11   -1    0    0    0    0 -0.00000000000E+00 -0.00000000000E+00 -0.45593999997E+02  0.45594000000E+02  0.51100000000E-03 0. -1.
         23    2    1    2    0    0  0.00000000000E+00  0.17763568394E-14  0.00000000000E+00  0.91188000000E+02  0.91188000000E+02 0.  0.
    9900012    2    3    3    0    0 -0.18538193424E+02  0.81518265678E+01 -0.30751618500E+02  0.54367096532E+02  0.40000028163E+02 0.  0.
        -12    1    3    3    0    0  0.18538193424E+02 -0.81518265678E+01  0.30751618500E+02  0.36820903468E+02  0.00000000000E+00 0.  1.
         11    1    4    4    0    0  0.50664112903E+01  0.10921561991E+01 -0.11168519458E+02  0.12312479671E+02  0.51100000000E-03 0. -1.
        -11    1    4    4    0    0 -0.98691857122E+00  0.13450322682E+02 -0.49381849904E+01  0.14362132842E+02  0.51100000000E-03 0.  1.
        -12    1    4    4    0    0 -0.22617686143E+02 -0.63906523134E+01 -0.14644914053E+02  0.27692484018E+02  0.00000000000E+00 0.  1.
</event>
<event>
 8    1  0.1229941E-006  0.9118800E+02  0.7816164E-02  0.1184000E+00
        -11   -1    0    0    0    0  0.00000000000E+00  0.00000000000E+00  0.45593999997E+02  0.45594000000E+02  0.51100000000E-03 0.  1.
         11   -1    0    0    0    0 -0.00000000000E+00 -0.00000000000E+00 -0.45593999997E+02  0.45594000000E+02  0.51100000000E-03 0. -1.
         23    2    1    2    0    0  0.00000000000E+00  0.00000000000E+00  0.00000000000E+00  0.91188000000E+02  0.91188000000E+02 0.  0.
    9900012    2    3    3    0    0  0.28061893059E+02  0.22028311068E+02 -0.91139458407E+01  0.54367077424E+02  0.39999984603E+02 0.  0.
         12    1    3    3    0    0 -0.28061893059E+02 -0.22028311068E+02  0.91139458407E+01  0.36820922576E+02  0.00000000000E+00 0. -1.
         11    1    4    4    0    0  0.22838570074E+02  0.16546673144E+01  0.55415078070E+01  0.23559425204E+02  0.51100000000E-03 0. -1.
        -11    1    4    4    0    0  0.64725866238E+01  0.18223134904E+02 -0.18147849181E+02  0.26520208398E+02  0.51100000000E-03 0.  1.
         12    1    4    4    0    0 -0.12492636381E+01  0.21505088501E+01  0.34923955337E+01  0.42874438207E+01  0.00000000000E+00 0. -1.
</event>
<event>
 8    1  0.1229941E-006  0.9118800E+02  0.7816164E-02  0.1184000E+00
        -11   -1    0    0    0    0  0.00000000000E+00  0.00000000000E+00  0.45593999997E+02  0.45594000000E+02  0.51100000000E-03 0.  1.
         11   -1    0    0    0    0 -0.00000000000E+00 -0.00000000000E+00 -0.45593999997E+02  0.45594000000E+02  0.51100000000E-03 0. -1.
         23    2    1    2    0    0  0.00000000000E+00  0.00000000000E+00  0.00000000000E+00  0.91188000000E+02  0.91188000000E+02 0.  0.
    9900012    2    3    3    0    0  0.10457757348E+02 -0.19992359470E+02 -0.29098459726E+02  0.54367089035E+02  0.40000011072E+02 0.  0.
        -12    1    3    3    0    0 -0.10457757348E+02  0.19992359470E+02  0.29098459726E+02  0.36820910965E+02  0.00000000000E+00 0.  1.
         11    1    4    4    0    0 -0.44165141226E+01 -0.31984254428E+01 -0.24732216761E+01  0.59876830267E+01  0.51100000000E-03 0. -1.
        -11    1    4    4    0    0 -0.21659377275E+01 -0.22269641661E+02 -0.16640960067E+02  0.27884579577E+02  0.51100000000E-03 0.  1.
        -12    1    4    4    0    0  0.17040209198E+02  0.54757076341E+01 -0.99842779823E+01  0.20494826431E+02  0.00000000000E+00 0.  1.
</event>
<event>
 8    1  0.1229941E-006  0.9118800E+02  0.7816164E-02  0.1184000E+00
        -11   -1    0    0    0    0  0.00000000000E+00  0.00000000000E+00  0.45593999997E+02  0.45594000000E+02  0.51100000000E-03 0.  1.
         11   -1    0    0    0    0 -0.00000000000E+00 -0.00000000000E+00 -0.45593999997E+02  0.45594000000E+02  0.51100000000E-03 0. -1.
         23    2    1    2    0    0 -0.88817841970E-15  0.00000000000E+00  0.71054273576E-14  0.91188000000E+02  0.91188000000E+02 0.  0.
    9900012    2    3    3    0    0  0.47654575116E+01  0.27861755902E+01 -0.36404773375E+02  0.54367083605E+02  0.39999998694E+02 0.  0.
        -12    1    3    3    0    0 -0.47654575116E+01 -0.27861755902E+01  0.36404773375E+02  0.36820916395E+02  0.00000000000E+00 0.  1.
         11    1    4    4    0    0  0.10848282738E+02  0.84351482232E+01 -0.74898482337E+01  0.15650392670E+02  0.51100000000E-03 0.  1.
        -11    1    4    4    0    0 -0.20135223409E+01 -0.15212742283E+02 -0.17713795198E+02  0.23436303901E+02  0.51100000000E-03 0. -1.
        -12    1    4    4    0    0 -0.40693028850E+01  0.95637696498E+01 -0.11201129943E+02  0.15280387033E+02  0.00000000000E+00 0.  1.
</event>
<event>
 8    1  0.1229941E-006  0.9118800E+02  0.7816164E-02  0.1184000E+00
        -11   -1    0    0    0    0  0.00000000000E+00  0.00000000000E+00  0.45593999997E+02  0.45594000000E+02  0.51100000000E-03 0.  1.
         11   -1    0    0    0    0 -0.00000000000E+00 -0.00000000000E+00 -0.45593999997E+02  0.45594000000E+02  0.51100000000E-03 0. -1.
         23    2    1    2    0    0 -0.35527136788E-14 -0.88817841970E-15  0.71054273576E-14  0.91188000000E+02  0.91188000000E+02 0.  0.
    9900012    2    3    3    0    0 -0.12775604425E+02 -0.57922161175E+01  0.34044297546E+02  0.54367081606E+02  0.39999994138E+02 0.  0.
         12    1    3    3    0    0  0.12775604425E+02  0.57922161175E+01 -0.34044297546E+02  0.36820918394E+02  0.00000000000E+00 0. -1.
         11    1    4    4    0    0 -0.49790627219E+01 -0.78646810238E+01 -0.88627704729E+00  0.93503882519E+01  0.51100000000E-03 0. -1.
        -11    1    4    4    0    0  0.66866728544E+01 -0.68488074527E+01  0.20822574521E+02  0.22917184978E+02  0.51100000000E-03 0.  1.
        -12    1    4    4    0    0 -0.14483214558E+02  0.89212723591E+01  0.14108000072E+02  0.22099508376E+02  0.00000000000E+00 0.  1.
</event>
<event>
 8    1  0.1229941E-006  0.9118800E+02  0.7816164E-02  0.1184000E+00
        -11   -1    0    0    0    0  0.00000000000E+00  0.00000000000E+00  0.45593999997E+02  0.45594000000E+02  0.51100000000E-03 0. -1.
         11   -1    0    0    0    0 -0.00000000000E+00 -0.00000000000E+00 -0.45593999997E+02  0.45594000000E+02  0.51100000000E-03 0.  1.
         23    2    1    2    0    0  0.00000000000E+00  0.00000000000E+00 -0.44408920985E-15  0.91188000000E+02  0.91188000000E+02 0.  0.
    9900012    2    3    3    0    0 -0.29957151580E+02 -0.21347849886E+02  0.16181580210E+01  0.54367081205E+02  0.39999993223E+02 0.  0.
         12    1    3    3    0    0  0.29957151580E+02  0.21347849886E+02 -0.16181580210E+01  0.36820918795E+02  0.00000000000E+00 0. -1.
         11    1    4    4    0    0 -0.40481531485E+01  0.28931449131E+01  0.33195413575E+01  0.59814033877E+01  0.51100000000E-03 0. -1.
        -11    1    4    4    0    0 -0.74497845507E+00 -0.18372510438E+02  0.89341982632E+01  0.20443190347E+02  0.51100000000E-03 0.  1.
        -12    1    4    4    0    0 -0.25164019976E+02 -0.58684843611E+01 -0.10635581600E+02  0.27942487470E+02  0.00000000000E+00 0.  1.
</event>
<event>
 8    1  0.1229941E-006  0.9118800E+02  0.7816164E-02  0.1184000E+00
        -11   -1    0    0    0    0  0.00000000000E+00  0.00000000000E+00  0.45593999997E+02  0.45594000000E+02  0.51100000000E-03 0.  1.
         11   -1    0    0    0    0 -0.00000000000E+00 -0.00000000000E+00 -0.45593999997E+02  0.45594000000E+02  0.51100000000E-03 0. -1.
         23    2    1    2    0    0 -0.17763568394E-14  0.00000000000E+00  0.35527136788E-14  0.91188000000E+02  0.91188000000E+02 0.  0.
    9900012    2    3    3    0    0 -0.10610161230E+02  0.26376956813E+02 -0.23397865379E+02  0.54367089143E+02  0.40000011320E+02 0.  0.
        -12    1    3    3    0    0  0.10610161230E+02 -0.26376956813E+02  0.23397865379E+02  0.36820910857E+02  0.00000000000E+00 0.  1.
         11    1    4    4    0    0  0.74658560674E+01  0.24933723238E+02 -0.14852988074E+02  0.29967329149E+02  0.51100000000E-03 0. -1.
        -11    1    4    4    0    0 -0.61163747078E+01 -0.61382454676E+01 -0.38434462064E+01  0.94794607436E+01  0.51100000000E-03 0.  1.
        -12    1    4    4    0    0 -0.11959642590E+02  0.75814790424E+01 -0.47014310982E+01  0.14920299250E+02  0.00000000000E+00 0.  1.
</event>
<event>
 8    1  0.1229941E-006  0.9118800E+02  0.7816164E-02  0.1184000E+00
        -11   -1    0    0    0    0  0.00000000000E+00  0.00000000000E+00  0.45593999997E+02  0.45594000000E+02  0.51100000000E-03 0. -1.
         11   -1    0    0    0    0 -0.00000000000E+00 -0.00000000000E+00 -0.45593999997E+02  0.45594000000E+02  0.51100000000E-03 0.  1.
         23    2    1    2    0    0 -0.17763568394E-14  0.00000000000E+00  0.35527136788E-14  0.91188000000E+02  0.91188000000E+02 0.  0.
    9900012    2    3    3    0    0  0.13586456642E+02 -0.15469959930E+02 -0.30526507020E+02  0.54367094319E+02  0.40000023118E+02 0.  0.
         12    1    3    3    0    0 -0.13586456642E+02  0.15469959930E+02  0.30526507020E+02  0.36820905681E+02  0.00000000000E+00 0. -1.
         11    1    4    4    0    0  0.29082068292E+00  0.29404171271E+01 -0.76737844046E+01  0.82229919677E+01  0.51100000000E-03 0. -1.
        -11    1    4    4    0    0  0.12232063450E+02 -0.62462719062E+01 -0.29282950479E+02  0.32343940360E+02  0.51100000000E-03 0.  1.
         12    1    4    4    0    0  0.10635725087E+01 -0.12164105151E+02  0.64302278632E+01  0.13800161991E+02  0.00000000000E+00 0. -1.
</event>
<event>
 8    1  0.1229941E-006  0.9118800E+02  0.7816164E-02  0.1184000E+00
        -11   -1    0    0    0    0  0.00000000000E+00  0.00000000000E+00  0.45593999997E+02  0.45594000000E+02  0.51100000000E-03 0. -1.
         11   -1    0    0    0    0 -0.00000000000E+00 -0.00000000000E+00 -0.45593999997E+02  0.45594000000E+02  0.51100000000E-03 0.  1.
         23    2    1    2    0    0  0.00000000000E+00  0.00000000000E+00  0.35527136788E-14  0.91188000000E+02  0.91188000000E+02 0.  0.
    9900012    2    3    3    0    0 -0.96786806297E+01  0.22233251098E+02 -0.27708947172E+02  0.54367081129E+02  0.39999993050E+02 0.  0.
         12    1    3    3    0    0  0.96786806297E+01 -0.22233251098E+02  0.27708947172E+02  0.36820918871E+02  0.00000000000E+00 0. -1.
         11    1    4    4    0    0 -0.11164469518E+00  0.17779194029E+02 -0.84859075559E+01  0.19700833286E+02  0.51100000000E-03 0.  1.
        -11    1    4    4    0    0 -0.18274641226E+02  0.69622503739E+01 -0.11042278717E+02  0.22458124627E+02  0.51100000000E-03 0. -1.
         12    1    4    4    0    0  0.87076052917E+01 -0.25081933053E+01 -0.81807608993E+01  0.12208123216E+02  0.00000000000E+00 0. -1.
</event>
<event>
 8    1  0.1229941E-006  0.9118800E+02  0.7816164E-02  0.1184000E+00
        -11   -1    0    0    0    0  0.00000000000E+00  0.00000000000E+00  0.45593999997E+02  0.45594000000E+02  0.51100000000E-03 0.  1.
         11   -1    0    0    0    0 -0.00000000000E+00 -0.00000000000E+00 -0.45593999997E+02  0.45594000000E+02  0.51100000000E-03 0. -1.
         23    2    1    2    0    0 -0.35527136788E-14  0.00000000000E+00  0.00000000000E+00  0.91188000000E+02  0.91188000000E+02 0.  0.
    9900012    2    3    3    0    0  0.25014088459E+02 -0.25747675981E+02  0.81934635390E+01  0.54367078167E+02  0.39999986298E+02 0.  0.
         12    1    3    3    0    0 -0.25014088459E+02  0.25747675981E+02 -0.81934635390E+01  0.36820921833E+02  0.00000000000E+00 0. -1.
         11    1    4    4    0    0  0.33344312494E+00  0.35348965989E+01  0.85271164558E+01  0.92367956345E+01  0.51100000000E-03 0. -1.
        -11    1    4    4    0    0  0.72799768126E+01 -0.22847635537E+02  0.73041754082E+01  0.25067179551E+02  0.51100000000E-03 0.  1.
        -12    1    4    4    0    0  0.17400668521E+02 -0.64349370433E+01 -0.76378283250E+01  0.20063102982E+02  0.00000000000E+00 0.  1.
</event>
<event>
 8    1  0.1229941E-006  0.9118800E+02  0.7816164E-02  0.1184000E+00
        -11   -1    0    0    0    0  0.00000000000E+00  0.00000000000E+00  0.45593999997E+02  0.45594000000E+02  0.51100000000E-03 0. -1.
         11   -1    0    0    0    0 -0.00000000000E+00 -0.00000000000E+00 -0.45593999997E+02  0.45594000000E+02  0.51100000000E-03 0.  1.
         23    2    1    2    0    0  0.17763568394E-14  0.00000000000E+00  0.00000000000E+00  0.91188000000E+02  0.91188000000E+02 0.  0.
    9900012    2    3    3    0    0 -0.89354788570E+01  0.83660919189E+01 -0.34726717577E+02  0.54367093030E+02  0.40000020181E+02 0.  0.
         12    1    3    3    0    0  0.89354788570E+01 -0.83660919189E+01  0.34726717577E+02  0.36820906970E+02  0.00000000000E+00 0. -1.
         11    1    4    4    0    0 -0.90697984667E+01  0.11650410762E+02 -0.21902907435E+02  0.26414591981E+02  0.51100000000E-03 0. -1.
        -11    1    4    4    0    0 -0.89677130780E+01  0.34159961342E+01 -0.13576057116E+02  0.16625228856E+02  0.51100000000E-03 0.  1.
         12    1    4    4    0    0  0.91020326877E+01 -0.67003149771E+01  0.75224697383E+00  0.11327272194E+02  0.00000000000E+00 0. -1.
</event>
<event>
 8    1  0.1229941E-006  0.9118800E+02  0.7816164E-02  0.1184000E+00
        -11   -1    0    0    0    0  0.00000000000E+00  0.00000000000E+00  0.45593999997E+02  0.45594000000E+02  0.51100000000E-03 0.  1.
         11   -1    0    0    0    0 -0.00000000000E+00 -0.00000000000E+00 -0.45593999997E+02  0.45594000000E+02  0.51100000000E-03 0. -1.
         23    2    1    2    0    0  0.00000000000E+00  0.35527136788E-14  0.00000000000E+00  0.91188000000E+02  0.91188000000E+02 0.  0.
    9900012    2    3    3    0    0 -0.17018404438E+02 -0.28936630564E+02  0.15126956476E+02  0.54367088954E+02  0.40000010889E+02 0.  0.
         12    1    3    3    0    0  0.17018404438E+02  0.28936630564E+02 -0.15126956476E+02  0.36820911046E+02  0.00000000000E+00 0. -1.
         11    1    4    4    0    0 -0.14002250864E+01 -0.18846946763E+02  0.11982144867E+01  0.18936835818E+02  0.51100000000E-03 0.  1.
        -11    1    4    4    0    0 -0.13774174677E+02  0.45846665814E+01 -0.82405123747E+00  0.14540499179E+02  0.51100000000E-03 0. -1.
        -12    1    4    4    0    0 -0.18440046751E+01 -0.14674350382E+02  0.14752793227E+02  0.20889753957E+02  0.00000000000E+00 0.  1.
</event>
<event>
 8    1  0.1229941E-006  0.9118800E+02  0.7816164E-02  0.1184000E+00
        -11   -1    0    0    0    0  0.00000000000E+00  0.00000000000E+00  0.45593999997E+02  0.45594000000E+02  0.51100000000E-03 0. -1.
         11   -1    0    0    0    0 -0.00000000000E+00 -0.00000000000E+00 -0.45593999997E+02  0.45594000000E+02  0.51100000000E-03 0.  1.
         23    2    1    2    0    0  0.00000000000E+00  0.00000000000E+00  0.00000000000E+00  0.91188000000E+02  0.91188000000E+02 0.  0.
    9900012    2    3    3    0    0  0.34769778325E+02 -0.42015266831E+01 -0.11366129989E+02  0.54367092595E+02  0.40000019189E+02 0.  0.
         12    1    3    3    0    0 -0.34769778325E+02  0.42015266831E+01  0.11366129989E+02  0.36820907405E+02  0.00000000000E+00 0. -1.
         11    1    4    4    0    0  0.23364164014E+02  0.40984758469E+01 -0.88588517275E+01  0.25321155553E+02  0.51100000000E-03 0.  1.
        -11    1    4    4    0    0  0.23969788174E+01 -0.49105252101E+01 -0.13423047699E+02  0.14492652451E+02  0.51100000000E-03 0. -1.
         12    1    4    4    0    0  0.90086354930E+01 -0.33894773200E+01  0.10915769438E+02  0.14553284590E+02  0.00000000000E+00 0. -1.
</event>
<event>
 8    1  0.1229941E-006  0.9118800E+02  0.7816164E-02  0.1184000E+00
        -11   -1    0    0    0    0  0.00000000000E+00  0.00000000000E+00  0.45593999997E+02  0.45594000000E+02  0.51100000000E-03 0. -1.
         11   -1    0    0    0    0 -0.00000000000E+00 -0.00000000000E+00 -0.45593999997E+02  0.45594000000E+02  0.51100000000E-03 0.  1.
         23    2    1    2    0    0  0.00000000000E+00  0.88817841970E-15  0.00000000000E+00  0.91188000000E+02  0.91188000000E+02 0.  0.
    9900012    2    3    3    0    0 -0.28755901589E+02 -0.45630838352E+01  0.22540056825E+02  0.54367112287E+02  0.40000064081E+02 0.  0.
        -12    1    3    3    0    0  0.28755901589E+02  0.45630838352E+01 -0.22540056825E+02  0.36820887713E+02  0.00000000000E+00 0.  1.
         11    1    4    4    0    0 -0.27044005236E+01 -0.11512452675E+02  0.51596119776E+01  0.12902400738E+02  0.51100000000E-03 0. -1.
        -11    1    4    4    0    0 -0.42715836473E+01  0.67362478051E+01  0.17985977305E+02  0.19675335860E+02  0.51100000000E-03 0.  1.
        -12    1    4    4    0    0 -0.21779917418E+02  0.21312103514E+00 -0.60553245717E+00  0.21789375688E+02  0.00000000000E+00 0.  1.
</event>
<event>
 8    1  0.1229941E-006  0.9118800E+02  0.7816164E-02  0.1184000E+00
        -11   -1    0    0    0    0  0.00000000000E+00  0.00000000000E+00  0.45593999997E+02  0.45594000000E+02  0.51100000000E-03 0. -1.
         11   -1    0    0    0    0 -0.00000000000E+00 -0.00000000000E+00 -0.45593999997E+02  0.45594000000E+02  0.51100000000E-03 0.  1.
         23    2    1    2    0    0 -0.17763568394E-14  0.00000000000E+00  0.71054273576E-14  0.91188000000E+02  0.91188000000E+02 0.  0.
    9900012    2    3    3    0    0  0.13841924103E+02 -0.10240629478E+02 -0.32547066688E+02  0.54367069743E+02  0.39999967093E+02 0.  0.
         12    1    3    3    0    0 -0.13841924103E+02  0.10240629478E+02  0.32547066688E+02  0.36820930257E+02  0.00000000000E+00 0. -1.
         11    1    4    4    0    0  0.89564745956E+01 -0.24050091248E+01  0.69082045592E+01  0.11563987053E+02  0.51100000000E-03 0. -1.
        -11    1    4    4    0    0  0.33298256174E+01 -0.16203831951E+01 -0.10249958104E+01  0.38423946978E+01  0.51100000000E-03 0.  1.
         12    1    4    4    0    0  0.15556238902E+01 -0.62152371582E+01 -0.38430275437E+02  0.38960687992E+02  0.00000000000E+00 0. -1.
</event>
<event>
 8    1  0.1229941E-006  0.9118800E+02  0.7816164E-02  0.1184000E+00
        -11   -1    0    0    0    0  0.00000000000E+00  0.00000000000E+00  0.45593999997E+02  0.45594000000E+02  0.51100000000E-03 0.  1.
         11   -1    0    0    0    0 -0.00000000000E+00 -0.00000000000E+00 -0.45593999997E+02  0.45594000000E+02  0.51100000000E-03 0. -1.
         23    2    1    2    0    0 -0.17763568394E-14  0.71054273576E-14  0.44408920985E-15  0.91188000000E+02  0.91188000000E+02 0.  0.
    9900012    2    3    3    0    0 -0.15301987691E+02  0.33278494891E+02  0.37644500923E+01  0.54367080213E+02  0.39999990961E+02 0.  0.
         12    1    3    3    0    0  0.15301987691E+02 -0.33278494891E+02 -0.37644500923E+01  0.36820919787E+02  0.00000000000E+00 0. -1.
         11    1    4    4    0    0  0.50958850631E+01  0.43094730482E+01 -0.30257303827E+01  0.73276631431E+01  0.51100000000E-03 0. -1.
        -11    1    4    4    0    0 -0.12403400906E+02  0.33728122844E+02  0.74508853257E+00  0.35944203730E+02  0.51100000000E-03 0.  1.
        -12    1    4    4    0    0 -0.79944718480E+01 -0.47591010011E+01  0.60450919424E+01  0.11095213340E+02  0.00000000000E+00 0.  1.
</event>
<event>
 8    1  0.1229941E-006  0.9118800E+02  0.7816164E-02  0.1184000E+00
        -11   -1    0    0    0    0  0.00000000000E+00  0.00000000000E+00  0.45593999997E+02  0.45594000000E+02  0.51100000000E-03 0. -1.
         11   -1    0    0    0    0 -0.00000000000E+00 -0.00000000000E+00 -0.45593999997E+02  0.45594000000E+02  0.51100000000E-03 0.  1.
         23    2    1    2    0    0  0.00000000000E+00  0.17763568394E-14  0.00000000000E+00  0.91188000000E+02  0.91188000000E+02 0.  0.
    9900012    2    3    3    0    0  0.33394787966E+02 -0.12801580060E+02 -0.87571720622E+01  0.54367076901E+02  0.39999983411E+02 0.  0.
         12    1    3    3    0    0 -0.33394787966E+02  0.12801580060E+02  0.87571720622E+01  0.36820923099E+02  0.00000000000E+00 0. -1.
         11    1    4    4    0    0 -0.51489031437E+00 -0.13461373441E+01 -0.85515670192E+01  0.86721679256E+01  0.51100000000E-03 0. -1.
        -11    1    4    4    0    0  0.31054317800E+02 -0.15265855242E+02 -0.89462423926E+01  0.35741463925E+02  0.51100000000E-03 0.  1.
        -12    1    4    4    0    0  0.28553604800E+01  0.38104125257E+01  0.87406373496E+01  0.99534450500E+01  0.00000000000E+00 0.  1.
</event>
<event>
 8    1  0.1229941E-006  0.9118800E+02  0.7816164E-02  0.1184000E+00
        -11   -1    0    0    0    0  0.00000000000E+00  0.00000000000E+00  0.45593999997E+02  0.45594000000E+02  0.51100000000E-03 0.  1.
         11   -1    0    0    0    0 -0.00000000000E+00 -0.00000000000E+00 -0.45593999997E+02  0.45594000000E+02  0.51100000000E-03 0. -1.
         23    2    1    2    0    0  0.44408920985E-15 -0.17763568394E-14  0.00000000000E+00  0.91188000000E+02  0.91188000000E+02 0.  0.
    9900012    2    3    3    0    0  0.30962757920E+01  0.13037674103E+02 -0.34295973335E+02  0.54367059535E+02  0.39999943821E+02 0.  0.
        -12    1    3    3    0    0 -0.30962757920E+01 -0.13037674103E+02  0.34295973335E+02  0.36820940465E+02  0.00000000000E+00 0.  1.
         11    1    4    4    0    0  0.38343198007E+01  0.29854308014E+01 -0.28742980677E+02  0.29150878955E+02  0.51100000000E-03 0. -1.
        -11    1    4    4    0    0  0.60431085287E+01  0.91631836074E+01 -0.11684015692E+02  0.16031198254E+02  0.51100000000E-03 0.  1.
        -12    1    4    4    0    0 -0.67811525374E+01  0.88905969405E+00  0.61310230342E+01  0.91849823255E+01  0.00000000000E+00 0.  1.
</event>
<event>
 8    1  0.1229941E-006  0.9118800E+02  0.7816164E-02  0.1184000E+00
        -11   -1    0    0    0    0  0.00000000000E+00  0.00000000000E+00  0.45593999997E+02  0.45594000000E+02  0.51100000000E-03 0. -1.
         11   -1    0    0    0    0 -0.00000000000E+00 -0.00000000000E+00 -0.45593999997E+02  0.45594000000E+02  0.51100000000E-03 0.  1.
         23    2    1    2    0    0  0.00000000000E+00  0.00000000000E+00  0.00000000000E+00  0.91188000000E+02  0.91188000000E+02 0.  0.
    9900012    2    3    3    0    0  0.24924950443E+02  0.84754399148E+01  0.25742836059E+02  0.54367084141E+02  0.39999999917E+02 0.  0.
        -12    1    3    3    0    0 -0.24924950443E+02 -0.84754399148E+01 -0.25742836059E+02  0.36820915859E+02  0.00000000000E+00 0.  1.
         11    1    4    4    0    0 -0.55536314537E+00 -0.31310195911E+01  0.23087176246E+02  0.23305137184E+02  0.51100000000E-03 0. -1.
        -11    1    4    4    0    0  0.38510425540E+01 -0.17714273753E+01 -0.27617513154E+01  0.50592246726E+01  0.51100000000E-03 0.  1.
         12    1    4    4    0    0  0.21629271034E+02  0.13377886881E+02  0.54174111282E+01  0.26002722285E+02  0.00000000000E+00 0. -1.
</event>
<event>
 8    1  0.1229941E-006  0.9118800E+02  0.7816164E-02  0.1184000E+00
        -11   -1    0    0    0    0  0.00000000000E+00  0.00000000000E+00  0.45593999997E+02  0.45594000000E+02  0.51100000000E-03 0. -1.
         11   -1    0    0    0    0 -0.00000000000E+00 -0.00000000000E+00 -0.45593999997E+02  0.45594000000E+02  0.51100000000E-03 0.  1.
         23    2    1    2    0    0  0.00000000000E+00  0.00000000000E+00  0.88817841970E-15  0.91188000000E+02  0.91188000000E+02 0.  0.
    9900012    2    3    3    0    0 -0.34835332108E+02  0.91008087118E+01  0.77107133931E+01  0.54367079543E+02  0.39999989434E+02 0.  0.
         12    1    3    3    0    0  0.34835332108E+02 -0.91008087118E+01 -0.77107133931E+01  0.36820920457E+02  0.00000000000E+00 0. -1.
         11    1    4    4    0    0  0.44539062795E+00  0.35587503598E+01 -0.55451997464E+01  0.66039622518E+01  0.51100000000E-03 0. -1.
        -11    1    4    4    0    0 -0.28685982103E+02  0.73265204192E+01  0.21841140346E+02  0.36791288133E+02  0.51100000000E-03 0.  1.
        -12    1    4    4    0    0 -0.65947406331E+01 -0.17844620672E+01 -0.85852272063E+01  0.10971829158E+02  0.00000000000E+00 0.  1.
</event>
<event>
 8    1  0.1229941E-006  0.9118800E+02  0.7816164E-02  0.1184000E+00
        -11   -1    0    0    0    0  0.00000000000E+00  0.00000000000E+00  0.45593999997E+02  0.45594000000E+02  0.51100000000E-03 0. -1.
         11   -1    0    0    0    0 -0.00000000000E+00 -0.00000000000E+00 -0.45593999997E+02  0.45594000000E+02  0.51100000000E-03 0.  1.
         23    2    1    2    0    0 -0.17763568394E-14 -0.35527136788E-14  0.00000000000E+00  0.91188000000E+02  0.91188000000E+02 0.  0.
    9900012    2    3    3    0    0 -0.51172830972E+01  0.17902225546E+02  0.31766391216E+02  0.54367083707E+02  0.39999998927E+02 0.  0.
        -12    1    3    3    0    0  0.51172830972E+01 -0.17902225546E+02 -0.31766391216E+02  0.36820916293E+02  0.00000000000E+00 0.  1.
         11    1    4    4    0    0  0.10296114158E+02  0.58124804962E+01  0.30752327501E+01  0.12216871654E+02  0.51100000000E-03 0.  1.
        -11    1    4    4    0    0  0.21038760554E+01  0.12832744975E+02  0.15354505414E+02  0.20121294064E+02  0.51100000000E-03 0. -1.
        -12    1    4    4    0    0 -0.17517273311E+02 -0.74299992477E+00  0.13336653052E+02  0.22028917989E+02  0.00000000000E+00 0.  1.
</event>
<event>
 8    1  0.1229941E-006  0.9118800E+02  0.7816164E-02  0.1184000E+00
        -11   -1    0    0    0    0  0.00000000000E+00  0.00000000000E+00  0.45593999997E+02  0.45594000000E+02  0.51100000000E-03 0. -1.
         11   -1    0    0    0    0 -0.00000000000E+00 -0.00000000000E+00 -0.45593999997E+02  0.45594000000E+02  0.51100000000E-03 0.  1.
         23    2    1    2    0    0 -0.88817841970E-15 -0.35527136788E-14  0.35527136788E-14  0.91188000000E+02  0.91188000000E+02 0.  0.
    9900012    2    3    3    0    0  0.40657943570E+01  0.30774234537E+02 -0.19804206318E+02  0.54366935608E+02  0.39999661304E+02 0.  0.
        -12    1    3    3    0    0 -0.40657943570E+01 -0.30774234537E+02  0.19804206318E+02  0.36821064392E+02  0.00000000000E+00 0.  1.
         11    1    4    4    0    0  0.64310569474E+01  0.19176689303E+01 -0.69192008273E+01  0.96390501574E+01  0.51100000000E-03 0. -1.
        -11    1    4    4    0    0  0.11339846897E+02  0.24488102155E+01  0.14692341831E+01  0.11693906467E+02  0.51100000000E-03 0.  1.
        -12    1    4    4    0    0 -0.13705109487E+02  0.26407755391E+02 -0.14354239674E+02  0.33033978983E+02  0.00000000000E+00 0.  1.
</event>
<event>
 8    1  0.1229941E-006  0.9118800E+02  0.7816164E-02  0.1184000E+00
        -11   -1    0    0    0    0  0.00000000000E+00  0.00000000000E+00  0.45593999997E+02  0.45594000000E+02  0.51100000000E-03 0.  1.
         11   -1    0    0    0    0 -0.00000000000E+00 -0.00000000000E+00 -0.45593999997E+02  0.45594000000E+02  0.51100000000E-03 0. -1.
         23    2    1    2    0    0  0.00000000000E+00  0.00000000000E+00 -0.88817841970E-15  0.91188000000E+02  0.91188000000E+02 0.  0.
    9900012    2    3    3    0    0 -0.32630948447E+02 -0.16197301044E+02  0.53524880708E+01  0.54367075430E+02  0.39999980058E+02 0.  0.
        -12    1    3    3    0    0  0.32630948447E+02  0.16197301044E+02 -0.53524880708E+01  0.36820924570E+02  0.00000000000E+00 0.  1.
         11    1    4    4    0    0 -0.40283146389E+02 -0.97423767256E+01 -0.21134002038E+01  0.41498340303E+02  0.51100000000E-03 0. -1.
        -11    1    4    4    0    0  0.47221943571E+01 -0.42110042987E+01  0.27978986809E+01  0.69180860099E+01  0.51100000000E-03 0.  1.
         12    1    4    4    0    0  0.29300035850E+01 -0.22439200199E+01  0.46679895937E+01  0.59506491167E+01  0.00000000000E+00 0. -1.
</event>
<event>
 8    1  0.1229941E-006  0.9118800E+02  0.7816164E-02  0.1184000E+00
        -11   -1    0    0    0    0  0.00000000000E+00  0.00000000000E+00  0.45593999997E+02  0.45594000000E+02  0.51100000000E-03 0.  1.
         11   -1    0    0    0    0 -0.00000000000E+00 -0.00000000000E+00 -0.45593999997E+02  0.45594000000E+02  0.51100000000E-03 0. -1.
         23    2    1    2    0    0  0.17763568394E-14  0.35527136788E-14  0.00000000000E+00  0.91188000000E+02  0.91188000000E+02 0.  0.
    9900012    2    3    3    0    0 -0.80375833478E+01 -0.27385960646E+02 -0.23263385216E+02  0.54367099980E+02  0.40000036025E+02 0.  0.
        -12    1    3    3    0    0  0.80375833478E+01  0.27385960646E+02  0.23263385216E+02  0.36820900020E+02  0.00000000000E+00 0.  1.
         11    1    4    4    0    0  0.68054871705E+01  0.17438198908E+01 -0.12352230742E+02  0.14210319067E+02  0.51100000000E-03 0. -1.
        -11    1    4    4    0    0 -0.17546841734E+01 -0.16659772623E+02  0.34079309941E+01  0.17095055845E+02  0.51100000000E-03 0.  1.
         12    1    4    4    0    0 -0.13088386345E+02 -0.12470007913E+02 -0.14319085468E+02  0.23061725068E+02  0.00000000000E+00 0. -1.
</event>
<event>
 8    1  0.1229941E-006  0.9118800E+02  0.7816164E-02  0.1184000E+00
        -11   -1    0    0    0    0  0.00000000000E+00  0.00000000000E+00  0.45593999997E+02  0.45594000000E+02  0.51100000000E-03 0. -1.
         11   -1    0    0    0    0 -0.00000000000E+00 -0.00000000000E+00 -0.45593999997E+02  0.45594000000E+02  0.51100000000E-03 0.  1.
         23    2    1    2    0    0  0.00000000000E+00  0.00000000000E+00 -0.17763568394E-14  0.91188000000E+02  0.91188000000E+02 0.  0.
    9900012    2    3    3    0    0 -0.71399616149E+01  0.32492398674E+02  0.15780600378E+02  0.54367321411E+02  0.40000540817E+02 0.  0.
        -12    1    3    3    0    0  0.71399616149E+01 -0.32492398674E+02 -0.15780600378E+02  0.36820678589E+02  0.00000000000E+00 0.  1.
         11    1    4    4    0    0  0.97989144095E+00  0.30273377231E+02  0.14440054863E+02  0.33555219280E+02  0.51100000000E-03 0. -1.
        -11    1    4    4    0    0 -0.11355960132E+02  0.77699527089E+01 -0.13917590077E+01  0.13829930912E+02  0.51100000000E-03 0.  1.
         12    1    4    4    0    0  0.32361070766E+01 -0.55509312659E+01  0.27323045222E+01  0.69821712190E+01  0.00000000000E+00 0. -1.
</event>
<event>
 8    1  0.1229941E-006  0.9118800E+02  0.7816164E-02  0.1184000E+00
        -11   -1    0    0    0    0  0.00000000000E+00  0.00000000000E+00  0.45593999997E+02  0.45594000000E+02  0.51100000000E-03 0. -1.
         11   -1    0    0    0    0 -0.00000000000E+00 -0.00000000000E+00 -0.45593999997E+02  0.45594000000E+02  0.51100000000E-03 0.  1.
         23    2    1    2    0    0  0.00000000000E+00  0.35527136788E-14  0.00000000000E+00  0.91188000000E+02  0.91188000000E+02 0.  0.
    9900012    2    3    3    0    0  0.22420793746E+02 -0.27219873947E+02 -0.10590875840E+02  0.54367079575E+02  0.39999989507E+02 0.  0.
         12    1    3    3    0    0 -0.22420793746E+02  0.27219873947E+02  0.10590875840E+02  0.36820920425E+02  0.00000000000E+00 0. -1.
         11    1    4    4    0    0  0.11581320955E+02 -0.15866532623E+02  0.62595501824E+00  0.19653642728E+02  0.51100000000E-03 0. -1.
        -11    1    4    4    0    0  0.10034757761E+02 -0.18677278415E+02 -0.15433082725E+02  0.26224361479E+02  0.51100000000E-03 0.  1.
         12    1    4    4    0    0  0.80471503039E+00  0.73239370911E+01  0.42162518669E+01  0.84890753678E+01  0.00000000000E+00 0. -1.
</event>
<event>
 8    1  0.1229941E-006  0.9118800E+02  0.7816164E-02  0.1184000E+00
        -11   -1    0    0    0    0  0.00000000000E+00  0.00000000000E+00  0.45593999997E+02  0.45594000000E+02  0.51100000000E-03 0.  1.
         11   -1    0    0    0    0 -0.00000000000E+00 -0.00000000000E+00 -0.45593999997E+02  0.45594000000E+02  0.51100000000E-03 0. -1.
         23    2    1    2    0    0  0.00000000000E+00  0.00000000000E+00  0.00000000000E+00  0.91188000000E+02  0.91188000000E+02 0.  0.
    9900012    2    3    3    0    0 -0.34084734225E+02 -0.94670489498E+01  0.10216924110E+02  0.54367086632E+02  0.40000005595E+02 0.  0.
         12    1    3    3    0    0  0.34084734225E+02  0.94670489498E+01 -0.10216924110E+02  0.36820913368E+02  0.00000000000E+00 0. -1.
         11    1    4    4    0    0 -0.25764612000E+02  0.11666114275E+02  0.10492489774E+02  0.30166302321E+02  0.51100000000E-03 0. -1.
        -11    1    4    4    0    0 -0.40221630377E+01 -0.17257274189E+02 -0.27031335230E+01  0.17924793975E+02  0.51100000000E-03 0.  1.
         12    1    4    4    0    0 -0.42979591868E+01 -0.38758890365E+01  0.24275678582E+01  0.62759903363E+01  0.00000000000E+00 0. -1.
</event>
<event>
 8    1  0.1229941E-006  0.9118800E+02  0.7816164E-02  0.1184000E+00
        -11   -1    0    0    0    0  0.00000000000E+00  0.00000000000E+00  0.45593999997E+02  0.45594000000E+02  0.51100000000E-03 0.  1.
         11   -1    0    0    0    0 -0.00000000000E+00 -0.00000000000E+00 -0.45593999997E+02  0.45594000000E+02  0.51100000000E-03 0. -1.
         23    2    1    2    0    0  0.00000000000E+00  0.35527136788E-14 -0.88817841970E-15  0.91188000000E+02  0.91188000000E+02 0.  0.
    9900012    2    3    3    0    0 -0.19834347062E+02 -0.30330505426E+02 -0.65145764780E+01  0.54367074028E+02  0.39999976861E+02 0.  0.
         12    1    3    3    0    0  0.19834347062E+02  0.30330505426E+02  0.65145764780E+01  0.36820925972E+02  0.00000000000E+00 0. -1.
         11    1    4    4    0    0 -0.13654308106E+01 -0.17940577592E+02  0.29483503374E+01  0.18232429778E+02  0.51100000000E-03 0. -1.
        -11    1    4    4    0    0 -0.15836080820E+02 -0.13881070900E+02  0.47629546221E+01  0.21590537790E+02  0.51100000000E-03 0.  1.
         12    1    4    4    0    0 -0.26328354311E+01  0.14911430656E+01 -0.14225881437E+02  0.14544106460E+02  0.00000000000E+00 0. -1.
</event>
<event>
 8    1  0.1229941E-006  0.9118800E+02  0.7816164E-02  0.1184000E+00
        -11   -1    0    0    0    0  0.00000000000E+00  0.00000000000E+00  0.45593999997E+02  0.45594000000E+02  0.51100000000E-03 0. -1.
         11   -1    0    0    0    0 -0.00000000000E+00 -0.00000000000E+00 -0.45593999997E+02  0.45594000000E+02  0.51100000000E-03 0.  1.
         23    2    1    2    0    0  0.88817841970E-15  0.00000000000E+00  0.00000000000E+00  0.91188000000E+02  0.91188000000E+02 0.  0.
    9900012    2    3    3    0    0  0.46731631301E+00 -0.54275710609E+01  0.36415695189E+02  0.54367085179E+02  0.40000002283E+02 0.  0.
        -12    1    3    3    0    0 -0.46731631301E+00  0.54275710609E+01 -0.36415695189E+02  0.36820914821E+02  0.00000000000E+00 0.  1.
         11    1    4    4    0    0  0.20114436941E+01 -0.51058067746E+01  0.43486472293E+02  0.43831363672E+02  0.51100000000E-03 0. -1.
        -11    1    4    4    0    0  0.24871163704E+01  0.11953066816E+01 -0.70227363858E+00  0.28474013464E+01  0.51100000000E-03 0.  1.
         12    1    4    4    0    0 -0.40312437515E+01 -0.15170709679E+01 -0.63685034658E+01  0.76883201611E+01  0.00000000000E+00 0. -1.
</event>
<event>
 8    1  0.1229941E-006  0.9118800E+02  0.7816164E-02  0.1184000E+00
        -11   -1    0    0    0    0  0.00000000000E+00  0.00000000000E+00  0.45593999997E+02  0.45594000000E+02  0.51100000000E-03 0. -1.
         11   -1    0    0    0    0 -0.00000000000E+00 -0.00000000000E+00 -0.45593999997E+02  0.45594000000E+02  0.51100000000E-03 0.  1.
         23    2    1    2    0    0  0.00000000000E+00  0.17763568394E-14  0.22204460493E-14  0.91188000000E+02  0.91188000000E+02 0.  0.
    9900012    2    3    3    0    0 -0.34760667817E+02 -0.11778355672E+02 -0.29572335212E+01  0.54367096704E+02  0.40000028556E+02 0.  0.
        -12    1    3    3    0    0  0.34760667817E+02  0.11778355672E+02  0.29572335212E+01  0.36820903296E+02  0.00000000000E+00 0.  1.
         11    1    4    4    0    0 -0.58132915447E+01 -0.68411245227E+01  0.60075653104E+01  0.10802137961E+02  0.51100000000E-03 0. -1.
        -11    1    4    4    0    0 -0.77461645979E+01 -0.24579182362E+01  0.11441767726E+02  0.14034189574E+02  0.51100000000E-03 0.  1.
        -12    1    4    4    0    0 -0.21201211675E+02 -0.24793129129E+01 -0.20406566558E+02  0.29530769168E+02  0.00000000000E+00 0.  1.
</event>
<event>
 8    1  0.1229941E-006  0.9118800E+02  0.7816164E-02  0.1184000E+00
        -11   -1    0    0    0    0  0.00000000000E+00  0.00000000000E+00  0.45593999997E+02  0.45594000000E+02  0.51100000000E-03 0.  1.
         11   -1    0    0    0    0 -0.00000000000E+00 -0.00000000000E+00 -0.45593999997E+02  0.45594000000E+02  0.51100000000E-03 0. -1.
         23    2    1    2    0    0  0.00000000000E+00 -0.22204460493E-15 -0.88817841970E-15  0.91188000000E+02  0.91188000000E+02 0.  0.
    9900012    2    3    3    0    0 -0.36749697633E+02  0.53825372361E+00 -0.22247118266E+01  0.54367091051E+02  0.40000015668E+02 0.  0.
        -12    1    3    3    0    0  0.36749697633E+02 -0.53825372361E+00  0.22247118266E+01  0.36820908949E+02  0.00000000000E+00 0.  1.
         11    1    4    4    0    0 -0.23023702512E+01  0.17460764111E+01 -0.13820113148E+01  0.32030683949E+01  0.51100000000E-03 0. -1.
        -11    1    4    4    0    0 -0.38916568160E+02 -0.74659060884E+01 -0.82619541736E+01  0.40478375932E+02  0.51100000000E-03 0.  1.
        -12    1    4    4    0    0  0.44692407790E+01  0.62580834009E+01  0.74192536618E+01  0.10685646723E+02  0.00000000000E+00 0.  1.
</event>
<event>
 8    1  0.1229941E-006  0.9118800E+02  0.7816164E-02  0.1184000E+00
        -11   -1    0    0    0    0  0.00000000000E+00  0.00000000000E+00  0.45593999997E+02  0.45594000000E+02  0.51100000000E-03 0.  1.
         11   -1    0    0    0    0 -0.00000000000E+00 -0.00000000000E+00 -0.45593999997E+02  0.45594000000E+02  0.51100000000E-03 0. -1.
         23    2    1    2    0    0  0.00000000000E+00 -0.71054273576E-14  0.00000000000E+00  0.91188000000E+02  0.91188000000E+02 0.  0.
    9900012    2    3    3    0    0  0.43659010938E+01  0.32515109010E+02 -0.16717618296E+02  0.54367188387E+02  0.40000237566E+02 0.  0.
        -12    1    3    3    0    0 -0.43659010938E+01 -0.32515109010E+02  0.16717618296E+02  0.36820811613E+02  0.00000000000E+00 0.  1.
         11    1    4    4    0    0 -0.11837634932E+01  0.75760777099E+01 -0.10026501851E+02  0.12622558739E+02  0.51100000000E-03 0. -1.
        -11    1    4    4    0    0 -0.59210151762E+01  0.40435285024E+01 -0.14898744452E+02  0.16534241137E+02  0.51100000000E-03 0.  1.
        -12    1    4    4    0    0  0.11470679763E+02  0.20895502798E+02  0.82076280073E+01  0.25210388512E+02  0.00000000000E+00 0.  1.
</event>
<event>
 8    1  0.1229941E-006  0.9118800E+02  0.7816164E-02  0.1184000E+00
        -11   -1    0    0    0    0  0.00000000000E+00  0.00000000000E+00  0.45593999997E+02  0.45594000000E+02  0.51100000000E-03 0. -1.
         11   -1    0    0    0    0 -0.00000000000E+00 -0.00000000000E+00 -0.45593999997E+02  0.45594000000E+02  0.51100000000E-03 0.  1.
         23    2    1    2    0    0  0.00000000000E+00  0.00000000000E+00  0.00000000000E+00  0.91188000000E+02  0.91188000000E+02 0.  0.
    9900012    2    3    3    0    0  0.30138905631E+01 -0.28352520545E+02 -0.23298733011E+02  0.54367083152E+02  0.39999997663E+02 0.  0.
         12    1    3    3    0    0 -0.30138905631E+01  0.28352520545E+02  0.23298733011E+02  0.36820916848E+02  0.00000000000E+00 0. -1.
         11    1    4    4    0    0 -0.13005208517E+02 -0.40768295579E+01 -0.50860849758E+01  0.14547310695E+02  0.51100000000E-03 0. -1.
        -11    1    4    4    0    0  0.74442847033E+01  0.15146903817E+01 -0.10327427130E+01  0.76666954726E+01  0.51100000000E-03 0.  1.
        -12    1    4    4    0    0  0.85748143765E+01 -0.25790381368E+02 -0.17179905323E+02  0.32153076985E+02  0.00000000000E+00 0.  1.
</event>
<event>
 8    1  0.1229941E-006  0.9118800E+02  0.7816164E-02  0.1184000E+00
        -11   -1    0    0    0    0  0.00000000000E+00  0.00000000000E+00  0.45593999997E+02  0.45594000000E+02  0.51100000000E-03 0.  1.
         11   -1    0    0    0    0 -0.00000000000E+00 -0.00000000000E+00 -0.45593999997E+02  0.45594000000E+02  0.51100000000E-03 0. -1.
         23    2    1    2    0    0 -0.35527136788E-14  0.00000000000E+00  0.00000000000E+00  0.91188000000E+02  0.91188000000E+02 0.  0.
    9900012    2    3    3    0    0 -0.17375658544E+02  0.15691280569E+02 -0.28419186798E+02  0.54367082385E+02  0.39999995914E+02 0.  0.
        -12    1    3    3    0    0  0.17375658544E+02 -0.15691280569E+02  0.28419186798E+02  0.36820917615E+02  0.00000000000E+00 0.  1.
         11    1    4    4    0    0 -0.36655331619E+01 -0.70316248773E+00 -0.70468397538E+01  0.79742411314E+01  0.51100000000E-03 0. -1.
        -11    1    4    4    0    0  0.77868986173E+01  0.15805233588E+02 -0.16927490553E+02  0.24433197408E+02  0.51100000000E-03 0.  1.
        -12    1    4    4    0    0 -0.21497024000E+02  0.58920946818E+00 -0.44448564906E+01  0.21959643846E+02  0.00000000000E+00 0.  1.
</event>
<event>
 8    1  0.1229941E-006  0.9118800E+02  0.7816164E-02  0.1184000E+00
        -11   -1    0    0    0    0  0.00000000000E+00  0.00000000000E+00  0.45593999997E+02  0.45594000000E+02  0.51100000000E-03 0. -1.
         11   -1    0    0    0    0 -0.00000000000E+00 -0.00000000000E+00 -0.45593999997E+02  0.45594000000E+02  0.51100000000E-03 0.  1.
         23    2    1    2    0    0 -0.35527136788E-14 -0.71054273576E-14 -0.17763568394E-14  0.91188000000E+02  0.91188000000E+02 0.  0.
    9900012    2    3    3    0    0 -0.21293814357E+02 -0.26994876801E+02 -0.13176902869E+02  0.54367072899E+02  0.39999974288E+02 0.  0.
        -12    1    3    3    0    0  0.21293814357E+02  0.26994876801E+02  0.13176902869E+02  0.36820927101E+02  0.00000000000E+00 0.  1.
         11    1    4    4    0    0  0.18833059758E+01  0.10781265785E+01  0.58945445069E+00  0.22487007645E+01  0.51100000000E-03 0. -1.
        -11    1    4    4    0    0 -0.68243488350E+00  0.62528993666E+01 -0.87452893319E+01  0.10772397766E+02  0.51100000000E-03 0.  1.
         12    1    4    4    0    0 -0.22494685449E+02 -0.34325902746E+02 -0.50210679876E+01  0.41345974369E+02  0.00000000000E+00 0. -1.
</event>
<event>
 8    1  0.1229941E-006  0.9118800E+02  0.7816164E-02  0.1184000E+00
        -11   -1    0    0    0    0  0.00000000000E+00  0.00000000000E+00  0.45593999997E+02  0.45594000000E+02  0.51100000000E-03 0. -1.
         11   -1    0    0    0    0 -0.00000000000E+00 -0.00000000000E+00 -0.45593999997E+02  0.45594000000E+02  0.51100000000E-03 0.  1.
         23    2    1    2    0    0 -0.35527136788E-14  0.00000000000E+00  0.17763568394E-14  0.91188000000E+02  0.91188000000E+02 0.  0.
    9900012    2    3    3    0    0 -0.28353133592E+02  0.20784128354E+02  0.10949864946E+02  0.54367085858E+02  0.40000003831E+02 0.  0.
        -12    1    3    3    0    0  0.28353133592E+02 -0.20784128354E+02 -0.10949864946E+02  0.36820914142E+02  0.00000000000E+00 0.  1.
         11    1    4    4    0    0 -0.24335660194E+02  0.68844953212E+01 -0.54300291683E+01  0.25867080429E+02  0.51100000000E-03 0. -1.
        -11    1    4    4    0    0  0.63580034973E+01  0.44712897207E+01  0.12487961116E+01  0.78724921231E+01  0.51100000000E-03 0.  1.
         12    1    4    4    0    0 -0.10375476896E+02  0.94283433118E+01  0.15131098003E+02  0.20627513306E+02  0.00000000000E+00 0. -1.
</event>
<event>
 8    1  0.1229941E-006  0.9118800E+02  0.7816164E-02  0.1184000E+00
        -11   -1    0    0    0    0  0.00000000000E+00  0.00000000000E+00  0.45593999997E+02  0.45594000000E+02  0.51100000000E-03 0.  1.
         11   -1    0    0    0    0 -0.00000000000E+00 -0.00000000000E+00 -0.45593999997E+02  0.45594000000E+02  0.51100000000E-03 0. -1.
         23    2    1    2    0    0  0.00000000000E+00  0.00000000000E+00 -0.66613381478E-15  0.91188000000E+02  0.91188000000E+02 0.  0.
    9900012    2    3    3    0    0  0.28486530975E+02  0.23293154675E+02 -0.13130310764E+01  0.54367115270E+02  0.40000070881E+02 0.  0.
        -12    1    3    3    0    0 -0.28486530975E+02 -0.23293154675E+02  0.13130310764E+01  0.36820884730E+02  0.00000000000E+00 0.  1.
         11    1    4    4    0    0  0.82223283290E+01  0.42744767673E+01  0.11870315640E+02  0.15059290436E+02  0.51100000000E-03 0. -1.
        -11    1    4    4    0    0  0.48029936740E+01  0.14110903282E+02  0.42449383580E+01  0.15498575470E+02  0.51100000000E-03 0.  1.
         12    1    4    4    0    0  0.15461208972E+02  0.49077746260E+01 -0.17428285075E+02  0.23809249364E+02  0.00000000000E+00 0. -1.
</event>
<event>
 8    1  0.1229941E-006  0.9118800E+02  0.7816164E-02  0.1184000E+00
        -11   -1    0    0    0    0  0.00000000000E+00  0.00000000000E+00  0.45593999997E+02  0.45594000000E+02  0.51100000000E-03 0.  1.
         11   -1    0    0    0    0 -0.00000000000E+00 -0.00000000000E+00 -0.45593999997E+02  0.45594000000E+02  0.51100000000E-03 0. -1.
         23    2    1    2    0    0  0.00000000000E+00  0.00000000000E+00  0.88817841970E-15  0.91188000000E+02  0.91188000000E+02 0.  0.
    9900012    2    3    3    0    0  0.16231727939E+01  0.35908029165E+02  0.79847201082E+01  0.54367122720E+02  0.40000087865E+02 0.  0.
         12    1    3    3    0    0 -0.16231727939E+01 -0.35908029165E+02 -0.79847201082E+01  0.36820877280E+02  0.00000000000E+00 0. -1.
         11    1    4    4    0    0  0.44097853070E+01 -0.60203510306E+01 -0.56624238193E+01  0.93677039212E+01  0.51100000000E-03 0. -1.
        -11    1    4    4    0    0  0.25884274580E+01  0.22026573953E+02  0.56395196583E+01  0.22883926653E+02  0.51100000000E-03 0.  1.
         12    1    4    4    0    0 -0.53750399711E+01  0.19901806243E+02  0.80076242692E+01  0.22115492146E+02  0.00000000000E+00 0. -1.
</event>
<event>
 8    1  0.1229941E-006  0.9118800E+02  0.7816164E-02  0.1184000E+00
        -11   -1    0    0    0    0  0.00000000000E+00  0.00000000000E+00  0.45593999997E+02  0.45594000000E+02  0.51100000000E-03 0. -1.
         11   -1    0    0    0    0 -0.00000000000E+00 -0.00000000000E+00 -0.45593999997E+02  0.45594000000E+02  0.51100000000E-03 0.  1.
         23    2    1    2    0    0  0.17763568394E-14  0.35527136788E-14  0.35527136788E-14  0.91188000000E+02  0.91188000000E+02 0.  0.
    9900012    2    3    3    0    0 -0.13669511904E+02 -0.27945177391E+02 -0.19697521656E+02  0.54367070428E+02  0.39999968656E+02 0.  0.
         12    1    3    3    0    0  0.13669511904E+02  0.27945177391E+02  0.19697521656E+02  0.36820929572E+02  0.00000000000E+00 0. -1.
         11    1    4    4    0    0  0.89594508118E+01 -0.48803770811E+01  0.27313254333E+00  0.10206098224E+02  0.51100000000E-03 0. -1.
        -11    1    4    4    0    0 -0.15063041242E+02 -0.18826086692E+02 -0.19830782158E+01  0.24191927394E+02  0.51100000000E-03 0.  1.
        -12    1    4    4    0    0 -0.75659214739E+01 -0.42387136186E+01 -0.17987575984E+02  0.19969044811E+02  0.00000000000E+00 0.  1.
</event>
<event>
 8    1  0.1229941E-006  0.9118800E+02  0.7816164E-02  0.1184000E+00
        -11   -1    0    0    0    0  0.00000000000E+00  0.00000000000E+00  0.45593999997E+02  0.45594000000E+02  0.51100000000E-03 0. -1.
         11   -1    0    0    0    0 -0.00000000000E+00 -0.00000000000E+00 -0.45593999997E+02  0.45594000000E+02  0.51100000000E-03 0.  1.
         23    2    1    2    0    0 -0.35527136788E-14  0.36082248300E-15  0.35527136788E-14  0.91188000000E+02  0.91188000000E+02 0.  0.
    9900012    2    3    3    0    0  0.24522642580E+02  0.43577754079E-01 -0.27466508874E+02  0.54367204139E+02  0.40000273474E+02 0.  0.
         12    1    3    3    0    0 -0.24522642580E+02 -0.43577754079E-01  0.27466508874E+02  0.36820795861E+02  0.00000000000E+00 0. -1.
         11    1    4    4    0    0 -0.31045165353E+01  0.65614192070E+01 -0.24634547801E+02  0.25681728730E+02  0.51100000000E-03 0. -1.
        -11    1    4    4    0    0  0.17550944322E+02 -0.36354790593E+01 -0.40658016644E+00  0.17928124896E+02  0.51100000000E-03 0.  1.
         12    1    4    4    0    0  0.10076214792E+02 -0.28823623937E+01 -0.24253809071E+01  0.10757350513E+02  0.00000000000E+00 0. -1.
</event>
<event>
 8    1  0.1229941E-006  0.9118800E+02  0.7816164E-02  0.1184000E+00
        -11   -1    0    0    0    0  0.00000000000E+00  0.00000000000E+00  0.45593999997E+02  0.45594000000E+02  0.51100000000E-03 0. -1.
         11   -1    0    0    0    0 -0.00000000000E+00 -0.00000000000E+00 -0.45593999997E+02  0.45594000000E+02  0.51100000000E-03 0.  1.
         23    2    1    2    0    0  0.17763568394E-14  0.35527136788E-14  0.35527136788E-14  0.91188000000E+02  0.91188000000E+02 0.  0.
    9900012    2    3    3    0    0 -0.66562727478E+01 -0.19928895327E+02 -0.30237598795E+02  0.54367092668E+02  0.40000019355E+02 0.  0.
         12    1    3    3    0    0  0.66562727478E+01  0.19928895327E+02  0.30237598795E+02  0.36820907332E+02  0.00000000000E+00 0. -1.
         11    1    4    4    0    0 -0.15908514618E+01 -0.16073049233E+02 -0.15670289697E+02  0.22504037404E+02  0.51100000000E-03 0.  1.
        -11    1    4    4    0    0  0.43037687610E+01 -0.10675692249E+02 -0.16496273244E+02  0.20115164969E+02  0.51100000000E-03 0. -1.
         12    1    4    4    0    0 -0.93691900470E+01  0.68198461543E+01  0.19289641460E+01  0.11747890295E+02  0.00000000000E+00 0. -1.
</event>
<event>
 8    1  0.1229941E-006  0.9118800E+02  0.7816164E-02  0.1184000E+00
        -11   -1    0    0    0    0  0.00000000000E+00  0.00000000000E+00  0.45593999997E+02  0.45594000000E+02  0.51100000000E-03 0.  1.
         11   -1    0    0    0    0 -0.00000000000E+00 -0.00000000000E+00 -0.45593999997E+02  0.45594000000E+02  0.51100000000E-03 0. -1.
         23    2    1    2    0    0  0.17763568394E-14  0.88817841970E-15 -0.71054273576E-14  0.91188000000E+02  0.91188000000E+02 0.  0.
    9900012    2    3    3    0    0  0.83452015630E+01  0.42637427508E+01 -0.35608414353E+02  0.54367067582E+02  0.39999962167E+02 0.  0.
        -12    1    3    3    0    0 -0.83452015630E+01 -0.42637427508E+01  0.35608414353E+02  0.36820932418E+02  0.00000000000E+00 0.  1.
         11    1    4    4    0    0  0.77475468282E+00  0.16544893222E+01 -0.49623038268E+01  0.52879144534E+01  0.51100000000E-03 0. -1.
        -11    1    4    4    0    0  0.10846336061E+02 -0.31500406807E+01 -0.37727216421E+02  0.39381577182E+02  0.51100000000E-03 0.  1.
        -12    1    4    4    0    0 -0.32758891805E+01  0.57592941093E+01  0.70811058941E+01  0.96975759468E+01  0.00000000000E+00 0.  1.
</event>
<event>
 8    1  0.1229941E-006  0.9118800E+02  0.7816164E-02  0.1184000E+00
        -11   -1    0    0    0    0  0.00000000000E+00  0.00000000000E+00  0.45593999997E+02  0.45594000000E+02  0.51100000000E-03 0.  1.
         11   -1    0    0    0    0 -0.00000000000E+00 -0.00000000000E+00 -0.45593999997E+02  0.45594000000E+02  0.51100000000E-03 0. -1.
         23    2    1    2    0    0  0.00000000000E+00  0.00000000000E+00  0.00000000000E+00  0.91188000000E+02  0.91188000000E+02 0.  0.
    9900012    2    3    3    0    0  0.10184320070E+02 -0.23349826812E+02 -0.26586588962E+02  0.54367061663E+02  0.39999948673E+02 0.  0.
        -12    1    3    3    0    0 -0.10184320070E+02  0.23349826812E+02  0.26586588962E+02  0.36820938337E+02  0.00000000000E+00 0.  1.
         11    1    4    4    0    0 -0.10011349059E+01 -0.70962165029E+01 -0.18119387118E+02  0.19485141763E+02  0.51100000000E-03 0. -1.
        -11    1    4    4    0    0  0.84472439813E+01 -0.17621270836E+02  0.57255474646E+01  0.20362883165E+02  0.51100000000E-03 0.  1.
        -12    1    4    4    0    0  0.27382109942E+01  0.13676605271E+01 -0.14192749309E+02  0.14519036735E+02  0.00000000000E+00 0.  1.
</event>
<event>
 8    1  0.1229941E-006  0.9118800E+02  0.7816164E-02  0.1184000E+00
        -11   -1    0    0    0    0  0.00000000000E+00  0.00000000000E+00  0.45593999997E+02  0.45594000000E+02  0.51100000000E-03 0. -1.
         11   -1    0    0    0    0 -0.00000000000E+00 -0.00000000000E+00 -0.45593999997E+02  0.45594000000E+02  0.51100000000E-03 0.  1.
         23    2    1    2    0    0  0.00000000000E+00  0.88817841970E-15  0.00000000000E+00  0.91188000000E+02  0.91188000000E+02 0.  0.
    9900012    2    3    3    0    0 -0.34424601530E+02 -0.46277602895E+01 -0.12219251941E+02  0.54367089177E+02  0.40000011397E+02 0.  0.
         12    1    3    3    0    0  0.34424601530E+02  0.46277602895E+01  0.12219251941E+02  0.36820910823E+02  0.00000000000E+00 0. -1.
         11    1    4    4    0    0 -0.61212255557E+01 -0.43057527247E+01  0.73178808265E+01  0.10467105086E+02  0.51100000000E-03 0. -1.
        -11    1    4    4    0    0  0.10717995139E+01 -0.83364516719E+01 -0.71243429105E+01  0.11018232292E+02  0.51100000000E-03 0.  1.
        -12    1    4    4    0    0 -0.29375175488E+02  0.80144441072E+01 -0.12412789857E+02  0.32881751799E+02  0.00000000000E+00 0.  1.
</event>
<event>
 8    1  0.1229941E-006  0.9118800E+02  0.7816164E-02  0.1184000E+00
        -11   -1    0    0    0    0  0.00000000000E+00  0.00000000000E+00  0.45593999997E+02  0.45594000000E+02  0.51100000000E-03 0. -1.
         11   -1    0    0    0    0 -0.00000000000E+00 -0.00000000000E+00 -0.45593999997E+02  0.45594000000E+02  0.51100000000E-03 0.  1.
         23    2    1    2    0    0  0.35527136788E-14  0.35527136788E-14  0.35527136788E-14  0.91188000000E+02  0.91188000000E+02 0.  0.
    9900012    2    3    3    0    0  0.21554226340E+02  0.25693826596E+02  0.15199433813E+02  0.54367079499E+02  0.39999989334E+02 0.  0.
        -12    1    3    3    0    0 -0.21554226340E+02 -0.25693826596E+02 -0.15199433813E+02  0.36820920501E+02  0.00000000000E+00 0.  1.
         11    1    4    4    0    0  0.24583335782E+02  0.21371618347E+02  0.21182363656E+01  0.32643121703E+02  0.51100000000E-03 0. -1.
        -11    1    4    4    0    0  0.72178310932E+00  0.17206574101E+01 -0.38016527343E+01  0.42348785760E+01  0.51100000000E-03 0.  1.
        -12    1    4    4    0    0 -0.37508925511E+01  0.26015508385E+01  0.16882850182E+02  0.17489079220E+02  0.00000000000E+00 0.  1.
</event>
<event>
 8    1  0.1229941E-006  0.9118800E+02  0.7816164E-02  0.1184000E+00
        -11   -1    0    0    0    0  0.00000000000E+00  0.00000000000E+00  0.45593999997E+02  0.45594000000E+02  0.51100000000E-03 0. -1.
         11   -1    0    0    0    0 -0.00000000000E+00 -0.00000000000E+00 -0.45593999997E+02  0.45594000000E+02  0.51100000000E-03 0.  1.
         23    2    1    2    0    0  0.00000000000E+00  0.00000000000E+00  0.00000000000E+00  0.91188000000E+02  0.91188000000E+02 0.  0.
    9900012    2    3    3    0    0 -0.20124684733E+02  0.20124403216E+02  0.23362061353E+02  0.54367075907E+02  0.39999981145E+02 0.  0.
        -12    1    3    3    0    0  0.20124684733E+02 -0.20124403216E+02 -0.23362061353E+02  0.36820924093E+02  0.00000000000E+00 0.  1.
         11    1    4    4    0    0 -0.34962319275E+01  0.88774574964E+01  0.19667447466E+02  0.21859583239E+02  0.51100000000E-03 0. -1.
        -11    1    4    4    0    0 -0.52471239444E+01  0.86874480693E+01  0.13761218187E+02  0.17098982130E+02  0.51100000000E-03 0.  1.
        -12    1    4    4    0    0 -0.11381328861E+02  0.25594976499E+01 -0.10066604300E+02  0.15408510538E+02  0.00000000000E+00 0.  1.
</event>
<event>
 8    1  0.1229941E-006  0.9118800E+02  0.7816164E-02  0.1184000E+00
        -11   -1    0    0    0    0  0.00000000000E+00  0.00000000000E+00  0.45593999997E+02  0.45594000000E+02  0.51100000000E-03 0. -1.
         11   -1    0    0    0    0 -0.00000000000E+00 -0.00000000000E+00 -0.45593999997E+02  0.45594000000E+02  0.51100000000E-03 0.  1.
         23    2    1    2    0    0  0.00000000000E+00  0.24424906542E-14  0.71054273576E-14  0.91188000000E+02  0.91188000000E+02 0.  0.
    9900012    2    3    3    0    0 -0.75041558307E+01 -0.10028228205E+01 -0.36034173772E+02  0.54367086272E+02  0.40000004774E+02 0.  0.
         12    1    3    3    0    0  0.75041558307E+01  0.10028228205E+01  0.36034173772E+02  0.36820913728E+02  0.00000000000E+00 0. -1.
         11    1    4    4    0    0 -0.65540883988E+01  0.12893304857E+02 -0.15442667721E+02  0.21158198683E+02  0.51100000000E-03 0. -1.
        -11    1    4    4    0    0 -0.97885429271E+01 -0.94615349406E+01 -0.18716703660E+02  0.23144139911E+02  0.51100000000E-03 0.  1.
         12    1    4    4    0    0  0.88384754952E+01 -0.44345927372E+01 -0.18748023910E+01  0.10064747678E+02  0.00000000000E+00 0. -1.
</event>
<event>
 8    1  0.1229941E-006  0.9118800E+02  0.7816164E-02  0.1184000E+00
        -11   -1    0    0    0    0  0.00000000000E+00  0.00000000000E+00  0.45593999997E+02  0.45594000000E+02  0.51100000000E-03 0.  1.
         11   -1    0    0    0    0 -0.00000000000E+00 -0.00000000000E+00 -0.45593999997E+02  0.45594000000E+02  0.51100000000E-03 0. -1.
         23    2    1    2    0    0  0.00000000000E+00  0.00000000000E+00  0.35527136788E-14  0.91188000000E+02  0.91188000000E+02 0.  0.
    9900012    2    3    3    0    0  0.90353531137E+01  0.30103719384E+02 -0.19180917430E+02  0.54367093981E+02  0.40000022348E+02 0.  0.
        -12    1    3    3    0    0 -0.90353531137E+01 -0.30103719384E+02  0.19180917430E+02  0.36820906019E+02  0.00000000000E+00 0.  1.
         11    1    4    4    0    0 -0.55045259324E+01  0.69809504900E+01 -0.13585173794E+02  0.16235468049E+02  0.51100000000E-03 0. -1.
        -11    1    4    4    0    0  0.21616336355E+02  0.13700490984E+02 -0.61992152757E+01  0.26332484139E+02  0.51100000000E-03 0.  1.
         12    1    4    4    0    0 -0.70764573088E+01  0.94222779092E+01  0.60347163977E+00  0.11799141793E+02  0.00000000000E+00 0. -1.
</event>
<event>
 8    1  0.1229941E-006  0.9118800E+02  0.7816164E-02  0.1184000E+00
        -11   -1    0    0    0    0  0.00000000000E+00  0.00000000000E+00  0.45593999997E+02  0.45594000000E+02  0.51100000000E-03 0. -1.
         11   -1    0    0    0    0 -0.00000000000E+00 -0.00000000000E+00 -0.45593999997E+02  0.45594000000E+02  0.51100000000E-03 0.  1.
         23    2    1    2    0    0  0.00000000000E+00  0.88817841970E-15  0.00000000000E+00  0.91188000000E+02  0.91188000000E+02 0.  0.
    9900012    2    3    3    0    0 -0.17609960341E+02  0.56949485842E+01 -0.31831385041E+02  0.54367079096E+02  0.39999988415E+02 0.  0.
         12    1    3    3    0    0  0.17609960341E+02 -0.56949485842E+01  0.31831385041E+02  0.36820920904E+02  0.00000000000E+00 0. -1.
         11    1    4    4    0    0 -0.97554938784E+01 -0.69430104399E+01 -0.26659758181E+02  0.29225293177E+02  0.51100000000E-03 0.  1.
        -11    1    4    4    0    0  0.45459999859E+01 -0.48973600887E-01 -0.58250107402E+01  0.73891315234E+01  0.51100000000E-03 0. -1.
         12    1    4    4    0    0 -0.12400466449E+02  0.12686932625E+02  0.65338387982E+00  0.17752654395E+02  0.00000000000E+00 0. -1.
</event>
<event>
 8    1  0.1229941E-006  0.9118800E+02  0.7816164E-02  0.1184000E+00
        -11   -1    0    0    0    0  0.00000000000E+00  0.00000000000E+00  0.45593999997E+02  0.45594000000E+02  0.51100000000E-03 0.  1.
         11   -1    0    0    0    0 -0.00000000000E+00 -0.00000000000E+00 -0.45593999997E+02  0.45594000000E+02  0.51100000000E-03 0. -1.
         23    2    1    2    0    0  0.17763568394E-14  0.88817841970E-15  0.00000000000E+00  0.91188000000E+02  0.91188000000E+02 0.  0.
    9900012    2    3    3    0    0 -0.11511964936E+02 -0.67942799655E+00  0.34968446938E+02  0.54367092348E+02  0.40000018625E+02 0.  0.
         12    1    3    3    0    0  0.11511964936E+02  0.67942799655E+00 -0.34968446938E+02  0.36820907652E+02  0.00000000000E+00 0. -1.
         11    1    4    4    0    0 -0.11751786276E+02  0.84190513683E+01  0.15653231739E+02  0.21307476875E+02  0.51100000000E-03 0. -1.
        -11    1    4    4    0    0  0.10759801096E+02 -0.73246284954E+01  0.26674494119E+01  0.13286790013E+02  0.51100000000E-03 0.  1.
        -12    1    4    4    0    0 -0.10519979756E+02 -0.17738508694E+01  0.16647765787E+02  0.19772825459E+02  0.00000000000E+00 0.  1.
</event>
<event>
 8    1  0.1229941E-006  0.9118800E+02  0.7816164E-02  0.1184000E+00
        -11   -1    0    0    0    0  0.00000000000E+00  0.00000000000E+00  0.45593999997E+02  0.45594000000E+02  0.51100000000E-03 0. -1.
         11   -1    0    0    0    0 -0.00000000000E+00 -0.00000000000E+00 -0.45593999997E+02  0.45594000000E+02  0.51100000000E-03 0.  1.
         23    2    1    2    0    0  0.00000000000E+00  0.00000000000E+00 -0.22204460493E-15  0.91188000000E+02  0.91188000000E+02 0.  0.
    9900012    2    3    3    0    0 -0.29850827041E+02 -0.21464693764E+02 -0.19936084972E+01  0.54367089796E+02  0.40000012807E+02 0.  0.
         12    1    3    3    0    0  0.29850827041E+02  0.21464693764E+02  0.19936084972E+01  0.36820910204E+02  0.00000000000E+00 0. -1.
         11    1    4    4    0    0 -0.14977436591E+02 -0.55290751649E+01 -0.26007459893E+01  0.16175851105E+02  0.51100000000E-03 0. -1.
        -11    1    4    4    0    0 -0.23352671171E+02 -0.17321187286E+02  0.31132354031E+01  0.29241460544E+02  0.51100000000E-03 0.  1.
         12    1    4    4    0    0  0.84792807205E+01  0.13855686871E+01 -0.25060979110E+01  0.89497781460E+01  0.00000000000E+00 0. -1.
</event>
<event>
 8    1  0.1229941E-006  0.9118800E+02  0.7816164E-02  0.1184000E+00
        -11   -1    0    0    0    0  0.00000000000E+00  0.00000000000E+00  0.45593999997E+02  0.45594000000E+02  0.51100000000E-03 0. -1.
         11   -1    0    0    0    0 -0.00000000000E+00 -0.00000000000E+00 -0.45593999997E+02  0.45594000000E+02  0.51100000000E-03 0.  1.
         23    2    1    2    0    0  0.00000000000E+00  0.00000000000E+00  0.00000000000E+00  0.91188000000E+02  0.91188000000E+02 0.  0.
    9900012    2    3    3    0    0 -0.21739203818E+02 -0.39351164915E+01  0.29456780752E+02  0.54367081262E+02  0.39999993353E+02 0.  0.
        -12    1    3    3    0    0  0.21739203818E+02  0.39351164915E+01 -0.29456780752E+02  0.36820918738E+02  0.00000000000E+00 0.  1.
         11    1    4    4    0    0  0.11108936080E+02 -0.45042954394E+01  0.10584851829E+02  0.15991754962E+02  0.51100000000E-03 0. -1.
        -11    1    4    4    0    0 -0.99602523608E+01 -0.23653073586E+01  0.44397689056E+01  0.11158532797E+02  0.51100000000E-03 0.  1.
         12    1    4    4    0    0 -0.22887887538E+02  0.29344863065E+01  0.14432160017E+02  0.27216793503E+02  0.00000000000E+00 0. -1.
</event>
<event>
 8    1  0.1229941E-006  0.9118800E+02  0.7816164E-02  0.1184000E+00
        -11   -1    0    0    0    0  0.00000000000E+00  0.00000000000E+00  0.45593999997E+02  0.45594000000E+02  0.51100000000E-03 0. -1.
         11   -1    0    0    0    0 -0.00000000000E+00 -0.00000000000E+00 -0.45593999997E+02  0.45594000000E+02  0.51100000000E-03 0.  1.
         23    2    1    2    0    0  0.00000000000E+00 -0.10547118734E-14  0.00000000000E+00  0.91188000000E+02  0.91188000000E+02 0.  0.
    9900012    2    3    3    0    0 -0.22449796003E+02  0.16140204723E+00 -0.29184949947E+02  0.54367072600E+02  0.39999973607E+02 0.  0.
         12    1    3    3    0    0  0.22449796003E+02 -0.16140204723E+00  0.29184949947E+02  0.36820927400E+02  0.00000000000E+00 0. -1.
         11    1    4    4    0    0 -0.36010136919E+01 -0.11447792170E+02 -0.29085781971E+01  0.12348241679E+02  0.51100000000E-03 0. -1.
        -11    1    4    4    0    0 -0.99401790130E+01  0.76234906246E+01  0.14635435882E+01  0.12612165881E+02  0.51100000000E-03 0.  1.
         12    1    4    4    0    0 -0.89086032981E+01  0.39857035924E+01 -0.27739915338E+02  0.29406665040E+02  0.00000000000E+00 0. -1.
</event>
<event>
 8    1  0.1229941E-006  0.9118800E+02  0.7816164E-02  0.1184000E+00
        -11   -1    0    0    0    0  0.00000000000E+00  0.00000000000E+00  0.45593999997E+02  0.45594000000E+02  0.51100000000E-03 0. -1.
         11   -1    0    0    0    0 -0.00000000000E+00 -0.00000000000E+00 -0.45593999997E+02  0.45594000000E+02  0.51100000000E-03 0.  1.
         23    2    1    2    0    0  0.00000000000E+00  0.35527136788E-14  0.11102230246E-15  0.91188000000E+02  0.91188000000E+02 0.  0.
    9900012    2    3    3    0    0 -0.26017152103E+02  0.26042553891E+02 -0.82009956558E+00  0.54367090450E+02  0.40000014300E+02 0.  0.
         12    1    3    3    0    0  0.26017152103E+02 -0.26042553891E+02  0.82009956558E+00  0.36820909550E+02  0.00000000000E+00 0. -1.
         11    1    4    4    0    0 -0.18872414681E+02  0.10247773843E+01 -0.89536476106E+01  0.20913775612E+02  0.51100000000E-03 0. -1.
        -11    1    4    4    0    0 -0.13647548367E+02  0.18833857999E+02  0.75791991469E+01  0.24462502806E+02  0.51100000000E-03 0.  1.
         12    1    4    4    0    0  0.65028109446E+01  0.61839185077E+01  0.55434889807E+00  0.89908120318E+01  0.00000000000E+00 0. -1.
</event>
<event>
 8    1  0.1229941E-006  0.9118800E+02  0.7816164E-02  0.1184000E+00
        -11   -1    0    0    0    0  0.00000000000E+00  0.00000000000E+00  0.45593999997E+02  0.45594000000E+02  0.51100000000E-03 0. -1.
         11   -1    0    0    0    0 -0.00000000000E+00 -0.00000000000E+00 -0.45593999997E+02  0.45594000000E+02  0.51100000000E-03 0.  1.
         23    2    1    2    0    0  0.00000000000E+00  0.00000000000E+00  0.35527136788E-14  0.91188000000E+02  0.91188000000E+02 0.  0.
    9900012    2    3    3    0    0 -0.19633524410E+02  0.21556700225E+02 -0.22485893046E+02  0.54367054990E+02  0.39999933460E+02 0.  0.
         12    1    3    3    0    0  0.19633524410E+02 -0.21556700225E+02  0.22485893046E+02  0.36820945010E+02  0.00000000000E+00 0. -1.
         11    1    4    4    0    0 -0.17739458590E+02 -0.59972129452E+01 -0.50677355467E+01  0.19399404579E+02  0.51100000000E-03 0. -1.
        -11    1    4    4    0    0  0.23937771638E+01  0.82150532154E+01  0.50467623243E-01  0.85568578160E+01  0.51100000000E-03 0.  1.
         12    1    4    4    0    0 -0.42878429836E+01  0.19338859955E+02 -0.17468625123E+02  0.26410792595E+02  0.00000000000E+00 0. -1.
</event>
<event>
 8    1  0.1229941E-006  0.9118800E+02  0.7816164E-02  0.1184000E+00
        -11   -1    0    0    0    0  0.00000000000E+00  0.00000000000E+00  0.45593999997E+02  0.45594000000E+02  0.51100000000E-03 0.  1.
         11   -1    0    0    0    0 -0.00000000000E+00 -0.00000000000E+00 -0.45593999997E+02  0.45594000000E+02  0.51100000000E-03 0. -1.
         23    2    1    2    0    0  0.17763568394E-14  0.17763568394E-14 -0.35527136788E-14  0.91188000000E+02  0.91188000000E+02 0.  0.
    9900012    2    3    3    0    0 -0.12678854232E+02 -0.13838080941E+02 -0.31678644704E+02  0.54367049998E+02  0.39999922080E+02 0.  0.
        -12    1    3    3    0    0  0.12678854232E+02  0.13838080941E+02  0.31678644704E+02  0.36820950002E+02  0.00000000000E+00 0.  1.
         11    1    4    4    0    0  0.36978459021E+01 -0.16696941046E+02 -0.10104022267E+02  0.19863362526E+02  0.51100000000E-03 0. -1.
        -11    1    4    4    0    0 -0.89407679521E+01 -0.61695484382E+01 -0.10930395472E+01  0.10917664366E+02  0.51100000000E-03 0.  1.
        -12    1    4    4    0    0 -0.74359321823E+01  0.90284085434E+01 -0.20481582890E+02  0.23586023106E+02  0.00000000000E+00 0.  1.
</event>
<event>
 8    1  0.1229941E-006  0.9118800E+02  0.7816164E-02  0.1184000E+00
        -11   -1    0    0    0    0  0.00000000000E+00  0.00000000000E+00  0.45593999997E+02  0.45594000000E+02  0.51100000000E-03 0.  1.
         11   -1    0    0    0    0 -0.00000000000E+00 -0.00000000000E+00 -0.45593999997E+02  0.45594000000E+02  0.51100000000E-03 0. -1.
         23    2    1    2    0    0  0.00000000000E+00  0.44408920985E-15  0.00000000000E+00  0.91188000000E+02  0.91188000000E+02 0.  0.
    9900012    2    3    3    0    0 -0.12548796052E+02 -0.26027714781E+01 -0.34518586780E+02  0.54367088346E+02  0.40000009502E+02 0.  0.
        -12    1    3    3    0    0  0.12548796052E+02  0.26027714781E+01  0.34518586780E+02  0.36820911654E+02  0.00000000000E+00 0.  1.
         11    1    4    4    0    0 -0.56295104792E+01 -0.10956387130E+02 -0.18198722185E+02  0.21975606854E+02  0.51100000000E-03 0. -1.
        -11    1    4    4    0    0  0.61927563450E+01  0.12725377581E+02 -0.79225444948E+01  0.16218883354E+02  0.51100000000E-03 0.  1.
         12    1    4    4    0    0 -0.13112041918E+02 -0.43717619292E+01 -0.83973201004E+01  0.16172598137E+02  0.00000000000E+00 0. -1.
</event>
<event>
 8    1  0.1229941E-006  0.9118800E+02  0.7816164E-02  0.1184000E+00
        -11   -1    0    0    0    0  0.00000000000E+00  0.00000000000E+00  0.45593999997E+02  0.45594000000E+02  0.51100000000E-03 0.  1.
         11   -1    0    0    0    0 -0.00000000000E+00 -0.00000000000E+00 -0.45593999997E+02  0.45594000000E+02  0.51100000000E-03 0. -1.
         23    2    1    2    0    0  0.17763568394E-14  0.17763568394E-14  0.00000000000E+00  0.91188000000E+02  0.91188000000E+02 0.  0.
    9900012    2    3    3    0    0  0.11748037166E+02 -0.13855618055E+02  0.32027886276E+02  0.54367081649E+02  0.39999994234E+02 0.  0.
         12    1    3    3    0    0 -0.11748037166E+02  0.13855618055E+02 -0.32027886276E+02  0.36820918351E+02  0.00000000000E+00 0. -1.
         11    1    4    4    0    0 -0.64555117794E+01 -0.12575437507E+01  0.30663949252E+01  0.72565712783E+01  0.51100000000E-03 0.  1.
        -11    1    4    4    0    0  0.92078702799E+01 -0.85174545718E+01 -0.36276355150E+01  0.13057245007E+02  0.51100000000E-03 0. -1.
        -12    1    4    4    0    0  0.89956786654E+01 -0.40806197329E+01  0.32589126866E+02  0.34053265364E+02  0.00000000000E+00 0.  1.
</event>
<event>
 8    1  0.1229941E-006  0.9118800E+02  0.7816164E-02  0.1184000E+00
        -11   -1    0    0    0    0  0.00000000000E+00  0.00000000000E+00  0.45593999997E+02  0.45594000000E+02  0.51100000000E-03 0.  1.
         11   -1    0    0    0    0 -0.00000000000E+00 -0.00000000000E+00 -0.45593999997E+02  0.45594000000E+02  0.51100000000E-03 0. -1.
         23    2    1    2    0    0  0.71054273576E-14  0.71054273576E-14 -0.35527136788E-14  0.91188000000E+02  0.91188000000E+02 0.  0.
    9900012    2    3    3    0    0  0.22022042368E+02  0.20790695401E+02 -0.20941814312E+02  0.54367041946E+02  0.39999903725E+02 0.  0.
        -12    1    3    3    0    0 -0.22022042368E+02 -0.20790695401E+02  0.20941814312E+02  0.36820958054E+02  0.00000000000E+00 0.  1.
         11    1    4    4    0    0  0.40483021160E+00 -0.93494160619E+01 -0.12758533326E+02  0.15822630663E+02  0.51100000000E-03 0. -1.
        -11    1    4    4    0    0  0.44759186497E+01  0.25064885323E+01 -0.71520084882E+00  0.51795603130E+01  0.51100000000E-03 0.  1.
        -12    1    4    4    0    0  0.17141293506E+02  0.27633622931E+02 -0.74680801368E+01  0.33364850970E+02  0.00000000000E+00 0.  1.
</event>
<event>
 8    1  0.1229941E-006  0.9118800E+02  0.7816164E-02  0.1184000E+00
        -11   -1    0    0    0    0  0.00000000000E+00  0.00000000000E+00  0.45593999997E+02  0.45594000000E+02  0.51100000000E-03 0.  1.
         11   -1    0    0    0    0 -0.00000000000E+00 -0.00000000000E+00 -0.45593999997E+02  0.45594000000E+02  0.51100000000E-03 0. -1.
         23    2    1    2    0    0  0.00000000000E+00 -0.35527136788E-14  0.00000000000E+00  0.91188000000E+02  0.91188000000E+02 0.  0.
    9900012    2    3    3    0    0  0.16037983955E+02 -0.28677956804E+02 -0.16617418716E+02  0.54367071976E+02  0.39999972183E+02 0.  0.
        -12    1    3    3    0    0 -0.16037983955E+02  0.28677956804E+02  0.16617418716E+02  0.36820928024E+02  0.00000000000E+00 0.  1.
         11    1    4    4    0    0 -0.34475230110E+01  0.28134622481E+01 -0.10455177476E+02  0.11362733873E+02  0.51100000000E-03 0. -1.
        -11    1    4    4    0    0 -0.40841202443E+01 -0.16958745069E+01 -0.17589613629E+01  0.47591988665E+01  0.51100000000E-03 0.  1.
         12    1    4    4    0    0  0.23569627210E+02 -0.29795544545E+02 -0.44032798765E+01  0.38245139237E+02  0.00000000000E+00 0. -1.
</event>
<event>
 8    1  0.1229941E-006  0.9118800E+02  0.7816164E-02  0.1184000E+00
        -11   -1    0    0    0    0  0.00000000000E+00  0.00000000000E+00  0.45593999997E+02  0.45594000000E+02  0.51100000000E-03 0.  1.
         11   -1    0    0    0    0 -0.00000000000E+00 -0.00000000000E+00 -0.45593999997E+02  0.45594000000E+02  0.51100000000E-03 0. -1.
         23    2    1    2    0    0  0.00000000000E+00  0.00000000000E+00  0.00000000000E+00  0.91188000000E+02  0.91188000000E+02 0.  0.
    9900012    2    3    3    0    0 -0.67529143941E+01 -0.28316881295E+02 -0.22546375023E+02  0.54366991788E+02  0.39999789378E+02 0.  0.
        -12    1    3    3    0    0  0.67529143941E+01  0.28316881295E+02  0.22546375023E+02  0.36821008212E+02  0.00000000000E+00 0.  1.
         11    1    4    4    0    0  0.70618664796E+01  0.32564965018E+01 -0.10198623852E+02  0.12825235139E+02  0.51100000000E-03 0. -1.
        -11    1    4    4    0    0 -0.30156828212E+01 -0.11755453497E+01  0.41868311712E+01  0.52920511397E+01  0.51100000000E-03 0.  1.
         12    1    4    4    0    0 -0.10799098053E+02 -0.30397832447E+02 -0.16534582342E+02  0.36249705509E+02  0.00000000000E+00 0. -1.
</event>
<event>
 8    1  0.1229941E-006  0.9118800E+02  0.7816164E-02  0.1184000E+00
        -11   -1    0    0    0    0  0.00000000000E+00  0.00000000000E+00  0.45593999997E+02  0.45594000000E+02  0.51100000000E-03 0. -1.
         11   -1    0    0    0    0 -0.00000000000E+00 -0.00000000000E+00 -0.45593999997E+02  0.45594000000E+02  0.51100000000E-03 0.  1.
         23    2    1    2    0    0  0.66613381478E-15  0.44408920985E-15  0.00000000000E+00  0.91188000000E+02  0.91188000000E+02 0.  0.
    9900012    2    3    3    0    0  0.12437983267E+01  0.22286218316E+01  0.36732365622E+02  0.54367075599E+02  0.39999980443E+02 0.  0.
        -12    1    3    3    0    0 -0.12437983267E+01 -0.22286218316E+01 -0.36732365622E+02  0.36820924401E+02  0.00000000000E+00 0.  1.
         11    1    4    4    0    0 -0.31687683251E+01 -0.28109066585E+01 -0.54603282946E+00  0.42708829360E+01  0.51100000000E-03 0. -1.
        -11    1    4    4    0    0  0.15657590013E+02 -0.67296919747E+01  0.21394598036E+02  0.27352837229E+02  0.51100000000E-03 0.  1.
        -12    1    4    4    0    0 -0.11245023362E+02  0.11769220465E+02  0.15883800415E+02  0.22743355434E+02  0.00000000000E+00 0.  1.
</event>
<event>
 8    1  0.1229941E-006  0.9118800E+02  0.7816164E-02  0.1184000E+00
        -11   -1    0    0    0    0  0.00000000000E+00  0.00000000000E+00  0.45593999997E+02  0.45594000000E+02  0.51100000000E-03 0.  1.
         11   -1    0    0    0    0 -0.00000000000E+00 -0.00000000000E+00 -0.45593999997E+02  0.45594000000E+02  0.51100000000E-03 0. -1.
         23    2    1    2    0    0  0.88817841970E-15  0.00000000000E+00  0.00000000000E+00  0.91188000000E+02  0.91188000000E+02 0.  0.
    9900012    2    3    3    0    0  0.25366332928E+01 -0.20921397097E+02 -0.30193340913E+02  0.54367120048E+02  0.40000081773E+02 0.  0.
        -12    1    3    3    0    0 -0.25366332928E+01  0.20921397097E+02  0.30193340913E+02  0.36820879952E+02  0.00000000000E+00 0.  1.
         11    1    4    4    0    0  0.10430389023E+02 -0.25998659960E+02 -0.26257996791E+02  0.38395386840E+02  0.51100000000E-03 0. -1.
        -11    1    4    4    0    0 -0.54092604751E+01  0.91726838168E+01 -0.32438078540E+01  0.11131959259E+02  0.51100000000E-03 0.  1.
         12    1    4    4    0    0 -0.24844952553E+01 -0.40954209539E+01 -0.69153626819E+00  0.48397739486E+01  0.00000000000E+00 0. -1.
</event>
<event>
 8    1  0.1229941E-006  0.9118800E+02  0.7816164E-02  0.1184000E+00
        -11   -1    0    0    0    0  0.00000000000E+00  0.00000000000E+00  0.45593999997E+02  0.45594000000E+02  0.51100000000E-03 0. -1.
         11   -1    0    0    0    0 -0.00000000000E+00 -0.00000000000E+00 -0.45593999997E+02  0.45594000000E+02  0.51100000000E-03 0.  1.
         23    2    1    2    0    0  0.35527136788E-14  0.44408920985E-15  0.00000000000E+00  0.91188000000E+02  0.91188000000E+02 0.  0.
    9900012    2    3    3    0    0  0.26377621118E+02 -0.23230270320E+01 -0.25585243217E+02  0.54367081748E+02  0.39999994461E+02 0.  0.
         12    1    3    3    0    0 -0.26377621118E+02  0.23230270320E+01  0.25585243217E+02  0.36820918252E+02  0.00000000000E+00 0. -1.
         11    1    4    4    0    0 -0.66488653905E+00 -0.83951714518E+01 -0.50466040683E+01  0.98177996872E+01  0.51100000000E-03 0. -1.
        -11    1    4    4    0    0  0.29081845327E+02 -0.37074571232E+01 -0.17332097642E+02  0.34057313089E+02  0.51100000000E-03 0.  1.
        -12    1    4    4    0    0 -0.20393376693E+01  0.97796015430E+01 -0.32065415062E+01  0.10491968972E+02  0.00000000000E+00 0.  1.
</event>
<event>
 8    1  0.1229941E-006  0.9118800E+02  0.7816164E-02  0.1184000E+00
        -11   -1    0    0    0    0  0.00000000000E+00  0.00000000000E+00  0.45593999997E+02  0.45594000000E+02  0.51100000000E-03 0.  1.
         11   -1    0    0    0    0 -0.00000000000E+00 -0.00000000000E+00 -0.45593999997E+02  0.45594000000E+02  0.51100000000E-03 0. -1.
         23    2    1    2    0    0  0.00000000000E+00  0.00000000000E+00  0.00000000000E+00  0.91188000000E+02  0.91188000000E+02 0.  0.
    9900012    2    3    3    0    0 -0.11323036240E+02  0.16766470880E+02  0.30764493734E+02  0.54367085153E+02  0.40000002223E+02 0.  0.
         12    1    3    3    0    0  0.11323036240E+02 -0.16766470880E+02 -0.30764493734E+02  0.36820914847E+02  0.00000000000E+00 0. -1.
         11    1    4    4    0    0 -0.16878960938E+01 -0.50064704260E+01  0.23234106088E+02  0.23827241244E+02  0.51100000000E-03 0. -1.
        -11    1    4    4    0    0 -0.29363707827E+01  0.13168753639E+02  0.12648689844E+02  0.18493990938E+02  0.51100000000E-03 0.  1.
         12    1    4    4    0    0 -0.66987693637E+01  0.86041876674E+01 -0.51183021984E+01  0.12045852971E+02  0.00000000000E+00 0. -1.
</event>
<event>
 8    1  0.1229941E-006  0.9118800E+02  0.7816164E-02  0.1184000E+00
        -11   -1    0    0    0    0  0.00000000000E+00  0.00000000000E+00  0.45593999997E+02  0.45594000000E+02  0.51100000000E-03 0.  1.
         11   -1    0    0    0    0 -0.00000000000E+00 -0.00000000000E+00 -0.45593999997E+02  0.45594000000E+02  0.51100000000E-03 0. -1.
         23    2    1    2    0    0  0.00000000000E+00  0.00000000000E+00  0.00000000000E+00  0.91188000000E+02  0.91188000000E+02 0.  0.
    9900012    2    3    3    0    0 -0.14155469090E+02  0.33197407556E+02 -0.73030632267E+01  0.54367083308E+02  0.39999998016E+02 0.  0.
        -12    1    3    3    0    0  0.14155469090E+02 -0.33197407556E+02  0.73030632267E+01  0.36820916692E+02  0.00000000000E+00 0.  1.
         11    1    4    4    0    0  0.25926501616E+01  0.25822034219E+02 -0.98425504356E+01  0.27755631598E+02  0.51100000000E-03 0. -1.
        -11    1    4    4    0    0 -0.16217736575E+02  0.88108291259E+01 -0.48353842851E+01  0.19079481936E+02  0.51100000000E-03 0.  1.
        -12    1    4    4    0    0 -0.53038267653E+00 -0.14354557897E+01  0.73748714939E+01  0.75319697729E+01  0.00000000000E+00 0.  1.
</event>
<event>
 8    1  0.1229941E-006  0.9118800E+02  0.7816164E-02  0.1184000E+00
        -11   -1    0    0    0    0  0.00000000000E+00  0.00000000000E+00  0.45593999997E+02  0.45594000000E+02  0.51100000000E-03 0. -1.
         11   -1    0    0    0    0 -0.00000000000E+00 -0.00000000000E+00 -0.45593999997E+02  0.45594000000E+02  0.51100000000E-03 0.  1.
         23    2    1    2    0    0  0.00000000000E+00  0.35527136788E-14  0.35527136788E-14  0.91188000000E+02  0.91188000000E+02 0.  0.
    9900012    2    3    3    0    0 -0.27440128960E+01  0.30074401729E+02  0.21066100742E+02  0.54367084115E+02  0.39999999856E+02 0.  0.
        -12    1    3    3    0    0  0.27440128960E+01 -0.30074401729E+02 -0.21066100742E+02  0.36820915885E+02  0.00000000000E+00 0.  1.
         11    1    4    4    0    0  0.40090260296E+01 -0.40782351311E+01 -0.15947361680E+01  0.59369584130E+01  0.51100000000E-03 0. -1.
        -11    1    4    4    0    0  0.81903534522E+01  0.71796310485E+01  0.10952659230E+02  0.15446350253E+02  0.51100000000E-03 0.  1.
         12    1    4    4    0    0 -0.14943392378E+02  0.26973005812E+02  0.11708177681E+02  0.32983775449E+02  0.00000000000E+00 0. -1.
</event>
<event>
 8    1  0.1229941E-006  0.9118800E+02  0.7816164E-02  0.1184000E+00
        -11   -1    0    0    0    0  0.00000000000E+00  0.00000000000E+00  0.45593999997E+02  0.45594000000E+02  0.51100000000E-03 0. -1.
         11   -1    0    0    0    0 -0.00000000000E+00 -0.00000000000E+00 -0.45593999997E+02  0.45594000000E+02  0.51100000000E-03 0.  1.
         23    2    1    2    0    0  0.00000000000E+00 -0.35527136788E-14 -0.35527136788E-14  0.91188000000E+02  0.91188000000E+02 0.  0.
    9900012    2    3    3    0    0 -0.22916373147E+02  0.22816184600E+02  0.17607983464E+02  0.54367088556E+02  0.40000009980E+02 0.  0.
        -12    1    3    3    0    0  0.22916373147E+02 -0.22816184600E+02 -0.17607983464E+02  0.36820911444E+02  0.00000000000E+00 0.  1.
         11    1    4    4    0    0 -0.23718390795E+01 -0.92718298411E+01  0.23272029708E+01  0.98492803366E+01  0.51100000000E-03 0. -1.
        -11    1    4    4    0    0 -0.19940033638E+02  0.31643669702E+02  0.93679323105E+01  0.38557553472E+02  0.51100000000E-03 0.  1.
        -12    1    4    4    0    0 -0.60450042993E+00  0.44434473882E+00  0.59128481830E+01  0.59602547473E+01  0.00000000000E+00 0.  1.
</event>
<event>
 8    1  0.1229941E-006  0.9118800E+02  0.7816164E-02  0.1184000E+00
        -11   -1    0    0    0    0  0.00000000000E+00  0.00000000000E+00  0.45593999997E+02  0.45594000000E+02  0.51100000000E-03 0. -1.
         11   -1    0    0    0    0 -0.00000000000E+00 -0.00000000000E+00 -0.45593999997E+02  0.45594000000E+02  0.51100000000E-03 0.  1.
         23    2    1    2    0    0  0.17763568394E-14  0.10658141036E-13  0.00000000000E+00  0.91188000000E+02  0.91188000000E+02 0.  0.
    9900012    2    3    3    0    0 -0.98505583076E+01 -0.28983507600E+02  0.20462216267E+02  0.54367088736E+02  0.40000010391E+02 0.  0.
        -12    1    3    3    0    0  0.98505583076E+01  0.28983507600E+02 -0.20462216267E+02  0.36820911264E+02  0.00000000000E+00 0.  1.
         11    1    4    4    0    0 -0.13250371716E+02 -0.18587099283E+01  0.12839617251E+02  0.18544080582E+02  0.51100000000E-03 0. -1.
        -11    1    4    4    0    0  0.27724822345E+01 -0.34091042437E+01 -0.67726231387E+01  0.80732319380E+01  0.51100000000E-03 0.  1.
         12    1    4    4    0    0  0.62733117359E+00 -0.23715693428E+02  0.14395222155E+02  0.27749776216E+02  0.00000000000E+00 0. -1.
</event>
<event>
 8    1  0.1229941E-006  0.9118800E+02  0.7816164E-02  0.1184000E+00
        -11   -1    0    0    0    0  0.00000000000E+00  0.00000000000E+00  0.45593999997E+02  0.45594000000E+02  0.51100000000E-03 0.  1.
         11   -1    0    0    0    0 -0.00000000000E+00 -0.00000000000E+00 -0.45593999997E+02  0.45594000000E+02  0.51100000000E-03 0. -1.
         23    2    1    2    0    0  0.00000000000E+00  0.00000000000E+00  0.00000000000E+00  0.91188000000E+02  0.91188000000E+02 0.  0.
    9900012    2    3    3    0    0 -0.14483696540E+02  0.33715332630E+02 -0.30461886732E+01  0.54367076801E+02  0.39999983182E+02 0.  0.
         12    1    3    3    0    0  0.14483696540E+02 -0.33715332630E+02  0.30461886732E+01  0.36820923199E+02  0.00000000000E+00 0. -1.
         11    1    4    4    0    0 -0.35853521715E+01 -0.19030056348E+01  0.33086056515E+01  0.52367024222E+01  0.51100000000E-03 0. -1.
        -11    1    4    4    0    0 -0.61752682613E+01 -0.29178306604E+01 -0.76871514662E+01  0.10282994301E+02  0.51100000000E-03 0.  1.
        -12    1    4    4    0    0 -0.47230761073E+01  0.38536168925E+02  0.13323571414E+01  0.38847380078E+02  0.00000000000E+00 0.  1.
</event>
<event>
 8    1  0.1229941E-006  0.9118800E+02  0.7816164E-02  0.1184000E+00
        -11   -1    0    0    0    0  0.00000000000E+00  0.00000000000E+00  0.45593999997E+02  0.45594000000E+02  0.51100000000E-03 0. -1.
         11   -1    0    0    0    0 -0.00000000000E+00 -0.00000000000E+00 -0.45593999997E+02  0.45594000000E+02  0.51100000000E-03 0.  1.
         23    2    1    2    0    0  0.00000000000E+00 -0.35527136788E-14 -0.69388939039E-15  0.91188000000E+02  0.91188000000E+02 0.  0.
    9900012    2    3    3    0    0  0.20616397644E+02 -0.30507184767E+02 -0.23569704347E+00  0.54367085735E+02  0.40000003550E+02 0.  0.
        -12    1    3    3    0    0 -0.20616397644E+02  0.30507184767E+02  0.23569704347E+00  0.36820914265E+02  0.00000000000E+00 0.  1.
         11    1    4    4    0    0  0.21416984563E+02 -0.23165491721E+02 -0.62773252023E+01  0.32167251147E+02  0.51100000000E-03 0. -1.
        -11    1    4    4    0    0 -0.89842135858E+01 -0.24218370352E+01  0.82088511349E+01  0.12408328880E+02  0.51100000000E-03 0.  1.
        -12    1    4    4    0    0  0.81836266673E+01 -0.49198560107E+01 -0.21672229761E+01  0.97915057077E+01  0.00000000000E+00 0.  1.
</event>
<event>
 8    1  0.1229941E-006  0.9118800E+02  0.7816164E-02  0.1184000E+00
        -11   -1    0    0    0    0  0.00000000000E+00  0.00000000000E+00  0.45593999997E+02  0.45594000000E+02  0.51100000000E-03 0.  1.
         11   -1    0    0    0    0 -0.00000000000E+00 -0.00000000000E+00 -0.45593999997E+02  0.45594000000E+02  0.51100000000E-03 0. -1.
         23    2    1    2    0    0  0.00000000000E+00  0.00000000000E+00  0.35527136788E-14  0.91188000000E+02  0.91188000000E+02 0.  0.
    9900012    2    3    3    0    0 -0.22536567099E+02  0.12869946636E+02 -0.26119874705E+02  0.54367078805E+02  0.39999987752E+02 0.  0.
        -12    1    3    3    0    0  0.22536567099E+02 -0.12869946636E+02  0.26119874705E+02  0.36820921195E+02  0.00000000000E+00 0.  1.
         11    1    4    4    0    0 -0.23280239628E+02  0.10280187502E+02 -0.30857912964E+01  0.25635403652E+02  0.51100000000E-03 0. -1.
        -11    1    4    4    0    0 -0.45397568232E+01  0.34535342426E+01 -0.67880827711E+00  0.57443077665E+01  0.51100000000E-03 0.  1.
        -12    1    4    4    0    0  0.52834293516E+01 -0.86377510892E+00 -0.22355275132E+02  0.22987367387E+02  0.00000000000E+00 0.  1.
</event>
<event>
 8    1  0.1229941E-006  0.9118800E+02  0.7816164E-02  0.1184000E+00
        -11   -1    0    0    0    0  0.00000000000E+00  0.00000000000E+00  0.45593999997E+02  0.45594000000E+02  0.51100000000E-03 0.  1.
         11   -1    0    0    0    0 -0.00000000000E+00 -0.00000000000E+00 -0.45593999997E+02  0.45594000000E+02  0.51100000000E-03 0. -1.
         23    2    1    2    0    0  0.00000000000E+00  0.00000000000E+00 -0.35527136788E-14  0.91188000000E+02  0.91188000000E+02 0.  0.
    9900012    2    3    3    0    0  0.22804826900E+02  0.23291644388E+01  0.28814890041E+02  0.54367040955E+02  0.39999901465E+02 0.  0.
         12    1    3    3    0    0 -0.22804826900E+02 -0.23291644388E+01 -0.28814890041E+02  0.36820959045E+02  0.00000000000E+00 0. -1.
         11    1    4    4    0    0  0.10591084157E+02 -0.11672523987E+01  0.48508678663E+00  0.10666248227E+02  0.51100000000E-03 0. -1.
        -11    1    4    4    0    0  0.36899542465E+01 -0.99124193068E+00 -0.65129473302E+01  0.75509473640E+01  0.51100000000E-03 0.  1.
        -12    1    4    4    0    0  0.85237884957E+01  0.44876587682E+01  0.34842750585E+02  0.36149845364E+02  0.00000000000E+00 0.  1.
</event>
<event>
 8    1  0.1229941E-006  0.9118800E+02  0.7816164E-02  0.1184000E+00
        -11   -1    0    0    0    0  0.00000000000E+00  0.00000000000E+00  0.45593999997E+02  0.45594000000E+02  0.51100000000E-03 0.  1.
         11   -1    0    0    0    0 -0.00000000000E+00 -0.00000000000E+00 -0.45593999997E+02  0.45594000000E+02  0.51100000000E-03 0. -1.
         23    2    1    2    0    0  0.17763568394E-14  0.00000000000E+00  0.35527136788E-14  0.91188000000E+02  0.91188000000E+02 0.  0.
    9900012    2    3    3    0    0 -0.21466935326E+01  0.32812621314E+02 -0.16568112886E+02  0.54367098663E+02  0.40000033023E+02 0.  0.
         12    1    3    3    0    0  0.21466935326E+01 -0.32812621314E+02  0.16568112886E+02  0.36820901337E+02  0.00000000000E+00 0. -1.
         11    1    4    4    0    0 -0.83707634675E+01  0.15748021387E+02 -0.16285720849E+02  0.24151491931E+02  0.51100000000E-03 0. -1.
        -11    1    4    4    0    0 -0.60658497990E+01  0.38945164657E+01  0.76690592085E+01  0.10525030247E+02  0.51100000000E-03 0.  1.
        -12    1    4    4    0    0  0.12289919734E+02  0.13170083461E+02 -0.79514512452E+01  0.19690576486E+02  0.00000000000E+00 0.  1.
</event>
<event>
 8    1  0.1229941E-006  0.9118800E+02  0.7816164E-02  0.1184000E+00
        -11   -1    0    0    0    0  0.00000000000E+00  0.00000000000E+00  0.45593999997E+02  0.45594000000E+02  0.51100000000E-03 0. -1.
         11   -1    0    0    0    0 -0.00000000000E+00 -0.00000000000E+00 -0.45593999997E+02  0.45594000000E+02  0.51100000000E-03 0.  1.
         23    2    1    2    0    0  0.00000000000E+00 -0.71054273576E-14  0.00000000000E+00  0.91188000000E+02  0.91188000000E+02 0.  0.
    9900012    2    3    3    0    0  0.13078078430E+02  0.33053442271E+02 -0.96028311832E+01  0.54367074589E+02  0.39999978141E+02 0.  0.
         12    1    3    3    0    0 -0.13078078430E+02 -0.33053442271E+02  0.96028311832E+01  0.36820925411E+02  0.00000000000E+00 0. -1.
         11    1    4    4    0    0 -0.10339637444E+01  0.42298806670E+01 -0.87600705080E+01  0.97826278192E+01  0.51100000000E-03 0. -1.
        -11    1    4    4    0    0  0.41535117076E+01  0.29877413236E+02 -0.92050244869E+01  0.31537976429E+02  0.51100000000E-03 0.  1.
         12    1    4    4    0    0  0.99585304664E+01 -0.10538516317E+01  0.83622638117E+01  0.13046470341E+02  0.00000000000E+00 0. -1.
</event>
<event>
 8    1  0.1229941E-006  0.9118800E+02  0.7816164E-02  0.1184000E+00
        -11   -1    0    0    0    0  0.00000000000E+00  0.00000000000E+00  0.45593999997E+02  0.45594000000E+02  0.51100000000E-03 0.  1.
         11   -1    0    0    0    0 -0.00000000000E+00 -0.00000000000E+00 -0.45593999997E+02  0.45594000000E+02  0.51100000000E-03 0. -1.
         23    2    1    2    0    0  0.00000000000E+00 -0.35527136788E-14 -0.71054273576E-14  0.91188000000E+02  0.91188000000E+02 0.  0.
    9900012    2    3    3    0    0 -0.44861137950E+01  0.21255003499E+02  0.29730062862E+02  0.54367122383E+02  0.40000087097E+02 0.  0.
         12    1    3    3    0    0  0.44861137950E+01 -0.21255003499E+02 -0.29730062862E+02  0.36820877617E+02  0.00000000000E+00 0. -1.
         11    1    4    4    0    0  0.15620008797E+01  0.11075003968E+02  0.15203360822E+02  0.18874261315E+02  0.51100000000E-03 0. -1.
        -11    1    4    4    0    0  0.10877256749E+02  0.88191426263E+01  0.14837378969E+01  0.14081671401E+02  0.51100000000E-03 0.  1.
         12    1    4    4    0    0 -0.16925371424E+02  0.13608569051E+01  0.13042964143E+02  0.21411189667E+02  0.00000000000E+00 0. -1.
</event>
<event>
 8    1  0.1229941E-006  0.9118800E+02  0.7816164E-02  0.1184000E+00
        -11   -1    0    0    0    0  0.00000000000E+00  0.00000000000E+00  0.45593999997E+02  0.45594000000E+02  0.51100000000E-03 0.  1.
         11   -1    0    0    0    0 -0.00000000000E+00 -0.00000000000E+00 -0.45593999997E+02  0.45594000000E+02  0.51100000000E-03 0. -1.
         23    2    1    2    0    0  0.17763568394E-14  0.00000000000E+00  0.00000000000E+00  0.91188000000E+02  0.91188000000E+02 0.  0.
    9900012    2    3    3    0    0 -0.10655169717E+02  0.80760454251E+01 -0.34307782620E+02  0.54367094258E+02  0.40000022979E+02 0.  0.
        -12    1    3    3    0    0  0.10655169717E+02 -0.80760454251E+01  0.34307782620E+02  0.36820905742E+02  0.00000000000E+00 0.  1.
         11    1    4    4    0    0 -0.16610407927E+02  0.31682858727E+01 -0.37598201395E+02  0.41225822433E+02  0.51100000000E-03 0. -1.
        -11    1    4    4    0    0  0.11174692114E+01  0.11220913665E+01  0.61606240638E+01  0.63609052492E+01  0.51100000000E-03 0.  1.
         12    1    4    4    0    0  0.48377689987E+01  0.37856681859E+01 -0.28702052889E+01  0.67803665755E+01  0.00000000000E+00 0. -1.
</event>
<event>
 8    1  0.1229941E-006  0.9118800E+02  0.7816164E-02  0.1184000E+00
        -11   -1    0    0    0    0  0.00000000000E+00  0.00000000000E+00  0.45593999997E+02  0.45594000000E+02  0.51100000000E-03 0.  1.
         11   -1    0    0    0    0 -0.00000000000E+00 -0.00000000000E+00 -0.45593999997E+02  0.45594000000E+02  0.51100000000E-03 0. -1.
         23    2    1    2    0    0  0.35527136788E-14  0.26645352591E-14  0.35527136788E-14  0.91188000000E+02  0.91188000000E+02 0.  0.
    9900012    2    3    3    0    0  0.27528693470E+02  0.38595679380E+01 -0.24146580472E+02  0.54367047034E+02  0.39999915323E+02 0.  0.
        -12    1    3    3    0    0 -0.27528693470E+02 -0.38595679380E+01  0.24146580472E+02  0.36820952966E+02  0.00000000000E+00 0.  1.
         11    1    4    4    0    0  0.76941836291E+00 -0.34459594488E+01 -0.72314315875E+01  0.80473749885E+01  0.51100000000E-03 0.  1.
        -11    1    4    4    0    0  0.11364987657E+02 -0.84418086823E+01 -0.19553247987E+02  0.24140351807E+02  0.51100000000E-03 0. -1.
         12    1    4    4    0    0  0.15394287450E+02  0.15747336069E+02  0.26380991021E+01  0.22179320238E+02  0.00000000000E+00 0. -1.
</event>
<event>
 8    1  0.1229941E-006  0.9118800E+02  0.7816164E-02  0.1184000E+00
        -11   -1    0    0    0    0  0.00000000000E+00  0.00000000000E+00  0.45593999997E+02  0.45594000000E+02  0.51100000000E-03 0.  1.
         11   -1    0    0    0    0 -0.00000000000E+00 -0.00000000000E+00 -0.45593999997E+02  0.45594000000E+02  0.51100000000E-03 0. -1.
         23    2    1    2    0    0  0.00000000000E+00 -0.13322676296E-14  0.00000000000E+00  0.91188000000E+02  0.91188000000E+02 0.  0.
    9900012    2    3    3    0    0 -0.75320676295E+01  0.13248173568E+01 -0.36017946438E+02  0.54367086793E+02  0.40000005961E+02 0.  0.
        -12    1    3    3    0    0  0.75320676295E+01 -0.13248173568E+01  0.36017946438E+02  0.36820913207E+02  0.00000000000E+00 0.  1.
         11    1    4    4    0    0 -0.12216403334E+02 -0.68005888157E+01 -0.65436906888E+01  0.15437240905E+02  0.51100000000E-03 0. -1.
        -11    1    4    4    0    0  0.12783323160E+02 -0.73714131491E+00 -0.19465015891E+02  0.23299003674E+02  0.51100000000E-03 0.  1.
         12    1    4    4    0    0 -0.80989874552E+01  0.88625474874E+01 -0.10009239859E+02  0.15630842214E+02  0.00000000000E+00 0. -1.
</event>
<event>
 8    1  0.1229941E-006  0.9118800E+02  0.7816164E-02  0.1184000E+00
        -11   -1    0    0    0    0  0.00000000000E+00  0.00000000000E+00  0.45593999997E+02  0.45594000000E+02  0.51100000000E-03 0. -1.
         11   -1    0    0    0    0 -0.00000000000E+00 -0.00000000000E+00 -0.45593999997E+02  0.45594000000E+02  0.51100000000E-03 0.  1.
         23    2    1    2    0    0  0.71054273576E-14  0.00000000000E+00 -0.88817841970E-15  0.91188000000E+02  0.91188000000E+02 0.  0.
    9900012    2    3    3    0    0  0.34035876343E+02 -0.11789750640E+02 -0.76382409406E+01  0.54367057274E+02  0.39999938667E+02 0.  0.
         12    1    3    3    0    0 -0.34035876343E+02  0.11789750640E+02  0.76382409406E+01  0.36820942726E+02  0.00000000000E+00 0. -1.
         11    1    4    4    0    0  0.72654063252E+01  0.10467315740E+02 -0.82778146086E+01  0.15194506995E+02  0.51100000000E-03 0. -1.
        -11    1    4    4    0    0 -0.11205174815E+00  0.14477559756E+01  0.29176963006E+01  0.32590650381E+01  0.51100000000E-03 0.  1.
        -12    1    4    4    0    0  0.26882521766E+02 -0.23704822356E+02 -0.22781226326E+01  0.35913485241E+02  0.00000000000E+00 0.  1.
</event>
<event>
 8    1  0.1229941E-006  0.9118800E+02  0.7816164E-02  0.1184000E+00
        -11   -1    0    0    0    0  0.00000000000E+00  0.00000000000E+00  0.45593999997E+02  0.45594000000E+02  0.51100000000E-03 0.  1.
         11   -1    0    0    0    0 -0.00000000000E+00 -0.00000000000E+00 -0.45593999997E+02  0.45594000000E+02  0.51100000000E-03 0. -1.
         23    2    1    2    0    0 -0.71054273576E-14 -0.17763568394E-14  0.00000000000E+00  0.91188000000E+02  0.91188000000E+02 0.  0.
    9900012    2    3    3    0    0  0.32375726019E+02  0.90721185913E+01  0.15009630885E+02  0.54367082164E+02  0.39999995410E+02 0.  0.
         12    1    3    3    0    0 -0.32375726019E+02 -0.90721185913E+01 -0.15009630885E+02  0.36820917836E+02  0.00000000000E+00 0. -1.
         11    1    4    4    0    0  0.26123889484E+01 -0.50175751314E+01 -0.23759399962E+01  0.61356114075E+01  0.51100000000E-03 0. -1.
        -11    1    4    4    0    0  0.24359347823E+02 -0.42535829369E+01  0.43997156784E+01  0.25116295357E+02  0.51100000000E-03 0.  1.
        -12    1    4    4    0    0  0.54039892471E+01  0.18343276660E+02  0.12985855203E+02  0.23115175399E+02  0.00000000000E+00 0.  1.
</event>
<event>
 8    1  0.1229941E-006  0.9118800E+02  0.7816164E-02  0.1184000E+00
        -11   -1    0    0    0    0  0.00000000000E+00  0.00000000000E+00  0.45593999997E+02  0.45594000000E+02  0.51100000000E-03 0.  1.
         11   -1    0    0    0    0 -0.00000000000E+00 -0.00000000000E+00 -0.45593999997E+02  0.45594000000E+02  0.51100000000E-03 0. -1.
         23    2    1    2    0    0 -0.35527136788E-14  0.00000000000E+00  0.00000000000E+00  0.91188000000E+02  0.91188000000E+02 0.  0.
    9900012    2    3    3    0    0  0.26303288053E+02  0.74130196311E+01 -0.24677196246E+02  0.54367084245E+02  0.40000000154E+02 0.  0.
        -12    1    3    3    0    0 -0.26303288053E+02 -0.74130196311E+01  0.24677196246E+02  0.36820915755E+02  0.00000000000E+00 0.  1.
         11    1    4    4    0    0  0.22824364924E+02  0.79015207410E+01 -0.22989065021E+02  0.33344906283E+02  0.51100000000E-03 0. -1.
        -11    1    4    4    0    0  0.22070922320E+01 -0.45175110387E+01  0.85655509388E+01  0.99321611572E+01  0.51100000000E-03 0.  1.
        -12    1    4    4    0    0  0.12718308971E+01  0.40290099288E+01 -0.10253682163E+02  0.11090016805E+02  0.00000000000E+00 0.  1.
</event>
<event>
 8    1  0.1229941E-006  0.9118800E+02  0.7816164E-02  0.1184000E+00
        -11   -1    0    0    0    0  0.00000000000E+00  0.00000000000E+00  0.45593999997E+02  0.45594000000E+02  0.51100000000E-03 0.  1.
         11   -1    0    0    0    0 -0.00000000000E+00 -0.00000000000E+00 -0.45593999997E+02  0.45594000000E+02  0.51100000000E-03 0. -1.
         23    2    1    2    0    0  0.00000000000E+00  0.00000000000E+00 -0.35527136788E-14  0.91188000000E+02  0.91188000000E+02 0.  0.
    9900012    2    3    3    0    0  0.47457383770E+01 -0.24934062251E+02 -0.26674879487E+02  0.54367099838E+02  0.40000035701E+02 0.  0.
         12    1    3    3    0    0 -0.47457383770E+01  0.24934062251E+02  0.26674879487E+02  0.36820900162E+02  0.00000000000E+00 0. -1.
         11    1    4    4    0    0  0.13338766544E+02 -0.11400713502E+02 -0.19498353166E+02  0.26231369345E+02  0.51100000000E-03 0. -1.
        -11    1    4    4    0    0 -0.91172229169E+01 -0.16866062126E+02 -0.11724277910E+02  0.22473239600E+02  0.51100000000E-03 0.  1.
        -12    1    4    4    0    0  0.52419474979E+00  0.33327133772E+01  0.45477515893E+01  0.56624908925E+01  0.00000000000E+00 0.  1.
</event>
<event>
 8    1  0.1229941E-006  0.9118800E+02  0.7816164E-02  0.1184000E+00
        -11   -1    0    0    0    0  0.00000000000E+00  0.00000000000E+00  0.45593999997E+02  0.45594000000E+02  0.51100000000E-03 0.  1.
         11   -1    0    0    0    0 -0.00000000000E+00 -0.00000000000E+00 -0.45593999997E+02  0.45594000000E+02  0.51100000000E-03 0. -1.
         23    2    1    2    0    0 -0.17763568394E-14  0.35527136788E-14  0.35527136788E-14  0.91188000000E+02  0.91188000000E+02 0.  0.
    9900012    2    3    3    0    0 -0.70857041314E+01  0.25538736460E+02  0.25560628357E+02  0.54367082236E+02  0.39999995573E+02 0.  0.
         12    1    3    3    0    0  0.70857041314E+01 -0.25538736460E+02 -0.25560628357E+02  0.36820917764E+02  0.00000000000E+00 0. -1.
         11    1    4    4    0    0  0.97992527892E+01  0.22248204851E+02  0.10527479728E+02  0.26492183828E+02  0.51100000000E-03 0. -1.
        -11    1    4    4    0    0 -0.33130786112E+01  0.73471820190E+01  0.99966728260E+01  0.12840990669E+02  0.51100000000E-03 0.  1.
         12    1    4    4    0    0 -0.13571878309E+02 -0.40566504096E+01  0.50364758024E+01  0.15033907739E+02  0.00000000000E+00 0. -1.
</event>
<event>
 8    1  0.1229941E-006  0.9118800E+02  0.7816164E-02  0.1184000E+00
        -11   -1    0    0    0    0  0.00000000000E+00  0.00000000000E+00  0.45593999997E+02  0.45594000000E+02  0.51100000000E-03 0.  1.
         11   -1    0    0    0    0 -0.00000000000E+00 -0.00000000000E+00 -0.45593999997E+02  0.45594000000E+02  0.51100000000E-03 0. -1.
         23    2    1    2    0    0  0.00000000000E+00  0.00000000000E+00 -0.17486012638E-14  0.91188000000E+02  0.91188000000E+02 0.  0.
    9900012    2    3    3    0    0 -0.87416517171E+01 -0.35767943131E+02 -0.13149602947E+00  0.54367088526E+02  0.40000009914E+02 0.  0.
        -12    1    3    3    0    0  0.87416517171E+01  0.35767943131E+02  0.13149602947E+00  0.36820911474E+02  0.00000000000E+00 0.  1.
         11    1    4    4    0    0  0.13313857750E+01 -0.65007112614E+01  0.75428506235E+01  0.10046214749E+02  0.51100000000E-03 0. -1.
        -11    1    4    4    0    0 -0.14793128471E+02 -0.72419923545E+01 -0.13223463307E+02  0.21122099453E+02  0.51100000000E-03 0.  1.
        -12    1    4    4    0    0  0.47200909786E+01 -0.22025239515E+02  0.55491166541E+01  0.23198774325E+02  0.00000000000E+00 0.  1.
</event>
<event>
 8    1  0.1229941E-006  0.9118800E+02  0.7816164E-02  0.1184000E+00
        -11   -1    0    0    0    0  0.00000000000E+00  0.00000000000E+00  0.45593999997E+02  0.45594000000E+02  0.51100000000E-03 0.  1.
         11   -1    0    0    0    0 -0.00000000000E+00 -0.00000000000E+00 -0.45593999997E+02  0.45594000000E+02  0.51100000000E-03 0. -1.
         23    2    1    2    0    0  0.00000000000E+00  0.00000000000E+00  0.35527136788E-14  0.91188000000E+02  0.91188000000E+02 0.  0.
    9900012    2    3    3    0    0  0.86803702987E+01 -0.24596199867E+02  0.25989628115E+02  0.54367046101E+02  0.39999913197E+02 0.  0.
         12    1    3    3    0    0 -0.86803702987E+01  0.24596199867E+02 -0.25989628115E+02  0.36820953899E+02  0.00000000000E+00 0. -1.
         11    1    4    4    0    0  0.10620473813E+02  0.65598696056E+01  0.12627502129E+02  0.17756130308E+02  0.51100000000E-03 0.  1.
        -11    1    4    4    0    0 -0.37214433544E+01 -0.24015254564E+02  0.15648530080E+02  0.28904291832E+02  0.51100000000E-03 0. -1.
        -12    1    4    4    0    0  0.17813398403E+01 -0.71408149092E+01 -0.22864040931E+01  0.77066239607E+01  0.00000000000E+00 0.  1.
</event>
<event>
 8    1  0.1229941E-006  0.9118800E+02  0.7816164E-02  0.1184000E+00
        -11   -1    0    0    0    0  0.00000000000E+00  0.00000000000E+00  0.45593999997E+02  0.45594000000E+02  0.51100000000E-03 0. -1.
         11   -1    0    0    0    0 -0.00000000000E+00 -0.00000000000E+00 -0.45593999997E+02  0.45594000000E+02  0.51100000000E-03 0.  1.
         23    2    1    2    0    0 -0.88817841970E-15 -0.71054273576E-14  0.00000000000E+00  0.91188000000E+02  0.91188000000E+02 0.  0.
    9900012    2    3    3    0    0  0.61947992977E+01 -0.35222898944E+02  0.87607893637E+01  0.54367087754E+02  0.40000008154E+02 0.  0.
         12    1    3    3    0    0 -0.61947992977E+01  0.35222898944E+02 -0.87607893637E+01  0.36820912246E+02  0.00000000000E+00 0. -1.
         11    1    4    4    0    0  0.11783408322E+02  0.24365317626E+01  0.12456476092E+01  0.12096984622E+02  0.51100000000E-03 0. -1.
        -11    1    4    4    0    0 -0.36012677714E+01 -0.36709134812E+02  0.27108278350E+01  0.36984838732E+02  0.51100000000E-03 0.  1.
        -12    1    4    4    0    0 -0.19873412533E+01 -0.95029589417E+00  0.48043139195E+01  0.52852644003E+01  0.00000000000E+00 0.  1.
</event>
<event>
 8    1  0.1229941E-006  0.9118800E+02  0.7816164E-02  0.1184000E+00
        -11   -1    0    0    0    0  0.00000000000E+00  0.00000000000E+00  0.45593999997E+02  0.45594000000E+02  0.51100000000E-03 0.  1.
         11   -1    0    0    0    0 -0.00000000000E+00 -0.00000000000E+00 -0.45593999997E+02  0.45594000000E+02  0.51100000000E-03 0. -1.
         23    2    1    2    0    0  0.88817841970E-15  0.00000000000E+00  0.17763568394E-14  0.91188000000E+02  0.91188000000E+02 0.  0.
    9900012    2    3    3    0    0 -0.67740321822E+01 -0.34179325421E+02 -0.11902357741E+02  0.54367083146E+02  0.39999997647E+02 0.  0.
        -12    1    3    3    0    0  0.67740321822E+01  0.34179325421E+02  0.11902357741E+02  0.36820916854E+02  0.00000000000E+00 0.  1.
         11    1    4    4    0    0 -0.11085519460E+02 -0.15391373846E+02  0.97795337172E+01  0.21340628167E+02  0.51100000000E-03 0. -1.
        -11    1    4    4    0    0  0.27314366365E+01 -0.93747073520E+01 -0.21348603804E+02  0.23475705925E+02  0.51100000000E-03 0.  1.
         12    1    4    4    0    0  0.15800506414E+01 -0.94132442225E+01 -0.33328765391E+00  0.95507490534E+01  0.00000000000E+00 0. -1.
</event>
<event>
 8    1  0.1229941E-006  0.9118800E+02  0.7816164E-02  0.1184000E+00
        -11   -1    0    0    0    0  0.00000000000E+00  0.00000000000E+00  0.45593999997E+02  0.45594000000E+02  0.51100000000E-03 0. -1.
         11   -1    0    0    0    0 -0.00000000000E+00 -0.00000000000E+00 -0.45593999997E+02  0.45594000000E+02  0.51100000000E-03 0.  1.
         23    2    1    2    0    0  0.35527136788E-14  0.35527136788E-14 -0.35527136788E-14  0.91188000000E+02  0.91188000000E+02 0.  0.
    9900012    2    3    3    0    0  0.23135021677E+02  0.18274888177E+02 -0.22058532541E+02  0.54367087142E+02  0.40000006757E+02 0.  0.
         12    1    3    3    0    0 -0.23135021677E+02 -0.18274888177E+02  0.22058532541E+02  0.36820912858E+02  0.00000000000E+00 0. -1.
         11    1    4    4    0    0  0.77178648580E+01 -0.11918836047E+02 -0.73796659673E+01  0.16002611060E+02  0.51100000000E-03 0. -1.
        -11    1    4    4    0    0  0.66360012906E+01  0.66102941445E+01 -0.27918383394E+00  0.93707227939E+01  0.51100000000E-03 0.  1.
        -12    1    4    4    0    0  0.87811555279E+01  0.23583430080E+02 -0.14399682740E+02  0.28993753288E+02  0.00000000000E+00 0.  1.
</event>
<event>
 8    1  0.1229941E-006  0.9118800E+02  0.7816164E-02  0.1184000E+00
        -11   -1    0    0    0    0  0.00000000000E+00  0.00000000000E+00  0.45593999997E+02  0.45594000000E+02  0.51100000000E-03 0. -1.
         11   -1    0    0    0    0 -0.00000000000E+00 -0.00000000000E+00 -0.45593999997E+02  0.45594000000E+02  0.51100000000E-03 0.  1.
         23    2    1    2    0    0  0.00000000000E+00  0.35527136788E-14  0.00000000000E+00  0.91188000000E+02  0.91188000000E+02 0.  0.
    9900012    2    3    3    0    0  0.23403840966E+02 -0.18229767280E+02  0.21810898870E+02  0.54367088869E+02  0.40000010694E+02 0.  0.
        -12    1    3    3    0    0 -0.23403840966E+02  0.18229767280E+02 -0.21810898870E+02  0.36820911131E+02  0.00000000000E+00 0.  1.
         11    1    4    4    0    0 -0.80781844967E+01 -0.67435775573E+01  0.13388079312E+02  0.17028610365E+02  0.51100000000E-03 0.  1.
        -11    1    4    4    0    0  0.13228696668E+02  0.17388761450E+01  0.19782161429E+00  0.13343958911E+02  0.51100000000E-03 0. -1.
         12    1    4    4    0    0  0.18253328795E+02 -0.13225065867E+02  0.82249979438E+01  0.23994519593E+02  0.00000000000E+00 0. -1.
</event>
<event>
 8    1  0.1229941E-006  0.9118800E+02  0.7816164E-02  0.1184000E+00
        -11   -1    0    0    0    0  0.00000000000E+00  0.00000000000E+00  0.45593999997E+02  0.45594000000E+02  0.51100000000E-03 0.  1.
         11   -1    0    0    0    0 -0.00000000000E+00 -0.00000000000E+00 -0.45593999997E+02  0.45594000000E+02  0.51100000000E-03 0. -1.
         23    2    1    2    0    0  0.35527136788E-14  0.00000000000E+00  0.00000000000E+00  0.91188000000E+02  0.91188000000E+02 0.  0.
    9900012    2    3    3    0    0  0.28424362439E+02 -0.16126922754E+02  0.16963416360E+02  0.54367088657E+02  0.40000010211E+02 0.  0.
         12    1    3    3    0    0 -0.28424362439E+02  0.16126922754E+02 -0.16963416360E+02  0.36820911343E+02  0.00000000000E+00 0. -1.
         11    1    4    4    0    0  0.36526867343E+01  0.10190988016E+02  0.88110265210E+00  0.10861615868E+02  0.51100000000E-03 0. -1.
        -11    1    4    4    0    0  0.77966537629E+00 -0.12714465736E+02  0.65554109952E+01  0.14326162453E+02  0.51100000000E-03 0.  1.
        -12    1    4    4    0    0  0.23992010328E+02 -0.13603445034E+02  0.95269027122E+01  0.29179310335E+02  0.00000000000E+00 0.  1.
</event>
<event>
 8    1  0.1229941E-006  0.9118800E+02  0.7816164E-02  0.1184000E+00
        -11   -1    0    0    0    0  0.00000000000E+00  0.00000000000E+00  0.45593999997E+02  0.45594000000E+02  0.51100000000E-03 0. -1.
         11   -1    0    0    0    0 -0.00000000000E+00 -0.00000000000E+00 -0.45593999997E+02  0.45594000000E+02  0.51100000000E-03 0.  1.
         23    2    1    2    0    0 -0.35527136788E-14  0.00000000000E+00  0.00000000000E+00  0.91188000000E+02  0.91188000000E+02 0.  0.
    9900012    2    3    3    0    0  0.25635464386E+02  0.65343676374E+01 -0.25610631417E+02  0.54367089687E+02  0.40000012559E+02 0.  0.
         12    1    3    3    0    0 -0.25635464386E+02 -0.65343676374E+01  0.25610631417E+02  0.36820910313E+02  0.00000000000E+00 0. -1.
         11    1    4    4    0    0 -0.15307847314E+01  0.16382817785E+02 -0.29392344449E+01  0.16714637892E+02  0.51100000000E-03 0. -1.
        -11    1    4    4    0    0  0.59978337564E+01 -0.32631160097E+01 -0.10026534208E+02  0.12130676995E+02  0.51100000000E-03 0.  1.
        -12    1    4    4    0    0  0.21168415362E+02 -0.65853341382E+01 -0.12644862764E+02  0.25521774800E+02  0.00000000000E+00 0.  1.
</event>
<event>
 8    1  0.1229941E-006  0.9118800E+02  0.7816164E-02  0.1184000E+00
        -11   -1    0    0    0    0  0.00000000000E+00  0.00000000000E+00  0.45593999997E+02  0.45594000000E+02  0.51100000000E-03 0.  1.
         11   -1    0    0    0    0 -0.00000000000E+00 -0.00000000000E+00 -0.45593999997E+02  0.45594000000E+02  0.51100000000E-03 0. -1.
         23    2    1    2    0    0 -0.13322676296E-14  0.71054273576E-14  0.00000000000E+00  0.91188000000E+02  0.91188000000E+02 0.  0.
    9900012    2    3    3    0    0 -0.36765622595E+01 -0.33476485287E+02  0.14885829860E+02  0.54367080567E+02  0.39999991770E+02 0.  0.
         12    1    3    3    0    0  0.36765622595E+01  0.33476485287E+02 -0.14885829860E+02  0.36820919433E+02  0.00000000000E+00 0. -1.
         11    1    4    4    0    0 -0.12474451860E+02 -0.13826465812E+01  0.15291070865E+02  0.19782328206E+02  0.51100000000E-03 0. -1.
        -11    1    4    4    0    0  0.49977865657E+01 -0.24347012303E+02  0.35245454291E+01  0.25103332436E+02  0.51100000000E-03 0.  1.
         12    1    4    4    0    0  0.38001030345E+01 -0.77468264030E+01 -0.39297864345E+01  0.94814199260E+01  0.00000000000E+00 0. -1.
</event>
<event>
 8    1  0.1229941E-006  0.9118800E+02  0.7816164E-02  0.1184000E+00
        -11   -1    0    0    0    0  0.00000000000E+00  0.00000000000E+00  0.45593999997E+02  0.45594000000E+02  0.51100000000E-03 0.  1.
         11   -1    0    0    0    0 -0.00000000000E+00 -0.00000000000E+00 -0.45593999997E+02  0.45594000000E+02  0.51100000000E-03 0. -1.
         23    2    1    2    0    0 -0.88817841970E-15  0.00000000000E+00  0.00000000000E+00  0.91188000000E+02  0.91188000000E+02 0.  0.
    9900012    2    3    3    0    0 -0.18384474864E+01 -0.29538425205E+02  0.21906181926E+02  0.54367092090E+02  0.40000018039E+02 0.  0.
         12    1    3    3    0    0  0.18384474864E+01  0.29538425205E+02 -0.21906181926E+02  0.36820907910E+02  0.00000000000E+00 0. -1.
         11    1    4    4    0    0  0.97758868733E+01 -0.12271607471E+01  0.21858826520E+01  0.10092173744E+02  0.51100000000E-03 0. -1.
        -11    1    4    4    0    0 -0.21120180281E+01 -0.26446031512E+02  0.55382008038E+01  0.27102119313E+02  0.51100000000E-03 0.  1.
         12    1    4    4    0    0 -0.95023163316E+01 -0.18652329456E+01  0.14182098470E+02  0.17172799033E+02  0.00000000000E+00 0. -1.
</event>
<event>
 8    1  0.1229941E-006  0.9118800E+02  0.7816164E-02  0.1184000E+00
        -11   -1    0    0    0    0  0.00000000000E+00  0.00000000000E+00  0.45593999997E+02  0.45594000000E+02  0.51100000000E-03 0.  1.
         11   -1    0    0    0    0 -0.00000000000E+00 -0.00000000000E+00 -0.45593999997E+02  0.45594000000E+02  0.51100000000E-03 0. -1.
         23    2    1    2    0    0  0.00000000000E+00 -0.35527136788E-14  0.71054273576E-14  0.91188000000E+02  0.91188000000E+02 0.  0.
    9900012    2    3    3    0    0 -0.97537701186E+01  0.17788674933E+02 -0.30727959514E+02  0.54367075469E+02  0.39999980147E+02 0.  0.
        -12    1    3    3    0    0  0.97537701186E+01 -0.17788674933E+02  0.30727959514E+02  0.36820924531E+02  0.00000000000E+00 0.  1.
         11    1    4    4    0    0 -0.60014738398E+01 -0.36088851026E+01 -0.14690880023E+02  0.16274633515E+02  0.51100000000E-03 0. -1.
        -11    1    4    4    0    0  0.22028780555E+01 -0.32088141804E+01  0.41669630119E+01  0.57019944910E+01  0.51100000000E-03 0.  1.
         12    1    4    4    0    0 -0.59551743343E+01  0.24606374216E+02 -0.20204042504E+02  0.32390447464E+02  0.00000000000E+00 0. -1.
</event>
<event>
 8    1  0.1229941E-006  0.9118800E+02  0.7816164E-02  0.1184000E+00
        -11   -1    0    0    0    0  0.00000000000E+00  0.00000000000E+00  0.45593999997E+02  0.45594000000E+02  0.51100000000E-03 0.  1.
         11   -1    0    0    0    0 -0.00000000000E+00 -0.00000000000E+00 -0.45593999997E+02  0.45594000000E+02  0.51100000000E-03 0. -1.
         23    2    1    2    0    0  0.17763568394E-14 -0.71054273576E-14  0.35527136788E-14  0.91188000000E+02  0.91188000000E+02 0.  0.
    9900012    2    3    3    0    0  0.14183225471E+02 -0.26219250744E+02  0.21614175126E+02  0.54367006522E+02  0.39999822967E+02 0.  0.
         12    1    3    3    0    0 -0.14183225471E+02  0.26219250744E+02 -0.21614175126E+02  0.36820993478E+02  0.00000000000E+00 0. -1.
         11    1    4    4    0    0 -0.60421475712E-01 -0.97342212488E+01 -0.49313339773E+01  0.10912230255E+02  0.51100000000E-03 0. -1.
        -11    1    4    4    0    0  0.38515479428E+01 -0.12031643526E+01  0.24535656454E+02  0.24865246106E+02  0.51100000000E-03 0.  1.
         12    1    4    4    0    0  0.10392099004E+02 -0.15281865142E+02  0.20098526497E+01  0.18589530161E+02  0.00000000000E+00 0. -1.
</event>
<event>
 8    1  0.1229941E-006  0.9118800E+02  0.7816164E-02  0.1184000E+00
        -11   -1    0    0    0    0  0.00000000000E+00  0.00000000000E+00  0.45593999997E+02  0.45594000000E+02  0.51100000000E-03 0.  1.
         11   -1    0    0    0    0 -0.00000000000E+00 -0.00000000000E+00 -0.45593999997E+02  0.45594000000E+02  0.51100000000E-03 0. -1.
         23    2    1    2    0    0  0.00000000000E+00  0.35527136788E-14  0.00000000000E+00  0.91188000000E+02  0.91188000000E+02 0.  0.
    9900012    2    3    3    0    0  0.11743873186E+02  0.26092556399E+02  0.23174171520E+02  0.54367051038E+02  0.39999924450E+02 0.  0.
         12    1    3    3    0    0 -0.11743873186E+02 -0.26092556399E+02 -0.23174171520E+02  0.36820948962E+02  0.00000000000E+00 0. -1.
         11    1    4    4    0    0  0.12082688931E+02  0.20316958692E+00  0.24104789666E+02  0.26964301118E+02  0.51100000000E-03 0. -1.
        -11    1    4    4    0    0 -0.20284740366E+01  0.19417104991E+01  0.16505388949E+01  0.32571806036E+01  0.51100000000E-03 0.  1.
         12    1    4    4    0    0  0.16896582917E+01  0.23947676313E+02 -0.25811570405E+01  0.24145569316E+02  0.00000000000E+00 0. -1.
</event>
<event>
 8    1  0.1229941E-006  0.9118800E+02  0.7816164E-02  0.1184000E+00
        -11   -1    0    0    0    0  0.00000000000E+00  0.00000000000E+00  0.45593999997E+02  0.45594000000E+02  0.51100000000E-03 0. -1.
         11   -1    0    0    0    0 -0.00000000000E+00 -0.00000000000E+00 -0.45593999997E+02  0.45594000000E+02  0.51100000000E-03 0.  1.
         23    2    1    2    0    0  0.00000000000E+00  0.13322676296E-14  0.00000000000E+00  0.91188000000E+02  0.91188000000E+02 0.  0.
    9900012    2    3    3    0    0 -0.34210406997E+02  0.30070827983E+01  0.13280971668E+02  0.54367099654E+02  0.40000035281E+02 0.  0.
         12    1    3    3    0    0  0.34210406997E+02 -0.30070827983E+01 -0.13280971668E+02  0.36820900346E+02  0.00000000000E+00 0. -1.
         11    1    4    4    0    0 -0.21823107394E+02  0.20787409203E+01  0.40543995225E+01  0.22293661339E+02  0.51100000000E-03 0. -1.
        -11    1    4    4    0    0 -0.18670687638E+02 -0.74677384045E+01  0.74087522872E+01  0.21430149427E+02  0.51100000000E-03 0.  1.
         12    1    4    4    0    0  0.62833880354E+01  0.83960802826E+01  0.18178198586E+01  0.10643288888E+02  0.00000000000E+00 0. -1.
</event>
<event>
 8    1  0.1229941E-006  0.9118800E+02  0.7816164E-02  0.1184000E+00
        -11   -1    0    0    0    0  0.00000000000E+00  0.00000000000E+00  0.45593999997E+02  0.45594000000E+02  0.51100000000E-03 0. -1.
         11   -1    0    0    0    0 -0.00000000000E+00 -0.00000000000E+00 -0.45593999997E+02  0.45594000000E+02  0.51100000000E-03 0.  1.
         23    2    1    2    0    0  0.00000000000E+00  0.35527136788E-14 -0.35527136788E-14  0.91188000000E+02  0.91188000000E+02 0.  0.
    9900012    2    3    3    0    0 -0.25796750761E+01 -0.21245086741E+02  0.29962837620E+02  0.54367081049E+02  0.39999992868E+02 0.  0.
        -12    1    3    3    0    0  0.25796750761E+01  0.21245086741E+02 -0.29962837620E+02  0.36820918951E+02  0.00000000000E+00 0.  1.
         11    1    4    4    0    0 -0.53034625254E+01 -0.93107321317E+01  0.30407298789E+02  0.32240041370E+02  0.51100000000E-03 0. -1.
        -11    1    4    4    0    0  0.38868801877E+01 -0.71085546036E+01  0.85966840129E+01  0.11812805019E+02  0.51100000000E-03 0.  1.
        -12    1    4    4    0    0 -0.11630927383E+01 -0.48258000062E+01 -0.90411451827E+01  0.10314234660E+02  0.00000000000E+00 0.  1.
</event>
<event>
 8    1  0.1229941E-006  0.9118800E+02  0.7816164E-02  0.1184000E+00
        -11   -1    0    0    0    0  0.00000000000E+00  0.00000000000E+00  0.45593999997E+02  0.45594000000E+02  0.51100000000E-03 0. -1.
         11   -1    0    0    0    0 -0.00000000000E+00 -0.00000000000E+00 -0.45593999997E+02  0.45594000000E+02  0.51100000000E-03 0.  1.
         23    2    1    2    0    0 -0.13322676296E-14  0.00000000000E+00 -0.71054273576E-14  0.91188000000E+02  0.91188000000E+02 0.  0.
    9900012    2    3    3    0    0  0.28998088238E+01  0.67606754587E+01 -0.36078601471E+02  0.54367066986E+02  0.39999960809E+02 0.  0.
         12    1    3    3    0    0 -0.28998088238E+01 -0.67606754587E+01  0.36078601471E+02  0.36820933014E+02  0.00000000000E+00 0. -1.
         11    1    4    4    0    0 -0.62473068638E+01 -0.25104058739E+01  0.29177703499E+01  0.73378719516E+01  0.51100000000E-03 0. -1.
        -11    1    4    4    0    0  0.76324736930E+01  0.63079232780E+01 -0.22780986865E+01  0.10160427385E+02  0.51100000000E-03 0.  1.
        -12    1    4    4    0    0  0.15146419946E+01  0.29631580545E+01 -0.36718273135E+02  0.36868767650E+02  0.00000000000E+00 0.  1.
</event>
<event>
 8    1  0.1229941E-006  0.9118800E+02  0.7816164E-02  0.1184000E+00
        -11   -1    0    0    0    0  0.00000000000E+00  0.00000000000E+00  0.45593999997E+02  0.45594000000E+02  0.51100000000E-03 0. -1.
         11   -1    0    0    0    0 -0.00000000000E+00 -0.00000000000E+00 -0.45593999997E+02  0.45594000000E+02  0.51100000000E-03 0.  1.
         23    2    1    2    0    0 -0.35527136788E-14 -0.13322676296E-14  0.00000000000E+00  0.91188000000E+02  0.91188000000E+02 0.  0.
    9900012    2    3    3    0    0 -0.72470595914E+01  0.23034944873E+01 -0.36026900587E+02  0.54367305744E+02  0.40000505102E+02 0.  0.
         12    1    3    3    0    0  0.72470595914E+01 -0.23034944873E+01  0.36026900587E+02  0.36820694256E+02  0.00000000000E+00 0. -1.
         11    1    4    4    0    0  0.99378677171E+01  0.57875603037E+01 -0.75614767581E+00  0.11525138984E+02  0.51100000000E-03 0. -1.
        -11    1    4    4    0    0 -0.11977278833E+02  0.30838772795E+01 -0.31122370395E+02  0.33489811086E+02  0.51100000000E-03 0.  1.
         12    1    4    4    0    0 -0.52076484758E+01 -0.65679430960E+01 -0.41483825155E+01  0.93523556741E+01  0.00000000000E+00 0. -1.
</event>
<event>
 8    1  0.1229941E-006  0.9118800E+02  0.7816164E-02  0.1184000E+00
        -11   -1    0    0    0    0  0.00000000000E+00  0.00000000000E+00  0.45593999997E+02  0.45594000000E+02  0.51100000000E-03 0.  1.
         11   -1    0    0    0    0 -0.00000000000E+00 -0.00000000000E+00 -0.45593999997E+02  0.45594000000E+02  0.51100000000E-03 0. -1.
         23    2    1    2    0    0  0.00000000000E+00  0.88817841970E-15 -0.17763568394E-14  0.91188000000E+02  0.91188000000E+02 0.  0.
    9900012    2    3    3    0    0 -0.33756876317E+02  0.54692157209E+01  0.13650681231E+02  0.54367080439E+02  0.39999991477E+02 0.  0.
         12    1    3    3    0    0  0.33756876317E+02 -0.54692157209E+01 -0.13650681231E+02  0.36820919561E+02  0.00000000000E+00 0. -1.
         11    1    4    4    0    0 -0.11452083309E+02 -0.28067965025E+01  0.19011936241E+02  0.22371455889E+02  0.51100000000E-03 0. -1.
        -11    1    4    4    0    0 -0.11255694819E+01 -0.55796963161E+01  0.12707653236E+01  0.58322176234E+01  0.51100000000E-03 0.  1.
        -12    1    4    4    0    0 -0.21179223526E+02  0.13855708540E+02 -0.66320203339E+01  0.26163406926E+02  0.00000000000E+00 0.  1.
</event>
<event>
 8    1  0.1229941E-006  0.9118800E+02  0.7816164E-02  0.1184000E+00
        -11   -1    0    0    0    0  0.00000000000E+00  0.00000000000E+00  0.45593999997E+02  0.45594000000E+02  0.51100000000E-03 0.  1.
         11   -1    0    0    0    0 -0.00000000000E+00 -0.00000000000E+00 -0.45593999997E+02  0.45594000000E+02  0.51100000000E-03 0. -1.
         23    2    1    2    0    0 -0.35527136788E-14 -0.71054273576E-14  0.00000000000E+00  0.91188000000E+02  0.91188000000E+02 0.  0.
    9900012    2    3    3    0    0  0.15949060315E+02  0.32684158854E+02 -0.57579369012E+01  0.54367073854E+02  0.39999976464E+02 0.  0.
        -12    1    3    3    0    0 -0.15949060315E+02 -0.32684158854E+02  0.57579369012E+01  0.36820926146E+02  0.00000000000E+00 0.  1.
         11    1    4    4    0    0  0.13657041703E+02  0.10978729074E+02 -0.38506294630E+01  0.17940864741E+02  0.51100000000E-03 0. -1.
        -11    1    4    4    0    0 -0.12304539753E+02  0.16600570268E+02 -0.31956499064E+01  0.20909156137E+02  0.51100000000E-03 0.  1.
        -12    1    4    4    0    0  0.14596558365E+02  0.51048595119E+01  0.12883424681E+01  0.15517052976E+02  0.00000000000E+00 0.  1.
</event>
<event>
 8    1  0.1229941E-006  0.9118800E+02  0.7816164E-02  0.1184000E+00
        -11   -1    0    0    0    0  0.00000000000E+00  0.00000000000E+00  0.45593999997E+02  0.45594000000E+02  0.51100000000E-03 0. -1.
         11   -1    0    0    0    0 -0.00000000000E+00 -0.00000000000E+00 -0.45593999997E+02  0.45594000000E+02  0.51100000000E-03 0.  1.
         23    2    1    2    0    0  0.35527136788E-14  0.22204460493E-14 -0.35527136788E-14  0.91188000000E+02  0.91188000000E+02 0.  0.
    9900012    2    3    3    0    0  0.19301217649E+02 -0.32758456063E+01 -0.31185116294E+02  0.54367086847E+02  0.40000006084E+02 0.  0.
         12    1    3    3    0    0 -0.19301217649E+02  0.32758456063E+01  0.31185116294E+02  0.36820913153E+02  0.00000000000E+00 0. -1.
         11    1    4    4    0    0  0.17361101254E+01  0.79580338725E+01  0.19934605086E+00  0.81476450950E+01  0.51100000000E-03 0. -1.
        -11    1    4    4    0    0  0.88501300769E+01  0.69984278491E+01 -0.20161882335E+02  0.23104205121E+02  0.51100000000E-03 0.  1.
        -12    1    4    4    0    0  0.87149774471E+01 -0.18232307328E+02 -0.11222580010E+02  0.23115236631E+02  0.00000000000E+00 0.  1.
</event>
<event>
 8    1  0.1229941E-006  0.9118800E+02  0.7816164E-02  0.1184000E+00
        -11   -1    0    0    0    0  0.00000000000E+00  0.00000000000E+00  0.45593999997E+02  0.45594000000E+02  0.51100000000E-03 0.  1.
         11   -1    0    0    0    0 -0.00000000000E+00 -0.00000000000E+00 -0.45593999997E+02  0.45594000000E+02  0.51100000000E-03 0. -1.
         23    2    1    2    0    0  0.00000000000E+00  0.33306690739E-15  0.00000000000E+00  0.91188000000E+02  0.91188000000E+02 0.  0.
    9900012    2    3    3    0    0  0.30663272098E+02 -0.76500935645E+00 -0.20370541158E+02  0.54367076028E+02  0.39999981422E+02 0.  0.
        -12    1    3    3    0    0 -0.30663272098E+02  0.76500935645E+00  0.20370541158E+02  0.36820923972E+02  0.00000000000E+00 0.  1.
         11    1    4    4    0    0  0.16458149977E+02  0.98085964198E+01 -0.21629816193E+02  0.28895124384E+02  0.51100000000E-03 0. -1.
        -11    1    4    4    0    0 -0.41432248443E+01 -0.44189851322E+01  0.82991171246E+00  0.61141226207E+01  0.51100000000E-03 0.  1.
        -12    1    4    4    0    0  0.18348346965E+02 -0.61546206440E+01  0.42936332276E+00  0.19357829023E+02  0.00000000000E+00 0.  1.
</event>
<event>
 8    1  0.1229941E-006  0.9118800E+02  0.7816164E-02  0.1184000E+00
        -11   -1    0    0    0    0  0.00000000000E+00  0.00000000000E+00  0.45593999997E+02  0.45594000000E+02  0.51100000000E-03 0.  1.
         11   -1    0    0    0    0 -0.00000000000E+00 -0.00000000000E+00 -0.45593999997E+02  0.45594000000E+02  0.51100000000E-03 0. -1.
         23    2    1    2    0    0  0.17763568394E-14  0.00000000000E+00  0.17763568394E-14  0.91188000000E+02  0.91188000000E+02 0.  0.
    9900012    2    3    3    0    0 -0.72913077491E+01 -0.35009127536E+02  0.87726094250E+01  0.54367341999E+02  0.40000587751E+02 0.  0.
        -12    1    3    3    0    0  0.72913077491E+01  0.35009127536E+02 -0.87726094250E+01  0.36820658001E+02  0.00000000000E+00 0.  1.
         11    1    4    4    0    0 -0.49839885402E+01 -0.21362859231E+02  0.12022574081E+01  0.21969463339E+02  0.51100000000E-03 0. -1.
        -11    1    4    4    0    0 -0.14665514977E+02 -0.57175379020E+01  0.81058305895E+01  0.17705142163E+02  0.51100000000E-03 0.  1.
         12    1    4    4    0    0  0.12358195769E+02 -0.79287304027E+01 -0.53547857260E+00  0.14692736496E+02  0.00000000000E+00 0. -1.
</event>
<event>
 8    1  0.1229941E-006  0.9118800E+02  0.7816164E-02  0.1184000E+00
        -11   -1    0    0    0    0  0.00000000000E+00  0.00000000000E+00  0.45593999997E+02  0.45594000000E+02  0.51100000000E-03 0. -1.
         11   -1    0    0    0    0 -0.00000000000E+00 -0.00000000000E+00 -0.45593999997E+02  0.45594000000E+02  0.51100000000E-03 0.  1.
         23    2    1    2    0    0 -0.35527136788E-14  0.35527136788E-14 -0.35527136788E-14  0.91188000000E+02  0.91188000000E+02 0.  0.
    9900012    2    3    3    0    0  0.21020254970E+02 -0.21835908522E+02  0.20907469866E+02  0.54367077739E+02  0.39999985321E+02 0.  0.
        -12    1    3    3    0    0 -0.21020254970E+02  0.21835908522E+02 -0.20907469866E+02  0.36820922261E+02  0.00000000000E+00 0.  1.
         11    1    4    4    0    0  0.21927090987E+02 -0.17965817519E+02  0.18801904495E+02  0.34015871754E+02  0.51100000000E-03 0. -1.
        -11    1    4    4    0    0 -0.65957036569E+00  0.49470694301E+01  0.82214486911E+01  0.96177309099E+01  0.51100000000E-03 0.  1.
        -12    1    4    4    0    0 -0.24726565125E+00 -0.88171604330E+01 -0.61158833198E+01  0.10733475075E+02  0.00000000000E+00 0.  1.
</event>
<event>
 8    1  0.1229941E-006  0.9118800E+02  0.7816164E-02  0.1184000E+00
        -11   -1    0    0    0    0  0.00000000000E+00  0.00000000000E+00  0.45593999997E+02  0.45594000000E+02  0.51100000000E-03 0. -1.
         11   -1    0    0    0    0 -0.00000000000E+00 -0.00000000000E+00 -0.45593999997E+02  0.45594000000E+02  0.51100000000E-03 0.  1.
         23    2    1    2    0    0  0.13322676296E-14  0.71054273576E-14  0.17763568394E-14  0.91188000000E+02  0.91188000000E+02 0.  0.
    9900012    2    3    3    0    0  0.34056957204E+01  0.33917417431E+02 -0.13920882810E+02  0.54367069176E+02  0.39999965800E+02 0.  0.
        -12    1    3    3    0    0 -0.34056957204E+01 -0.33917417431E+02  0.13920882810E+02  0.36820930824E+02  0.00000000000E+00 0.  1.
         11    1    4    4    0    0  0.22739722573E+01  0.77993693626E+01  0.67562552302E+01  0.10566366323E+02  0.51100000000E-03 0. -1.
        -11    1    4    4    0    0  0.12855074649E+02  0.11532076911E+02 -0.17916995684E+02  0.24884944780E+02  0.51100000000E-03 0.  1.
        -12    1    4    4    0    0 -0.11723351186E+02  0.14585971157E+02 -0.27601423563E+01  0.18915758073E+02  0.00000000000E+00 0.  1.
</event>
<event>
 8    1  0.1229941E-006  0.9118800E+02  0.7816164E-02  0.1184000E+00
        -11   -1    0    0    0    0  0.00000000000E+00  0.00000000000E+00  0.45593999997E+02  0.45594000000E+02  0.51100000000E-03 0. -1.
         11   -1    0    0    0    0 -0.00000000000E+00 -0.00000000000E+00 -0.45593999997E+02  0.45594000000E+02  0.51100000000E-03 0.  1.
         23    2    1    2    0    0 -0.88817841970E-15  0.00000000000E+00 -0.17763568394E-14  0.91188000000E+02  0.91188000000E+02 0.  0.
    9900012    2    3    3    0    0 -0.60076442950E+01  0.35174753581E+02 -0.90788316792E+01  0.54367078446E+02  0.39999986932E+02 0.  0.
         12    1    3    3    0    0  0.60076442950E+01 -0.35174753581E+02  0.90788316792E+01  0.36820921554E+02  0.00000000000E+00 0. -1.
         11    1    4    4    0    0  0.11359109253E+01  0.52548626833E+01  0.55613839140E+01  0.77351707642E+01  0.51100000000E-03 0. -1.
        -11    1    4    4    0    0  0.11360778353E+02  0.33009949346E+01 -0.46080376715E+01  0.12696372071E+02  0.51100000000E-03 0.  1.
         12    1    4    4    0    0 -0.18504333573E+02  0.26618895963E+02 -0.10032177922E+02  0.33935535610E+02  0.00000000000E+00 0. -1.
</event>
<event>
 8    1  0.1229941E-006  0.9118800E+02  0.7816164E-02  0.1184000E+00
        -11   -1    0    0    0    0  0.00000000000E+00  0.00000000000E+00  0.45593999997E+02  0.45594000000E+02  0.51100000000E-03 0.  1.
         11   -1    0    0    0    0 -0.00000000000E+00 -0.00000000000E+00 -0.45593999997E+02  0.45594000000E+02  0.51100000000E-03 0. -1.
         23    2    1    2    0    0 -0.17763568394E-14  0.22204460493E-15 -0.71054273576E-14  0.91188000000E+02  0.91188000000E+02 0.  0.
    9900012    2    3    3    0    0 -0.78687555667E+01  0.98562016337E+00 -0.35956810568E+02  0.54367068623E+02  0.39999964539E+02 0.  0.
        -12    1    3    3    0    0  0.78687555667E+01 -0.98562016337E+00  0.35956810568E+02  0.36820931377E+02  0.00000000000E+00 0.  1.
         11    1    4    4    0    0 -0.96542603167E+01  0.14441813370E+02 -0.22113878649E+02  0.28121065855E+02  0.51100000000E-03 0. -1.
        -11    1    4    4    0    0  0.21336626703E+01 -0.11450610486E+02  0.59729510994E+00  0.11663008129E+02  0.51100000000E-03 0.  1.
        -12    1    4    4    0    0 -0.34815792037E+00 -0.20055827202E+01 -0.14440227029E+02  0.14582994639E+02  0.00000000000E+00 0.  1.
</event>
<event>
 8    1  0.1229941E-006  0.9118800E+02  0.7816164E-02  0.1184000E+00
        -11   -1    0    0    0    0  0.00000000000E+00  0.00000000000E+00  0.45593999997E+02  0.45594000000E+02  0.51100000000E-03 0.  1.
         11   -1    0    0    0    0 -0.00000000000E+00 -0.00000000000E+00 -0.45593999997E+02  0.45594000000E+02  0.51100000000E-03 0. -1.
         23    2    1    2    0    0 -0.35527136788E-14 -0.17763568394E-14  0.00000000000E+00  0.91188000000E+02  0.91188000000E+02 0.  0.
    9900012    2    3    3    0    0  0.20953370841E+02  0.14900367378E+02 -0.26357456999E+02  0.54367078813E+02  0.39999987771E+02 0.  0.
        -12    1    3    3    0    0 -0.20953370841E+02 -0.14900367378E+02  0.26357456999E+02  0.36820921187E+02  0.00000000000E+00 0.  1.
         11    1    4    4    0    0  0.22371834955E+02  0.63482008555E+01 -0.13248238888E+02  0.26764052146E+02  0.51100000000E-03 0.  1.
        -11    1    4    4    0    0  0.30937076489E+01 -0.71765382041E+01 -0.30121094097E+01  0.83753525877E+01  0.51100000000E-03 0. -1.
         12    1    4    4    0    0 -0.45121717636E+01  0.15728704727E+02 -0.10097108701E+02  0.19227674080E+02  0.00000000000E+00 0. -1.
</event>
<event>
 8    1  0.1229941E-006  0.9118800E+02  0.7816164E-02  0.1184000E+00
        -11   -1    0    0    0    0  0.00000000000E+00  0.00000000000E+00  0.45593999997E+02  0.45594000000E+02  0.51100000000E-03 0. -1.
         11   -1    0    0    0    0 -0.00000000000E+00 -0.00000000000E+00 -0.45593999997E+02  0.45594000000E+02  0.51100000000E-03 0.  1.
         23    2    1    2    0    0 -0.17763568394E-14 -0.17763568394E-14  0.00000000000E+00  0.91188000000E+02  0.91188000000E+02 0.  0.
    9900012    2    3    3    0    0 -0.15956161751E+02  0.13838186898E+02  0.30160978019E+02  0.54367094124E+02  0.40000022675E+02 0.  0.
        -12    1    3    3    0    0  0.15956161751E+02 -0.13838186898E+02 -0.30160978019E+02  0.36820905876E+02  0.00000000000E+00 0.  1.
         11    1    4    4    0    0 -0.13159047022E+02 -0.33061268432E+01  0.19358384798E+02  0.23639755825E+02  0.51100000000E-03 0. -1.
        -11    1    4    4    0    0  0.16714235878E+01  0.80644796100E+01 -0.66282460964E+01  0.10571808491E+02  0.51100000000E-03 0.  1.
         12    1    4    4    0    0 -0.44685383164E+01  0.90798341308E+01  0.17430839318E+02  0.20155529808E+02  0.00000000000E+00 0. -1.
</event>
<event>
 8    1  0.1229941E-006  0.9118800E+02  0.7816164E-02  0.1184000E+00
        -11   -1    0    0    0    0  0.00000000000E+00  0.00000000000E+00  0.45593999997E+02  0.45594000000E+02  0.51100000000E-03 0.  1.
         11   -1    0    0    0    0 -0.00000000000E+00 -0.00000000000E+00 -0.45593999997E+02  0.45594000000E+02  0.51100000000E-03 0. -1.
         23    2    1    2    0    0  0.00000000000E+00  0.00000000000E+00  0.00000000000E+00  0.91188000000E+02  0.91188000000E+02 0.  0.
    9900012    2    3    3    0    0  0.20298391412E+02  0.17564123680E+02 -0.25204307414E+02  0.54367078681E+02  0.39999987469E+02 0.  0.
        -12    1    3    3    0    0 -0.20298391412E+02 -0.17564123680E+02  0.25204307414E+02  0.36820921319E+02  0.00000000000E+00 0.  1.
         11    1    4    4    0    0 -0.54594559688E+01  0.49153602302E+01 -0.11460208970E+02  0.13612597678E+02  0.51100000000E-03 0. -1.
        -11    1    4    4    0    0  0.10699510062E+02  0.14041877937E+02  0.33097750237E+01  0.17961304589E+02  0.51100000000E-03 0.  1.
         12    1    4    4    0    0  0.15058337319E+02 -0.13931144870E+01 -0.17053873468E+02  0.22793176414E+02  0.00000000000E+00 0. -1.
</event>
<event>
 8    1  0.1229941E-006  0.9118800E+02  0.7816164E-02  0.1184000E+00
        -11   -1    0    0    0    0  0.00000000000E+00  0.00000000000E+00  0.45593999997E+02  0.45594000000E+02  0.51100000000E-03 0.  1.
         11   -1    0    0    0    0 -0.00000000000E+00 -0.00000000000E+00 -0.45593999997E+02  0.45594000000E+02  0.51100000000E-03 0. -1.
         23    2    1    2    0    0  0.00000000000E+00  0.00000000000E+00  0.00000000000E+00  0.91188000000E+02  0.91188000000E+02 0.  0.
    9900012    2    3    3    0    0 -0.63344117837E+01  0.33674098107E+02  0.13480026377E+02  0.54367071615E+02  0.39999971362E+02 0.  0.
         12    1    3    3    0    0  0.63344117837E+01 -0.33674098107E+02 -0.13480026377E+02  0.36820928385E+02  0.00000000000E+00 0. -1.
         11    1    4    4    0    0 -0.11569773400E+02  0.13987268026E+02  0.10570314965E+02  0.21005591686E+02  0.51100000000E-03 0. -1.
        -11    1    4    4    0    0 -0.60607637634E+01 -0.34864791066E+01  0.29311081590E+01  0.75815426700E+01  0.51100000000E-03 0.  1.
         12    1    4    4    0    0  0.11296125379E+02  0.23173309188E+02 -0.21396746526E-01  0.25779937260E+02  0.00000000000E+00 0. -1.
</event>
<event>
 8    1  0.1229941E-006  0.9118800E+02  0.7816164E-02  0.1184000E+00
        -11   -1    0    0    0    0  0.00000000000E+00  0.00000000000E+00  0.45593999997E+02  0.45594000000E+02  0.51100000000E-03 0.  1.
         11   -1    0    0    0    0 -0.00000000000E+00 -0.00000000000E+00 -0.45593999997E+02  0.45594000000E+02  0.51100000000E-03 0. -1.
         23    2    1    2    0    0  0.00000000000E+00  0.00000000000E+00  0.00000000000E+00  0.91188000000E+02  0.91188000000E+02 0.  0.
    9900012    2    3    3    0    0  0.28022079239E+02  0.13174092647E+02  0.19924666678E+02  0.54367000771E+02  0.39999809858E+02 0.  0.
         12    1    3    3    0    0 -0.28022079239E+02 -0.13174092647E+02 -0.19924666678E+02  0.36820999229E+02  0.00000000000E+00 0. -1.
         11    1    4    4    0    0  0.28657756271E+02 -0.41938625985E+00  0.11337906927E+02  0.30821924227E+02  0.51100000000E-03 0.  1.
        -11    1    4    4    0    0 -0.48684094503E+01 -0.19133402372E+01  0.46429067857E+01  0.69942022505E+01  0.51100000000E-03 0. -1.
         12    1    4    4    0    0  0.42327324192E+01  0.15506819144E+02  0.39438529653E+01  0.16550874294E+02  0.00000000000E+00 0. -1.
</event>
<event>
 8    1  0.1229941E-006  0.9118800E+02  0.7816164E-02  0.1184000E+00
        -11   -1    0    0    0    0  0.00000000000E+00  0.00000000000E+00  0.45593999997E+02  0.45594000000E+02  0.51100000000E-03 0.  1.
         11   -1    0    0    0    0 -0.00000000000E+00 -0.00000000000E+00 -0.45593999997E+02  0.45594000000E+02  0.51100000000E-03 0. -1.
         23    2    1    2    0    0  0.00000000000E+00  0.00000000000E+00 -0.17763568394E-14  0.91188000000E+02  0.91188000000E+02 0.  0.
    9900012    2    3    3    0    0 -0.32114969444E+02 -0.10607990666E+02  0.14556060018E+02  0.54367087306E+02  0.40000007132E+02 0.  0.
         12    1    3    3    0    0  0.32114969444E+02  0.10607990666E+02 -0.14556060018E+02  0.36820912694E+02  0.00000000000E+00 0. -1.
         11    1    4    4    0    0 -0.76320507931E+01 -0.11914323207E+02 -0.58520239441E+01  0.15311612629E+02  0.51100000000E-03 0. -1.
        -11    1    4    4    0    0 -0.27765113954E+02  0.66665733143E+00  0.21924234517E+02  0.35383867006E+02  0.51100000000E-03 0.  1.
         12    1    4    4    0    0  0.32821953034E+01  0.63967520987E+00 -0.15161505553E+01  0.36716076711E+01  0.00000000000E+00 0. -1.
</event>
<event>
 8    1  0.1229941E-006  0.9118800E+02  0.7816164E-02  0.1184000E+00
        -11   -1    0    0    0    0  0.00000000000E+00  0.00000000000E+00  0.45593999997E+02  0.45594000000E+02  0.51100000000E-03 0.  1.
         11   -1    0    0    0    0 -0.00000000000E+00 -0.00000000000E+00 -0.45593999997E+02  0.45594000000E+02  0.51100000000E-03 0. -1.
         23    2    1    2    0    0  0.00000000000E+00  0.00000000000E+00 -0.17763568394E-14  0.91188000000E+02  0.91188000000E+02 0.  0.
    9900012    2    3    3    0    0  0.15319608674E+02 -0.30549999255E+02 -0.13703405310E+02  0.54367133885E+02  0.40000113317E+02 0.  0.
        -12    1    3    3    0    0 -0.15319608674E+02  0.30549999255E+02  0.13703405310E+02  0.36820866115E+02  0.00000000000E+00 0.  1.
         11    1    4    4    0    0  0.12389169418E+00 -0.16245721165E-01  0.98251729228E+00  0.99043100017E+00  0.51100000000E-03 0. -1.
        -11    1    4    4    0    0 -0.39635888094E+01 -0.15074975557E+02  0.99952888098E+01  0.18516768696E+02  0.51100000000E-03 0.  1.
         12    1    4    4    0    0  0.19159305789E+02 -0.15458777976E+02 -0.24681211412E+02  0.34859934188E+02  0.00000000000E+00 0. -1.
</event>
<event>
 8    1  0.1229941E-006  0.9118800E+02  0.7816164E-02  0.1184000E+00
        -11   -1    0    0    0    0  0.00000000000E+00  0.00000000000E+00  0.45593999997E+02  0.45594000000E+02  0.51100000000E-03 0.  1.
         11   -1    0    0    0    0 -0.00000000000E+00 -0.00000000000E+00 -0.45593999997E+02  0.45594000000E+02  0.51100000000E-03 0. -1.
         23    2    1    2    0    0  0.35527136788E-14 -0.88817841970E-15  0.00000000000E+00  0.91188000000E+02  0.91188000000E+02 0.  0.
    9900012    2    3    3    0    0  0.27695440908E+02  0.67955767172E+01  0.23293011681E+02  0.54367058904E+02  0.39999942385E+02 0.  0.
         12    1    3    3    0    0 -0.27695440908E+02 -0.67955767172E+01 -0.23293011681E+02  0.36820941096E+02  0.00000000000E+00 0. -1.
         11    1    4    4    0    0  0.45187693324E+01  0.35783812781E+01 -0.90766262647E+01  0.10752173430E+02  0.51100000000E-03 0. -1.
        -11    1    4    4    0    0  0.61705422885E+01 -0.32826979394E+01  0.62140134330E+00  0.70169678484E+01  0.51100000000E-03 0.  1.
         12    1    4    4    0    0  0.17006129287E+02  0.64998933785E+01  0.31748236602E+02  0.36597917626E+02  0.00000000000E+00 0. -1.
</event>
<event>
 8    1  0.1229941E-006  0.9118800E+02  0.7816164E-02  0.1184000E+00
        -11   -1    0    0    0    0  0.00000000000E+00  0.00000000000E+00  0.45593999997E+02  0.45594000000E+02  0.51100000000E-03 0. -1.
         11   -1    0    0    0    0 -0.00000000000E+00 -0.00000000000E+00 -0.45593999997E+02  0.45594000000E+02  0.51100000000E-03 0.  1.
         23    2    1    2    0    0  0.17763568394E-14  0.35527136788E-14  0.00000000000E+00  0.91188000000E+02  0.91188000000E+02 0.  0.
    9900012    2    3    3    0    0 -0.14599262170E+02 -0.21888089221E+02  0.25759527284E+02  0.54367079974E+02  0.39999990417E+02 0.  0.
        -12    1    3    3    0    0  0.14599262170E+02  0.21888089221E+02 -0.25759527284E+02  0.36820920026E+02  0.00000000000E+00 0.  1.
         11    1    4    4    0    0 -0.11387216477E+02 -0.22857216860E+02  0.30850347817E+02  0.40048283638E+02  0.51100000000E-03 0. -1.
        -11    1    4    4    0    0 -0.33017434362E+00  0.66159944720E+01 -0.82020050021E+00  0.66748128867E+01  0.51100000000E-03 0.  1.
         12    1    4    4    0    0 -0.28818713494E+01 -0.56468668329E+01 -0.42706200332E+01  0.76439834491E+01  0.00000000000E+00 0. -1.
</event>
<event>
 8    1  0.1229941E-006  0.9118800E+02  0.7816164E-02  0.1184000E+00
        -11   -1    0    0    0    0  0.00000000000E+00  0.00000000000E+00  0.45593999997E+02  0.45594000000E+02  0.51100000000E-03 0. -1.
         11   -1    0    0    0    0 -0.00000000000E+00 -0.00000000000E+00 -0.45593999997E+02  0.45594000000E+02  0.51100000000E-03 0.  1.
         23    2    1    2    0    0  0.00000000000E+00  0.00000000000E+00  0.00000000000E+00  0.91188000000E+02  0.91188000000E+02 0.  0.
    9900012    2    3    3    0    0  0.25024316079E+02 -0.24093222064E+02 -0.12209851890E+02  0.54367078939E+02  0.39999988056E+02 0.  0.
         12    1    3    3    0    0 -0.25024316079E+02  0.24093222064E+02  0.12209851890E+02  0.36820921061E+02  0.00000000000E+00 0. -1.
         11    1    4    4    0    0 -0.53055681799E+01 -0.53909565573E+01 -0.94560788864E+01  0.12109041848E+02  0.51100000000E-03 0. -1.
        -11    1    4    4    0    0  0.87066169500E+01  0.43306314321E+01  0.29351864201E+01  0.10157502985E+02  0.51100000000E-03 0.  1.
        -12    1    4    4    0    0  0.21623267309E+02 -0.23032896939E+02 -0.56889594236E+01  0.32100534105E+02  0.00000000000E+00 0.  1.
</event>
<event>
 8    1  0.1229941E-006  0.9118800E+02  0.7816164E-02  0.1184000E+00
        -11   -1    0    0    0    0  0.00000000000E+00  0.00000000000E+00  0.45593999997E+02  0.45594000000E+02  0.51100000000E-03 0. -1.
         11   -1    0    0    0    0 -0.00000000000E+00 -0.00000000000E+00 -0.45593999997E+02  0.45594000000E+02  0.51100000000E-03 0.  1.
         23    2    1    2    0    0  0.00000000000E+00  0.00000000000E+00  0.00000000000E+00  0.91188000000E+02  0.91188000000E+02 0.  0.
    9900012    2    3    3    0    0 -0.21904841751E+02 -0.19013342152E+02  0.22681651222E+02  0.54366992761E+02  0.39999791597E+02 0.  0.
        -12    1    3    3    0    0  0.21904841751E+02  0.19013342152E+02 -0.22681651222E+02  0.36821007239E+02  0.00000000000E+00 0.  1.
         11    1    4    4    0    0 -0.59891261725E+01 -0.40594005996E+01  0.59006291313E+01  0.93362620970E+01  0.51100000000E-03 0. -1.
        -11    1    4    4    0    0 -0.95119296513E+01  0.33174267792E+01 -0.85048000004E+01  0.13183844259E+02  0.51100000000E-03 0.  1.
        -12    1    4    4    0    0 -0.64037859270E+01 -0.18271368331E+02  0.25285822091E+02  0.31846886406E+02  0.00000000000E+00 0.  1.
</event>
<event>
 8    1  0.1229941E-006  0.9118800E+02  0.7816164E-02  0.1184000E+00
        -11   -1    0    0    0    0  0.00000000000E+00  0.00000000000E+00  0.45593999997E+02  0.45594000000E+02  0.51100000000E-03 0.  1.
         11   -1    0    0    0    0 -0.00000000000E+00 -0.00000000000E+00 -0.45593999997E+02  0.45594000000E+02  0.51100000000E-03 0. -1.
         23    2    1    2    0    0 -0.22204460493E-15  0.22204460493E-15  0.00000000000E+00  0.91188000000E+02  0.91188000000E+02 0.  0.
    9900012    2    3    3    0    0  0.66139123516E+00 -0.18776467737E+01  0.36767063952E+02  0.54367082203E+02  0.39999995497E+02 0.  0.
         12    1    3    3    0    0 -0.66139123516E+00  0.18776467737E+01 -0.36767063952E+02  0.36820917797E+02  0.00000000000E+00 0. -1.
         11    1    4    4    0    0 -0.47480635466E+01 -0.18411896845E+02  0.22322672122E+02  0.29323092330E+02  0.51100000000E-03 0. -1.
        -11    1    4    4    0    0  0.77996566460E+01  0.12003652580E+02  0.13795531717E+02  0.19880619072E+02  0.51100000000E-03 0.  1.
        -12    1    4    4    0    0 -0.23902018643E+01  0.45305974913E+01  0.64886011400E+00  0.51633708009E+01  0.00000000000E+00 0.  1.
</event>
<event>
 8    1  0.1229941E-006  0.9118800E+02  0.7816164E-02  0.1184000E+00
        -11   -1    0    0    0    0  0.00000000000E+00  0.00000000000E+00  0.45593999997E+02  0.45594000000E+02  0.51100000000E-03 0.  1.
         11   -1    0    0    0    0 -0.00000000000E+00 -0.00000000000E+00 -0.45593999997E+02  0.45594000000E+02  0.51100000000E-03 0. -1.
         23    2    1    2    0    0  0.00000000000E+00  0.35527136788E-14  0.00000000000E+00  0.91188000000E+02  0.91188000000E+02 0.  0.
    9900012    2    3    3    0    0  0.16824205075E+02 -0.31516141499E+02 -0.89132498634E+01  0.54367257550E+02  0.40000395235E+02 0.  0.
         12    1    3    3    0    0 -0.16824205075E+02  0.31516141499E+02  0.89132498634E+01  0.36820742450E+02  0.00000000000E+00 0. -1.
         11    1    4    4    0    0 -0.11713277257E+01 -0.60835931651E+00 -0.53533211863E+01  0.55136338003E+01  0.51100000000E-03 0. -1.
        -11    1    4    4    0    0  0.23261307376E+02 -0.11272366020E+02 -0.97134054485E+01  0.27613491308E+02  0.51100000000E-03 0.  1.
        -12    1    4    4    0    0 -0.52657745753E+01 -0.19635416163E+02  0.61534767714E+01  0.21240132442E+02  0.00000000000E+00 0.  1.
</event>
<event>
 8    1  0.1229941E-006  0.9118800E+02  0.7816164E-02  0.1184000E+00
        -11   -1    0    0    0    0  0.00000000000E+00  0.00000000000E+00  0.45593999997E+02  0.45594000000E+02  0.51100000000E-03 0.  1.
         11   -1    0    0    0    0 -0.00000000000E+00 -0.00000000000E+00 -0.45593999997E+02  0.45594000000E+02  0.51100000000E-03 0. -1.
         23    2    1    2    0    0  0.00000000000E+00  0.44408920985E-15  0.00000000000E+00  0.91188000000E+02  0.91188000000E+02 0.  0.
    9900012    2    3    3    0    0 -0.77060132384E+01  0.25439436902E+01  0.35915538863E+02  0.54367079026E+02  0.39999988257E+02 0.  0.
         12    1    3    3    0    0  0.77060132384E+01 -0.25439436902E+01 -0.35915538863E+02  0.36820920974E+02  0.00000000000E+00 0. -1.
         11    1    4    4    0    0 -0.65732944786E+01 -0.54417642863E+01  0.83629060120E+01  0.11948187983E+02  0.51100000000E-03 0. -1.
        -11    1    4    4    0    0 -0.11191751476E+02  0.14589077143E+02  0.23245016381E+02  0.29638273563E+02  0.51100000000E-03 0.  1.
        -12    1    4    4    0    0  0.10059032716E+02 -0.66033691669E+01  0.43076164703E+01  0.12780617481E+02  0.00000000000E+00 0.  1.
</event>
<event>
 8    1  0.1229941E-006  0.9118800E+02  0.7816164E-02  0.1184000E+00
        -11   -1    0    0    0    0  0.00000000000E+00  0.00000000000E+00  0.45593999997E+02  0.45594000000E+02  0.51100000000E-03 0.  1.
         11   -1    0    0    0    0 -0.00000000000E+00 -0.00000000000E+00 -0.45593999997E+02  0.45594000000E+02  0.51100000000E-03 0. -1.
         23    2    1    2    0    0  0.11102230246E-14  0.00000000000E+00 -0.71054273576E-14  0.91188000000E+02  0.91188000000E+02 0.  0.
    9900012    2    3    3    0    0  0.16830444997E+01 -0.12897231675E+02 -0.34447190702E+02  0.54367079711E+02  0.39999989817E+02 0.  0.
        -12    1    3    3    0    0 -0.16830444997E+01  0.12897231675E+02  0.34447190702E+02  0.36820920289E+02  0.00000000000E+00 0.  1.
         11    1    4    4    0    0  0.14881077462E+01  0.71441408222E+01 -0.58866305965E+01  0.93758003814E+01  0.51100000000E-03 0. -1.
        -11    1    4    4    0    0 -0.99965196320E+01 -0.21949005296E+02 -0.22486201138E+02  0.32974512584E+02  0.51100000000E-03 0.  1.
         12    1    4    4    0    0  0.10191456385E+02  0.19076327989E+01 -0.60743589673E+01  0.12016766746E+02  0.00000000000E+00 0. -1.
</event>
<event>
 8    1  0.1229941E-006  0.9118800E+02  0.7816164E-02  0.1184000E+00
        -11   -1    0    0    0    0  0.00000000000E+00  0.00000000000E+00  0.45593999997E+02  0.45594000000E+02  0.51100000000E-03 0.  1.
         11   -1    0    0    0    0 -0.00000000000E+00 -0.00000000000E+00 -0.45593999997E+02  0.45594000000E+02  0.51100000000E-03 0. -1.
         23    2    1    2    0    0  0.11102230246E-15  0.44408920985E-15 -0.71054273576E-14  0.91188000000E+02  0.91188000000E+02 0.  0.
    9900012    2    3    3    0    0  0.46444200023E+00 -0.22166504447E+01  0.36751302430E+02  0.54366980516E+02  0.39999763682E+02 0.  0.
         12    1    3    3    0    0 -0.46444200023E+00  0.22166504447E+01 -0.36751302430E+02  0.36821019484E+02  0.00000000000E+00 0. -1.
         11    1    4    4    0    0 -0.18259418404E+01 -0.51802181278E+01 -0.77945141282E+01  0.95353643985E+01  0.51100000000E-03 0. -1.
        -11    1    4    4    0    0  0.51919345116E-01  0.11261242175E+01  0.28776911154E+02  0.28798983788E+02  0.51100000000E-03 0.  1.
         12    1    4    4    0    0  0.22384644955E+01  0.18374434656E+01  0.15768905404E+02  0.16032632330E+02  0.00000000000E+00 0. -1.
</event>
<event>
 8    1  0.1229941E-006  0.9118800E+02  0.7816164E-02  0.1184000E+00
        -11   -1    0    0    0    0  0.00000000000E+00  0.00000000000E+00  0.45593999997E+02  0.45594000000E+02  0.51100000000E-03 0.  1.
         11   -1    0    0    0    0 -0.00000000000E+00 -0.00000000000E+00 -0.45593999997E+02  0.45594000000E+02  0.51100000000E-03 0. -1.
         23    2    1    2    0    0  0.00000000000E+00 -0.17763568394E-14 -0.71054273576E-14  0.91188000000E+02  0.91188000000E+02 0.  0.
    9900012    2    3    3    0    0 -0.53034005801E+01 -0.14994669164E+02 -0.33208649475E+02  0.54367074414E+02  0.39999977741E+02 0.  0.
        -12    1    3    3    0    0  0.53034005801E+01  0.14994669164E+02  0.33208649475E+02  0.36820925586E+02  0.00000000000E+00 0.  1.
         11    1    4    4    0    0 -0.16745522887E+00  0.79882918751E+01 -0.19295518549E+02  0.20884393328E+02  0.51100000000E-03 0. -1.
        -11    1    4    4    0    0  0.43104791392E+01 -0.20038491384E+02 -0.83597125924E+01  0.22136082812E+02  0.51100000000E-03 0.  1.
        -12    1    4    4    0    0 -0.94464244905E+01 -0.29444696545E+01 -0.55534183340E+01  0.11346598274E+02  0.00000000000E+00 0.  1.
</event>
<event>
 8    1  0.1229941E-006  0.9118800E+02  0.7816164E-02  0.1184000E+00
        -11   -1    0    0    0    0  0.00000000000E+00  0.00000000000E+00  0.45593999997E+02  0.45594000000E+02  0.51100000000E-03 0. -1.
         11   -1    0    0    0    0 -0.00000000000E+00 -0.00000000000E+00 -0.45593999997E+02  0.45594000000E+02  0.51100000000E-03 0.  1.
         23    2    1    2    0    0  0.00000000000E+00  0.00000000000E+00 -0.28865798640E-14  0.91188000000E+02  0.91188000000E+02 0.  0.
    9900012    2    3    3    0    0 -0.32702845104E+02  0.16890101932E+02  0.10125504965E+01  0.54367124403E+02  0.40000091702E+02 0.  0.
         12    1    3    3    0    0  0.32702845104E+02 -0.16890101932E+02 -0.10125504965E+01  0.36820875597E+02  0.00000000000E+00 0. -1.
         11    1    4    4    0    0 -0.10616332529E+01  0.17545542037E+02  0.90851321507E+01  0.19786680798E+02  0.51100000000E-03 0. -1.
        -11    1    4    4    0    0 -0.15319267455E+02  0.35563179687E+01  0.36322483447E+00  0.15730838675E+02  0.51100000000E-03 0.  1.
         12    1    4    4    0    0 -0.16321944396E+02 -0.42117580736E+01 -0.84358064888E+01  0.18849604931E+02  0.00000000000E+00 0. -1.
</event>
<event>
 8    1  0.1229941E-006  0.9118800E+02  0.7816164E-02  0.1184000E+00
        -11   -1    0    0    0    0  0.00000000000E+00  0.00000000000E+00  0.45593999997E+02  0.45594000000E+02  0.51100000000E-03 0.  1.
         11   -1    0    0    0    0 -0.00000000000E+00 -0.00000000000E+00 -0.45593999997E+02  0.45594000000E+02  0.51100000000E-03 0. -1.
         23    2    1    2    0    0 -0.35527136788E-14  0.35527136788E-14  0.88817841970E-15  0.91188000000E+02  0.91188000000E+02 0.  0.
    9900012    2    3    3    0    0  0.26290531854E+02  0.24656487565E+02  0.75263055009E+01  0.54367085852E+02  0.40000003817E+02 0.  0.
        -12    1    3    3    0    0 -0.26290531854E+02 -0.24656487565E+02 -0.75263055009E+01  0.36820914148E+02  0.00000000000E+00 0.  1.
         11    1    4    4    0    0  0.17026572952E+01 -0.30708259385E+00  0.30887709587E+01  0.35403174830E+01  0.51100000000E-03 0. -1.
        -11    1    4    4    0    0  0.27807891823E+02  0.32300778314E+01  0.65617365508E+01  0.28753584773E+02  0.51100000000E-03 0.  1.
         12    1    4    4    0    0 -0.32200172647E+01  0.21733492327E+02 -0.21242020086E+01  0.22073183597E+02  0.00000000000E+00 0. -1.
</event>
<event>
 8    1  0.1229941E-006  0.9118800E+02  0.7816164E-02  0.1184000E+00
        -11   -1    0    0    0    0  0.00000000000E+00  0.00000000000E+00  0.45593999997E+02  0.45594000000E+02  0.51100000000E-03 0.  1.
         11   -1    0    0    0    0 -0.00000000000E+00 -0.00000000000E+00 -0.45593999997E+02  0.45594000000E+02  0.51100000000E-03 0. -1.
         23    2    1    2    0    0 -0.17763568394E-14  0.00000000000E+00  0.00000000000E+00  0.91188000000E+02  0.91188000000E+02 0.  0.
    9900012    2    3    3    0    0 -0.13764128323E+02  0.33492311332E+02  0.66778712163E+01  0.54367080527E+02  0.39999991678E+02 0.  0.
         12    1    3    3    0    0  0.13764128323E+02 -0.33492311332E+02 -0.66778712163E+01  0.36820919473E+02  0.00000000000E+00 0. -1.
         11    1    4    4    0    0  0.20752335538E+01  0.69027942709E+00 -0.11422178370E+02  0.11629670630E+02  0.51100000000E-03 0. -1.
        -11    1    4    4    0    0  0.94149552037E+00  0.85657426398E+01  0.74582412487E+01  0.11396654052E+02  0.51100000000E-03 0.  1.
         12    1    4    4    0    0 -0.16780857397E+02  0.24236289265E+02  0.10641808337E+02  0.31340755846E+02  0.00000000000E+00 0. -1.
</event>
<event>
 8    1  0.1229941E-006  0.9118800E+02  0.7816164E-02  0.1184000E+00
        -11   -1    0    0    0    0  0.00000000000E+00  0.00000000000E+00  0.45593999997E+02  0.45594000000E+02  0.51100000000E-03 0. -1.
         11   -1    0    0    0    0 -0.00000000000E+00 -0.00000000000E+00 -0.45593999997E+02  0.45594000000E+02  0.51100000000E-03 0.  1.
         23    2    1    2    0    0 -0.35527136788E-14  0.00000000000E+00 -0.35527136788E-14  0.91188000000E+02  0.91188000000E+02 0.  0.
    9900012    2    3    3    0    0 -0.22617845773E+02  0.18878657400E+02  0.22086376712E+02  0.54367099835E+02  0.40000035695E+02 0.  0.
        -12    1    3    3    0    0  0.22617845773E+02 -0.18878657400E+02 -0.22086376712E+02  0.36820900165E+02  0.00000000000E+00 0.  1.
         11    1    4    4    0    0 -0.13153275909E+02 -0.14825245645E+01  0.26544844971E+02  0.29662018492E+02  0.51100000000E-03 0.  1.
        -11    1    4    4    0    0 -0.80421241201E+00  0.49183626825E+01 -0.49069851685E+01  0.69939654550E+01  0.51100000000E-03 0. -1.
        -12    1    4    4    0    0 -0.86603574519E+01  0.15442819282E+02  0.44851690920E+00  0.17711115888E+02  0.00000000000E+00 0.  1.
</event>
<event>
 8    1  0.1229941E-006  0.9118800E+02  0.7816164E-02  0.1184000E+00
        -11   -1    0    0    0    0  0.00000000000E+00  0.00000000000E+00  0.45593999997E+02  0.45594000000E+02  0.51100000000E-03 0.  1.
         11   -1    0    0    0    0 -0.00000000000E+00 -0.00000000000E+00 -0.45593999997E+02  0.45594000000E+02  0.51100000000E-03 0. -1.
         23    2    1    2    0    0  0.35527136788E-14  0.00000000000E+00  0.00000000000E+00  0.91188000000E+02  0.91188000000E+02 0.  0.
    9900012    2    3    3    0    0  0.10504348815E+02 -0.22672437862E+02 -0.27044388248E+02  0.54367085857E+02  0.40000003828E+02 0.  0.
        -12    1    3    3    0    0 -0.10504348815E+02  0.22672437862E+02  0.27044388248E+02  0.36820914143E+02  0.00000000000E+00 0.  1.
         11    1    4    4    0    0  0.13021890283E+01 -0.65047715104E+01 -0.22293548028E+02  0.23259622366E+02  0.51100000000E-03 0. -1.
        -11    1    4    4    0    0  0.36330698271E+01 -0.21250516843E+02  0.10650543482E+01  0.21585133854E+02  0.51100000000E-03 0.  1.
         12    1    4    4    0    0  0.55690899601E+01  0.50828504916E+01 -0.58158945684E+01  0.95223296380E+01  0.00000000000E+00 0. -1.
</event>
<event>
 8    1  0.1229941E-006  0.9118800E+02  0.7816164E-02  0.1184000E+00
        -11   -1    0    0    0    0  0.00000000000E+00  0.00000000000E+00  0.45593999997E+02  0.45594000000E+02  0.51100000000E-03 0.  1.
         11   -1    0    0    0    0 -0.00000000000E+00 -0.00000000000E+00 -0.45593999997E+02  0.45594000000E+02  0.51100000000E-03 0. -1.
         23    2    1    2    0    0  0.17763568394E-14  0.00000000000E+00  0.35527136788E-14  0.91188000000E+02  0.91188000000E+02 0.  0.
    9900012    2    3    3    0    0 -0.13740958121E+02  0.12997742222E+02 -0.31591518471E+02  0.54367091914E+02  0.40000017637E+02 0.  0.
        -12    1    3    3    0    0  0.13740958121E+02 -0.12997742222E+02  0.31591518471E+02  0.36820908086E+02  0.00000000000E+00 0.  1.
         11    1    4    4    0    0  0.46679218660E+01  0.38156645510E+01 -0.29032713285E+02  0.29652103323E+02  0.51100000000E-03 0. -1.
        -11    1    4    4    0    0 -0.87152882430E+01  0.29408653298E+00  0.44741765289E+01  0.98010709578E+01  0.51100000000E-03 0.  1.
         12    1    4    4    0    0 -0.96935917441E+01  0.88879911384E+01 -0.70329817145E+01  0.14913917633E+02  0.00000000000E+00 0. -1.
</event>
<event>
 8    1  0.1229941E-006  0.9118800E+02  0.7816164E-02  0.1184000E+00
        -11   -1    0    0    0    0  0.00000000000E+00  0.00000000000E+00  0.45593999997E+02  0.45594000000E+02  0.51100000000E-03 0.  1.
         11   -1    0    0    0    0 -0.00000000000E+00 -0.00000000000E+00 -0.45593999997E+02  0.45594000000E+02  0.51100000000E-03 0. -1.
         23    2    1    2    0    0  0.88817841970E-15  0.00000000000E+00  0.35527136788E-14  0.91188000000E+02  0.91188000000E+02 0.  0.
    9900012    2    3    3    0    0 -0.40622345253E+01 -0.33028797065E+02 -0.15759905461E+02  0.54367111838E+02  0.40000063056E+02 0.  0.
        -12    1    3    3    0    0  0.40622345253E+01  0.33028797065E+02  0.15759905461E+02  0.36820888162E+02  0.00000000000E+00 0.  1.
         11    1    4    4    0    0  0.70843394734E+01 -0.26057646474E+02 -0.20112287994E+02  0.33670356905E+02  0.51100000000E-03 0. -1.
        -11    1    4    4    0    0 -0.10743470607E+01 -0.93449785269E+01 -0.15914947743E+00  0.94078782992E+01  0.51100000000E-03 0.  1.
         12    1    4    4    0    0 -0.10072226938E+02  0.23738279349E+01  0.45115320106E+01  0.11288876633E+02  0.00000000000E+00 0. -1.
</event>
<event>
 8    1  0.1229941E-006  0.9118800E+02  0.7816164E-02  0.1184000E+00
        -11   -1    0    0    0    0  0.00000000000E+00  0.00000000000E+00  0.45593999997E+02  0.45594000000E+02  0.51100000000E-03 0. -1.
         11   -1    0    0    0    0 -0.00000000000E+00 -0.00000000000E+00 -0.45593999997E+02  0.45594000000E+02  0.51100000000E-03 0.  1.
         23    2    1    2    0    0  0.00000000000E+00  0.00000000000E+00  0.35527136788E-14  0.91188000000E+02  0.91188000000E+02 0.  0.
    9900012    2    3    3    0    0  0.13211454111E+02 -0.20917080491E+02  0.27271101589E+02  0.54367085320E+02  0.40000002604E+02 0.  0.
        -12    1    3    3    0    0 -0.13211454111E+02  0.20917080491E+02 -0.27271101589E+02  0.36820914680E+02  0.00000000000E+00 0.  1.
         11    1    4    4    0    0 -0.35594170909E+01 -0.29361897146E+01  0.55162429956E+01  0.71916338279E+01  0.51100000000E-03 0. -1.
        -11    1    4    4    0    0  0.35093833011E+01  0.67805590453E+01 -0.43854193603E+01  0.88047518618E+01  0.51100000000E-03 0.  1.
         12    1    4    4    0    0  0.13261487900E+02 -0.24761449822E+02  0.26140277954E+02  0.38370699630E+02  0.00000000000E+00 0. -1.
</event>
<event>
 8    1  0.1229941E-006  0.9118800E+02  0.7816164E-02  0.1184000E+00
        -11   -1    0    0    0    0  0.00000000000E+00  0.00000000000E+00  0.45593999997E+02  0.45594000000E+02  0.51100000000E-03 0. -1.
         11   -1    0    0    0    0 -0.00000000000E+00 -0.00000000000E+00 -0.45593999997E+02  0.45594000000E+02  0.51100000000E-03 0.  1.
         23    2    1    2    0    0  0.00000000000E+00  0.00000000000E+00  0.00000000000E+00  0.91188000000E+02  0.91188000000E+02 0.  0.
    9900012    2    3    3    0    0  0.17962130041E+02 -0.91775927059E+01  0.30804443845E+02  0.54367080890E+02  0.39999992505E+02 0.  0.
        -12    1    3    3    0    0 -0.17962130041E+02  0.91775927059E+01 -0.30804443845E+02  0.36820919110E+02  0.00000000000E+00 0.  1.
         11    1    4    4    0    0 -0.74553611159E+01  0.27214219868E+01  0.11578762209E+02  0.14037673651E+02  0.51100000000E-03 0. -1.
        -11    1    4    4    0    0  0.17394922200E+02  0.32329375913E+01  0.13553429473E+02  0.22287455094E+02  0.51100000000E-03 0.  1.
        -12    1    4    4    0    0  0.80225689572E+01 -0.15131952284E+02  0.56722521636E+01  0.18041952145E+02  0.00000000000E+00 0.  1.
</event>
<event>
 8    1  0.1229941E-006  0.9118800E+02  0.7816164E-02  0.1184000E+00
        -11   -1    0    0    0    0  0.00000000000E+00  0.00000000000E+00  0.45593999997E+02  0.45594000000E+02  0.51100000000E-03 0. -1.
         11   -1    0    0    0    0 -0.00000000000E+00 -0.00000000000E+00 -0.45593999997E+02  0.45594000000E+02  0.51100000000E-03 0.  1.
         23    2    1    2    0    0  0.00000000000E+00 -0.35527136788E-14  0.00000000000E+00  0.91188000000E+02  0.91188000000E+02 0.  0.
    9900012    2    3    3    0    0 -0.25537184289E+02  0.26334176570E+02 -0.31847096272E+01  0.54367095442E+02  0.40000025679E+02 0.  0.
         12    1    3    3    0    0  0.25537184289E+02 -0.26334176570E+02  0.31847096272E+01  0.36820904558E+02  0.00000000000E+00 0. -1.
         11    1    4    4    0    0  0.95791784115E+01  0.21609553959E+01 -0.40348522425E+01  0.10616516384E+02  0.51100000000E-03 0. -1.
        -11    1    4    4    0    0 -0.10479365364E+02  0.12101618227E+02  0.27775181823E+01  0.16247488103E+02  0.51100000000E-03 0.  1.
        -12    1    4    4    0    0 -0.24636997337E+02  0.12071602948E+02 -0.19273755670E+01  0.27503090955E+02  0.00000000000E+00 0.  1.
</event>
<event>
 8    1  0.1229941E-006  0.9118800E+02  0.7816164E-02  0.1184000E+00
        -11   -1    0    0    0    0  0.00000000000E+00  0.00000000000E+00  0.45593999997E+02  0.45594000000E+02  0.51100000000E-03 0.  1.
         11   -1    0    0    0    0 -0.00000000000E+00 -0.00000000000E+00 -0.45593999997E+02  0.45594000000E+02  0.51100000000E-03 0. -1.
         23    2    1    2    0    0  0.00000000000E+00 -0.35527136788E-14  0.00000000000E+00  0.91188000000E+02  0.91188000000E+02 0.  0.
    9900012    2    3    3    0    0  0.10220047620E+02  0.30470115287E+02 -0.17969487337E+02  0.54367085099E+02  0.40000002101E+02 0.  0.
        -12    1    3    3    0    0 -0.10220047620E+02 -0.30470115287E+02  0.17969487337E+02  0.36820914901E+02  0.00000000000E+00 0.  1.
         11    1    4    4    0    0 -0.73130426525E+01  0.10449271042E+02 -0.12267942459E+02  0.17696617490E+02  0.51100000000E-03 0. -1.
        -11    1    4    4    0    0  0.84463202758E+01  0.91128832652E+00 -0.11900060147E+02  0.14621292842E+02  0.51100000000E-03 0.  1.
        -12    1    4    4    0    0  0.90867699971E+01  0.19109555918E+02  0.61985152687E+01  0.22049174767E+02  0.00000000000E+00 0.  1.
</event>
<event>
 8    1  0.1229941E-006  0.9118800E+02  0.7816164E-02  0.1184000E+00
        -11   -1    0    0    0    0  0.00000000000E+00  0.00000000000E+00  0.45593999997E+02  0.45594000000E+02  0.51100000000E-03 0. -1.
         11   -1    0    0    0    0 -0.00000000000E+00 -0.00000000000E+00 -0.45593999997E+02  0.45594000000E+02  0.51100000000E-03 0.  1.
         23    2    1    2    0    0 -0.53290705182E-14 -0.88817841970E-15 -0.14210854715E-13  0.91188000000E+02  0.91188000000E+02 0.  0.
    9900012    2    3    3    0    0 -0.13945036806E+02 -0.73477918666E+01 -0.33276560259E+02  0.54367033697E+02  0.39999884918E+02 0.  0.
         12    1    3    3    0    0  0.13945036806E+02  0.73477918666E+01  0.33276560259E+02  0.36820966303E+02  0.00000000000E+00 0. -1.
         11    1    4    4    0    0 -0.21657555203E+00  0.15214353488E+00  0.31953163756E+01  0.32062594446E+01  0.51100000000E-03 0. -1.
        -11    1    4    4    0    0 -0.17091798939E+02  0.75425787263E+01 -0.27742941651E+02  0.33446836869E+02  0.51100000000E-03 0.  1.
         12    1    4    4    0    0  0.33633376853E+01 -0.15042514128E+02 -0.87289349841E+01  0.17713937383E+02  0.00000000000E+00 0. -1.
</event>
<event>
 8    1  0.1229941E-006  0.9118800E+02  0.7816164E-02  0.1184000E+00
        -11   -1    0    0    0    0  0.00000000000E+00  0.00000000000E+00  0.45593999997E+02  0.45594000000E+02  0.51100000000E-03 0.  1.
         11   -1    0    0    0    0 -0.00000000000E+00 -0.00000000000E+00 -0.45593999997E+02  0.45594000000E+02  0.51100000000E-03 0. -1.
         23    2    1    2    0    0  0.00000000000E+00  0.00000000000E+00 -0.71054273576E-14  0.91188000000E+02  0.91188000000E+02 0.  0.
    9900012    2    3    3    0    0  0.91906572042E+01  0.40024820060E+01 -0.35429980093E+02  0.54367197028E+02  0.40000257265E+02 0.  0.
        -12    1    3    3    0    0 -0.91906572042E+01 -0.40024820060E+01  0.35429980093E+02  0.36820802972E+02  0.00000000000E+00 0.  1.
         11    1    4    4    0    0  0.40365390376E+01 -0.41608914195E+01 -0.67198621324E+01  0.88748640636E+01  0.51100000000E-03 0. -1.
        -11    1    4    4    0    0 -0.41271063876E+01  0.22579452947E+01 -0.33257667367E+02  0.33588744589E+02  0.51100000000E-03 0.  1.
        -12    1    4    4    0    0  0.92812245542E+01  0.59054281308E+01  0.45475494059E+01  0.11903588376E+02  0.00000000000E+00 0.  1.
</event>
<event>
 8    1  0.1229941E-006  0.9118800E+02  0.7816164E-02  0.1184000E+00
        -11   -1    0    0    0    0  0.00000000000E+00  0.00000000000E+00  0.45593999997E+02  0.45594000000E+02  0.51100000000E-03 0.  1.
         11   -1    0    0    0    0 -0.00000000000E+00 -0.00000000000E+00 -0.45593999997E+02  0.45594000000E+02  0.51100000000E-03 0. -1.
         23    2    1    2    0    0  0.17763568394E-14  0.55511151231E-15  0.00000000000E+00  0.91188000000E+02  0.91188000000E+02 0.  0.
    9900012    2    3    3    0    0 -0.13159564807E+02  0.46908256739E+00 -0.34385839515E+02  0.54367080083E+02  0.39999990665E+02 0.  0.
        -12    1    3    3    0    0  0.13159564807E+02 -0.46908256739E+00  0.34385839515E+02  0.36820919917E+02  0.00000000000E+00 0.  1.
         11    1    4    4    0    0 -0.16153288559E+02 -0.27645835073E+01 -0.32843552491E+02  0.36705184834E+02  0.51100000000E-03 0. -1.
        -11    1    4    4    0    0 -0.70990293518E+01  0.44595937305E+00 -0.92681026426E+00  0.71731495891E+01  0.51100000000E-03 0.  1.
         12    1    4    4    0    0  0.10092753104E+02  0.27877067016E+01 -0.61547676045E+00  0.10488745660E+02  0.00000000000E+00 0. -1.
</event>
<event>
 8    1  0.1229941E-006  0.9118800E+02  0.7816164E-02  0.1184000E+00
        -11   -1    0    0    0    0  0.00000000000E+00  0.00000000000E+00  0.45593999997E+02  0.45594000000E+02  0.51100000000E-03 0.  1.
         11   -1    0    0    0    0 -0.00000000000E+00 -0.00000000000E+00 -0.45593999997E+02  0.45594000000E+02  0.51100000000E-03 0. -1.
         23    2    1    2    0    0  0.00000000000E+00 -0.71054273576E-14  0.00000000000E+00  0.91188000000E+02  0.91188000000E+02 0.  0.
    9900012    2    3    3    0    0 -0.22909573901E+02 -0.28684814418E+02 -0.28479027110E+01  0.54367113205E+02  0.40000066173E+02 0.  0.
        -12    1    3    3    0    0  0.22909573901E+02  0.28684814418E+02  0.28479027110E+01  0.36820886795E+02  0.00000000000E+00 0.  1.
         11    1    4    4    0    0 -0.66254659430E+01 -0.21265332758E+01 -0.22874357426E+01  0.73247051321E+01  0.51100000000E-03 0. -1.
        -11    1    4    4    0    0  0.59730525439E+01  0.99770615548E+00  0.85408556739E+01  0.10469908795E+02  0.51100000000E-03 0.  1.
         12    1    4    4    0    0 -0.22257160502E+02 -0.27555987298E+02 -0.91013226423E+01  0.36572499278E+02  0.00000000000E+00 0. -1.
</event>
<event>
 8    1  0.1229941E-006  0.9118800E+02  0.7816164E-02  0.1184000E+00
        -11   -1    0    0    0    0  0.00000000000E+00  0.00000000000E+00  0.45593999997E+02  0.45594000000E+02  0.51100000000E-03 0. -1.
         11   -1    0    0    0    0 -0.00000000000E+00 -0.00000000000E+00 -0.45593999997E+02  0.45594000000E+02  0.51100000000E-03 0.  1.
         23    2    1    2    0    0  0.00000000000E+00 -0.17763568394E-14  0.00000000000E+00  0.91188000000E+02  0.91188000000E+02 0.  0.
    9900012    2    3    3    0    0  0.78336870782E+01 -0.46522249256E+01 -0.35675884709E+02  0.54367101046E+02  0.40000038456E+02 0.  0.
         12    1    3    3    0    0 -0.78336870782E+01  0.46522249256E+01  0.35675884709E+02  0.36820898954E+02  0.00000000000E+00 0. -1.
         11    1    4    4    0    0  0.52438365929E+01 -0.12274230052E+02 -0.26632619689E+01  0.13610566122E+02  0.51100000000E-03 0. -1.
        -11    1    4    4    0    0 -0.27484801465E+01 -0.70269562817E+01 -0.15941491592E+02  0.17636989883E+02  0.51100000000E-03 0.  1.
         12    1    4    4    0    0  0.53383306317E+01  0.14648961408E+02 -0.17071131148E+02  0.23119545042E+02  0.00000000000E+00 0. -1.
</event>
<event>
 8    1  0.1229941E-006  0.9118800E+02  0.7816164E-02  0.1184000E+00
        -11   -1    0    0    0    0  0.00000000000E+00  0.00000000000E+00  0.45593999997E+02  0.45594000000E+02  0.51100000000E-03 0.  1.
         11   -1    0    0    0    0 -0.00000000000E+00 -0.00000000000E+00 -0.45593999997E+02  0.45594000000E+02  0.51100000000E-03 0. -1.
         23    2    1    2    0    0  0.00000000000E+00  0.00000000000E+00  0.35527136788E-14  0.91188000000E+02  0.91188000000E+02 0.  0.
    9900012    2    3    3    0    0  0.94092312084E+01 -0.28345959712E+02 -0.21534942375E+02  0.54367071073E+02  0.39999970126E+02 0.  0.
        -12    1    3    3    0    0 -0.94092312084E+01  0.28345959712E+02  0.21534942375E+02  0.36820928927E+02  0.00000000000E+00 0.  1.
         11    1    4    4    0    0 -0.61086109943E+01 -0.74873445489E+01 -0.27865412052E+01  0.10056851835E+02  0.51100000000E-03 0. -1.
        -11    1    4    4    0    0  0.10394572125E+02  0.58254986055E+01 -0.12256544081E+01  0.11978555533E+02  0.51100000000E-03 0.  1.
         12    1    4    4    0    0  0.51232700780E+01 -0.26684113769E+02 -0.17522746762E+02  0.32331663706E+02  0.00000000000E+00 0. -1.
</event>
<event>
 8    1  0.1229941E-006  0.9118800E+02  0.7816164E-02  0.1184000E+00
        -11   -1    0    0    0    0  0.00000000000E+00  0.00000000000E+00  0.45593999997E+02  0.45594000000E+02  0.51100000000E-03 0. -1.
         11   -1    0    0    0    0 -0.00000000000E+00 -0.00000000000E+00 -0.45593999997E+02  0.45594000000E+02  0.51100000000E-03 0.  1.
         23    2    1    2    0    0  0.00000000000E+00  0.00000000000E+00  0.00000000000E+00  0.91188000000E+02  0.91188000000E+02 0.  0.
    9900012    2    3    3    0    0  0.41932257717E+01 -0.73837815600E+01  0.35828403972E+02  0.54367110499E+02  0.40000060004E+02 0.  0.
        -12    1    3    3    0    0 -0.41932257717E+01  0.73837815600E+01 -0.35828403972E+02  0.36820889501E+02  0.00000000000E+00 0.  1.
         11    1    4    4    0    0  0.81379352002E+01  0.13723096843E+01  0.39776719904E+02  0.40623843612E+02  0.51100000000E-03 0. -1.
        -11    1    4    4    0    0 -0.65857009301E+01 -0.44254506585E+01 -0.13654307927E+01  0.80511161824E+01  0.51100000000E-03 0.  1.
         12    1    4    4    0    0  0.26409915017E+01 -0.43306405859E+01 -0.25828851397E+01  0.56921507044E+01  0.00000000000E+00 0. -1.
</event>
<event>
 8    1  0.1229941E-006  0.9118800E+02  0.7816164E-02  0.1184000E+00
        -11   -1    0    0    0    0  0.00000000000E+00  0.00000000000E+00  0.45593999997E+02  0.45594000000E+02  0.51100000000E-03 0. -1.
         11   -1    0    0    0    0 -0.00000000000E+00 -0.00000000000E+00 -0.45593999997E+02  0.45594000000E+02  0.51100000000E-03 0.  1.
         23    2    1    2    0    0  0.00000000000E+00  0.88817841970E-15  0.00000000000E+00  0.91188000000E+02  0.91188000000E+02 0.  0.
    9900012    2    3    3    0    0 -0.35125235946E+02 -0.41747949126E+01  0.10225875784E+02  0.54367086807E+02  0.40000005995E+02 0.  0.
        -12    1    3    3    0    0  0.35125235946E+02  0.41747949126E+01 -0.10225875784E+02  0.36820913193E+02  0.00000000000E+00 0.  1.
         11    1    4    4    0    0 -0.12670938147E+02  0.59726032056E+01  0.11913899909E+02  0.18389281494E+02  0.51100000000E-03 0.  1.
        -11    1    4    4    0    0 -0.24951974103E+02 -0.17675297892E+00 -0.44227007240E+01  0.25341518013E+02  0.51100000000E-03 0. -1.
        -12    1    4    4    0    0  0.24976763046E+01 -0.99706451393E+01  0.27346765987E+01  0.10636287299E+02  0.00000000000E+00 0.  1.
</event>
<event>
 8    1  0.1229941E-006  0.9118800E+02  0.7816164E-02  0.1184000E+00
        -11   -1    0    0    0    0  0.00000000000E+00  0.00000000000E+00  0.45593999997E+02  0.45594000000E+02  0.51100000000E-03 0.  1.
         11   -1    0    0    0    0 -0.00000000000E+00 -0.00000000000E+00 -0.45593999997E+02  0.45594000000E+02  0.51100000000E-03 0. -1.
         23    2    1    2    0    0  0.71054273576E-14 -0.17763568394E-14 -0.17763568394E-14  0.91188000000E+02  0.91188000000E+02 0.  0.
    9900012    2    3    3    0    0  0.34760969487E+02  0.71693379943E+01 -0.98008770523E+01  0.54367060334E+02  0.39999945642E+02 0.  0.
        -12    1    3    3    0    0 -0.34760969487E+02 -0.71693379943E+01  0.98008770523E+01  0.36820939666E+02  0.00000000000E+00 0.  1.
         11    1    4    4    0    0  0.24554869637E+00  0.19360904411E+01 -0.98917084337E+01  0.10082392393E+02  0.51100000000E-03 0. -1.
        -11    1    4    4    0    0  0.14754497708E+02 -0.11240293531E+02 -0.41233809107E+00  0.18552881831E+02  0.51100000000E-03 0.  1.
        -12    1    4    4    0    0  0.19760923082E+02  0.16473541084E+02  0.50316947252E+00  0.25731786110E+02  0.00000000000E+00 0.  1.
</event>
<event>
 8    1  0.1229941E-006  0.9118800E+02  0.7816164E-02  0.1184000E+00
        -11   -1    0    0    0    0  0.00000000000E+00  0.00000000000E+00  0.45593999997E+02  0.45594000000E+02  0.51100000000E-03 0. -1.
         11   -1    0    0    0    0 -0.00000000000E+00 -0.00000000000E+00 -0.45593999997E+02  0.45594000000E+02  0.51100000000E-03 0.  1.
         23    2    1    2    0    0  0.00000000000E+00 -0.17763568394E-14  0.35527136788E-14  0.91188000000E+02  0.91188000000E+02 0.  0.
    9900012    2    3    3    0    0 -0.20472715448E+02 -0.96657886765E+01 -0.29038276897E+02  0.54367067452E+02  0.39999961870E+02 0.  0.
         12    1    3    3    0    0  0.20472715448E+02  0.96657886765E+01  0.29038276897E+02  0.36820932548E+02  0.00000000000E+00 0. -1.
         11    1    4    4    0    0  0.78409154163E+01  0.25200431519E+00  0.18464191994E+01  0.80593253353E+01  0.51100000000E-03 0. -1.
        -11    1    4    4    0    0 -0.10071503161E+02  0.47119424656E+01 -0.10129970132E+02  0.15041737694E+02  0.51100000000E-03 0.  1.
        -12    1    4    4    0    0 -0.18242127703E+02 -0.14629735457E+02 -0.20754725964E+02  0.31266004422E+02  0.00000000000E+00 0.  1.
</event>
<event>
 8    1  0.1229941E-006  0.9118800E+02  0.7816164E-02  0.1184000E+00
        -11   -1    0    0    0    0  0.00000000000E+00  0.00000000000E+00  0.45593999997E+02  0.45594000000E+02  0.51100000000E-03 0.  1.
         11   -1    0    0    0    0 -0.00000000000E+00 -0.00000000000E+00 -0.45593999997E+02  0.45594000000E+02  0.51100000000E-03 0. -1.
         23    2    1    2    0    0  0.00000000000E+00  0.00000000000E+00  0.35527136788E-14  0.91188000000E+02  0.91188000000E+02 0.  0.
    9900012    2    3    3    0    0  0.18864288123E+02 -0.22849215799E+02 -0.21859465590E+02  0.54367024118E+02  0.39999863083E+02 0.  0.
        -12    1    3    3    0    0 -0.18864288123E+02  0.22849215799E+02  0.21859465590E+02  0.36820975882E+02  0.00000000000E+00 0.  1.
         11    1    4    4    0    0 -0.34490051819E+00 -0.38487443743E+01 -0.10953839858E+02  0.11615437896E+02  0.51100000000E-03 0. -1.
        -11    1    4    4    0    0  0.15017843942E+02 -0.26375943388E+02 -0.19474961049E+01  0.30414121188E+02  0.51100000000E-03 0.  1.
        -12    1    4    4    0    0  0.41913446991E+01  0.73754719635E+01 -0.89581296265E+01  0.12337465034E+02  0.00000000000E+00 0.  1.
</event>
<event>
 8    1  0.1229941E-006  0.9118800E+02  0.7816164E-02  0.1184000E+00
        -11   -1    0    0    0    0  0.00000000000E+00  0.00000000000E+00  0.45593999997E+02  0.45594000000E+02  0.51100000000E-03 0. -1.
         11   -1    0    0    0    0 -0.00000000000E+00 -0.00000000000E+00 -0.45593999997E+02  0.45594000000E+02  0.51100000000E-03 0.  1.
         23    2    1    2    0    0 -0.35527136788E-14  0.00000000000E+00  0.00000000000E+00  0.91188000000E+02  0.91188000000E+02 0.  0.
    9900012    2    3    3    0    0  0.26801654566E+02  0.24304167689E+02 -0.68380245658E+01  0.54367084280E+02  0.40000000232E+02 0.  0.
         12    1    3    3    0    0 -0.26801654566E+02 -0.24304167689E+02  0.68380245658E+01  0.36820915720E+02  0.00000000000E+00 0. -1.
         11    1    4    4    0    0 -0.18855713733E+01  0.62641483002E+01  0.31146074863E+01  0.72453925626E+01  0.51100000000E-03 0. -1.
        -11    1    4    4    0    0  0.10654663947E+02  0.24606980642E+02 -0.46857202353E+01  0.27220972329E+02  0.51100000000E-03 0.  1.
         12    1    4    4    0    0  0.18032561992E+02 -0.65669612529E+01 -0.52669118169E+01  0.19900719388E+02  0.00000000000E+00 0. -1.
</event>
<event>
 8    1  0.1229941E-006  0.9118800E+02  0.7816164E-02  0.1184000E+00
        -11   -1    0    0    0    0  0.00000000000E+00  0.00000000000E+00  0.45593999997E+02  0.45594000000E+02  0.51100000000E-03 0. -1.
         11   -1    0    0    0    0 -0.00000000000E+00 -0.00000000000E+00 -0.45593999997E+02  0.45594000000E+02  0.51100000000E-03 0.  1.
         23    2    1    2    0    0  0.00000000000E+00  0.17763568394E-14  0.00000000000E+00  0.91188000000E+02  0.91188000000E+02 0.  0.
    9900012    2    3    3    0    0  0.81244599061E+01  0.76905975213E+01  0.35080292128E+02  0.54367095139E+02  0.40000024987E+02 0.  0.
        -12    1    3    3    0    0 -0.81244599061E+01 -0.76905975213E+01 -0.35080292128E+02  0.36820904861E+02  0.00000000000E+00 0.  1.
         11    1    4    4    0    0  0.79543410609E+01  0.90704014920E+01  0.12661609424E+02  0.17488855835E+02  0.51100000000E-03 0. -1.
        -11    1    4    4    0    0  0.52431225939E+01 -0.12044283566E+02  0.19958982348E+01  0.13286787090E+02  0.51100000000E-03 0.  1.
        -12    1    4    4    0    0 -0.50730037488E+01  0.10664479595E+02  0.20422784470E+02  0.23591452214E+02  0.00000000000E+00 0.  1.
</event>
<event>
 8    1  0.1229941E-006  0.9118800E+02  0.7816164E-02  0.1184000E+00
        -11   -1    0    0    0    0  0.00000000000E+00  0.00000000000E+00  0.45593999997E+02  0.45594000000E+02  0.51100000000E-03 0.  1.
         11   -1    0    0    0    0 -0.00000000000E+00 -0.00000000000E+00 -0.45593999997E+02  0.45594000000E+02  0.51100000000E-03 0. -1.
         23    2    1    2    0    0  0.00000000000E+00  0.00000000000E+00  0.00000000000E+00  0.91188000000E+02  0.91188000000E+02 0.  0.
    9900012    2    3    3    0    0  0.12524455484E+02  0.32582014486E+02  0.11718666311E+02  0.54367125578E+02  0.40000094379E+02 0.  0.
        -12    1    3    3    0    0 -0.12524455484E+02 -0.32582014486E+02 -0.11718666311E+02  0.36820874422E+02  0.00000000000E+00 0.  1.
         11    1    4    4    0    0 -0.12471314952E+01  0.14956484596E+02 -0.65190640026E+01  0.16363067077E+02  0.51100000000E-03 0. -1.
        -11    1    4    4    0    0  0.16719778091E+01 -0.53738378018E+01 -0.94029675636E+00  0.57059443360E+01  0.51100000000E-03 0.  1.
         12    1    4    4    0    0  0.12099609170E+02  0.22999367692E+02  0.19178027070E+02  0.32298114165E+02  0.00000000000E+00 0. -1.
</event>
<event>
 8    1  0.1229941E-006  0.9118800E+02  0.7816164E-02  0.1184000E+00
        -11   -1    0    0    0    0  0.00000000000E+00  0.00000000000E+00  0.45593999997E+02  0.45594000000E+02  0.51100000000E-03 0.  1.
         11   -1    0    0    0    0 -0.00000000000E+00 -0.00000000000E+00 -0.45593999997E+02  0.45594000000E+02  0.51100000000E-03 0. -1.
         23    2    1    2    0    0  0.00000000000E+00  0.00000000000E+00  0.00000000000E+00  0.91188000000E+02  0.91188000000E+02 0.  0.
    9900012    2    3    3    0    0  0.82456678674E+01  0.31313624319E+02  0.17528464189E+02  0.54367066234E+02  0.39999959095E+02 0.  0.
         12    1    3    3    0    0 -0.82456678674E+01 -0.31313624319E+02 -0.17528464189E+02  0.36820933766E+02  0.00000000000E+00 0. -1.
         11    1    4    4    0    0  0.44497391162E+01 -0.64903593706E+01  0.10433192556E+02  0.13068146392E+02  0.51100000000E-03 0. -1.
        -11    1    4    4    0    0  0.33527596119E+01  0.24517325230E+02  0.11509476177E+02  0.27291175782E+02  0.51100000000E-03 0.  1.
        -12    1    4    4    0    0  0.44316913926E+00  0.13286658459E+02 -0.44142045437E+01  0.14007744060E+02  0.00000000000E+00 0.  1.
</event>
<event>
 8    1  0.1229941E-006  0.9118800E+02  0.7816164E-02  0.1184000E+00
        -11   -1    0    0    0    0  0.00000000000E+00  0.00000000000E+00  0.45593999997E+02  0.45594000000E+02  0.51100000000E-03 0. -1.
         11   -1    0    0    0    0 -0.00000000000E+00 -0.00000000000E+00 -0.45593999997E+02  0.45594000000E+02  0.51100000000E-03 0.  1.
         23    2    1    2    0    0  0.88817841970E-15  0.00000000000E+00  0.00000000000E+00  0.91188000000E+02  0.91188000000E+02 0.  0.
    9900012    2    3    3    0    0  0.63093370752E+01 -0.29948316161E+02  0.20471217854E+02  0.54367080191E+02  0.39999990910E+02 0.  0.
        -12    1    3    3    0    0 -0.63093370752E+01  0.29948316161E+02 -0.20471217854E+02  0.36820919809E+02  0.00000000000E+00 0.  1.
         11    1    4    4    0    0 -0.84642992327E+01 -0.10041844906E+02  0.57609530479E+01  0.14341254858E+02  0.51100000000E-03 0. -1.
        -11    1    4    4    0    0 -0.76735864514E+01 -0.34814564949E+01  0.75266066292E+01  0.11298419180E+02  0.51100000000E-03 0.  1.
         12    1    4    4    0    0  0.22447222759E+02 -0.16425014760E+02  0.71836581770E+01  0.28727406153E+02  0.00000000000E+00 0. -1.
</event>
<event>
 8    1  0.1229941E-006  0.9118800E+02  0.7816164E-02  0.1184000E+00
        -11   -1    0    0    0    0  0.00000000000E+00  0.00000000000E+00  0.45593999997E+02  0.45594000000E+02  0.51100000000E-03 0.  1.
         11   -1    0    0    0    0 -0.00000000000E+00 -0.00000000000E+00 -0.45593999997E+02  0.45594000000E+02  0.51100000000E-03 0. -1.
         23    2    1    2    0    0 -0.71054273576E-14  0.00000000000E+00 -0.17763568394E-14  0.91188000000E+02  0.91188000000E+02 0.  0.
    9900012    2    3    3    0    0  0.32954265931E+02  0.12826899540E+02  0.10259965344E+02  0.54367083611E+02  0.39999998709E+02 0.  0.
         12    1    3    3    0    0 -0.32954265931E+02 -0.12826899540E+02 -0.10259965344E+02  0.36820916389E+02  0.00000000000E+00 0. -1.
         11    1    4    4    0    0  0.37663838080E+01 -0.62652350195E+01 -0.21351360331E+01  0.76156170452E+01  0.51100000000E-03 0. -1.
        -11    1    4    4    0    0  0.77336775939E+01  0.20959206385E+02  0.11667832016E+02  0.25203896636E+02  0.51100000000E-03 0.  1.
        -12    1    4    4    0    0  0.21454204529E+02 -0.18670718259E+01  0.72726936136E+00  0.21547569930E+02  0.00000000000E+00 0.  1.
</event>
<event>
 8    1  0.1229941E-006  0.9118800E+02  0.7816164E-02  0.1184000E+00
        -11   -1    0    0    0    0  0.00000000000E+00  0.00000000000E+00  0.45593999997E+02  0.45594000000E+02  0.51100000000E-03 0. -1.
         11   -1    0    0    0    0 -0.00000000000E+00 -0.00000000000E+00 -0.45593999997E+02  0.45594000000E+02  0.51100000000E-03 0.  1.
         23    2    1    2    0    0  0.88817841970E-15 -0.35527136788E-14  0.00000000000E+00  0.91188000000E+02  0.91188000000E+02 0.  0.
    9900012    2    3    3    0    0 -0.27240614987E+01  0.29195610147E+02 -0.22270496275E+02  0.54367093340E+02  0.40000020888E+02 0.  0.
         12    1    3    3    0    0  0.27240614987E+01 -0.29195610147E+02  0.22270496275E+02  0.36820906660E+02  0.00000000000E+00 0. -1.
         11    1    4    4    0    0  0.31038848843E+01  0.12153666561E+02 -0.17808837604E+02  0.21783030306E+02  0.51100000000E-03 0. -1.
        -11    1    4    4    0    0 -0.60992197751E+01 -0.60674360602E+01  0.14608318261E+01  0.87262988772E+01  0.51100000000E-03 0.  1.
         12    1    4    4    0    0  0.27127339213E+00  0.23109379646E+02 -0.59224904968E+01  0.23857764157E+02  0.00000000000E+00 0. -1.
</event>
<event>
 8    1  0.1229941E-006  0.9118800E+02  0.7816164E-02  0.1184000E+00
        -11   -1    0    0    0    0  0.00000000000E+00  0.00000000000E+00  0.45593999997E+02  0.45594000000E+02  0.51100000000E-03 0.  1.
         11   -1    0    0    0    0 -0.00000000000E+00 -0.00000000000E+00 -0.45593999997E+02  0.45594000000E+02  0.51100000000E-03 0. -1.
         23    2    1    2    0    0 -0.88817841970E-15  0.22204460493E-15  0.00000000000E+00  0.91188000000E+02  0.91188000000E+02 0.  0.
    9900012    2    3    3    0    0 -0.37570384208E+01 -0.12342436755E+01  0.36607945514E+02  0.54367077009E+02  0.39999983657E+02 0.  0.
         12    1    3    3    0    0  0.37570384208E+01  0.12342436755E+01 -0.36607945514E+02  0.36820922991E+02  0.00000000000E+00 0. -1.
         11    1    4    4    0    0 -0.14839590118E+02 -0.22564194712E+00  0.18225418220E+01  0.14952792653E+02  0.51100000000E-03 0. -1.
        -11    1    4    4    0    0 -0.99078528937E+00 -0.48573529542E+01  0.49793702219E+01  0.70263547647E+01  0.51100000000E-03 0.  1.
        -12    1    4    4    0    0  0.12073336987E+02  0.38487512258E+01  0.29806033470E+02  0.32387929591E+02  0.00000000000E+00 0.  1.
</event>
<event>
 8    1  0.1229941E-006  0.9118800E+02  0.7816164E-02  0.1184000E+00
        -11   -1    0    0    0    0  0.00000000000E+00  0.00000000000E+00  0.45593999997E+02  0.45594000000E+02  0.51100000000E-03 0. -1.
         11   -1    0    0    0    0 -0.00000000000E+00 -0.00000000000E+00 -0.45593999997E+02  0.45594000000E+02  0.51100000000E-03 0.  1.
         23    2    1    2    0    0 -0.35527136788E-14 -0.35527136788E-14 -0.88817841970E-15  0.91188000000E+02  0.91188000000E+02 0.  0.
    9900012    2    3    3    0    0  0.24482509056E+02  0.26446731433E+02  0.75467523573E+01  0.54367131945E+02  0.40000108895E+02 0.  0.
        -12    1    3    3    0    0 -0.24482509056E+02 -0.26446731433E+02 -0.75467523573E+01  0.36820868055E+02  0.00000000000E+00 0.  1.
         11    1    4    4    0    0  0.67351294461E+01 -0.70557785350E+01  0.69065656857E+01  0.11951846268E+02  0.51100000000E-03 0. -1.
        -11    1    4    4    0    0  0.53360549538E+01 -0.12624561155E+01 -0.27071643249E+00  0.54900424007E+01  0.51100000000E-03 0.  1.
        -12    1    4    4    0    0  0.12411324656E+02  0.34764966084E+02  0.91090310408E+00  0.36925243276E+02  0.00000000000E+00 0.  1.
</event>
<event>
 8    1  0.1229941E-006  0.9118800E+02  0.7816164E-02  0.1184000E+00
        -11   -1    0    0    0    0  0.00000000000E+00  0.00000000000E+00  0.45593999997E+02  0.45594000000E+02  0.51100000000E-03 0.  1.
         11   -1    0    0    0    0 -0.00000000000E+00 -0.00000000000E+00 -0.45593999997E+02  0.45594000000E+02  0.51100000000E-03 0. -1.
         23    2    1    2    0    0 -0.88817841970E-15  0.00000000000E+00  0.00000000000E+00  0.91188000000E+02  0.91188000000E+02 0.  0.
    9900012    2    3    3    0    0 -0.74008240882E+01  0.27564392447E+02 -0.23263957686E+02  0.54367086712E+02  0.40000005777E+02 0.  0.
        -12    1    3    3    0    0  0.74008240882E+01 -0.27564392447E+02  0.23263957686E+02  0.36820913288E+02  0.00000000000E+00 0.  1.
         11    1    4    4    0    0 -0.13136137232E+01 -0.29802054617E+01 -0.13060805551E+02  0.13460752115E+02  0.51100000000E-03 0. -1.
        -11    1    4    4    0    0  0.70485984543E+01  0.79569879668E+01  0.37657595819E+01  0.11277293255E+02  0.51100000000E-03 0.  1.
        -12    1    4    4    0    0 -0.13135808819E+02  0.22587609942E+02 -0.13968911716E+02  0.29629041341E+02  0.00000000000E+00 0.  1.
</event>
<event>
 8    1  0.1229941E-006  0.9118800E+02  0.7816164E-02  0.1184000E+00
        -11   -1    0    0    0    0  0.00000000000E+00  0.00000000000E+00  0.45593999997E+02  0.45594000000E+02  0.51100000000E-03 0.  1.
         11   -1    0    0    0    0 -0.00000000000E+00 -0.00000000000E+00 -0.45593999997E+02  0.45594000000E+02  0.51100000000E-03 0. -1.
         23    2    1    2    0    0  0.00000000000E+00  0.00000000000E+00  0.71054273576E-14  0.91188000000E+02  0.91188000000E+02 0.  0.
    9900012    2    3    3    0    0  0.57124323775E+01 -0.13711223832E+02 -0.33691999844E+02  0.54367076653E+02  0.39999982846E+02 0.  0.
        -12    1    3    3    0    0 -0.57124323775E+01  0.13711223832E+02  0.33691999844E+02  0.36820923347E+02  0.00000000000E+00 0.  1.
         11    1    4    4    0    0  0.19390464594E+01  0.17928278137E+01  0.14164314652E+01  0.29967334045E+01  0.51100000000E-03 0. -1.
        -11    1    4    4    0    0  0.70328531787E+01 -0.18709186044E+02 -0.45850122309E+01  0.20506511251E+02  0.51100000000E-03 0.  1.
         12    1    4    4    0    0 -0.32594672605E+01  0.32051343987E+01 -0.30523419078E+02  0.30863831997E+02  0.00000000000E+00 0. -1.
</event>
<event>
 8    1  0.1229941E-006  0.9118800E+02  0.7816164E-02  0.1184000E+00
        -11   -1    0    0    0    0  0.00000000000E+00  0.00000000000E+00  0.45593999997E+02  0.45594000000E+02  0.51100000000E-03 0. -1.
         11   -1    0    0    0    0 -0.00000000000E+00 -0.00000000000E+00 -0.45593999997E+02  0.45594000000E+02  0.51100000000E-03 0.  1.
         23    2    1    2    0    0 -0.44408920985E-15  0.00000000000E+00  0.35527136788E-14  0.91188000000E+02  0.91188000000E+02 0.  0.
    9900012    2    3    3    0    0  0.25309274691E+01  0.32278501731E+02 -0.17534908305E+02  0.54367078269E+02  0.39999986529E+02 0.  0.
         12    1    3    3    0    0 -0.25309274691E+01 -0.32278501731E+02  0.17534908305E+02  0.36820921731E+02  0.00000000000E+00 0. -1.
         11    1    4    4    0    0  0.38978925187E+01  0.23958920804E+02 -0.19880724749E+01  0.24355202414E+02  0.51100000000E-03 0.  1.
        -11    1    4    4    0    0  0.52739648056E+01 -0.55500348750E+01  0.64278690419E+00  0.76831482577E+01  0.51100000000E-03 0. -1.
        -12    1    4    4    0    0 -0.66409298552E+01  0.13869615802E+02 -0.16189622734E+02  0.22328727597E+02  0.00000000000E+00 0.  1.
</event>
<event>
 8    1  0.1229941E-006  0.9118800E+02  0.7816164E-02  0.1184000E+00
        -11   -1    0    0    0    0  0.00000000000E+00  0.00000000000E+00  0.45593999997E+02  0.45594000000E+02  0.51100000000E-03 0.  1.
         11   -1    0    0    0    0 -0.00000000000E+00 -0.00000000000E+00 -0.45593999997E+02  0.45594000000E+02  0.51100000000E-03 0. -1.
         23    2    1    2    0    0  0.00000000000E+00  0.00000000000E+00  0.00000000000E+00  0.91188000000E+02  0.91188000000E+02 0.  0.
    9900012    2    3    3    0    0 -0.21223932638E+02  0.18987806168E+02 -0.23340679661E+02  0.54367089817E+02  0.40000012855E+02 0.  0.
         12    1    3    3    0    0  0.21223932638E+02 -0.18987806168E+02  0.23340679661E+02  0.36820910183E+02  0.00000000000E+00 0. -1.
         11    1    4    4    0    0  0.57083617609E+01  0.94826352138E+01 -0.20962879298E+02  0.23705443959E+02  0.51100000000E-03 0. -1.
        -11    1    4    4    0    0 -0.22703964457E+02  0.35333809924E+01 -0.35541307961E+01  0.23250518903E+02  0.51100000000E-03 0.  1.
        -12    1    4    4    0    0 -0.42283299419E+01  0.59717899617E+01  0.11763304330E+01  0.74111269542E+01  0.00000000000E+00 0.  1.
</event>
<event>
 8    1  0.1229941E-006  0.9118800E+02  0.7816164E-02  0.1184000E+00
        -11   -1    0    0    0    0  0.00000000000E+00  0.00000000000E+00  0.45593999997E+02  0.45594000000E+02  0.51100000000E-03 0.  1.
         11   -1    0    0    0    0 -0.00000000000E+00 -0.00000000000E+00 -0.45593999997E+02  0.45594000000E+02  0.51100000000E-03 0. -1.
         23    2    1    2    0    0 -0.10658141036E-13  0.00000000000E+00  0.00000000000E+00  0.91188000000E+02  0.91188000000E+02 0.  0.
    9900012    2    3    3    0    0 -0.27763246204E+02 -0.41439406901E+01  0.23828766125E+02  0.54367079598E+02  0.39999989559E+02 0.  0.
        -12    1    3    3    0    0  0.27763246204E+02  0.41439406901E+01 -0.23828766125E+02  0.36820920402E+02  0.00000000000E+00 0.  1.
         11    1    4    4    0    0  0.15736050805E+01  0.47741066710E-01 -0.32982670669E+01  0.36547336516E+01  0.51100000000E-03 0. -1.
        -11    1    4    4    0    0  0.60385010852E+01 -0.18760313211E+01  0.43867391627E+00  0.63384086284E+01  0.51100000000E-03 0.  1.
         12    1    4    4    0    0 -0.35375352370E+02 -0.23156504357E+01  0.26688359276E+02  0.44373937318E+02  0.00000000000E+00 0. -1.
</event>
<event>
 8    1  0.1229941E-006  0.9118800E+02  0.7816164E-02  0.1184000E+00
        -11   -1    0    0    0    0  0.00000000000E+00  0.00000000000E+00  0.45593999997E+02  0.45594000000E+02  0.51100000000E-03 0. -1.
         11   -1    0    0    0    0 -0.00000000000E+00 -0.00000000000E+00 -0.45593999997E+02  0.45594000000E+02  0.51100000000E-03 0.  1.
         23    2    1    2    0    0  0.00000000000E+00 -0.35527136788E-14  0.15543122345E-14  0.91188000000E+02  0.91188000000E+02 0.  0.
    9900012    2    3    3    0    0 -0.19307369094E+02 -0.31323807243E+02  0.13554426948E+01  0.54366910576E+02  0.39999604237E+02 0.  0.
        -12    1    3    3    0    0  0.19307369094E+02  0.31323807243E+02 -0.13554426948E+01  0.36821089424E+02  0.00000000000E+00 0.  1.
         11    1    4    4    0    0 -0.78101241894E+01  0.60601359120E+01 -0.90684136234E-01  0.98859248934E+01  0.51100000000E-03 0.  1.
        -11    1    4    4    0    0 -0.98920028688E+01 -0.18040752555E+02  0.10459308044E+02  0.23080675868E+02  0.51100000000E-03 0. -1.
        -12    1    4    4    0    0 -0.16052420355E+01 -0.19343190599E+02 -0.90131812130E+01  0.21400309814E+02  0.00000000000E+00 0.  1.
</event>
<event>
 8    1  0.1229941E-006  0.9118800E+02  0.7816164E-02  0.1184000E+00
        -11   -1    0    0    0    0  0.00000000000E+00  0.00000000000E+00  0.45593999997E+02  0.45594000000E+02  0.51100000000E-03 0. -1.
         11   -1    0    0    0    0 -0.00000000000E+00 -0.00000000000E+00 -0.45593999997E+02  0.45594000000E+02  0.51100000000E-03 0.  1.
         23    2    1    2    0    0  0.00000000000E+00  0.00000000000E+00  0.00000000000E+00  0.91188000000E+02  0.91188000000E+02 0.  0.
    9900012    2    3    3    0    0 -0.11569571268E+02  0.26915787382E+02 -0.22303958270E+02  0.54367066494E+02  0.39999959687E+02 0.  0.
         12    1    3    3    0    0  0.11569571268E+02 -0.26915787382E+02  0.22303958270E+02  0.36820933506E+02  0.00000000000E+00 0. -1.
         11    1    4    4    0    0 -0.84200648780E+01 -0.41763881357E+01 -0.14932193649E+01  0.95167964538E+01  0.51100000000E-03 0. -1.
        -11    1    4    4    0    0 -0.99310184067E+01  0.31374726921E+02 -0.17934605081E+02  0.37478642926E+02  0.51100000000E-03 0.  1.
        -12    1    4    4    0    0  0.67815120171E+01 -0.28255140266E+00 -0.28761338242E+01  0.73716271140E+01  0.00000000000E+00 0.  1.
</event>
<event>
 8    1  0.1229941E-006  0.9118800E+02  0.7816164E-02  0.1184000E+00
        -11   -1    0    0    0    0  0.00000000000E+00  0.00000000000E+00  0.45593999997E+02  0.45594000000E+02  0.51100000000E-03 0. -1.
         11   -1    0    0    0    0 -0.00000000000E+00 -0.00000000000E+00 -0.45593999997E+02  0.45594000000E+02  0.51100000000E-03 0.  1.
         23    2    1    2    0    0 -0.88817841970E-15  0.00000000000E+00  0.44408920985E-15  0.91188000000E+02  0.91188000000E+02 0.  0.
    9900012    2    3    3    0    0  0.53728532589E+01  0.36355464879E+02 -0.22786716262E+01  0.54367085792E+02  0.40000003681E+02 0.  0.
        -12    1    3    3    0    0 -0.53728532589E+01 -0.36355464879E+02  0.22786716262E+01  0.36820914208E+02  0.00000000000E+00 0.  1.
         11    1    4    4    0    0  0.14047691672E+02  0.20836519165E+02  0.12313344199E+02  0.27984220872E+02  0.51100000000E-03 0. -1.
        -11    1    4    4    0    0 -0.28339944668E+01  0.13569915479E+02 -0.14725317132E+02  0.20223973290E+02  0.51100000000E-03 0.  1.
        -12    1    4    4    0    0 -0.58408439467E+01  0.19490302353E+01  0.13330130646E+00  0.61588916297E+01  0.00000000000E+00 0.  1.
</event>
<event>
 8    1  0.1229941E-006  0.9118800E+02  0.7816164E-02  0.1184000E+00
        -11   -1    0    0    0    0  0.00000000000E+00  0.00000000000E+00  0.45593999997E+02  0.45594000000E+02  0.51100000000E-03 0.  1.
         11   -1    0    0    0    0 -0.00000000000E+00 -0.00000000000E+00 -0.45593999997E+02  0.45594000000E+02  0.51100000000E-03 0. -1.
         23    2    1    2    0    0  0.00000000000E+00  0.00000000000E+00 -0.35527136788E-14  0.91188000000E+02  0.91188000000E+02 0.  0.
    9900012    2    3    3    0    0 -0.30914319513E+02 -0.10194406620E+02 -0.17209245619E+02  0.54367092732E+02  0.40000019500E+02 0.  0.
        -12    1    3    3    0    0  0.30914319513E+02  0.10194406620E+02  0.17209245619E+02  0.36820907268E+02  0.00000000000E+00 0.  1.
         11    1    4    4    0    0 -0.13437413247E+02 -0.69146397927E+01 -0.53527628233E+01  0.16032104925E+02  0.51100000000E-03 0. -1.
        -11    1    4    4    0    0 -0.19020739826E+02 -0.74931673753E+01  0.48712490633E+01  0.21015831378E+02  0.51100000000E-03 0.  1.
        -12    1    4    4    0    0  0.15438335592E+01  0.42134005477E+01 -0.16727731859E+02  0.17319156428E+02  0.00000000000E+00 0.  1.
</event>
<event>
 8    1  0.1229941E-006  0.9118800E+02  0.7816164E-02  0.1184000E+00
        -11   -1    0    0    0    0  0.00000000000E+00  0.00000000000E+00  0.45593999997E+02  0.45594000000E+02  0.51100000000E-03 0.  1.
         11   -1    0    0    0    0 -0.00000000000E+00 -0.00000000000E+00 -0.45593999997E+02  0.45594000000E+02  0.51100000000E-03 0. -1.
         23    2    1    2    0    0  0.00000000000E+00 -0.35527136788E-14  0.00000000000E+00  0.91188000000E+02  0.91188000000E+02 0.  0.
    9900012    2    3    3    0    0 -0.64106516068E+01 -0.28198839988E+02 -0.22792743628E+02  0.54367079414E+02  0.39999989140E+02 0.  0.
        -12    1    3    3    0    0  0.64106516068E+01  0.28198839988E+02  0.22792743628E+02  0.36820920586E+02  0.00000000000E+00 0.  1.
         11    1    4    4    0    0 -0.50455755828E+01 -0.12157204100E+01 -0.43572854967E+01  0.67765585836E+01  0.51100000000E-03 0. -1.
        -11    1    4    4    0    0  0.25787018344E+00  0.72026424607E+01 -0.10026952040E+02  0.12348454273E+02  0.51100000000E-03 0.  1.
         12    1    4    4    0    0 -0.16229462075E+01 -0.34185762039E+02 -0.84085060909E+01  0.35242066558E+02  0.00000000000E+00 0. -1.
</event>
<event>
 8    1  0.1229941E-006  0.9118800E+02  0.7816164E-02  0.1184000E+00
        -11   -1    0    0    0    0  0.00000000000E+00  0.00000000000E+00  0.45593999997E+02  0.45594000000E+02  0.51100000000E-03 0. -1.
         11   -1    0    0    0    0 -0.00000000000E+00 -0.00000000000E+00 -0.45593999997E+02  0.45594000000E+02  0.51100000000E-03 0.  1.
         23    2    1    2    0    0  0.00000000000E+00 -0.35527136788E-14  0.35527136788E-14  0.91188000000E+02  0.91188000000E+02 0.  0.
    9900012    2    3    3    0    0  0.18858196018E+02 -0.25800381369E+02  0.18289075240E+02  0.54367061542E+02  0.39999948397E+02 0.  0.
        -12    1    3    3    0    0 -0.18858196018E+02  0.25800381369E+02 -0.18289075240E+02  0.36820938458E+02  0.00000000000E+00 0.  1.
         11    1    4    4    0    0  0.10737720242E+02 -0.85212231651E+01  0.22955948836E+02  0.26737342191E+02  0.51100000000E-03 0. -1.
        -11    1    4    4    0    0 -0.63325450275E+01 -0.34288680658E+01 -0.85254394434E+00  0.72515580517E+01  0.51100000000E-03 0.  1.
        -12    1    4    4    0    0  0.14453020803E+02 -0.13850290138E+02 -0.38143296516E+01  0.20378161299E+02  0.00000000000E+00 0.  1.
</event>
<event>
 8    1  0.1229941E-006  0.9118800E+02  0.7816164E-02  0.1184000E+00
        -11   -1    0    0    0    0  0.00000000000E+00  0.00000000000E+00  0.45593999997E+02  0.45594000000E+02  0.51100000000E-03 0.  1.
         11   -1    0    0    0    0 -0.00000000000E+00 -0.00000000000E+00 -0.45593999997E+02  0.45594000000E+02  0.51100000000E-03 0. -1.
         23    2    1    2    0    0  0.00000000000E+00  0.00000000000E+00 -0.17763568394E-14  0.91188000000E+02  0.91188000000E+02 0.  0.
    9900012    2    3    3    0    0 -0.32881205561E+02  0.95796386740E+01  0.13521706228E+02  0.54367086166E+02  0.40000004532E+02 0.  0.
         12    1    3    3    0    0  0.32881205561E+02 -0.95796386740E+01 -0.13521706228E+02  0.36820913834E+02  0.00000000000E+00 0. -1.
         11    1    4    4    0    0 -0.83258130409E+01  0.58105388715E+01 -0.13204082151E+02  0.16656209367E+02  0.51100000000E-03 0. -1.
        -11    1    4    4    0    0 -0.13949797464E+02  0.51672908187E+01  0.20516050539E+02  0.25341785131E+02  0.51100000000E-03 0.  1.
         12    1    4    4    0    0 -0.10605595057E+02 -0.13981910162E+01  0.62097378401E+01  0.12369091667E+02  0.00000000000E+00 0. -1.
</event>
<event>
 8    1  0.1229941E-006  0.9118800E+02  0.7816164E-02  0.1184000E+00
        -11   -1    0    0    0    0  0.00000000000E+00  0.00000000000E+00  0.45593999997E+02  0.45594000000E+02  0.51100000000E-03 0.  1.
         11   -1    0    0    0    0 -0.00000000000E+00 -0.00000000000E+00 -0.45593999997E+02  0.45594000000E+02  0.51100000000E-03 0. -1.
         23    2    1    2    0    0  0.66613381478E-15  0.35527136788E-14  0.00000000000E+00  0.91188000000E+02  0.91188000000E+02 0.  0.
    9900012    2    3    3    0    0  0.19414239141E+01 -0.23370593519E+02 -0.28387084552E+02  0.54367077447E+02  0.39999984657E+02 0.  0.
        -12    1    3    3    0    0 -0.19414239141E+01  0.23370593519E+02  0.28387084552E+02  0.36820922553E+02  0.00000000000E+00 0.  1.
         11    1    4    4    0    0  0.59041240428E+01 -0.71772565357E+01 -0.11228800293E+02  0.14575927016E+02  0.51100000000E-03 0. -1.
        -11    1    4    4    0    0 -0.14546577120E+02  0.21599341322E+01 -0.74753159250E+01  0.16496926071E+02  0.51100000000E-03 0.  1.
         12    1    4    4    0    0  0.10583876991E+02 -0.18353271115E+02 -0.96829683339E+01  0.23294224360E+02  0.00000000000E+00 0. -1.
</event>
<event>
 8    1  0.1229941E-006  0.9118800E+02  0.7816164E-02  0.1184000E+00
        -11   -1    0    0    0    0  0.00000000000E+00  0.00000000000E+00  0.45593999997E+02  0.45594000000E+02  0.51100000000E-03 0. -1.
         11   -1    0    0    0    0 -0.00000000000E+00 -0.00000000000E+00 -0.45593999997E+02  0.45594000000E+02  0.51100000000E-03 0.  1.
         23    2    1    2    0    0  0.00000000000E+00  0.35527136788E-14  0.00000000000E+00  0.91188000000E+02  0.91188000000E+02 0.  0.
    9900012    2    3    3    0    0 -0.15868603439E+02  0.27698803694E+02 -0.18350683298E+02  0.54367029363E+02  0.39999875038E+02 0.  0.
         12    1    3    3    0    0  0.15868603439E+02 -0.27698803694E+02  0.18350683298E+02  0.36820970637E+02  0.00000000000E+00 0. -1.
         11    1    4    4    0    0  0.34432182963E+01  0.15101208543E+02  0.17477138804E+01  0.15587070146E+02  0.51100000000E-03 0. -1.
        -11    1    4    4    0    0  0.19804287590E+01  0.62016869198E+01  0.25975674405E+01  0.70093063559E+01  0.51100000000E-03 0.  1.
        -12    1    4    4    0    0 -0.21292250494E+02  0.63959082315E+01 -0.22695964619E+02  0.31770652861E+02  0.00000000000E+00 0.  1.
</event>
<event>
 8    1  0.1229941E-006  0.9118800E+02  0.7816164E-02  0.1184000E+00
        -11   -1    0    0    0    0  0.00000000000E+00  0.00000000000E+00  0.45593999997E+02  0.45594000000E+02  0.51100000000E-03 0. -1.
         11   -1    0    0    0    0 -0.00000000000E+00 -0.00000000000E+00 -0.45593999997E+02  0.45594000000E+02  0.51100000000E-03 0.  1.
         23    2    1    2    0    0  0.00000000000E+00  0.17763568394E-14  0.00000000000E+00  0.91188000000E+02  0.91188000000E+02 0.  0.
    9900012    2    3    3    0    0 -0.10186084514E+02  0.11533566746E+02 -0.33451459918E+02  0.54367086781E+02  0.40000005935E+02 0.  0.
         12    1    3    3    0    0  0.10186084514E+02 -0.11533566746E+02  0.33451459918E+02  0.36820913219E+02  0.00000000000E+00 0. -1.
         11    1    4    4    0    0 -0.24873301650E+01  0.17601911356E+02 -0.18960108560E+02  0.25990379212E+02  0.51100000000E-03 0. -1.
        -11    1    4    4    0    0 -0.23337951741E+01  0.68833591528E+01 -0.12158087369E+02  0.14164968121E+02  0.51100000000E-03 0.  1.
        -12    1    4    4    0    0 -0.53649591746E+01 -0.12951703762E+02 -0.23332639898E+01  0.14211739448E+02  0.00000000000E+00 0.  1.
</event>
<event>
 8    1  0.1229941E-006  0.9118800E+02  0.7816164E-02  0.1184000E+00
        -11   -1    0    0    0    0  0.00000000000E+00  0.00000000000E+00  0.45593999997E+02  0.45594000000E+02  0.51100000000E-03 0. -1.
         11   -1    0    0    0    0 -0.00000000000E+00 -0.00000000000E+00 -0.45593999997E+02  0.45594000000E+02  0.51100000000E-03 0.  1.
         23    2    1    2    0    0  0.44408920985E-15  0.88817841970E-15  0.00000000000E+00  0.91188000000E+02  0.91188000000E+02 0.  0.
    9900012    2    3    3    0    0  0.21941183512E+01 -0.43021617442E+01  0.36502837727E+02  0.54367083212E+02  0.39999997798E+02 0.  0.
        -12    1    3    3    0    0 -0.21941183512E+01  0.43021617442E+01 -0.36502837727E+02  0.36820916788E+02  0.00000000000E+00 0.  1.
         11    1    4    4    0    0 -0.11478161894E+02  0.31631833712E+01  0.28875022345E+02  0.31233329077E+02  0.51100000000E-03 0. -1.
        -11    1    4    4    0    0 -0.87798527641E+00  0.26645973733E+01 -0.15122716969E+01  0.31871465693E+01  0.51100000000E-03 0.  1.
        -12    1    4    4    0    0  0.14550265522E+02 -0.10129942489E+02  0.91400870782E+01  0.19946607566E+02  0.00000000000E+00 0.  1.
</event>
<event>
 8    1  0.1229941E-006  0.9118800E+02  0.7816164E-02  0.1184000E+00
        -11   -1    0    0    0    0  0.00000000000E+00  0.00000000000E+00  0.45593999997E+02  0.45594000000E+02  0.51100000000E-03 0. -1.
         11   -1    0    0    0    0 -0.00000000000E+00 -0.00000000000E+00 -0.45593999997E+02  0.45594000000E+02  0.51100000000E-03 0.  1.
         23    2    1    2    0    0  0.00000000000E+00  0.00000000000E+00  0.00000000000E+00  0.91188000000E+02  0.91188000000E+02 0.  0.
    9900012    2    3    3    0    0  0.18533691787E+02  0.25387167797E+02 -0.19177477280E+02  0.54367059561E+02  0.39999943881E+02 0.  0.
        -12    1    3    3    0    0 -0.18533691787E+02 -0.25387167797E+02  0.19177477280E+02  0.36820940439E+02  0.00000000000E+00 0.  1.
         11    1    4    4    0    0  0.56866530772E+01 -0.61237202400E+01 -0.11277912913E+01  0.84326678019E+01  0.51100000000E-03 0. -1.
        -11    1    4    4    0    0  0.49772726303E+01  0.25624196763E+02 -0.84048026150E+00  0.26116644308E+02  0.51100000000E-03 0.  1.
        -12    1    4    4    0    0  0.78697660795E+01  0.58866912741E+01 -0.17209205727E+02  0.19817747451E+02  0.00000000000E+00 0.  1.
</event>
<event>
 8    1  0.1229941E-006  0.9118800E+02  0.7816164E-02  0.1184000E+00
        -11   -1    0    0    0    0  0.00000000000E+00  0.00000000000E+00  0.45593999997E+02  0.45594000000E+02  0.51100000000E-03 0. -1.
         11   -1    0    0    0    0 -0.00000000000E+00 -0.00000000000E+00 -0.45593999997E+02  0.45594000000E+02  0.51100000000E-03 0.  1.
         23    2    1    2    0    0 -0.44408920985E-15 -0.88817841970E-15  0.71054273576E-14  0.91188000000E+02  0.91188000000E+02 0.  0.
    9900012    2    3    3    0    0 -0.17437461267E+01  0.49988277590E+01 -0.36438330300E+02  0.54367070563E+02  0.39999968963E+02 0.  0.
         12    1    3    3    0    0  0.17437461267E+01 -0.49988277590E+01  0.36438330300E+02  0.36820929437E+02  0.00000000000E+00 0. -1.
         11    1    4    4    0    0  0.68785970677E+01  0.68018337906E+01 -0.57558410677E+00  0.96907862354E+01  0.51100000000E-03 0. -1.
        -11    1    4    4    0    0  0.27165526409E+01 -0.10237996536E+02 -0.23969246979E+02  0.26205362663E+02  0.51100000000E-03 0.  1.
        -12    1    4    4    0    0 -0.11338895835E+02  0.84349905041E+01 -0.11893499215E+02  0.18470921665E+02  0.00000000000E+00 0.  1.
</event>
<event>
 8    1  0.1229941E-006  0.9118800E+02  0.7816164E-02  0.1184000E+00
        -11   -1    0    0    0    0  0.00000000000E+00  0.00000000000E+00  0.45593999997E+02  0.45594000000E+02  0.51100000000E-03 0.  1.
         11   -1    0    0    0    0 -0.00000000000E+00 -0.00000000000E+00 -0.45593999997E+02  0.45594000000E+02  0.51100000000E-03 0. -1.
         23    2    1    2    0    0 -0.17763568394E-14 -0.71054273576E-14  0.17763568394E-14  0.91188000000E+02  0.91188000000E+02 0.  0.
    9900012    2    3    3    0    0 -0.71018947810E+01 -0.33321544756E+02 -0.13964874152E+02  0.54367082514E+02  0.39999996207E+02 0.  0.
        -12    1    3    3    0    0  0.71018947810E+01  0.33321544756E+02  0.13964874152E+02  0.36820917486E+02  0.00000000000E+00 0.  1.
         11    1    4    4    0    0 -0.65782679200E+00 -0.15565493662E+02  0.78119420831E+01  0.17428246280E+02  0.51100000000E-03 0.  1.
        -11    1    4    4    0    0 -0.11161898042E+02  0.27577408622E+00 -0.90038855681E+01  0.14343429674E+02  0.51100000000E-03 0. -1.
         12    1    4    4    0    0  0.47178300528E+01 -0.18031825180E+02 -0.12772930667E+02  0.22595406559E+02  0.00000000000E+00 0. -1.
</event>
<event>
 8    1  0.1229941E-006  0.9118800E+02  0.7816164E-02  0.1184000E+00
        -11   -1    0    0    0    0  0.00000000000E+00  0.00000000000E+00  0.45593999997E+02  0.45594000000E+02  0.51100000000E-03 0. -1.
         11   -1    0    0    0    0 -0.00000000000E+00 -0.00000000000E+00 -0.45593999997E+02  0.45594000000E+02  0.51100000000E-03 0.  1.
         23    2    1    2    0    0  0.00000000000E+00  0.35527136788E-14  0.00000000000E+00  0.91188000000E+02  0.91188000000E+02 0.  0.
    9900012    2    3    3    0    0 -0.90177649546E+01  0.22088012769E+02 -0.28046035700E+02  0.54367075089E+02  0.39999979279E+02 0.  0.
         12    1    3    3    0    0  0.90177649546E+01 -0.22088012769E+02  0.28046035700E+02  0.36820924911E+02  0.00000000000E+00 0. -1.
         11    1    4    4    0    0 -0.12441698650E+02 -0.27561964613E+01 -0.15440051519E+02  0.20019682200E+02  0.51100000000E-03 0. -1.
        -11    1    4    4    0    0 -0.36541321728E+01  0.46979975825E+01 -0.11519651864E+02  0.12966350395E+02  0.51100000000E-03 0.  1.
         12    1    4    4    0    0  0.70780658684E+01  0.20146211648E+02 -0.10863323164E+01  0.21381042493E+02  0.00000000000E+00 0. -1.
</event>
<event>
 8    1  0.1229941E-006  0.9118800E+02  0.7816164E-02  0.1184000E+00
        -11   -1    0    0    0    0  0.00000000000E+00  0.00000000000E+00  0.45593999997E+02  0.45594000000E+02  0.51100000000E-03 0. -1.
         11   -1    0    0    0    0 -0.00000000000E+00 -0.00000000000E+00 -0.45593999997E+02  0.45594000000E+02  0.51100000000E-03 0.  1.
         23    2    1    2    0    0  0.17763568394E-14  0.35527136788E-14  0.00000000000E+00  0.91188000000E+02  0.91188000000E+02 0.  0.
    9900012    2    3    3    0    0  0.14224418401E+02 -0.31832579098E+02  0.11837740880E+02  0.54367091809E+02  0.40000017397E+02 0.  0.
         12    1    3    3    0    0 -0.14224418401E+02  0.31832579098E+02 -0.11837740880E+02  0.36820908191E+02  0.00000000000E+00 0. -1.
         11    1    4    4    0    0 -0.81900240706E+01 -0.12694895377E+02  0.10075542022E+02  0.18159113696E+02  0.51100000000E-03 0. -1.
        -11    1    4    4    0    0  0.68162684019E+01 -0.19393122004E+02  0.60915817970E+00  0.20565159128E+02  0.51100000000E-03 0.  1.
         12    1    4    4    0    0  0.15598174070E+02  0.25543828311E+00  0.11530406782E+01  0.15642818986E+02  0.00000000000E+00 0. -1.
</event>
<event>
 8    1  0.1229941E-006  0.9118800E+02  0.7816164E-02  0.1184000E+00
        -11   -1    0    0    0    0  0.00000000000E+00  0.00000000000E+00  0.45593999997E+02  0.45594000000E+02  0.51100000000E-03 0.  1.
         11   -1    0    0    0    0 -0.00000000000E+00 -0.00000000000E+00 -0.45593999997E+02  0.45594000000E+02  0.51100000000E-03 0. -1.
         23    2    1    2    0    0 -0.17763568394E-14  0.00000000000E+00 -0.33306690739E-15  0.91188000000E+02  0.91188000000E+02 0.  0.
    9900012    2    3    3    0    0  0.57360444300E+01  0.36362333427E+02  0.81097110849E+00  0.54367093274E+02  0.40000020737E+02 0.  0.
         12    1    3    3    0    0 -0.57360444300E+01 -0.36362333427E+02 -0.81097110849E+00  0.36820906726E+02  0.00000000000E+00 0. -1.
         11    1    4    4    0    0  0.92555121932E+00  0.32974484342E+02  0.84810468614E+01  0.34060261579E+02  0.51100000000E-03 0.  1.
        -11    1    4    4    0    0 -0.66930418687E+01 -0.90013473452E-01 -0.37121623377E+01  0.76540878858E+01  0.51100000000E-03 0. -1.
        -12    1    4    4    0    0  0.11503535079E+02  0.34778625585E+01 -0.39579134153E+01  0.12652743809E+02  0.00000000000E+00 0.  1.
</event>
<event>
 8    1  0.1229941E-006  0.9118800E+02  0.7816164E-02  0.1184000E+00
        -11   -1    0    0    0    0  0.00000000000E+00  0.00000000000E+00  0.45593999997E+02  0.45594000000E+02  0.51100000000E-03 0.  1.
         11   -1    0    0    0    0 -0.00000000000E+00 -0.00000000000E+00 -0.45593999997E+02  0.45594000000E+02  0.51100000000E-03 0. -1.
         23    2    1    2    0    0  0.44408920985E-15  0.35527136788E-14 -0.35527136788E-14  0.91188000000E+02  0.91188000000E+02 0.  0.
    9900012    2    3    3    0    0 -0.31373071436E+01  0.23438364751E+02  0.28223748965E+02  0.54367086867E+02  0.40000006131E+02 0.  0.
         12    1    3    3    0    0  0.31373071436E+01 -0.23438364751E+02 -0.28223748965E+02  0.36820913133E+02  0.00000000000E+00 0. -1.
         11    1    4    4    0    0 -0.75080614015E+01  0.18564010808E+02  0.54983270780E+01  0.20765959747E+02  0.51100000000E-03 0. -1.
        -11    1    4    4    0    0 -0.60958054192E+01  0.64554354195E+01  0.21099741317E+02  0.22891714092E+02  0.51100000000E-03 0.  1.
        -12    1    4    4    0    0  0.10466559677E+02 -0.15810814764E+01  0.16256805702E+01  0.10709413029E+02  0.00000000000E+00 0.  1.
</event>
<event>
 8    1  0.1229941E-006  0.9118800E+02  0.7816164E-02  0.1184000E+00
        -11   -1    0    0    0    0  0.00000000000E+00  0.00000000000E+00  0.45593999997E+02  0.45594000000E+02  0.51100000000E-03 0.  1.
         11   -1    0    0    0    0 -0.00000000000E+00 -0.00000000000E+00 -0.45593999997E+02  0.45594000000E+02  0.51100000000E-03 0. -1.
         23    2    1    2    0    0 -0.35527136788E-14 -0.17763568394E-14  0.35527136788E-14  0.91188000000E+02  0.91188000000E+02 0.  0.
    9900012    2    3    3    0    0 -0.28527363415E+02  0.11587710832E+02 -0.20191439878E+02  0.54367085426E+02  0.40000002845E+02 0.  0.
        -12    1    3    3    0    0  0.28527363415E+02 -0.11587710832E+02  0.20191439878E+02  0.36820914574E+02  0.00000000000E+00 0.  1.
         11    1    4    4    0    0 -0.18180935021E+02 -0.34926013210E+01 -0.83843604358E+01  0.20323438745E+02  0.51100000000E-03 0. -1.
        -11    1    4    4    0    0  0.83664179492E+01  0.84594656809E+00 -0.27354487178E+01  0.88428080860E+01  0.51100000000E-03 0.  1.
         12    1    4    4    0    0 -0.18712846343E+02  0.14234365585E+02 -0.90716307243E+01  0.25200838595E+02  0.00000000000E+00 0. -1.
</event>
<event>
 8    1  0.1229941E-006  0.9118800E+02  0.7816164E-02  0.1184000E+00
        -11   -1    0    0    0    0  0.00000000000E+00  0.00000000000E+00  0.45593999997E+02  0.45594000000E+02  0.51100000000E-03 0.  1.
         11   -1    0    0    0    0 -0.00000000000E+00 -0.00000000000E+00 -0.45593999997E+02  0.45594000000E+02  0.51100000000E-03 0. -1.
         23    2    1    2    0    0  0.88817841970E-15  0.00000000000E+00  0.00000000000E+00  0.91188000000E+02  0.91188000000E+02 0.  0.
    9900012    2    3    3    0    0 -0.61152779135E+01  0.14867654761E+02 -0.33126082342E+02  0.54367066913E+02  0.39999960642E+02 0.  0.
        -12    1    3    3    0    0  0.61152779135E+01 -0.14867654761E+02  0.33126082342E+02  0.36820933087E+02  0.00000000000E+00 0.  1.
         11    1    4    4    0    0 -0.22705345353E+01 -0.63264243696E+01 -0.10098257862E+02  0.12130695961E+02  0.51100000000E-03 0. -1.
        -11    1    4    4    0    0  0.10280689759E+02  0.54595668963E+01 -0.97014130020E+00  0.11680780240E+02  0.51100000000E-03 0.  1.
         12    1    4    4    0    0 -0.14125433137E+02  0.15734512234E+02 -0.22057683180E+02  0.30555590713E+02  0.00000000000E+00 0. -1.
</event>
<event>
 8    1  0.1229941E-006  0.9118800E+02  0.7816164E-02  0.1184000E+00
        -11   -1    0    0    0    0  0.00000000000E+00  0.00000000000E+00  0.45593999997E+02  0.45594000000E+02  0.51100000000E-03 0.  1.
         11   -1    0    0    0    0 -0.00000000000E+00 -0.00000000000E+00 -0.45593999997E+02  0.45594000000E+02  0.51100000000E-03 0. -1.
         23    2    1    2    0    0  0.00000000000E+00  0.00000000000E+00  0.00000000000E+00  0.91188000000E+02  0.91188000000E+02 0.  0.
    9900012    2    3    3    0    0 -0.26840967042E+02  0.13774003943E+02 -0.21109637943E+02  0.54367115838E+02  0.40000072176E+02 0.  0.
        -12    1    3    3    0    0  0.26840967042E+02 -0.13774003943E+02  0.21109637943E+02  0.36820884162E+02  0.00000000000E+00 0.  1.
         11    1    4    4    0    0  0.27328746501E+01  0.44519499496E+01 -0.62084673156E+01  0.81137863465E+01  0.51100000000E-03 0.  1.
        -11    1    4    4    0    0 -0.15956155837E+02  0.14697243289E+02 -0.21184793534E+02  0.30321664643E+02  0.51100000000E-03 0. -1.
        -12    1    4    4    0    0 -0.13617685855E+02 -0.53751892962E+01  0.62836229059E+01  0.15931664848E+02  0.00000000000E+00 0.  1.
</event>
<event>
 8    1  0.1229941E-006  0.9118800E+02  0.7816164E-02  0.1184000E+00
        -11   -1    0    0    0    0  0.00000000000E+00  0.00000000000E+00  0.45593999997E+02  0.45594000000E+02  0.51100000000E-03 0.  1.
         11   -1    0    0    0    0 -0.00000000000E+00 -0.00000000000E+00 -0.45593999997E+02  0.45594000000E+02  0.51100000000E-03 0. -1.
         23    2    1    2    0    0  0.00000000000E+00 -0.17763568394E-14  0.00000000000E+00  0.91188000000E+02  0.91188000000E+02 0.  0.
    9900012    2    3    3    0    0 -0.17127471646E+02  0.43386472834E+01  0.32304889107E+02  0.54367081958E+02  0.39999994939E+02 0.  0.
         12    1    3    3    0    0  0.17127471646E+02 -0.43386472834E+01 -0.32304889107E+02  0.36820918042E+02  0.00000000000E+00 0. -1.
         11    1    4    4    0    0 -0.18056147102E+02  0.13985512972E+02  0.28359894387E+02  0.36412945928E+02  0.51100000000E-03 0. -1.
        -11    1    4    4    0    0 -0.44724070815E+01 -0.42177300640E+01 -0.36656483288E+01  0.71574192225E+01  0.51100000000E-03 0.  1.
        -12    1    4    4    0    0  0.54010825366E+01 -0.54291356250E+01  0.76106430483E+01  0.10796716807E+02  0.00000000000E+00 0.  1.
</event>
<event>
 8    1  0.1229941E-006  0.9118800E+02  0.7816164E-02  0.1184000E+00
        -11   -1    0    0    0    0  0.00000000000E+00  0.00000000000E+00  0.45593999997E+02  0.45594000000E+02  0.51100000000E-03 0.  1.
         11   -1    0    0    0    0 -0.00000000000E+00 -0.00000000000E+00 -0.45593999997E+02  0.45594000000E+02  0.51100000000E-03 0. -1.
         23    2    1    2    0    0 -0.88817841970E-15  0.13322676296E-14  0.00000000000E+00  0.91188000000E+02  0.91188000000E+02 0.  0.
    9900012    2    3    3    0    0  0.60072967268E+01 -0.10571184390E+01 -0.36312189058E+02  0.54367079485E+02  0.39999989302E+02 0.  0.
        -12    1    3    3    0    0 -0.60072967268E+01  0.10571184390E+01  0.36312189058E+02  0.36820920515E+02  0.00000000000E+00 0.  1.
         11    1    4    4    0    0  0.14401302462E+01  0.98781855514E+01 -0.18955491627E+02  0.21423426149E+02  0.51100000000E-03 0. -1.
        -11    1    4    4    0    0  0.11337433741E+02  0.35166675079E+01 -0.56205811701E+01  0.13133746120E+02  0.51100000000E-03 0.  1.
        -12    1    4    4    0    0 -0.67702672606E+01 -0.14451971498E+02 -0.11736116262E+02  0.19809907215E+02  0.00000000000E+00 0.  1.
</event>
<event>
 8    1  0.1229941E-006  0.9118800E+02  0.7816164E-02  0.1184000E+00
        -11   -1    0    0    0    0  0.00000000000E+00  0.00000000000E+00  0.45593999997E+02  0.45594000000E+02  0.51100000000E-03 0.  1.
         11   -1    0    0    0    0 -0.00000000000E+00 -0.00000000000E+00 -0.45593999997E+02  0.45594000000E+02  0.51100000000E-03 0. -1.
         23    2    1    2    0    0  0.35527136788E-14  0.00000000000E+00  0.00000000000E+00  0.91188000000E+02  0.91188000000E+02 0.  0.
    9900012    2    3    3    0    0  0.24113022405E+02 -0.27641671734E+02  0.32052160185E+01  0.54367173346E+02  0.40000203276E+02 0.  0.
         12    1    3    3    0    0 -0.24113022405E+02  0.27641671734E+02 -0.32052160185E+01  0.36820826654E+02  0.00000000000E+00 0. -1.
         11    1    4    4    0    0  0.25333022249E+01 -0.19298373442E+02  0.48234805378E+01  0.20052700627E+02  0.51100000000E-03 0. -1.
        -11    1    4    4    0    0  0.87105285263E+00 -0.10917676796E+02  0.55129006692E+01  0.12261585286E+02  0.51100000000E-03 0.  1.
        -12    1    4    4    0    0  0.20708667328E+02  0.25743785039E+01 -0.71311651885E+01  0.22052887433E+02  0.00000000000E+00 0.  1.
</event>
<event>
 8    1  0.1229941E-006  0.9118800E+02  0.7816164E-02  0.1184000E+00
        -11   -1    0    0    0    0  0.00000000000E+00  0.00000000000E+00  0.45593999997E+02  0.45594000000E+02  0.51100000000E-03 0.  1.
         11   -1    0    0    0    0 -0.00000000000E+00 -0.00000000000E+00 -0.45593999997E+02  0.45594000000E+02  0.51100000000E-03 0. -1.
         23    2    1    2    0    0  0.00000000000E+00 -0.88817841970E-15  0.00000000000E+00  0.91188000000E+02  0.91188000000E+02 0.  0.
    9900012    2    3    3    0    0 -0.18093733380E+02 -0.56300026733E+01  0.31570550447E+02  0.54367085111E+02  0.40000002127E+02 0.  0.
         12    1    3    3    0    0  0.18093733380E+02  0.56300026733E+01 -0.31570550447E+02  0.36820914889E+02  0.00000000000E+00 0. -1.
         11    1    4    4    0    0  0.54818746133E+00  0.54817027555E+01 -0.51195574394E+01  0.75206012544E+01  0.51100000000E-03 0. -1.
        -11    1    4    4    0    0  0.22724721437E+01 -0.71769257822E+01  0.67332613582E+01  0.10099960500E+02  0.51100000000E-03 0.  1.
         12    1    4    4    0    0 -0.20914392985E+02 -0.39347796466E+01  0.29956846528E+02  0.36746523356E+02  0.00000000000E+00 0. -1.
</event>
<event>
 8    1  0.1229941E-006  0.9118800E+02  0.7816164E-02  0.1184000E+00
        -11   -1    0    0    0    0  0.00000000000E+00  0.00000000000E+00  0.45593999997E+02  0.45594000000E+02  0.51100000000E-03 0. -1.
         11   -1    0    0    0    0 -0.00000000000E+00 -0.00000000000E+00 -0.45593999997E+02  0.45594000000E+02  0.51100000000E-03 0.  1.
         23    2    1    2    0    0  0.00000000000E+00  0.00000000000E+00  0.00000000000E+00  0.91188000000E+02  0.91188000000E+02 0.  0.
    9900012    2    3    3    0    0  0.16325204304E+02 -0.13452692712E+02  0.30137887203E+02  0.54367089068E+02  0.40000011149E+02 0.  0.
        -12    1    3    3    0    0 -0.16325204304E+02  0.13452692712E+02 -0.30137887203E+02  0.36820910932E+02  0.00000000000E+00 0.  1.
         11    1    4    4    0    0  0.14452405733E+02 -0.19245937351E+01  0.31465715178E+01  0.14915663079E+02  0.51100000000E-03 0.  1.
        -11    1    4    4    0    0 -0.63261039431E+01 -0.12076419357E+02  0.28201285652E+01  0.13921660137E+02  0.51100000000E-03 0. -1.
         12    1    4    4    0    0  0.81989025145E+01  0.54832038057E+00  0.24171187120E+02  0.25529765852E+02  0.00000000000E+00 0. -1.
</event>
<event>
 8    1  0.1229941E-006  0.9118800E+02  0.7816164E-02  0.1184000E+00
        -11   -1    0    0    0    0  0.00000000000E+00  0.00000000000E+00  0.45593999997E+02  0.45594000000E+02  0.51100000000E-03 0.  1.
         11   -1    0    0    0    0 -0.00000000000E+00 -0.00000000000E+00 -0.45593999997E+02  0.45594000000E+02  0.51100000000E-03 0. -1.
         23    2    1    2    0    0  0.00000000000E+00  0.35527136788E-14  0.35527136788E-14  0.91188000000E+02  0.91188000000E+02 0.  0.
    9900012    2    3    3    0    0 -0.14837329121E+02 -0.26708000487E+02 -0.20550330227E+02  0.54367086134E+02  0.40000004461E+02 0.  0.
        -12    1    3    3    0    0  0.14837329121E+02  0.26708000487E+02  0.20550330227E+02  0.36820913866E+02  0.00000000000E+00 0.  1.
         11    1    4    4    0    0 -0.16782257778E+02 -0.13193103479E+02  0.44053762378E+01  0.21797006574E+02  0.51100000000E-03 0. -1.
        -11    1    4    4    0    0 -0.19028008173E+01 -0.15639637296E+02 -0.22694496366E+02  0.27627143741E+02  0.51100000000E-03 0.  1.
        -12    1    4    4    0    0  0.38477294749E+01  0.21247402880E+01 -0.22612100988E+01  0.49429358194E+01  0.00000000000E+00 0.  1.
</event>
<event>
 8    1  0.1229941E-006  0.9118800E+02  0.7816164E-02  0.1184000E+00
        -11   -1    0    0    0    0  0.00000000000E+00  0.00000000000E+00  0.45593999997E+02  0.45594000000E+02  0.51100000000E-03 0.  1.
         11   -1    0    0    0    0 -0.00000000000E+00 -0.00000000000E+00 -0.45593999997E+02  0.45594000000E+02  0.51100000000E-03 0. -1.
         23    2    1    2    0    0  0.35527136788E-14  0.00000000000E+00 -0.17763568394E-14  0.91188000000E+02  0.91188000000E+02 0.  0.
    9900012    2    3    3    0    0  0.28080528559E+02 -0.20441089165E+02  0.12223975231E+02  0.54367085008E+02  0.40000001893E+02 0.  0.
         12    1    3    3    0    0 -0.28080528559E+02  0.20441089165E+02 -0.12223975231E+02  0.36820914992E+02  0.00000000000E+00 0. -1.
         11    1    4    4    0    0 -0.13825731925E+01  0.33714703021E+01  0.40761826069E+01  0.54675026782E+01  0.51100000000E-03 0.  1.
        -11    1    4    4    0    0  0.26628030804E+02 -0.36617320828E+01 -0.26480437437E+00  0.26879926116E+02  0.51100000000E-03 0. -1.
         12    1    4    4    0    0  0.28350709468E+01 -0.20150827384E+02  0.84125969980E+01  0.22019656214E+02  0.00000000000E+00 0. -1.
</event>
<event>
 8    1  0.1229941E-006  0.9118800E+02  0.7816164E-02  0.1184000E+00
        -11   -1    0    0    0    0  0.00000000000E+00  0.00000000000E+00  0.45593999997E+02  0.45594000000E+02  0.51100000000E-03 0.  1.
         11   -1    0    0    0    0 -0.00000000000E+00 -0.00000000000E+00 -0.45593999997E+02  0.45594000000E+02  0.51100000000E-03 0. -1.
         23    2    1    2    0    0  0.35527136788E-14  0.00000000000E+00  0.00000000000E+00  0.91188000000E+02  0.91188000000E+02 0.  0.
    9900012    2    3    3    0    0  0.13700166540E+02 -0.19239262445E+02 -0.28247691503E+02  0.54367138279E+02  0.40000123333E+02 0.  0.
        -12    1    3    3    0    0 -0.13700166540E+02  0.19239262445E+02  0.28247691503E+02  0.36820861721E+02  0.00000000000E+00 0.  1.
         11    1    4    4    0    0 -0.16303902382E+01  0.82223554398E-01 -0.11767806985E+01  0.20123981005E+01  0.51100000000E-03 0. -1.
        -11    1    4    4    0    0 -0.12451895154E+01  0.96102320527E+01 -0.47302047005E+00  0.97021031566E+01  0.51100000000E-03 0.  1.
         12    1    4    4    0    0  0.16575746294E+02 -0.28931718052E+02 -0.26597890335E+02  0.42652637021E+02  0.00000000000E+00 0. -1.
</event>
<event>
 8    1  0.1229941E-006  0.9118800E+02  0.7816164E-02  0.1184000E+00
        -11   -1    0    0    0    0  0.00000000000E+00  0.00000000000E+00  0.45593999997E+02  0.45594000000E+02  0.51100000000E-03 0.  1.
         11   -1    0    0    0    0 -0.00000000000E+00 -0.00000000000E+00 -0.45593999997E+02  0.45594000000E+02  0.51100000000E-03 0. -1.
         23    2    1    2    0    0  0.00000000000E+00  0.00000000000E+00 -0.88817841970E-15  0.91188000000E+02  0.91188000000E+02 0.  0.
    9900012    2    3    3    0    0  0.31450742355E+02  0.18106134234E+02 -0.62288745587E+01  0.54367079726E+02  0.39999989851E+02 0.  0.
         12    1    3    3    0    0 -0.31450742355E+02 -0.18106134234E+02  0.62288745587E+01  0.36820920274E+02  0.00000000000E+00 0. -1.
         11    1    4    4    0    0  0.29194010236E+01  0.18055180256E+02 -0.80746750754E+01  0.19992819067E+02  0.51100000000E-03 0.  1.
        -11    1    4    4    0    0  0.13468212290E+02 -0.30159399189E+01 -0.81590301763E+01  0.16033041183E+02  0.51100000000E-03 0. -1.
         12    1    4    4    0    0  0.15063129041E+02  0.30668938971E+01  0.10004830693E+02  0.18341219476E+02  0.00000000000E+00 0. -1.
</event>
<event>
 8    1  0.1229941E-006  0.9118800E+02  0.7816164E-02  0.1184000E+00
        -11   -1    0    0    0    0  0.00000000000E+00  0.00000000000E+00  0.45593999997E+02  0.45594000000E+02  0.51100000000E-03 0.  1.
         11   -1    0    0    0    0 -0.00000000000E+00 -0.00000000000E+00 -0.45593999997E+02  0.45594000000E+02  0.51100000000E-03 0. -1.
         23    2    1    2    0    0 -0.66613381478E-15  0.22204460493E-15  0.71054273576E-14  0.91188000000E+02  0.91188000000E+02 0.  0.
    9900012    2    3    3    0    0 -0.17632124287E+01 -0.13100929163E+01 -0.36755327586E+02  0.54367090621E+02  0.40000014689E+02 0.  0.
        -12    1    3    3    0    0  0.17632124287E+01  0.13100929163E+01  0.36755327586E+02  0.36820909379E+02  0.00000000000E+00 0.  1.
         11    1    4    4    0    0 -0.18545864365E+02  0.15519520624E+01 -0.30940129340E+02  0.36106083201E+02  0.51100000000E-03 0. -1.
        -11    1    4    4    0    0  0.97025396361E+01 -0.31440647388E+01 -0.39159592976E+01  0.10925161598E+02  0.51100000000E-03 0.  1.
         12    1    4    4    0    0  0.70801123007E+01  0.28201976015E+00 -0.18992389487E+01  0.73358458217E+01  0.00000000000E+00 0. -1.
</event>
<event>
 8    1  0.1229941E-006  0.9118800E+02  0.7816164E-02  0.1184000E+00
        -11   -1    0    0    0    0  0.00000000000E+00  0.00000000000E+00  0.45593999997E+02  0.45594000000E+02  0.51100000000E-03 0.  1.
         11   -1    0    0    0    0 -0.00000000000E+00 -0.00000000000E+00 -0.45593999997E+02  0.45594000000E+02  0.51100000000E-03 0. -1.
         23    2    1    2    0    0  0.33306690739E-15  0.00000000000E+00  0.35527136788E-14  0.91188000000E+02  0.91188000000E+02 0.  0.
    9900012    2    3    3    0    0 -0.63944309184E+00  0.27210143949E+02 -0.24798822404E+02  0.54367049254E+02  0.39999920385E+02 0.  0.
        -12    1    3    3    0    0  0.63944309184E+00 -0.27210143949E+02  0.24798822404E+02  0.36820950746E+02  0.00000000000E+00 0.  1.
         11    1    4    4    0    0  0.98751881273E+01  0.24610852878E+02 -0.62881391473E+01  0.27253515629E+02  0.51100000000E-03 0. -1.
        -11    1    4    4    0    0  0.23939025254E+01  0.59332655961E+01 -0.48789506292E+01  0.80460281778E+01  0.51100000000E-03 0.  1.
        -12    1    4    4    0    0 -0.12908533744E+02 -0.33339745253E+01 -0.13631732628E+02  0.19067505448E+02  0.00000000000E+00 0.  1.
</event>
<event>
 8    1  0.1229941E-006  0.9118800E+02  0.7816164E-02  0.1184000E+00
        -11   -1    0    0    0    0  0.00000000000E+00  0.00000000000E+00  0.45593999997E+02  0.45594000000E+02  0.51100000000E-03 0. -1.
         11   -1    0    0    0    0 -0.00000000000E+00 -0.00000000000E+00 -0.45593999997E+02  0.45594000000E+02  0.51100000000E-03 0.  1.
         23    2    1    2    0    0  0.00000000000E+00  0.00000000000E+00  0.00000000000E+00  0.91188000000E+02  0.91188000000E+02 0.  0.
    9900012    2    3    3    0    0  0.52194867616E+01 -0.93928254226E+01 -0.35218048551E+02  0.54367093504E+02  0.40000021260E+02 0.  0.
         12    1    3    3    0    0 -0.52194867616E+01  0.93928254226E+01  0.35218048551E+02  0.36820906496E+02  0.00000000000E+00 0. -1.
         11    1    4    4    0    0  0.10412863085E+01 -0.29377869075E+01  0.52479057135E+01  0.61037188442E+01  0.51100000000E-03 0. -1.
        -11    1    4    4    0    0  0.50044971219E+01 -0.15587219232E+02 -0.20062674665E+02  0.25894348993E+02  0.51100000000E-03 0.  1.
        -12    1    4    4    0    0 -0.82629666881E+00  0.91321807166E+01 -0.20403279600E+02  0.22369025666E+02  0.00000000000E+00 0.  1.
</event>
<event>
 8    1  0.1229941E-006  0.9118800E+02  0.7816164E-02  0.1184000E+00
        -11   -1    0    0    0    0  0.00000000000E+00  0.00000000000E+00  0.45593999997E+02  0.45594000000E+02  0.51100000000E-03 0.  1.
         11   -1    0    0    0    0 -0.00000000000E+00 -0.00000000000E+00 -0.45593999997E+02  0.45594000000E+02  0.51100000000E-03 0. -1.
         23    2    1    2    0    0  0.71054273576E-14  0.00000000000E+00  0.00000000000E+00  0.91188000000E+02  0.91188000000E+02 0.  0.
    9900012    2    3    3    0    0  0.33832704305E+02 -0.12232907756E+02 -0.78412076189E+01  0.54367075926E+02  0.39999981188E+02 0.  0.
        -12    1    3    3    0    0 -0.33832704305E+02  0.12232907756E+02  0.78412076189E+01  0.36820924074E+02  0.00000000000E+00 0.  1.
         11    1    4    4    0    0 -0.54088533618E+01 -0.10375714001E+02 -0.61175521051E+01  0.13203619949E+02  0.51100000000E-03 0. -1.
        -11    1    4    4    0    0  0.66773372064E+01  0.64804386507E+00  0.42773348731E+01  0.79562797146E+01  0.51100000000E-03 0.  1.
         12    1    4    4    0    0  0.32564220460E+02 -0.25052376195E+01 -0.60009903870E+01  0.33207176263E+02  0.00000000000E+00 0. -1.
</event>
<event>
 8    1  0.1229941E-006  0.9118800E+02  0.7816164E-02  0.1184000E+00
        -11   -1    0    0    0    0  0.00000000000E+00  0.00000000000E+00  0.45593999997E+02  0.45594000000E+02  0.51100000000E-03 0. -1.
         11   -1    0    0    0    0 -0.00000000000E+00 -0.00000000000E+00 -0.45593999997E+02  0.45594000000E+02  0.51100000000E-03 0.  1.
         23    2    1    2    0    0 -0.17763568394E-14 -0.35527136788E-14  0.00000000000E+00  0.91188000000E+02  0.91188000000E+02 0.  0.
    9900012    2    3    3    0    0  0.11477556521E+02  0.29778472490E+02  0.18365447700E+02  0.54367063065E+02  0.39999951870E+02 0.  0.
        -12    1    3    3    0    0 -0.11477556521E+02 -0.29778472490E+02 -0.18365447700E+02  0.36820936935E+02  0.00000000000E+00 0.  1.
         11    1    4    4    0    0 -0.21864455938E+01  0.11835775479E+02  0.13198689741E+00  0.12036758132E+02  0.51100000000E-03 0.  1.
        -11    1    4    4    0    0  0.17638223440E+02 -0.94979886348E+00  0.34100676974E+01  0.17989930683E+02  0.51100000000E-03 0. -1.
         12    1    4    4    0    0 -0.39742213256E+01  0.18892495874E+02  0.14823393105E+02  0.24340374251E+02  0.00000000000E+00 0. -1.
</event>
<event>
 8    1  0.1229941E-006  0.9118800E+02  0.7816164E-02  0.1184000E+00
        -11   -1    0    0    0    0  0.00000000000E+00  0.00000000000E+00  0.45593999997E+02  0.45594000000E+02  0.51100000000E-03 0.  1.
         11   -1    0    0    0    0 -0.00000000000E+00 -0.00000000000E+00 -0.45593999997E+02  0.45594000000E+02  0.51100000000E-03 0. -1.
         23    2    1    2    0    0  0.00000000000E+00 -0.77715611724E-15  0.00000000000E+00  0.91188000000E+02  0.91188000000E+02 0.  0.
    9900012    2    3    3    0    0 -0.18919890871E+02  0.40477197680E+00 -0.31585642218E+02  0.54367096898E+02  0.40000028999E+02 0.  0.
        -12    1    3    3    0    0  0.18919890871E+02 -0.40477197680E+00  0.31585642218E+02  0.36820903102E+02  0.00000000000E+00 0.  1.
         11    1    4    4    0    0 -0.16222388165E+02  0.91774718397E+01 -0.11058441502E+02  0.21672124859E+02  0.51100000000E-03 0. -1.
        -11    1    4    4    0    0 -0.13077661975E+02 -0.53964649885E+01 -0.87370071058E+01  0.16627759035E+02  0.51100000000E-03 0.  1.
        -12    1    4    4    0    0  0.10380159269E+02 -0.33762348744E+01 -0.11790193609E+02  0.16067213004E+02  0.00000000000E+00 0.  1.
</event>
<event>
 8    1  0.1229941E-006  0.9118800E+02  0.7816164E-02  0.1184000E+00
        -11   -1    0    0    0    0  0.00000000000E+00  0.00000000000E+00  0.45593999997E+02  0.45594000000E+02  0.51100000000E-03 0.  1.
         11   -1    0    0    0    0 -0.00000000000E+00 -0.00000000000E+00 -0.45593999997E+02  0.45594000000E+02  0.51100000000E-03 0. -1.
         23    2    1    2    0    0  0.00000000000E+00  0.00000000000E+00  0.22204460493E-14  0.91188000000E+02  0.91188000000E+02 0.  0.
    9900012    2    3    3    0    0  0.10456222905E+02 -0.35300513595E+02  0.56512292218E+00  0.54367106184E+02  0.40000050168E+02 0.  0.
         12    1    3    3    0    0 -0.10456222905E+02  0.35300513595E+02 -0.56512292218E+00  0.36820893816E+02  0.00000000000E+00 0. -1.
         11    1    4    4    0    0 -0.37208692743E+01 -0.15367245252E+02  0.17344352806E+02  0.23469632918E+02  0.51100000000E-03 0. -1.
        -11    1    4    4    0    0  0.75448292513E+01 -0.54734779168E+01 -0.28343902903E+01  0.97425447146E+01  0.51100000000E-03 0.  1.
         12    1    4    4    0    0  0.66322629279E+01 -0.14459790426E+02 -0.13944839594E+02  0.21154928551E+02  0.00000000000E+00 0. -1.
</event>
<event>
 8    1  0.1229941E-006  0.9118800E+02  0.7816164E-02  0.1184000E+00
        -11   -1    0    0    0    0  0.00000000000E+00  0.00000000000E+00  0.45593999997E+02  0.45594000000E+02  0.51100000000E-03 0.  1.
         11   -1    0    0    0    0 -0.00000000000E+00 -0.00000000000E+00 -0.45593999997E+02  0.45594000000E+02  0.51100000000E-03 0. -1.
         23    2    1    2    0    0  0.17763568394E-14  0.77715611724E-15  0.00000000000E+00  0.91188000000E+02  0.91188000000E+02 0.  0.
    9900012    2    3    3    0    0 -0.90811817535E+01  0.58803901475E+00  0.35678756912E+02  0.54366982270E+02  0.39999767679E+02 0.  0.
         12    1    3    3    0    0  0.90811817535E+01 -0.58803901475E+00 -0.35678756912E+02  0.36821017730E+02  0.00000000000E+00 0. -1.
         11    1    4    4    0    0 -0.15930605359E+02  0.88596346276E+01  0.11847214220E+02  0.21740142545E+02  0.51100000000E-03 0. -1.
        -11    1    4    4    0    0 -0.28023617899E+01  0.15838919336E+01 -0.16752563138E+01  0.36288330406E+01  0.51100000000E-03 0.  1.
        -12    1    4    4    0    0  0.96517853958E+01 -0.98554875465E+01  0.25506799006E+02  0.28998006683E+02  0.00000000000E+00 0.  1.
</event>
<event>
 8    1  0.1229941E-006  0.9118800E+02  0.7816164E-02  0.1184000E+00
        -11   -1    0    0    0    0  0.00000000000E+00  0.00000000000E+00  0.45593999997E+02  0.45594000000E+02  0.51100000000E-03 0.  1.
         11   -1    0    0    0    0 -0.00000000000E+00 -0.00000000000E+00 -0.45593999997E+02  0.45594000000E+02  0.51100000000E-03 0. -1.
         23    2    1    2    0    0  0.44408920985E-15  0.17763568394E-14 -0.71054273576E-14  0.91188000000E+02  0.91188000000E+02 0.  0.
    9900012    2    3    3    0    0 -0.25861928837E+01  0.10589713336E+02 -0.35170255842E+02  0.54367118449E+02  0.40000078129E+02 0.  0.
        -12    1    3    3    0    0  0.25861928837E+01 -0.10589713336E+02  0.35170255842E+02  0.36820881551E+02  0.00000000000E+00 0.  1.
         11    1    4    4    0    0 -0.77749999907E+01  0.28901178827E+01 -0.71421387425E+00  0.83254734371E+01  0.51100000000E-03 0. -1.
        -11    1    4    4    0    0  0.37853714150E+00  0.18572405838E+02 -0.19437885212E+02  0.26886965815E+02  0.51100000000E-03 0.  1.
        -12    1    4    4    0    0  0.48102699656E+01 -0.10872810385E+02 -0.15018156756E+02  0.19154679197E+02  0.00000000000E+00 0.  1.
</event>
<event>
 8    1  0.1229941E-006  0.9118800E+02  0.7816164E-02  0.1184000E+00
        -11   -1    0    0    0    0  0.00000000000E+00  0.00000000000E+00  0.45593999997E+02  0.45594000000E+02  0.51100000000E-03 0. -1.
         11   -1    0    0    0    0 -0.00000000000E+00 -0.00000000000E+00 -0.45593999997E+02  0.45594000000E+02  0.51100000000E-03 0.  1.
         23    2    1    2    0    0  0.17763568394E-14  0.00000000000E+00 -0.71054273576E-14  0.91188000000E+02  0.91188000000E+02 0.  0.
    9900012    2    3    3    0    0 -0.12736155988E+02  0.65356768575E+01  0.33924233387E+02  0.54367104407E+02  0.40000046117E+02 0.  0.
        -12    1    3    3    0    0  0.12736155988E+02 -0.65356768575E+01 -0.33924233387E+02  0.36820895593E+02  0.00000000000E+00 0.  1.
         11    1    4    4    0    0  0.67139708161E+01  0.10992875906E+02  0.21525211952E+02  0.25084965112E+02  0.51100000000E-03 0. -1.
        -11    1    4    4    0    0 -0.71837704390E+01  0.67540410166E+01  0.37598231318E+01  0.10552719935E+02  0.51100000000E-03 0.  1.
        -12    1    4    4    0    0 -0.12266356365E+02 -0.11211240065E+02  0.86391983033E+01  0.18729419361E+02  0.00000000000E+00 0.  1.
</event>
<event>
 8    1  0.1229941E-006  0.9118800E+02  0.7816164E-02  0.1184000E+00
        -11   -1    0    0    0    0  0.00000000000E+00  0.00000000000E+00  0.45593999997E+02  0.45594000000E+02  0.51100000000E-03 0.  1.
         11   -1    0    0    0    0 -0.00000000000E+00 -0.00000000000E+00 -0.45593999997E+02  0.45594000000E+02  0.51100000000E-03 0. -1.
         23    2    1    2    0    0  0.00000000000E+00  0.00000000000E+00  0.00000000000E+00  0.91188000000E+02  0.91188000000E+02 0.  0.
    9900012    2    3    3    0    0  0.24396193441E+02 -0.15379034545E+02 -0.22893011619E+02  0.54367096440E+02  0.40000027954E+02 0.  0.
         12    1    3    3    0    0 -0.24396193441E+02  0.15379034545E+02  0.22893011619E+02  0.36820903560E+02  0.00000000000E+00 0. -1.
         11    1    4    4    0    0  0.15679870735E+02  0.21825628354E+01 -0.34054965497E+00  0.15834705590E+02  0.51100000000E-03 0. -1.
        -11    1    4    4    0    0 -0.84933241707E+01 -0.44771447671E+01 -0.62577197226E+01  0.11460385557E+02  0.51100000000E-03 0.  1.
         12    1    4    4    0    0  0.17209646877E+02 -0.13084452613E+02 -0.16294742242E+02  0.27072005292E+02  0.00000000000E+00 0. -1.
</event>
<event>
 8    1  0.1229941E-006  0.9118800E+02  0.7816164E-02  0.1184000E+00
        -11   -1    0    0    0    0  0.00000000000E+00  0.00000000000E+00  0.45593999997E+02  0.45594000000E+02  0.51100000000E-03 0.  1.
         11   -1    0    0    0    0 -0.00000000000E+00 -0.00000000000E+00 -0.45593999997E+02  0.45594000000E+02  0.51100000000E-03 0. -1.
         23    2    1    2    0    0  0.00000000000E+00  0.00000000000E+00 -0.35527136788E-14  0.91188000000E+02  0.91188000000E+02 0.  0.
    9900012    2    3    3    0    0  0.31977162587E+02  0.42385867257E+01  0.17756024493E+02  0.54367069127E+02  0.39999965689E+02 0.  0.
         12    1    3    3    0    0 -0.31977162587E+02 -0.42385867257E+01 -0.17756024493E+02  0.36820930873E+02  0.00000000000E+00 0. -1.
         11    1    4    4    0    0 -0.15233607259E+01  0.97076770170E+00  0.24470042600E+01  0.30415206626E+01  0.51100000000E-03 0. -1.
        -11    1    4    4    0    0  0.26126993935E+02  0.17123492846E+01  0.26875189754E+02  0.37521031126E+02  0.51100000000E-03 0.  1.
        -12    1    4    4    0    0  0.73735293774E+01  0.15554697395E+01 -0.11566169520E+02  0.13804517339E+02  0.00000000000E+00 0.  1.
</event>
<event>
 8    1  0.1229941E-006  0.9118800E+02  0.7816164E-02  0.1184000E+00
        -11   -1    0    0    0    0  0.00000000000E+00  0.00000000000E+00  0.45593999997E+02  0.45594000000E+02  0.51100000000E-03 0.  1.
         11   -1    0    0    0    0 -0.00000000000E+00 -0.00000000000E+00 -0.45593999997E+02  0.45594000000E+02  0.51100000000E-03 0. -1.
         23    2    1    2    0    0  0.88817841970E-15  0.00000000000E+00  0.35527136788E-14  0.91188000000E+02  0.91188000000E+02 0.  0.
    9900012    2    3    3    0    0 -0.49087365824E+01 -0.26692386993E+02  0.24883745097E+02  0.54367082191E+02  0.39999995472E+02 0.  0.
        -12    1    3    3    0    0  0.49087365824E+01  0.26692386993E+02 -0.24883745097E+02  0.36820917809E+02  0.00000000000E+00 0.  1.
         11    1    4    4    0    0 -0.69121008026E+01 -0.30029508889E+01  0.57265485431E+01  0.94651048607E+01  0.51100000000E-03 0. -1.
        -11    1    4    4    0    0 -0.40028908804E+01  0.70507530418E+01 -0.14769728380E+00  0.81091348864E+01  0.51100000000E-03 0.  1.
        -12    1    4    4    0    0  0.60062551007E+01 -0.30740189146E+02  0.19304893837E+02  0.36792842444E+02  0.00000000000E+00 0.  1.
</event>
<event>
 8    1  0.1229941E-006  0.9118800E+02  0.7816164E-02  0.1184000E+00
        -11   -1    0    0    0    0  0.00000000000E+00  0.00000000000E+00  0.45593999997E+02  0.45594000000E+02  0.51100000000E-03 0.  1.
         11   -1    0    0    0    0 -0.00000000000E+00 -0.00000000000E+00 -0.45593999997E+02  0.45594000000E+02  0.51100000000E-03 0. -1.
         23    2    1    2    0    0  0.00000000000E+00  0.88817841970E-15  0.35527136788E-14  0.91188000000E+02  0.91188000000E+02 0.  0.
    9900012    2    3    3    0    0 -0.27567244224E+02  0.48391525836E+01  0.23925079851E+02  0.54367084779E+02  0.40000001371E+02 0.  0.
         12    1    3    3    0    0  0.27567244224E+02 -0.48391525836E+01 -0.23925079851E+02  0.36820915221E+02  0.00000000000E+00 0. -1.
         11    1    4    4    0    0 -0.13238049724E+02 -0.16559798716E+01  0.15820607229E+02  0.20694923126E+02  0.51100000000E-03 0. -1.
        -11    1    4    4    0    0 -0.37032453225E+01 -0.11309139380E+02  0.38381824588E+01  0.12503691626E+02  0.51100000000E-03 0.  1.
         12    1    4    4    0    0 -0.10625949177E+02  0.17804271836E+02  0.42662901626E+01  0.21168470027E+02  0.00000000000E+00 0. -1.
</event>
<event>
 8    1  0.1229941E-006  0.9118800E+02  0.7816164E-02  0.1184000E+00
        -11   -1    0    0    0    0  0.00000000000E+00  0.00000000000E+00  0.45593999997E+02  0.45594000000E+02  0.51100000000E-03 0.  1.
         11   -1    0    0    0    0 -0.00000000000E+00 -0.00000000000E+00 -0.45593999997E+02  0.45594000000E+02  0.51100000000E-03 0. -1.
         23    2    1    2    0    0  0.00000000000E+00  0.00000000000E+00  0.00000000000E+00  0.91188000000E+02  0.91188000000E+02 0.  0.
    9900012    2    3    3    0    0 -0.17129160125E+02 -0.59556940151E+01 -0.32045291661E+02  0.54367093772E+02  0.40000021872E+02 0.  0.
        -12    1    3    3    0    0  0.17129160125E+02  0.59556940151E+01  0.32045291661E+02  0.36820906228E+02  0.00000000000E+00 0.  1.
         11    1    4    4    0    0 -0.20430006561E+02  0.30377798752E+01 -0.28780483543E+02  0.35424984232E+02  0.51100000000E-03 0.  1.
        -11    1    4    4    0    0 -0.55083944871E+01 -0.35348565334E+01 -0.52498085889E+01  0.83903582175E+01  0.51100000000E-03 0. -1.
        -12    1    4    4    0    0  0.88092409235E+01 -0.54586173569E+01  0.19850004702E+01  0.10551751322E+02  0.00000000000E+00 0.  1.
</event>
<event>
 8    1  0.1229941E-006  0.9118800E+02  0.7816164E-02  0.1184000E+00
        -11   -1    0    0    0    0  0.00000000000E+00  0.00000000000E+00  0.45593999997E+02  0.45594000000E+02  0.51100000000E-03 0.  1.
         11   -1    0    0    0    0 -0.00000000000E+00 -0.00000000000E+00 -0.45593999997E+02  0.45594000000E+02  0.51100000000E-03 0. -1.
         23    2    1    2    0    0 -0.17763568394E-14  0.00000000000E+00  0.00000000000E+00  0.91188000000E+02  0.91188000000E+02 0.  0.
    9900012    2    3    3    0    0 -0.14318475188E+02  0.12955224122E+02 -0.31351531788E+02  0.54367148446E+02  0.40000146512E+02 0.  0.
        -12    1    3    3    0    0  0.14318475188E+02 -0.12955224122E+02  0.31351531788E+02  0.36820851554E+02  0.00000000000E+00 0.  1.
         11    1    4    4    0    0 -0.16266152836E+02  0.15833402393E+02 -0.11732842233E+02  0.25552767884E+02  0.51100000000E-03 0. -1.
        -11    1    4    4    0    0  0.66032658171E+00  0.37300962683E+01  0.32400958085E+01  0.49847638334E+01  0.51100000000E-03 0.  1.
        -12    1    4    4    0    0  0.12873510664E+01 -0.66082745394E+01 -0.22858785363E+02  0.23829616728E+02  0.00000000000E+00 0.  1.
</event>
<event>
 8    1  0.1229941E-006  0.9118800E+02  0.7816164E-02  0.1184000E+00
        -11   -1    0    0    0    0  0.00000000000E+00  0.00000000000E+00  0.45593999997E+02  0.45594000000E+02  0.51100000000E-03 0. -1.
         11   -1    0    0    0    0 -0.00000000000E+00 -0.00000000000E+00 -0.45593999997E+02  0.45594000000E+02  0.51100000000E-03 0.  1.
         23    2    1    2    0    0  0.00000000000E+00  0.00000000000E+00  0.00000000000E+00  0.91188000000E+02  0.91188000000E+02 0.  0.
    9900012    2    3    3    0    0  0.38038855098E+01 -0.92533943053E+01 -0.35435650273E+02  0.54367079841E+02  0.39999990112E+02 0.  0.
         12    1    3    3    0    0 -0.38038855098E+01  0.92533943053E+01  0.35435650273E+02  0.36820920159E+02  0.00000000000E+00 0. -1.
         11    1    4    4    0    0  0.67801696678E+01 -0.13718085947E+01 -0.23541299639E+01  0.73071531866E+01  0.51100000000E-03 0. -1.
        -11    1    4    4    0    0  0.12847753094E+02 -0.66362512528E+01 -0.59715440482E+01  0.15644933009E+02  0.51100000000E-03 0.  1.
         12    1    4    4    0    0 -0.15824037252E+02 -0.12453344579E+01 -0.27109976261E+02  0.31414993645E+02  0.00000000000E+00 0. -1.
</event>
<event>
 8    1  0.1229941E-006  0.9118800E+02  0.7816164E-02  0.1184000E+00
        -11   -1    0    0    0    0  0.00000000000E+00  0.00000000000E+00  0.45593999997E+02  0.45594000000E+02  0.51100000000E-03 0.  1.
         11   -1    0    0    0    0 -0.00000000000E+00 -0.00000000000E+00 -0.45593999997E+02  0.45594000000E+02  0.51100000000E-03 0. -1.
         23    2    1    2    0    0  0.00000000000E+00  0.00000000000E+00  0.00000000000E+00  0.91188000000E+02  0.91188000000E+02 0.  0.
    9900012    2    3    3    0    0  0.21392335110E+02 -0.15430805767E+02  0.25691222650E+02  0.54367072671E+02  0.39999973769E+02 0.  0.
         12    1    3    3    0    0 -0.21392335110E+02  0.15430805767E+02 -0.25691222650E+02  0.36820927329E+02  0.00000000000E+00 0. -1.
         11    1    4    4    0    0  0.76948871827E+01 -0.68801353125E+01  0.16720510114E+02  0.19650012962E+02  0.51100000000E-03 0. -1.
        -11    1    4    4    0    0  0.10848200178E+02 -0.81277799043E+01  0.19529294395E+02  0.23772622765E+02  0.51100000000E-03 0.  1.
         12    1    4    4    0    0  0.28492477489E+01 -0.42289055059E+00 -0.10558581859E+02  0.10944436945E+02  0.00000000000E+00 0. -1.
</event>
<event>
 8    1  0.1229941E-006  0.9118800E+02  0.7816164E-02  0.1184000E+00
        -11   -1    0    0    0    0  0.00000000000E+00  0.00000000000E+00  0.45593999997E+02  0.45594000000E+02  0.51100000000E-03 0.  1.
         11   -1    0    0    0    0 -0.00000000000E+00 -0.00000000000E+00 -0.45593999997E+02  0.45594000000E+02  0.51100000000E-03 0. -1.
         23    2    1    2    0    0  0.00000000000E+00  0.17763568394E-14  0.44408920985E-15  0.91188000000E+02  0.91188000000E+02 0.  0.
    9900012    2    3    3    0    0  0.36034961750E+02 -0.72063553599E+01  0.23086683075E+01  0.54367082368E+02  0.39999995874E+02 0.  0.
        -12    1    3    3    0    0 -0.36034961750E+02  0.72063553599E+01 -0.23086683075E+01  0.36820917632E+02  0.00000000000E+00 0.  1.
         11    1    4    4    0    0  0.25956261209E+02  0.93393572825E+01 -0.66795409530E+01  0.28382518529E+02  0.51100000000E-03 0. -1.
        -11    1    4    4    0    0  0.11915128351E+02 -0.74539469271E+01  0.90366473362E+01  0.16709057536E+02  0.51100000000E-03 0.  1.
         12    1    4    4    0    0 -0.18364278101E+01 -0.90917657153E+01 -0.48438075702E-01  0.92755063027E+01  0.00000000000E+00 0. -1.
</event>
<event>
 8    1  0.1229941E-006  0.9118800E+02  0.7816164E-02  0.1184000E+00
        -11   -1    0    0    0    0  0.00000000000E+00  0.00000000000E+00  0.45593999997E+02  0.45594000000E+02  0.51100000000E-03 0.  1.
         11   -1    0    0    0    0 -0.00000000000E+00 -0.00000000000E+00 -0.45593999997E+02  0.45594000000E+02  0.51100000000E-03 0. -1.
         23    2    1    2    0    0  0.00000000000E+00  0.35527136788E-14  0.00000000000E+00  0.91188000000E+02  0.91188000000E+02 0.  0.
    9900012    2    3    3    0    0  0.20789712668E+02  0.24006792783E+02  0.18634404455E+02  0.54367091783E+02  0.40000017337E+02 0.  0.
         12    1    3    3    0    0 -0.20789712668E+02 -0.24006792783E+02 -0.18634404455E+02  0.36820908217E+02  0.00000000000E+00 0. -1.
         11    1    4    4    0    0  0.47972521109E+01  0.26597501023E+02 -0.31324287375E+01  0.27207587151E+02  0.51100000000E-03 0. -1.
        -11    1    4    4    0    0  0.80791822888E+01 -0.17926605958E+01  0.10532136992E+02  0.13394503661E+02  0.51100000000E-03 0.  1.
         12    1    4    4    0    0  0.79132782686E+01 -0.79804764425E+00  0.11234696201E+02  0.13765000971E+02  0.00000000000E+00 0. -1.
</event>
<event>
 8    1  0.1229941E-006  0.9118800E+02  0.7816164E-02  0.1184000E+00
        -11   -1    0    0    0    0  0.00000000000E+00  0.00000000000E+00  0.45593999997E+02  0.45594000000E+02  0.51100000000E-03 0.  1.
         11   -1    0    0    0    0 -0.00000000000E+00 -0.00000000000E+00 -0.45593999997E+02  0.45594000000E+02  0.51100000000E-03 0. -1.
         23    2    1    2    0    0 -0.35527136788E-14 -0.35527136788E-14 -0.71054273576E-14  0.91188000000E+02  0.91188000000E+02 0.  0.
    9900012    2    3    3    0    0  0.13049655007E+02  0.16903707334E+02  0.29995848160E+02  0.54367085777E+02  0.40000003646E+02 0.  0.
         12    1    3    3    0    0 -0.13049655007E+02 -0.16903707334E+02 -0.29995848160E+02  0.36820914223E+02  0.00000000000E+00 0. -1.
         11    1    4    4    0    0  0.98274592700E+01  0.19048385299E+02  0.46394004175E+01  0.21930434896E+02  0.51100000000E-03 0. -1.
        -11    1    4    4    0    0 -0.24371032940E+01  0.38053386192E+01 -0.11703375969E+01  0.46679508164E+01  0.51100000000E-03 0.  1.
        -12    1    4    4    0    0  0.56592990305E+01 -0.59500165848E+01  0.26526785339E+02  0.27768700065E+02  0.00000000000E+00 0.  1.
</event>
<event>
 8    1  0.1229941E-006  0.9118800E+02  0.7816164E-02  0.1184000E+00
        -11   -1    0    0    0    0  0.00000000000E+00  0.00000000000E+00  0.45593999997E+02  0.45594000000E+02  0.51100000000E-03 0.  1.
         11   -1    0    0    0    0 -0.00000000000E+00 -0.00000000000E+00 -0.45593999997E+02  0.45594000000E+02  0.51100000000E-03 0. -1.
         23    2    1    2    0    0 -0.88817841970E-15 -0.17763568394E-14  0.00000000000E+00  0.91188000000E+02  0.91188000000E+02 0.  0.
    9900012    2    3    3    0    0  0.57287638648E+01 -0.53852142735E+01  0.35971701266E+02  0.54367047268E+02  0.39999915856E+02 0.  0.
         12    1    3    3    0    0 -0.57287638648E+01  0.53852142735E+01 -0.35971701266E+02  0.36820952732E+02  0.00000000000E+00 0. -1.
         11    1    4    4    0    0  0.39903044527E+01  0.48723576302E+01  0.10143738272E+02  0.11939758159E+02  0.51100000000E-03 0. -1.
        -11    1    4    4    0    0 -0.29305971544E+01  0.11070033932E+02  0.11982760079E+02  0.16574697292E+02  0.51100000000E-03 0.  1.
         12    1    4    4    0    0  0.46690565664E+01 -0.21327605836E+02  0.13845202915E+02  0.25852591817E+02  0.00000000000E+00 0. -1.
</event>
<event>
 8    1  0.1229941E-006  0.9118800E+02  0.7816164E-02  0.1184000E+00
        -11   -1    0    0    0    0  0.00000000000E+00  0.00000000000E+00  0.45593999997E+02  0.45594000000E+02  0.51100000000E-03 0.  1.
         11   -1    0    0    0    0 -0.00000000000E+00 -0.00000000000E+00 -0.45593999997E+02  0.45594000000E+02  0.51100000000E-03 0. -1.
         23    2    1    2    0    0  0.00000000000E+00  0.17763568394E-14  0.00000000000E+00  0.91188000000E+02  0.91188000000E+02 0.  0.
    9900012    2    3    3    0    0  0.12544966293E+02  0.55678342448E+01  0.34167274578E+02  0.54367087334E+02  0.40000007195E+02 0.  0.
         12    1    3    3    0    0 -0.12544966293E+02 -0.55678342448E+01 -0.34167274578E+02  0.36820912666E+02  0.00000000000E+00 0. -1.
         11    1    4    4    0    0  0.89823700381E+00 -0.28412735322E+01 -0.90985708112E+00  0.31156869498E+01  0.51100000000E-03 0. -1.
        -11    1    4    4    0    0  0.14706074756E+02  0.19037671582E+02  0.15058456093E+02  0.28380603837E+02  0.51100000000E-03 0.  1.
        -12    1    4    4    0    0 -0.30593454670E+01 -0.10628563805E+02  0.20018675566E+02  0.22870796547E+02  0.00000000000E+00 0.  1.
</event>
<event>
 8    1  0.1229941E-006  0.9118800E+02  0.7816164E-02  0.1184000E+00
        -11   -1    0    0    0    0  0.00000000000E+00  0.00000000000E+00  0.45593999997E+02  0.45594000000E+02  0.51100000000E-03 0.  1.
         11   -1    0    0    0    0 -0.00000000000E+00 -0.00000000000E+00 -0.45593999997E+02  0.45594000000E+02  0.51100000000E-03 0. -1.
         23    2    1    2    0    0  0.00000000000E+00 -0.17763568394E-14  0.00000000000E+00  0.91188000000E+02  0.91188000000E+02 0.  0.
    9900012    2    3    3    0    0 -0.31958996698E+02 -0.14724359458E+02  0.10844162271E+02  0.54367080854E+02  0.39999992422E+02 0.  0.
        -12    1    3    3    0    0  0.31958996698E+02  0.14724359458E+02 -0.10844162271E+02  0.36820919146E+02  0.00000000000E+00 0.  1.
         11    1    4    4    0    0 -0.13720502471E+01 -0.34404245697E+01 -0.89111724815E+01  0.96502869573E+01  0.51100000000E-03 0. -1.
        -11    1    4    4    0    0  0.12291486803E+01  0.37290454174E+01 -0.74907648730E+00  0.39972117843E+01  0.51100000000E-03 0.  1.
        -12    1    4    4    0    0 -0.31816095132E+02 -0.15012980306E+02  0.20504411240E+02  0.40719582112E+02  0.00000000000E+00 0.  1.
</event>
<event>
 8    1  0.1229941E-006  0.9118800E+02  0.7816164E-02  0.1184000E+00
        -11   -1    0    0    0    0  0.00000000000E+00  0.00000000000E+00  0.45593999997E+02  0.45594000000E+02  0.51100000000E-03 0.  1.
         11   -1    0    0    0    0 -0.00000000000E+00 -0.00000000000E+00 -0.45593999997E+02  0.45594000000E+02  0.51100000000E-03 0. -1.
         23    2    1    2    0    0  0.00000000000E+00  0.00000000000E+00  0.00000000000E+00  0.91188000000E+02  0.91188000000E+02 0.  0.
    9900012    2    3    3    0    0  0.23133871562E+02  0.21853286396E+01  0.28562715142E+02  0.54367076994E+02  0.39999983624E+02 0.  0.
         12    1    3    3    0    0 -0.23133871562E+02 -0.21853286396E+01 -0.28562715142E+02  0.36820923006E+02  0.00000000000E+00 0. -1.
         11    1    4    4    0    0  0.21168018663E+01  0.34544793256E+01  0.17979310914E+02  0.18430135614E+02  0.51100000000E-03 0. -1.
        -11    1    4    4    0    0  0.61805299018E+01  0.54232488343E+01  0.16647851021E+02  0.18567754890E+02  0.51100000000E-03 0.  1.
         12    1    4    4    0    0  0.14836539794E+02 -0.66923995203E+01 -0.60644467936E+01  0.17369186490E+02  0.00000000000E+00 0. -1.
</event>
<event>
 8    1  0.1229941E-006  0.9118800E+02  0.7816164E-02  0.1184000E+00
        -11   -1    0    0    0    0  0.00000000000E+00  0.00000000000E+00  0.45593999997E+02  0.45594000000E+02  0.51100000000E-03 0. -1.
         11   -1    0    0    0    0 -0.00000000000E+00 -0.00000000000E+00 -0.45593999997E+02  0.45594000000E+02  0.51100000000E-03 0.  1.
         23    2    1    2    0    0 -0.35527136788E-14  0.00000000000E+00 -0.71054273576E-14  0.91188000000E+02  0.91188000000E+02 0.  0.
    9900012    2    3    3    0    0 -0.15779886182E+02 -0.10621970181E+02 -0.31526959730E+02  0.54367078661E+02  0.39999987424E+02 0.  0.
         12    1    3    3    0    0  0.15779886182E+02  0.10621970181E+02  0.31526959730E+02  0.36820921339E+02  0.00000000000E+00 0. -1.
         11    1    4    4    0    0 -0.18418167540E+02  0.94392699489E+01 -0.13279971452E+02  0.24590371179E+02  0.51100000000E-03 0. -1.
        -11    1    4    4    0    0 -0.18070838371E+01 -0.17207091096E+00 -0.53723990895E+01  0.56707876552E+01  0.51100000000E-03 0.  1.
        -12    1    4    4    0    0  0.44453651955E+01 -0.19889169219E+02 -0.12874589189E+02  0.24105919827E+02  0.00000000000E+00 0.  1.
</event>
<event>
 8    1  0.1229941E-006  0.9118800E+02  0.7816164E-02  0.1184000E+00
        -11   -1    0    0    0    0  0.00000000000E+00  0.00000000000E+00  0.45593999997E+02  0.45594000000E+02  0.51100000000E-03 0.  1.
         11   -1    0    0    0    0 -0.00000000000E+00 -0.00000000000E+00 -0.45593999997E+02  0.45594000000E+02  0.51100000000E-03 0. -1.
         23    2    1    2    0    0  0.00000000000E+00  0.00000000000E+00  0.00000000000E+00  0.91188000000E+02  0.91188000000E+02 0.  0.
    9900012    2    3    3    0    0  0.28351510044E+02 -0.15151679245E+02  0.17955450336E+02  0.54367086072E+02  0.40000004318E+02 0.  0.
         12    1    3    3    0    0 -0.28351510044E+02  0.15151679245E+02 -0.17955450336E+02  0.36820913928E+02  0.00000000000E+00 0. -1.
         11    1    4    4    0    0 -0.33514809686E+01  0.77420299843E+00 -0.32371237102E+00  0.34549392073E+01  0.51100000000E-03 0. -1.
        -11    1    4    4    0    0  0.95007495459E+01  0.24323414545E+01 -0.74266689917E+01  0.12301867316E+02  0.51100000000E-03 0.  1.
        -12    1    4    4    0    0  0.22202241467E+02 -0.18358223698E+02  0.25705831699E+02  0.38610279549E+02  0.00000000000E+00 0.  1.
</event>
<event>
 8    1  0.1229941E-006  0.9118800E+02  0.7816164E-02  0.1184000E+00
        -11   -1    0    0    0    0  0.00000000000E+00  0.00000000000E+00  0.45593999997E+02  0.45594000000E+02  0.51100000000E-03 0.  1.
         11   -1    0    0    0    0 -0.00000000000E+00 -0.00000000000E+00 -0.45593999997E+02  0.45594000000E+02  0.51100000000E-03 0. -1.
         23    2    1    2    0    0  0.00000000000E+00  0.00000000000E+00  0.00000000000E+00  0.91188000000E+02  0.91188000000E+02 0.  0.
    9900012    2    3    3    0    0 -0.34260000052E+02 -0.12562899805E+02 -0.49198220965E+01  0.54367099624E+02  0.40000035212E+02 0.  0.
        -12    1    3    3    0    0  0.34260000052E+02  0.12562899805E+02  0.49198220965E+01  0.36820900376E+02  0.00000000000E+00 0.  1.
         11    1    4    4    0    0 -0.28597696965E+02 -0.15229612911E+02 -0.43100141182E+01  0.32685556491E+02  0.51100000000E-03 0. -1.
        -11    1    4    4    0    0 -0.55212186168E+01  0.47328357895E+00  0.96830720019E+01  0.11156600558E+02  0.51100000000E-03 0.  1.
         12    1    4    4    0    0 -0.14108446968E+00  0.21934295272E+01 -0.10292879980E+02  0.10524942575E+02  0.00000000000E+00 0. -1.
</event>
<event>
 8    1  0.1229941E-006  0.9118800E+02  0.7816164E-02  0.1184000E+00
        -11   -1    0    0    0    0  0.00000000000E+00  0.00000000000E+00  0.45593999997E+02  0.45594000000E+02  0.51100000000E-03 0.  1.
         11   -1    0    0    0    0 -0.00000000000E+00 -0.00000000000E+00 -0.45593999997E+02  0.45594000000E+02  0.51100000000E-03 0. -1.
         23    2    1    2    0    0  0.00000000000E+00 -0.35527136788E-14 -0.13322676296E-14  0.91188000000E+02  0.91188000000E+02 0.  0.
    9900012    2    3    3    0    0  0.19296232877E+02  0.31116381118E+02 -0.38995316793E+01  0.54367080343E+02  0.39999991257E+02 0.  0.
        -12    1    3    3    0    0 -0.19296232877E+02 -0.31116381118E+02  0.38995316793E+01  0.36820919657E+02  0.00000000000E+00 0.  1.
         11    1    4    4    0    0  0.81846018288E+01  0.28721502152E+02 -0.17945170503E+02  0.34841663818E+02  0.51100000000E-03 0. -1.
        -11    1    4    4    0    0  0.65312249155E+01  0.41230719563E+01  0.11884928893E+02  0.14174207431E+02  0.51100000000E-03 0.  1.
         12    1    4    4    0    0  0.45804061323E+01 -0.17281929908E+01  0.21607099311E+01  0.53512090930E+01  0.00000000000E+00 0. -1.
</event>
<event>
 8    1  0.1229941E-006  0.9118800E+02  0.7816164E-02  0.1184000E+00
        -11   -1    0    0    0    0  0.00000000000E+00  0.00000000000E+00  0.45593999997E+02  0.45594000000E+02  0.51100000000E-03 0. -1.
         11   -1    0    0    0    0 -0.00000000000E+00 -0.00000000000E+00 -0.45593999997E+02  0.45594000000E+02  0.51100000000E-03 0.  1.
         23    2    1    2    0    0 -0.35527136788E-14 -0.22204460493E-14  0.00000000000E+00  0.91188000000E+02  0.91188000000E+02 0.  0.
    9900012    2    3    3    0    0  0.29294249990E+02  0.33154302692E+01 -0.22059823171E+02  0.54367069014E+02  0.39999965432E+02 0.  0.
         12    1    3    3    0    0 -0.29294249990E+02 -0.33154302692E+01  0.22059823171E+02  0.36820930986E+02  0.00000000000E+00 0. -1.
         11    1    4    4    0    0  0.13540877116E+01 -0.12249105523E+02 -0.86297708513E+00  0.12353900977E+02  0.51100000000E-03 0. -1.
        -11    1    4    4    0    0  0.45042503864E+01 -0.21838194134E+01 -0.87668396872E+01  0.10095286877E+02  0.51100000000E-03 0.  1.
        -12    1    4    4    0    0  0.23435911892E+02  0.17748355205E+02 -0.12430006399E+02  0.31917881160E+02  0.00000000000E+00 0.  1.
</event>
<event>
 8    1  0.1229941E-006  0.9118800E+02  0.7816164E-02  0.1184000E+00
        -11   -1    0    0    0    0  0.00000000000E+00  0.00000000000E+00  0.45593999997E+02  0.45594000000E+02  0.51100000000E-03 0. -1.
         11   -1    0    0    0    0 -0.00000000000E+00 -0.00000000000E+00 -0.45593999997E+02  0.45594000000E+02  0.51100000000E-03 0.  1.
         23    2    1    2    0    0  0.00000000000E+00  0.00000000000E+00  0.00000000000E+00  0.91188000000E+02  0.91188000000E+02 0.  0.
    9900012    2    3    3    0    0 -0.16928705918E+02 -0.30879264936E+02  0.10754962397E+02  0.54367091494E+02  0.40000016679E+02 0.  0.
         12    1    3    3    0    0  0.16928705918E+02  0.30879264936E+02 -0.10754962397E+02  0.36820908506E+02  0.00000000000E+00 0. -1.
         11    1    4    4    0    0 -0.79717393929E+01 -0.30938824077E+00  0.17148493094E+02  0.18913359450E+02  0.51100000000E-03 0. -1.
        -11    1    4    4    0    0 -0.12364798889E+01 -0.25552498941E+02 -0.36185068833E+01  0.25837040794E+02  0.51100000000E-03 0.  1.
        -12    1    4    4    0    0 -0.77204866360E+01 -0.50173777546E+01 -0.27750238141E+01  0.96166912500E+01  0.00000000000E+00 0.  1.
</event>
<event>
 8    1  0.1229941E-006  0.9118800E+02  0.7816164E-02  0.1184000E+00
        -11   -1    0    0    0    0  0.00000000000E+00  0.00000000000E+00  0.45593999997E+02  0.45594000000E+02  0.51100000000E-03 0.  1.
         11   -1    0    0    0    0 -0.00000000000E+00 -0.00000000000E+00 -0.45593999997E+02  0.45594000000E+02  0.51100000000E-03 0. -1.
         23    2    1    2    0    0  0.35527136788E-14  0.71054273576E-14 -0.88817841970E-15  0.91188000000E+02  0.91188000000E+02 0.  0.
    9900012    2    3    3    0    0 -0.14846521096E+02 -0.33389590270E+02  0.45272386427E+01  0.54367084520E+02  0.40000000781E+02 0.  0.
        -12    1    3    3    0    0  0.14846521096E+02  0.33389590270E+02 -0.45272386427E+01  0.36820915480E+02  0.00000000000E+00 0.  1.
         11    1    4    4    0    0 -0.89112549689E+01 -0.17022250768E+02  0.41650404721E+01  0.19659985980E+02  0.51100000000E-03 0. -1.
        -11    1    4    4    0    0  0.69232463302E+01 -0.15943985217E+02  0.86374929372E+01  0.19410004864E+02  0.51100000000E-03 0.  1.
        -12    1    4    4    0    0 -0.12858512457E+02 -0.42335428529E+00 -0.82752947666E+01  0.15297093676E+02  0.00000000000E+00 0.  1.
</event>
<event>
 8    1  0.1229941E-006  0.9118800E+02  0.7816164E-02  0.1184000E+00
        -11   -1    0    0    0    0  0.00000000000E+00  0.00000000000E+00  0.45593999997E+02  0.45594000000E+02  0.51100000000E-03 0.  1.
         11   -1    0    0    0    0 -0.00000000000E+00 -0.00000000000E+00 -0.45593999997E+02  0.45594000000E+02  0.51100000000E-03 0. -1.
         23    2    1    2    0    0  0.00000000000E+00  0.00000000000E+00  0.35527136788E-14  0.91188000000E+02  0.91188000000E+02 0.  0.
    9900012    2    3    3    0    0 -0.20344171416E+02  0.11407921451E+02 -0.28491300418E+02  0.54367079562E+02  0.39999989477E+02 0.  0.
        -12    1    3    3    0    0  0.20344171416E+02 -0.11407921451E+02  0.28491300418E+02  0.36820920438E+02  0.00000000000E+00 0.  1.
         11    1    4    4    0    0 -0.26368754952E+01  0.86007185742E+01 -0.16866364713E+02  0.19115431757E+02  0.51100000000E-03 0. -1.
        -11    1    4    4    0    0 -0.10469873776E+02 -0.12275422934E+02 -0.84894511457E+01  0.18231155918E+02  0.51100000000E-03 0.  1.
         12    1    4    4    0    0 -0.72374221450E+01  0.15082625811E+02 -0.31354845588E+01  0.17020491887E+02  0.00000000000E+00 0. -1.
</event>
<event>
 8    1  0.1229941E-006  0.9118800E+02  0.7816164E-02  0.1184000E+00
        -11   -1    0    0    0    0  0.00000000000E+00  0.00000000000E+00  0.45593999997E+02  0.45594000000E+02  0.51100000000E-03 0.  1.
         11   -1    0    0    0    0 -0.00000000000E+00 -0.00000000000E+00 -0.45593999997E+02  0.45594000000E+02  0.51100000000E-03 0. -1.
         23    2    1    2    0    0  0.22204460493E-14 -0.88817841970E-15  0.00000000000E+00  0.91188000000E+02  0.91188000000E+02 0.  0.
    9900012    2    3    3    0    0 -0.22403697685E+01  0.50576512422E+01 -0.36403018583E+02  0.54367097583E+02  0.40000030561E+02 0.  0.
        -12    1    3    3    0    0  0.22403697685E+01 -0.50576512422E+01  0.36403018583E+02  0.36820902417E+02  0.00000000000E+00 0.  1.
         11    1    4    4    0    0  0.58722265412E+01  0.82932819365E+01  0.28040757922E+01  0.10541556391E+02  0.51100000000E-03 0. -1.
        -11    1    4    4    0    0 -0.45221183883E+01 -0.70024101216E+01 -0.61436470283E+01  0.10355080941E+02  0.51100000000E-03 0.  1.
         12    1    4    4    0    0 -0.35904779215E+01  0.37667794274E+01 -0.33063447347E+02  0.33470460251E+02  0.00000000000E+00 0. -1.
</event>
<event>
 8    1  0.1229941E-006  0.9118800E+02  0.7816164E-02  0.1184000E+00
        -11   -1    0    0    0    0  0.00000000000E+00  0.00000000000E+00  0.45593999997E+02  0.45594000000E+02  0.51100000000E-03 0. -1.
         11   -1    0    0    0    0 -0.00000000000E+00 -0.00000000000E+00 -0.45593999997E+02  0.45594000000E+02  0.51100000000E-03 0.  1.
         23    2    1    2    0    0  0.00000000000E+00 -0.17763568394E-14 -0.71054273576E-14  0.91188000000E+02  0.91188000000E+02 0.  0.
    9900012    2    3    3    0    0  0.28949579831E+01 -0.40461081558E+01 -0.36483256389E+02  0.54367085159E+02  0.40000002237E+02 0.  0.
         12    1    3    3    0    0 -0.28949579831E+01  0.40461081558E+01  0.36483256389E+02  0.36820914841E+02  0.00000000000E+00 0. -1.
         11    1    4    4    0    0  0.14199478395E+02 -0.86617454748E+01 -0.70687544592E+01  0.18072584520E+02  0.51100000000E-03 0. -1.
        -11    1    4    4    0    0 -0.28536327753E+01  0.10423891765E+02 -0.17570111958E+02  0.20627883411E+02  0.51100000000E-03 0.  1.
         12    1    4    4    0    0 -0.84508876369E+01 -0.58082544458E+01 -0.11844389972E+02  0.15666617228E+02  0.00000000000E+00 0. -1.
</event>
<event>
 8    1  0.1229941E-006  0.9118800E+02  0.7816164E-02  0.1184000E+00
        -11   -1    0    0    0    0  0.00000000000E+00  0.00000000000E+00  0.45593999997E+02  0.45594000000E+02  0.51100000000E-03 0. -1.
         11   -1    0    0    0    0 -0.00000000000E+00 -0.00000000000E+00 -0.45593999997E+02  0.45594000000E+02  0.51100000000E-03 0.  1.
         23    2    1    2    0    0  0.00000000000E+00  0.00000000000E+00 -0.17763568394E-14  0.91188000000E+02  0.91188000000E+02 0.  0.
    9900012    2    3    3    0    0  0.34216916837E+02 -0.12580606441E+01  0.13542483523E+02  0.54367095959E+02  0.40000026858E+02 0.  0.
        -12    1    3    3    0    0 -0.34216916837E+02  0.12580606441E+01 -0.13542483523E+02  0.36820904041E+02  0.00000000000E+00 0.  1.
         11    1    4    4    0    0  0.72684624236E+01 -0.33351785235E+01 -0.75236192134E+01  0.10979927510E+02  0.51100000000E-03 0.  1.
        -11    1    4    4    0    0  0.27477570261E+02 -0.46819655932E+01  0.85545652933E+01  0.29156787493E+02  0.51100000000E-03 0. -1.
        -12    1    4    4    0    0 -0.52911584832E+00  0.67590834726E+01  0.12511537444E+02  0.14230380957E+02  0.00000000000E+00 0.  1.
</event>
<event>
 8    1  0.1229941E-006  0.9118800E+02  0.7816164E-02  0.1184000E+00
        -11   -1    0    0    0    0  0.00000000000E+00  0.00000000000E+00  0.45593999997E+02  0.45594000000E+02  0.51100000000E-03 0. -1.
         11   -1    0    0    0    0 -0.00000000000E+00 -0.00000000000E+00 -0.45593999997E+02  0.45594000000E+02  0.51100000000E-03 0.  1.
         23    2    1    2    0    0  0.00000000000E+00 -0.17763568394E-14  0.26645352591E-14  0.91188000000E+02  0.91188000000E+02 0.  0.
    9900012    2    3    3    0    0 -0.35804754986E+02  0.72526799690E+01 -0.46041234866E+01  0.54367084756E+02  0.40000001318E+02 0.  0.
        -12    1    3    3    0    0  0.35804754986E+02 -0.72526799690E+01  0.46041234866E+01  0.36820915244E+02  0.00000000000E+00 0.  1.
         11    1    4    4    0    0 -0.87543639078E+01 -0.28682483515E+01  0.55487482317E+01  0.10754270930E+02  0.51100000000E-03 0. -1.
        -11    1    4    4    0    0  0.52096555263E+01 -0.41963682522E+01 -0.39760895119E+01  0.77819859470E+01  0.51100000000E-03 0.  1.
         12    1    4    4    0    0 -0.32260046604E+02  0.14317296573E+02 -0.61767822063E+01  0.35830827879E+02  0.00000000000E+00 0. -1.
</event>
<event>
 8    1  0.1229941E-006  0.9118800E+02  0.7816164E-02  0.1184000E+00
        -11   -1    0    0    0    0  0.00000000000E+00  0.00000000000E+00  0.45593999997E+02  0.45594000000E+02  0.51100000000E-03 0.  1.
         11   -1    0    0    0    0 -0.00000000000E+00 -0.00000000000E+00 -0.45593999997E+02  0.45594000000E+02  0.51100000000E-03 0. -1.
         23    2    1    2    0    0  0.00000000000E+00  0.35527136788E-14  0.35527136788E-14  0.91188000000E+02  0.91188000000E+02 0.  0.
    9900012    2    3    3    0    0 -0.21726566125E+02 -0.17032714853E+02 -0.24364298053E+02  0.54367135393E+02  0.40000116754E+02 0.  0.
        -12    1    3    3    0    0  0.21726566125E+02  0.17032714853E+02  0.24364298053E+02  0.36820864607E+02  0.00000000000E+00 0.  1.
         11    1    4    4    0    0 -0.19588364190E+02 -0.23458404811E+01 -0.42197448977E+01  0.20174568805E+02  0.51100000000E-03 0. -1.
        -11    1    4    4    0    0  0.20586833171E+00  0.59999158869E+01 -0.82881864566E+01  0.10234031826E+02  0.51100000000E-03 0.  1.
         12    1    4    4    0    0 -0.23440702664E+01 -0.20686790259E+02 -0.11856366698E+02  0.23958534761E+02  0.00000000000E+00 0. -1.
</event>
<event>
 8    1  0.1229941E-006  0.9118800E+02  0.7816164E-02  0.1184000E+00
        -11   -1    0    0    0    0  0.00000000000E+00  0.00000000000E+00  0.45593999997E+02  0.45594000000E+02  0.51100000000E-03 0.  1.
         11   -1    0    0    0    0 -0.00000000000E+00 -0.00000000000E+00 -0.45593999997E+02  0.45594000000E+02  0.51100000000E-03 0. -1.
         23    2    1    2    0    0  0.00000000000E+00  0.17763568394E-14  0.35527136788E-14  0.91188000000E+02  0.91188000000E+02 0.  0.
    9900012    2    3    3    0    0 -0.17096372166E+02 -0.92279680094E+01 -0.31278391105E+02  0.54367094458E+02  0.40000023437E+02 0.  0.
        -12    1    3    3    0    0  0.17096372166E+02  0.92279680094E+01  0.31278391105E+02  0.36820905542E+02  0.00000000000E+00 0.  1.
         11    1    4    4    0    0 -0.14361433874E+02 -0.41318847475E+01 -0.11055513769E+02  0.18588911734E+02  0.51100000000E-03 0. -1.
        -11    1    4    4    0    0 -0.71153361903E+01 -0.16104123880E+02 -0.13208312731E+02  0.22009778293E+02  0.51100000000E-03 0.  1.
         12    1    4    4    0    0  0.43803978988E+01  0.11008040618E+02 -0.70145646042E+01  0.13768404432E+02  0.00000000000E+00 0. -1.
</event>
<event>
 8    1  0.1229941E-006  0.9118800E+02  0.7816164E-02  0.1184000E+00
        -11   -1    0    0    0    0  0.00000000000E+00  0.00000000000E+00  0.45593999997E+02  0.45594000000E+02  0.51100000000E-03 0. -1.
         11   -1    0    0    0    0 -0.00000000000E+00 -0.00000000000E+00 -0.45593999997E+02  0.45594000000E+02  0.51100000000E-03 0.  1.
         23    2    1    2    0    0  0.00000000000E+00  0.00000000000E+00  0.00000000000E+00  0.91188000000E+02  0.91188000000E+02 0.  0.
    9900012    2    3    3    0    0  0.23035834796E+02 -0.28129157795E+02 -0.58210449216E+01  0.54367030879E+02  0.39999878495E+02 0.  0.
        -12    1    3    3    0    0 -0.23035834796E+02  0.28129157795E+02  0.58210449216E+01  0.36820969121E+02  0.00000000000E+00 0.  1.
         11    1    4    4    0    0  0.12789113659E+02  0.46515571419E+01 -0.50237236108E+01  0.14506419655E+02  0.51100000000E-03 0. -1.
        -11    1    4    4    0    0  0.12698702135E+02 -0.21483826463E+02 -0.80398324100E+01  0.26219281852E+02  0.51100000000E-03 0.  1.
        -12    1    4    4    0    0 -0.24519809983E+01 -0.11296888474E+02  0.72425110993E+01  0.13641329372E+02  0.00000000000E+00 0.  1.
</event>
<event>
 8    1  0.1229941E-006  0.9118800E+02  0.7816164E-02  0.1184000E+00
        -11   -1    0    0    0    0  0.00000000000E+00  0.00000000000E+00  0.45593999997E+02  0.45594000000E+02  0.51100000000E-03 0. -1.
         11   -1    0    0    0    0 -0.00000000000E+00 -0.00000000000E+00 -0.45593999997E+02  0.45594000000E+02  0.51100000000E-03 0.  1.
         23    2    1    2    0    0  0.00000000000E+00  0.88817841970E-15 -0.71054273576E-14  0.91188000000E+02  0.91188000000E+02 0.  0.
    9900012    2    3    3    0    0 -0.83912820297E+01 -0.33954090973E+01 -0.35690825351E+02  0.54367116913E+02  0.40000074627E+02 0.  0.
         12    1    3    3    0    0  0.83912820297E+01  0.33954090973E+01  0.35690825351E+02  0.36820883087E+02  0.00000000000E+00 0. -1.
         11    1    4    4    0    0 -0.22455922770E+01  0.54842228180E+01 -0.93584495055E+01  0.11077001490E+02  0.51100000000E-03 0. -1.
        -11    1    4    4    0    0 -0.18411252664E+02 -0.89653562297E+01 -0.22535650542E+02  0.30450080174E+02  0.51100000000E-03 0.  1.
         12    1    4    4    0    0  0.12265562911E+02  0.85724314363E-01 -0.37967253040E+01  0.12840035250E+02  0.00000000000E+00 0. -1.
</event>
<event>
 8    1  0.1229941E-006  0.9118800E+02  0.7816164E-02  0.1184000E+00
        -11   -1    0    0    0    0  0.00000000000E+00  0.00000000000E+00  0.45593999997E+02  0.45594000000E+02  0.51100000000E-03 0.  1.
         11   -1    0    0    0    0 -0.00000000000E+00 -0.00000000000E+00 -0.45593999997E+02  0.45594000000E+02  0.51100000000E-03 0. -1.
         23    2    1    2    0    0 -0.17763568394E-14 -0.35527136788E-14  0.35527136788E-14  0.91188000000E+02  0.91188000000E+02 0.  0.
    9900012    2    3    3    0    0  0.67547418313E+01  0.30002396270E+02 -0.20248623840E+02  0.54367121594E+02  0.40000085298E+02 0.  0.
        -12    1    3    3    0    0 -0.67547418313E+01 -0.30002396270E+02  0.20248623840E+02  0.36820878406E+02  0.00000000000E+00 0.  1.
         11    1    4    4    0    0 -0.37692479103E+01 -0.51962773199E+01 -0.22738905442E+01  0.68102207206E+01  0.51100000000E-03 0. -1.
        -11    1    4    4    0    0  0.21671870675E+01  0.85420656881E+01  0.60678572177E+01  0.10699648475E+02  0.51100000000E-03 0.  1.
         12    1    4    4    0    0  0.83568026741E+01  0.26656607902E+02 -0.24042590514E+02  0.36857252399E+02  0.00000000000E+00 0. -1.
</event>
<event>
 8    1  0.1229941E-006  0.9118800E+02  0.7816164E-02  0.1184000E+00
        -11   -1    0    0    0    0  0.00000000000E+00  0.00000000000E+00  0.45593999997E+02  0.45594000000E+02  0.51100000000E-03 0. -1.
         11   -1    0    0    0    0 -0.00000000000E+00 -0.00000000000E+00 -0.45593999997E+02  0.45594000000E+02  0.51100000000E-03 0.  1.
         23    2    1    2    0    0  0.17763568394E-14  0.00000000000E+00 -0.88817841970E-15  0.91188000000E+02  0.91188000000E+02 0.  0.
    9900012    2    3    3    0    0 -0.11997550382E+02 -0.34363124079E+02  0.55690342355E+01  0.54367086731E+02  0.40000005821E+02 0.  0.
         12    1    3    3    0    0  0.11997550382E+02  0.34363124079E+02 -0.55690342355E+01  0.36820913269E+02  0.00000000000E+00 0. -1.
         11    1    4    4    0    0  0.23306417680E+01 -0.24476462047E+02  0.11972402206E+02  0.27347166219E+02  0.51100000000E-03 0. -1.
        -11    1    4    4    0    0 -0.70305716603E+01 -0.81657920867E+01 -0.13103266513E+02  0.16964807451E+02  0.51100000000E-03 0.  1.
        -12    1    4    4    0    0 -0.72976204897E+01 -0.17208699451E+01  0.66998985429E+01  0.10055113061E+02  0.00000000000E+00 0.  1.
</event>
<event>
 8    1  0.1229941E-006  0.9118800E+02  0.7816164E-02  0.1184000E+00
        -11   -1    0    0    0    0  0.00000000000E+00  0.00000000000E+00  0.45593999997E+02  0.45594000000E+02  0.51100000000E-03 0. -1.
         11   -1    0    0    0    0 -0.00000000000E+00 -0.00000000000E+00 -0.45593999997E+02  0.45594000000E+02  0.51100000000E-03 0.  1.
         23    2    1    2    0    0  0.00000000000E+00  0.00000000000E+00  0.00000000000E+00  0.91188000000E+02  0.91188000000E+02 0.  0.
    9900012    2    3    3    0    0 -0.14799681745E+02  0.78419227666E+01 -0.32791032872E+02  0.54367106893E+02  0.40000051784E+02 0.  0.
         12    1    3    3    0    0  0.14799681745E+02 -0.78419227666E+01  0.32791032872E+02  0.36820893107E+02  0.00000000000E+00 0. -1.
         11    1    4    4    0    0  0.44499969386E+00  0.61053617814E+01  0.70478462035E+01  0.93351809612E+01  0.51100000000E-03 0. -1.
        -11    1    4    4    0    0 -0.67872821232E+01  0.52118450449E+01 -0.31551873809E+02  0.32691761477E+02  0.51100000000E-03 0.  1.
         12    1    4    4    0    0 -0.84573993152E+01 -0.34752840598E+01 -0.82870052664E+01  0.12340164454E+02  0.00000000000E+00 0. -1.
</event>
<event>
 8    1  0.1229941E-006  0.9118800E+02  0.7816164E-02  0.1184000E+00
        -11   -1    0    0    0    0  0.00000000000E+00  0.00000000000E+00  0.45593999997E+02  0.45594000000E+02  0.51100000000E-03 0. -1.
         11   -1    0    0    0    0 -0.00000000000E+00 -0.00000000000E+00 -0.45593999997E+02  0.45594000000E+02  0.51100000000E-03 0.  1.
         23    2    1    2    0    0 -0.35527136788E-14 -0.17763568394E-14  0.00000000000E+00  0.91188000000E+02  0.91188000000E+02 0.  0.
    9900012    2    3    3    0    0  0.21213850803E+02 -0.10854931269E+02  0.28069946444E+02  0.54367097077E+02  0.40000029406E+02 0.  0.
        -12    1    3    3    0    0 -0.21213850803E+02  0.10854931269E+02 -0.28069946444E+02  0.36820902923E+02  0.00000000000E+00 0.  1.
         11    1    4    4    0    0  0.97007402160E+01  0.77407213332E+00  0.64562774205E+01  0.11678487351E+02  0.51100000000E-03 0. -1.
        -11    1    4    4    0    0 -0.28859920645E+00 -0.12682641636E+02  0.26879345762E+02  0.29722582614E+02  0.51100000000E-03 0.  1.
         12    1    4    4    0    0  0.11801709793E+02  0.10536382337E+01 -0.52656767389E+01  0.12966027113E+02  0.00000000000E+00 0. -1.
</event>
<event>
 8    1  0.1229941E-006  0.9118800E+02  0.7816164E-02  0.1184000E+00
        -11   -1    0    0    0    0  0.00000000000E+00  0.00000000000E+00  0.45593999997E+02  0.45594000000E+02  0.51100000000E-03 0.  1.
         11   -1    0    0    0    0 -0.00000000000E+00 -0.00000000000E+00 -0.45593999997E+02  0.45594000000E+02  0.51100000000E-03 0. -1.
         23    2    1    2    0    0 -0.35527136788E-14  0.00000000000E+00  0.88817841970E-15  0.91188000000E+02  0.91188000000E+02 0.  0.
    9900012    2    3    3    0    0  0.31762004402E+02  0.17729827101E+02 -0.57103875099E+01  0.54367079069E+02  0.39999988353E+02 0.  0.
         12    1    3    3    0    0 -0.31762004402E+02 -0.17729827101E+02  0.57103875099E+01  0.36820920931E+02  0.00000000000E+00 0. -1.
         11    1    4    4    0    0  0.10594266602E+02 -0.85123763535E+01 -0.84574820686E+01  0.16007124640E+02  0.51100000000E-03 0. -1.
        -11    1    4    4    0    0  0.13838570579E+00  0.92953140147E+01  0.61380864843E+01  0.11139933536E+02  0.51100000000E-03 0.  1.
         12    1    4    4    0    0  0.21029352094E+02  0.16946889440E+02 -0.33909919257E+01  0.27220020893E+02  0.00000000000E+00 0. -1.
</event>
<event>
 8    1  0.1229941E-006  0.9118800E+02  0.7816164E-02  0.1184000E+00
        -11   -1    0    0    0    0  0.00000000000E+00  0.00000000000E+00  0.45593999997E+02  0.45594000000E+02  0.51100000000E-03 0. -1.
         11   -1    0    0    0    0 -0.00000000000E+00 -0.00000000000E+00 -0.45593999997E+02  0.45594000000E+02  0.51100000000E-03 0.  1.
         23    2    1    2    0    0  0.00000000000E+00  0.00000000000E+00  0.00000000000E+00  0.91188000000E+02  0.91188000000E+02 0.  0.
    9900012    2    3    3    0    0  0.26566909967E+02 -0.24206869126E+02 -0.80004147130E+01  0.54367084019E+02  0.39999999639E+02 0.  0.
         12    1    3    3    0    0 -0.26566909967E+02  0.24206869126E+02  0.80004147130E+01  0.36820915981E+02  0.00000000000E+00 0. -1.
         11    1    4    4    0    0 -0.52598360728E+01 -0.16721055296E+02 -0.64188561832E+01  0.18667117632E+02  0.51100000000E-03 0. -1.
        -11    1    4    4    0    0  0.18262520680E+02 -0.69702349952E+01  0.56126903035E+01  0.20337308824E+02  0.51100000000E-03 0.  1.
         12    1    4    4    0    0  0.13564225360E+02 -0.51557883425E+00 -0.71942488332E+01  0.15362657564E+02  0.00000000000E+00 0. -1.
</event>
<event>
 8    1  0.1229941E-006  0.9118800E+02  0.7816164E-02  0.1184000E+00
        -11   -1    0    0    0    0  0.00000000000E+00  0.00000000000E+00  0.45593999997E+02  0.45594000000E+02  0.51100000000E-03 0.  1.
         11   -1    0    0    0    0 -0.00000000000E+00 -0.00000000000E+00 -0.45593999997E+02  0.45594000000E+02  0.51100000000E-03 0. -1.
         23    2    1    2    0    0 -0.10658141036E-13 -0.11102230246E-15  0.00000000000E+00  0.91188000000E+02  0.91188000000E+02 0.  0.
    9900012    2    3    3    0    0  0.31865094041E+02 -0.70922504268E+00 -0.18436166832E+02  0.54367089285E+02  0.40000011643E+02 0.  0.
        -12    1    3    3    0    0 -0.31865094041E+02  0.70922504268E+00  0.18436166832E+02  0.36820910715E+02  0.00000000000E+00 0.  1.
         11    1    4    4    0    0  0.62918415922E+01  0.66019542729E+01 -0.13949629785E+02  0.16666290596E+02  0.51100000000E-03 0. -1.
        -11    1    4    4    0    0  0.13185447439E+01  0.75851085932E+01 -0.50921498010E+01  0.92305158290E+01  0.51100000000E-03 0.  1.
         12    1    4    4    0    0  0.24254707705E+02 -0.14896287909E+02  0.60561275379E+00  0.28470282860E+02  0.00000000000E+00 0. -1.
</event>
<event>
 8    1  0.1229941E-006  0.9118800E+02  0.7816164E-02  0.1184000E+00
        -11   -1    0    0    0    0  0.00000000000E+00  0.00000000000E+00  0.45593999997E+02  0.45594000000E+02  0.51100000000E-03 0.  1.
         11   -1    0    0    0    0 -0.00000000000E+00 -0.00000000000E+00 -0.45593999997E+02  0.45594000000E+02  0.51100000000E-03 0. -1.
         23    2    1    2    0    0  0.00000000000E+00  0.00000000000E+00  0.17763568394E-14  0.91188000000E+02  0.91188000000E+02 0.  0.
    9900012    2    3    3    0    0 -0.83688184090E+01 -0.34257500463E+02 -0.10590544836E+02  0.54367175736E+02  0.40000208725E+02 0.  0.
         12    1    3    3    0    0  0.83688184090E+01  0.34257500463E+02  0.10590544836E+02  0.36820824264E+02  0.00000000000E+00 0. -1.
         11    1    4    4    0    0  0.11430378294E+01 -0.36796904911E+01 -0.14041903787E+02  0.14560965621E+02  0.51100000000E-03 0. -1.
        -11    1    4    4    0    0 -0.10871832984E+02 -0.51032225926E+01 -0.48884534212E+01  0.12966750185E+02  0.51100000000E-03 0.  1.
        -12    1    4    4    0    0  0.13599767451E+01 -0.25474587380E+02  0.83398123725E+01  0.26839459930E+02  0.00000000000E+00 0.  1.
</event>
<event>
 8    1  0.1229941E-006  0.9118800E+02  0.7816164E-02  0.1184000E+00
        -11   -1    0    0    0    0  0.00000000000E+00  0.00000000000E+00  0.45593999997E+02  0.45594000000E+02  0.51100000000E-03 0.  1.
         11   -1    0    0    0    0 -0.00000000000E+00 -0.00000000000E+00 -0.45593999997E+02  0.45594000000E+02  0.51100000000E-03 0. -1.
         23    2    1    2    0    0  0.66613381478E-15  0.00000000000E+00  0.00000000000E+00  0.91188000000E+02  0.91188000000E+02 0.  0.
    9900012    2    3    3    0    0 -0.15835416583E+01  0.19827773305E+02  0.30985989492E+02  0.54367085520E+02  0.40000003059E+02 0.  0.
         12    1    3    3    0    0  0.15835416583E+01 -0.19827773305E+02 -0.30985989492E+02  0.36820914480E+02  0.00000000000E+00 0. -1.
         11    1    4    4    0    0 -0.71638343464E+01 -0.60479896900E+00  0.38735575000E+01  0.81664406140E+01  0.51100000000E-03 0. -1.
        -11    1    4    4    0    0  0.12745561477E+02 -0.21317119827E+01  0.14328043774E+02  0.19294723942E+02  0.51100000000E-03 0.  1.
         12    1    4    4    0    0 -0.71652687885E+01  0.22564284256E+02  0.12784388217E+02  0.26905920964E+02  0.00000000000E+00 0. -1.
</event>
<event>
 8    1  0.1229941E-006  0.9118800E+02  0.7816164E-02  0.1184000E+00
        -11   -1    0    0    0    0  0.00000000000E+00  0.00000000000E+00  0.45593999997E+02  0.45594000000E+02  0.51100000000E-03 0. -1.
         11   -1    0    0    0    0 -0.00000000000E+00 -0.00000000000E+00 -0.45593999997E+02  0.45594000000E+02  0.51100000000E-03 0.  1.
         23    2    1    2    0    0 -0.17763568394E-14 -0.44408920985E-15 -0.71054273576E-14  0.91188000000E+02  0.91188000000E+02 0.  0.
    9900012    2    3    3    0    0  0.14599412454E+02 -0.23130933247E+01  0.33723689550E+02  0.54367075492E+02  0.39999980200E+02 0.  0.
        -12    1    3    3    0    0 -0.14599412454E+02  0.23130933247E+01 -0.33723689550E+02  0.36820924508E+02  0.00000000000E+00 0.  1.
         11    1    4    4    0    0  0.94357568204E+01 -0.63177539508E+01  0.22839850651E+02  0.25506985314E+02  0.51100000000E-03 0. -1.
        -11    1    4    4    0    0 -0.63323039444E+01  0.98579376867E+01 -0.39683079215E+00  0.11723245439E+02  0.51100000000E-03 0.  1.
        -12    1    4    4    0    0  0.11495959578E+02 -0.58532770606E+01  0.11280669691E+02  0.17136844740E+02  0.00000000000E+00 0.  1.
</event>
<event>
 8    1  0.1229941E-006  0.9118800E+02  0.7816164E-02  0.1184000E+00
        -11   -1    0    0    0    0  0.00000000000E+00  0.00000000000E+00  0.45593999997E+02  0.45594000000E+02  0.51100000000E-03 0. -1.
         11   -1    0    0    0    0 -0.00000000000E+00 -0.00000000000E+00 -0.45593999997E+02  0.45594000000E+02  0.51100000000E-03 0.  1.
         23    2    1    2    0    0  0.35527136788E-14  0.00000000000E+00 -0.38857805862E-15  0.91188000000E+02  0.91188000000E+02 0.  0.
    9900012    2    3    3    0    0 -0.29607166996E+02 -0.21886278063E+02  0.43034292178E+00  0.54367099685E+02  0.40000035351E+02 0.  0.
        -12    1    3    3    0    0  0.29607166996E+02  0.21886278063E+02 -0.43034292178E+00  0.36820900315E+02  0.00000000000E+00 0.  1.
         11    1    4    4    0    0 -0.11133543442E+02 -0.16076535696E+02  0.24389832912E+00  0.19556847298E+02  0.51100000000E-03 0. -1.
        -11    1    4    4    0    0  0.73248014212E+01 -0.27846789960E+01  0.35782168452E+01  0.86145684177E+01  0.51100000000E-03 0.  1.
         12    1    4    4    0    0 -0.25798424975E+02 -0.30250633707E+01 -0.33917722526E+01  0.26195683969E+02  0.00000000000E+00 0. -1.
</event>
<event>
 8    1  0.1229941E-006  0.9118800E+02  0.7816164E-02  0.1184000E+00
        -11   -1    0    0    0    0  0.00000000000E+00  0.00000000000E+00  0.45593999997E+02  0.45594000000E+02  0.51100000000E-03 0.  1.
         11   -1    0    0    0    0 -0.00000000000E+00 -0.00000000000E+00 -0.45593999997E+02  0.45594000000E+02  0.51100000000E-03 0. -1.
         23    2    1    2    0    0 -0.35527136788E-14 -0.17763568394E-14  0.00000000000E+00  0.91188000000E+02  0.91188000000E+02 0.  0.
    9900012    2    3    3    0    0 -0.24025283279E+02 -0.74114673041E+01  0.26900480275E+02  0.54367083074E+02  0.39999997484E+02 0.  0.
         12    1    3    3    0    0  0.24025283279E+02  0.74114673041E+01 -0.26900480275E+02  0.36820916926E+02  0.00000000000E+00 0. -1.
         11    1    4    4    0    0 -0.99687614052E+01 -0.14057357632E+02  0.18473920861E+02  0.25264030949E+02  0.51100000000E-03 0. -1.
        -11    1    4    4    0    0 -0.47332083946E+01 -0.16218823515E+01  0.14428796936E+02  0.15271671334E+02  0.51100000000E-03 0.  1.
         12    1    4    4    0    0 -0.93233134793E+01  0.82677726793E+01 -0.60022375217E+01  0.13831380791E+02  0.00000000000E+00 0. -1.
</event>
<event>
 8    1  0.1229941E-006  0.9118800E+02  0.7816164E-02  0.1184000E+00
        -11   -1    0    0    0    0  0.00000000000E+00  0.00000000000E+00  0.45593999997E+02  0.45594000000E+02  0.51100000000E-03 0. -1.
         11   -1    0    0    0    0 -0.00000000000E+00 -0.00000000000E+00 -0.45593999997E+02  0.45594000000E+02  0.51100000000E-03 0.  1.
         23    2    1    2    0    0 -0.35527136788E-14 -0.35527136788E-14 -0.88817841970E-15  0.91188000000E+02  0.91188000000E+02 0.  0.
    9900012    2    3    3    0    0  0.24437807867E+02 -0.26662954943E+02 -0.69035541368E+01  0.54367099966E+02  0.40000035992E+02 0.  0.
         12    1    3    3    0    0 -0.24437807867E+02  0.26662954943E+02  0.69035541368E+01  0.36820900034E+02  0.00000000000E+00 0. -1.
         11    1    4    4    0    0 -0.54259824435E+01 -0.30763004051E+01  0.72398823549E+00  0.62792570329E+01  0.51100000000E-03 0. -1.
        -11    1    4    4    0    0 -0.26151084509E+01 -0.78097972253E+01  0.52330783095E+01  0.97579113423E+01  0.51100000000E-03 0.  1.
        -12    1    4    4    0    0  0.32478898761E+02 -0.15776857312E+02 -0.12860620682E+02  0.38329931590E+02  0.00000000000E+00 0.  1.
</event>
<event>
 8    1  0.1229941E-006  0.9118800E+02  0.7816164E-02  0.1184000E+00
        -11   -1    0    0    0    0  0.00000000000E+00  0.00000000000E+00  0.45593999997E+02  0.45594000000E+02  0.51100000000E-03 0. -1.
         11   -1    0    0    0    0 -0.00000000000E+00 -0.00000000000E+00 -0.45593999997E+02  0.45594000000E+02  0.51100000000E-03 0.  1.
         23    2    1    2    0    0  0.71054273576E-14  0.35527136788E-14 -0.47184478547E-15  0.91188000000E+02  0.91188000000E+02 0.  0.
    9900012    2    3    3    0    0 -0.23683403795E+02 -0.28193018802E+02  0.12665918451E+00  0.54367272589E+02  0.40000429520E+02 0.  0.
         12    1    3    3    0    0  0.23683403795E+02  0.28193018802E+02 -0.12665918451E+00  0.36820727411E+02  0.00000000000E+00 0. -1.
         11    1    4    4    0    0 -0.31269948423E+01  0.21065581131E+01  0.81649325290E+01  0.89934313414E+01  0.51100000000E-03 0. -1.
        -11    1    4    4    0    0  0.57472691736E+01 -0.78609303715E+01 -0.41371520228E+01  0.10580234231E+02  0.51100000000E-03 0.  1.
        -12    1    4    4    0    0 -0.26303678127E+02 -0.22438646544E+02 -0.39011213217E+01  0.34793607017E+02  0.00000000000E+00 0.  1.
</event>
<event>
 8    1  0.1229941E-006  0.9118800E+02  0.7816164E-02  0.1184000E+00
        -11   -1    0    0    0    0  0.00000000000E+00  0.00000000000E+00  0.45593999997E+02  0.45594000000E+02  0.51100000000E-03 0.  1.
         11   -1    0    0    0    0 -0.00000000000E+00 -0.00000000000E+00 -0.45593999997E+02  0.45594000000E+02  0.51100000000E-03 0. -1.
         23    2    1    2    0    0  0.00000000000E+00  0.00000000000E+00  0.22204460493E-15  0.91188000000E+02  0.91188000000E+02 0.  0.
    9900012    2    3    3    0    0 -0.25419672287E+02 -0.26586661311E+02 -0.16643348128E+01  0.54367077833E+02  0.39999985536E+02 0.  0.
        -12    1    3    3    0    0  0.25419672287E+02  0.26586661311E+02  0.16643348128E+01  0.36820922167E+02  0.00000000000E+00 0.  1.
         11    1    4    4    0    0  0.14276301628E+01 -0.79312366668E+00  0.22168077505E+01  0.27534360164E+01  0.51100000000E-03 0. -1.
        -11    1    4    4    0    0  0.22448909545E+01  0.55508085448E+01 -0.64134090363E+01  0.87739857891E+01  0.51100000000E-03 0.  1.
         12    1    4    4    0    0 -0.29092193404E+02 -0.31344346189E+02  0.25322664730E+01  0.42839656028E+02  0.00000000000E+00 0. -1.
</event>
<event>
 8    1  0.1229941E-006  0.9118800E+02  0.7816164E-02  0.1184000E+00
        -11   -1    0    0    0    0  0.00000000000E+00  0.00000000000E+00  0.45593999997E+02  0.45594000000E+02  0.51100000000E-03 0.  1.
         11   -1    0    0    0    0 -0.00000000000E+00 -0.00000000000E+00 -0.45593999997E+02  0.45594000000E+02  0.51100000000E-03 0. -1.
         23    2    1    2    0    0  0.00000000000E+00  0.88817841970E-15  0.00000000000E+00  0.91188000000E+02  0.91188000000E+02 0.  0.
    9900012    2    3    3    0    0 -0.14578988424E+02 -0.56192626410E+01 -0.33341521536E+02  0.54367081021E+02  0.39999992803E+02 0.  0.
        -12    1    3    3    0    0  0.14578988424E+02  0.56192626410E+01  0.33341521536E+02  0.36820918979E+02  0.00000000000E+00 0.  1.
         11    1    4    4    0    0 -0.12498411358E+02 -0.99861836590E+00 -0.26826821729E+02  0.29612259107E+02  0.51100000000E-03 0. -1.
        -11    1    4    4    0    0 -0.10939911411E+02  0.31487583114E+01 -0.19967024182E+00  0.11385789786E+02  0.51100000000E-03 0.  1.
         12    1    4    4    0    0  0.88593343455E+01 -0.77694025865E+01 -0.63150295658E+01  0.13369032127E+02  0.00000000000E+00 0. -1.
</event>
<event>
 8    1  0.1229941E-006  0.9118800E+02  0.7816164E-02  0.1184000E+00
        -11   -1    0    0    0    0  0.00000000000E+00  0.00000000000E+00  0.45593999997E+02  0.45594000000E+02  0.51100000000E-03 0.  1.
         11   -1    0    0    0    0 -0.00000000000E+00 -0.00000000000E+00 -0.45593999997E+02  0.45594000000E+02  0.51100000000E-03 0. -1.
         23    2    1    2    0    0  0.49960036108E-15  0.00000000000E+00 -0.88817841970E-15  0.91188000000E+02  0.91188000000E+02 0.  0.
    9900012    2    3    3    0    0 -0.32665192215E+00 -0.36562535212E+02 -0.43420388332E+01  0.54367095831E+02  0.40000026565E+02 0.  0.
        -12    1    3    3    0    0  0.32665192215E+00  0.36562535212E+02  0.43420388332E+01  0.36820904169E+02  0.00000000000E+00 0.  1.
         11    1    4    4    0    0 -0.56031567246E+01 -0.11780855109E+02  0.10310227883E+02  0.16627829433E+02  0.51100000000E-03 0. -1.
        -11    1    4    4    0    0  0.12136314281E+02 -0.69359468081E+01 -0.56290012148E+00  0.13989794110E+02  0.51100000000E-03 0.  1.
         12    1    4    4    0    0 -0.68598094782E+01 -0.17845733295E+02 -0.14089366595E+02  0.23749472288E+02  0.00000000000E+00 0. -1.
</event>
<event>
 8    1  0.1229941E-006  0.9118800E+02  0.7816164E-02  0.1184000E+00
        -11   -1    0    0    0    0  0.00000000000E+00  0.00000000000E+00  0.45593999997E+02  0.45594000000E+02  0.51100000000E-03 0.  1.
         11   -1    0    0    0    0 -0.00000000000E+00 -0.00000000000E+00 -0.45593999997E+02  0.45594000000E+02  0.51100000000E-03 0. -1.
         23    2    1    2    0    0  0.88817841970E-15  0.00000000000E+00  0.35527136788E-14  0.91188000000E+02  0.91188000000E+02 0.  0.
    9900012    2    3    3    0    0  0.54987443353E+01 -0.29140028806E+02  0.21826809250E+02  0.54366986025E+02  0.39999776242E+02 0.  0.
         12    1    3    3    0    0 -0.54987443353E+01  0.29140028806E+02 -0.21826809250E+02  0.36821013975E+02  0.00000000000E+00 0. -1.
         11    1    4    4    0    0 -0.36781884522E+01  0.42038264539E+01  0.48969992259E+01  0.74284472687E+01  0.51100000000E-03 0. -1.
        -11    1    4    4    0    0  0.14607964386E+02 -0.67265990844E+01  0.98737786039E+01  0.18871440404E+02  0.51100000000E-03 0.  1.
        -12    1    4    4    0    0 -0.54310315982E+01 -0.26617256176E+02  0.70560314197E+01  0.28067098353E+02  0.00000000000E+00 0.  1.
</event>
<event>
 8    1  0.1229941E-006  0.9118800E+02  0.7816164E-02  0.1184000E+00
        -11   -1    0    0    0    0  0.00000000000E+00  0.00000000000E+00  0.45593999997E+02  0.45594000000E+02  0.51100000000E-03 0.  1.
         11   -1    0    0    0    0 -0.00000000000E+00 -0.00000000000E+00 -0.45593999997E+02  0.45594000000E+02  0.51100000000E-03 0. -1.
         23    2    1    2    0    0 -0.17763568394E-14  0.00000000000E+00  0.00000000000E+00  0.91188000000E+02  0.91188000000E+02 0.  0.
    9900012    2    3    3    0    0 -0.13758078185E+02  0.32363587840E+02 -0.10912966845E+02  0.54367090471E+02  0.40000014346E+02 0.  0.
        -12    1    3    3    0    0  0.13758078185E+02 -0.32363587840E+02  0.10912966845E+02  0.36820909529E+02  0.00000000000E+00 0.  1.
         11    1    4    4    0    0  0.20194283667E+01  0.33707887813E+01  0.52239608730E+01  0.65368245655E+01  0.51100000000E-03 0. -1.
        -11    1    4    4    0    0 -0.48621767768E+01 -0.61925845332E+01 -0.75868666449E+00  0.79097706620E+01  0.51100000000E-03 0.  1.
         12    1    4    4    0    0 -0.10915329775E+02  0.35185383591E+02 -0.15378241054E+02  0.39920495243E+02  0.00000000000E+00 0. -1.
</event>
<event>
 8    1  0.1229941E-006  0.9118800E+02  0.7816164E-02  0.1184000E+00
        -11   -1    0    0    0    0  0.00000000000E+00  0.00000000000E+00  0.45593999997E+02  0.45594000000E+02  0.51100000000E-03 0. -1.
         11   -1    0    0    0    0 -0.00000000000E+00 -0.00000000000E+00 -0.45593999997E+02  0.45594000000E+02  0.51100000000E-03 0.  1.
         23    2    1    2    0    0  0.00000000000E+00  0.71054273576E-14  0.35527136788E-14  0.91188000000E+02  0.91188000000E+02 0.  0.
    9900012    2    3    3    0    0 -0.20303353364E+02  0.24689733536E+02  0.18274879988E+02  0.54367077436E+02  0.39999984631E+02 0.  0.
         12    1    3    3    0    0  0.20303353364E+02 -0.24689733536E+02 -0.18274879988E+02  0.36820922564E+02  0.00000000000E+00 0. -1.
         11    1    4    4    0    0 -0.84082807829E+00  0.10369522994E+01 -0.72018085217E+01  0.73245005408E+01  0.51100000000E-03 0. -1.
        -11    1    4    4    0    0 -0.75989198973E+01 -0.35302792459E+01  0.72155360713E+00  0.84099402512E+01  0.51100000000E-03 0.  1.
         12    1    4    4    0    0 -0.11863605388E+02  0.27183060483E+02  0.24755134903E+02  0.38632636644E+02  0.00000000000E+00 0. -1.
</event>
<event>
 8    1  0.1229941E-006  0.9118800E+02  0.7816164E-02  0.1184000E+00
        -11   -1    0    0    0    0  0.00000000000E+00  0.00000000000E+00  0.45593999997E+02  0.45594000000E+02  0.51100000000E-03 0. -1.
         11   -1    0    0    0    0 -0.00000000000E+00 -0.00000000000E+00 -0.45593999997E+02  0.45594000000E+02  0.51100000000E-03 0.  1.
         23    2    1    2    0    0  0.00000000000E+00  0.00000000000E+00  0.00000000000E+00  0.91188000000E+02  0.91188000000E+02 0.  0.
    9900012    2    3    3    0    0  0.23727829271E+02  0.90982995975E+01 -0.26645674471E+02  0.54367069736E+02  0.39999967078E+02 0.  0.
         12    1    3    3    0    0 -0.23727829271E+02 -0.90982995975E+01  0.26645674471E+02  0.36820930264E+02  0.00000000000E+00 0. -1.
         11    1    4    4    0    0  0.16416399267E+02  0.47238314773E+01  0.74491570279E+01  0.18636058848E+02  0.51100000000E-03 0. -1.
        -11    1    4    4    0    0  0.62937975850E+01  0.33941107781E+01 -0.15359133697E+02  0.16942103299E+02  0.51100000000E-03 0.  1.
         12    1    4    4    0    0  0.10176324194E+01  0.98035734205E+00 -0.18735697802E+02  0.18788907589E+02  0.00000000000E+00 0. -1.
</event>
<event>
 8    1  0.1229941E-006  0.9118800E+02  0.7816164E-02  0.1184000E+00
        -11   -1    0    0    0    0  0.00000000000E+00  0.00000000000E+00  0.45593999997E+02  0.45594000000E+02  0.51100000000E-03 0. -1.
         11   -1    0    0    0    0 -0.00000000000E+00 -0.00000000000E+00 -0.45593999997E+02  0.45594000000E+02  0.51100000000E-03 0.  1.
         23    2    1    2    0    0  0.00000000000E+00 -0.88817841970E-15 -0.17763568394E-14  0.91188000000E+02  0.91188000000E+02 0.  0.
    9900012    2    3    3    0    0 -0.33168137058E+02  0.69872910362E+01  0.14381661503E+02  0.54367085569E+02  0.40000003172E+02 0.  0.
        -12    1    3    3    0    0  0.33168137058E+02 -0.69872910362E+01 -0.14381661503E+02  0.36820914431E+02  0.00000000000E+00 0.  1.
         11    1    4    4    0    0  0.34886817033E+01  0.26018550658E+01 -0.15618292113E+01  0.46238361300E+01  0.51100000000E-03 0. -1.
        -11    1    4    4    0    0 -0.48784991121E+01  0.32384328497E+01 -0.80169518084E+01  0.99276743232E+01  0.51100000000E-03 0.  1.
         12    1    4    4    0    0 -0.31778319649E+02  0.11470031207E+01  0.23960442523E+02  0.39815575116E+02  0.00000000000E+00 0. -1.
</event>
<event>
 8    1  0.1229941E-006  0.9118800E+02  0.7816164E-02  0.1184000E+00
        -11   -1    0    0    0    0  0.00000000000E+00  0.00000000000E+00  0.45593999997E+02  0.45594000000E+02  0.51100000000E-03 0.  1.
         11   -1    0    0    0    0 -0.00000000000E+00 -0.00000000000E+00 -0.45593999997E+02  0.45594000000E+02  0.51100000000E-03 0. -1.
         23    2    1    2    0    0  0.00000000000E+00  0.00000000000E+00  0.00000000000E+00  0.91188000000E+02  0.91188000000E+02 0.  0.
    9900012    2    3    3    0    0  0.67938211304E+01  0.13776629256E+02 -0.33463791822E+02  0.54367124368E+02  0.40000091621E+02 0.  0.
        -12    1    3    3    0    0 -0.67938211304E+01 -0.13776629256E+02  0.33463791822E+02  0.36820875632E+02  0.00000000000E+00 0.  1.
         11    1    4    4    0    0  0.36868225942E+01  0.18885258990E+02 -0.39797839488E+02  0.44205358228E+02  0.51100000000E-03 0. -1.
        -11    1    4    4    0    0 -0.36134493407E+00 -0.21246857507E+01  0.49225810699E+01  0.53737011781E+01  0.51100000000E-03 0.  1.
         12    1    4    4    0    0  0.34683434703E+01 -0.29839439831E+01  0.14114665958E+01  0.47880649612E+01  0.00000000000E+00 0. -1.
</event>
<event>
 8    1  0.1229941E-006  0.9118800E+02  0.7816164E-02  0.1184000E+00
        -11   -1    0    0    0    0  0.00000000000E+00  0.00000000000E+00  0.45593999997E+02  0.45594000000E+02  0.51100000000E-03 0.  1.
         11   -1    0    0    0    0 -0.00000000000E+00 -0.00000000000E+00 -0.45593999997E+02  0.45594000000E+02  0.51100000000E-03 0. -1.
         23    2    1    2    0    0  0.35527136788E-14  0.00000000000E+00  0.00000000000E+00  0.91188000000E+02  0.91188000000E+02 0.  0.
    9900012    2    3    3    0    0  0.25036634644E+02 -0.26401640242E+02 -0.56480862042E+01  0.54367074434E+02  0.39999977788E+02 0.  0.
         12    1    3    3    0    0 -0.25036634644E+02  0.26401640242E+02  0.56480862042E+01  0.36820925566E+02  0.00000000000E+00 0. -1.
         11    1    4    4    0    0 -0.40041340772E+01 -0.10154372298E+02 -0.10285326001E+02  0.14997743086E+02  0.51100000000E-03 0. -1.
        -11    1    4    4    0    0  0.16810782431E+02 -0.20982745428E+01  0.10302650203E+02  0.19828004525E+02  0.51100000000E-03 0.  1.
         12    1    4    4    0    0  0.12229986290E+02 -0.14148993401E+02 -0.56654104068E+01  0.19541326823E+02  0.00000000000E+00 0. -1.
</event>
<event>
 8    1  0.1229941E-006  0.9118800E+02  0.7816164E-02  0.1184000E+00
        -11   -1    0    0    0    0  0.00000000000E+00  0.00000000000E+00  0.45593999997E+02  0.45594000000E+02  0.51100000000E-03 0.  1.
         11   -1    0    0    0    0 -0.00000000000E+00 -0.00000000000E+00 -0.45593999997E+02  0.45594000000E+02  0.51100000000E-03 0. -1.
         23    2    1    2    0    0  0.00000000000E+00  0.00000000000E+00  0.17347234760E-17  0.91188000000E+02  0.91188000000E+02 0.  0.
    9900012    2    3    3    0    0 -0.35085838369E+02 -0.11169799978E+02  0.13534053857E-01  0.54367072951E+02  0.39999974407E+02 0.  0.
        -12    1    3    3    0    0  0.35085838369E+02  0.11169799978E+02 -0.13534053857E-01  0.36820927049E+02  0.00000000000E+00 0.  1.
         11    1    4    4    0    0 -0.19007286546E+02 -0.95752105207E+01 -0.96275045878E+01  0.23359161868E+02  0.51100000000E-03 0. -1.
        -11    1    4    4    0    0 -0.43157031410E+01 -0.12483139454E+02  0.24217667608E+01  0.13428291728E+02  0.51100000000E-03 0.  1.
         12    1    4    4    0    0 -0.11762848682E+02  0.10888549997E+02  0.72192718808E+01  0.17579619354E+02  0.00000000000E+00 0. -1.
</event>
<event>
 8    1  0.1229941E-006  0.9118800E+02  0.7816164E-02  0.1184000E+00
        -11   -1    0    0    0    0  0.00000000000E+00  0.00000000000E+00  0.45593999997E+02  0.45594000000E+02  0.51100000000E-03 0.  1.
         11   -1    0    0    0    0 -0.00000000000E+00 -0.00000000000E+00 -0.45593999997E+02  0.45594000000E+02  0.51100000000E-03 0. -1.
         23    2    1    2    0    0  0.00000000000E+00  0.44408920985E-15  0.00000000000E+00  0.91188000000E+02  0.91188000000E+02 0.  0.
    9900012    2    3    3    0    0  0.18311472578E+02  0.23589378029E+01 -0.31857456669E+02  0.54367188480E+02  0.40000237778E+02 0.  0.
        -12    1    3    3    0    0 -0.18311472578E+02 -0.23589378029E+01  0.31857456669E+02  0.36820811520E+02  0.00000000000E+00 0.  1.
         11    1    4    4    0    0  0.69301282938E+01 -0.11375472558E+02 -0.85273411897E+01  0.15815928746E+02  0.51100000000E-03 0. -1.
        -11    1    4    4    0    0 -0.24494156079E+01  0.11304343148E+02 -0.29156609953E+00  0.11570342341E+02  0.51100000000E-03 0.  1.
         12    1    4    4    0    0  0.13830759892E+02  0.24300672125E+01 -0.23038549380E+02  0.26980917393E+02  0.00000000000E+00 0. -1.
</event>
<event>
 8    1  0.1229941E-006  0.9118800E+02  0.7816164E-02  0.1184000E+00
        -11   -1    0    0    0    0  0.00000000000E+00  0.00000000000E+00  0.45593999997E+02  0.45594000000E+02  0.51100000000E-03 0.  1.
         11   -1    0    0    0    0 -0.00000000000E+00 -0.00000000000E+00 -0.45593999997E+02  0.45594000000E+02  0.51100000000E-03 0. -1.
         23    2    1    2    0    0 -0.71054273576E-14  0.00000000000E+00  0.88817841970E-15  0.91188000000E+02  0.91188000000E+02 0.  0.
    9900012    2    3    3    0    0 -0.34395570970E+02 -0.11525403980E+02  0.63158108875E+01  0.54367086018E+02  0.40000004196E+02 0.  0.
         12    1    3    3    0    0  0.34395570970E+02  0.11525403980E+02 -0.63158108875E+01  0.36820913982E+02  0.00000000000E+00 0. -1.
         11    1    4    4    0    0 -0.10352356445E+02 -0.35927298059E+01 -0.60746454680E+01  0.12529178315E+02  0.51100000000E-03 0. -1.
        -11    1    4    4    0    0  0.58232871269E+01 -0.78898609553E+01  0.93802813870E+00  0.98509124403E+01  0.51100000000E-03 0.  1.
        -12    1    4    4    0    0 -0.29866501652E+02 -0.42813219303E-01  0.11452428217E+02  0.31986995264E+02  0.00000000000E+00 0.  1.
</event>
<event>
 8    1  0.1229941E-006  0.9118800E+02  0.7816164E-02  0.1184000E+00
        -11   -1    0    0    0    0  0.00000000000E+00  0.00000000000E+00  0.45593999997E+02  0.45594000000E+02  0.51100000000E-03 0.  1.
         11   -1    0    0    0    0 -0.00000000000E+00 -0.00000000000E+00 -0.45593999997E+02  0.45594000000E+02  0.51100000000E-03 0. -1.
         23    2    1    2    0    0  0.00000000000E+00  0.00000000000E+00  0.88817841970E-15  0.91188000000E+02  0.91188000000E+02 0.  0.
    9900012    2    3    3    0    0  0.23470050267E+02  0.27305957831E+02  0.77020111234E+01  0.54367087900E+02  0.40000008485E+02 0.  0.
         12    1    3    3    0    0 -0.23470050267E+02 -0.27305957831E+02 -0.77020111234E+01  0.36820912100E+02  0.00000000000E+00 0. -1.
         11    1    4    4    0    0  0.90033704263E+01  0.16879147122E+02 -0.94405285244E+01  0.21332835388E+02  0.51100000000E-03 0. -1.
        -11    1    4    4    0    0 -0.39746933049E+01  0.86875599106E+01  0.75360879631E+01  0.12168175957E+02  0.51100000000E-03 0.  1.
        -12    1    4    4    0    0  0.18441373145E+02  0.17392507976E+01  0.96064516847E+01  0.20866076555E+02  0.00000000000E+00 0.  1.
</event>
<event>
 8    1  0.1229941E-006  0.9118800E+02  0.7816164E-02  0.1184000E+00
        -11   -1    0    0    0    0  0.00000000000E+00  0.00000000000E+00  0.45593999997E+02  0.45594000000E+02  0.51100000000E-03 0. -1.
         11   -1    0    0    0    0 -0.00000000000E+00 -0.00000000000E+00 -0.45593999997E+02  0.45594000000E+02  0.51100000000E-03 0.  1.
         23    2    1    2    0    0 -0.13322676296E-14  0.88817841970E-15  0.00000000000E+00  0.91188000000E+02  0.91188000000E+02 0.  0.
    9900012    2    3    3    0    0 -0.26909894887E+01  0.51706597162E+01  0.36356606580E+02  0.54367082190E+02  0.39999995470E+02 0.  0.
        -12    1    3    3    0    0  0.26909894887E+01 -0.51706597162E+01 -0.36356606580E+02  0.36820917810E+02  0.00000000000E+00 0.  1.
         11    1    4    4    0    0 -0.12893220807E+02  0.92243551992E+01  0.25466716902E+02  0.29997958958E+02  0.51100000000E-03 0. -1.
        -11    1    4    4    0    0  0.76937868834E+01  0.70158488116E+01  0.59298732196E+01  0.11982482540E+02  0.51100000000E-03 0.  1.
         12    1    4    4    0    0  0.25084444353E+01 -0.11069544295E+02  0.49600164581E+01  0.12386640692E+02  0.00000000000E+00 0. -1.
</event>
<event>
 8    1  0.1229941E-006  0.9118800E+02  0.7816164E-02  0.1184000E+00
        -11   -1    0    0    0    0  0.00000000000E+00  0.00000000000E+00  0.45593999997E+02  0.45594000000E+02  0.51100000000E-03 0.  1.
         11   -1    0    0    0    0 -0.00000000000E+00 -0.00000000000E+00 -0.45593999997E+02  0.45594000000E+02  0.51100000000E-03 0. -1.
         23    2    1    2    0    0  0.00000000000E+00 -0.35527136788E-14  0.00000000000E+00  0.91188000000E+02  0.91188000000E+02 0.  0.
    9900012    2    3    3    0    0  0.20153278523E+02  0.29046357542E+02  0.10292407331E+02  0.54367093298E+02  0.40000020791E+02 0.  0.
         12    1    3    3    0    0 -0.20153278523E+02 -0.29046357542E+02 -0.10292407331E+02  0.36820906702E+02  0.00000000000E+00 0. -1.
         11    1    4    4    0    0  0.39975328921E+01  0.50720034036E+01  0.40525870562E+01  0.76242343786E+01  0.51100000000E-03 0. -1.
        -11    1    4    4    0    0  0.22303658009E+02  0.23692857923E+02  0.15166524311E+02  0.35900252605E+02  0.51100000000E-03 0.  1.
         12    1    4    4    0    0 -0.61479123785E+01  0.28149621518E+00 -0.89267040360E+01  0.10842606314E+02  0.00000000000E+00 0. -1.
</event>
<event>
 8    1  0.1229941E-006  0.9118800E+02  0.7816164E-02  0.1184000E+00
        -11   -1    0    0    0    0  0.00000000000E+00  0.00000000000E+00  0.45593999997E+02  0.45594000000E+02  0.51100000000E-03 0. -1.
         11   -1    0    0    0    0 -0.00000000000E+00 -0.00000000000E+00 -0.45593999997E+02  0.45594000000E+02  0.51100000000E-03 0.  1.
         23    2    1    2    0    0  0.00000000000E+00  0.35527136788E-14  0.00000000000E+00  0.91188000000E+02  0.91188000000E+02 0.  0.
    9900012    2    3    3    0    0 -0.17530571903E+01 -0.17636606002E+02  0.32274699239E+02  0.54367091650E+02  0.40000017034E+02 0.  0.
        -12    1    3    3    0    0  0.17530571903E+01  0.17636606002E+02 -0.32274699239E+02  0.36820908350E+02  0.00000000000E+00 0.  1.
         11    1    4    4    0    0 -0.28025549791E+01 -0.83517758868E+01 -0.34147064022E+01  0.94481053629E+01  0.51100000000E-03 0. -1.
        -11    1    4    4    0    0  0.13166865101E+02 -0.70224886254E+01  0.20531260592E+02  0.25381377914E+02  0.51100000000E-03 0.  1.
         12    1    4    4    0    0 -0.12117367312E+02 -0.22623414902E+01  0.15158145049E+02  0.19537608372E+02  0.00000000000E+00 0. -1.
</event>
<event>
 8    1  0.1229941E-006  0.9118800E+02  0.7816164E-02  0.1184000E+00
        -11   -1    0    0    0    0  0.00000000000E+00  0.00000000000E+00  0.45593999997E+02  0.45594000000E+02  0.51100000000E-03 0. -1.
         11   -1    0    0    0    0 -0.00000000000E+00 -0.00000000000E+00 -0.45593999997E+02  0.45594000000E+02  0.51100000000E-03 0.  1.
         23    2    1    2    0    0  0.00000000000E+00 -0.35527136788E-14  0.00000000000E+00  0.91188000000E+02  0.91188000000E+02 0.  0.
    9900012    2    3    3    0    0 -0.18876597128E+02 -0.16319480343E+02  0.27076352189E+02  0.54367079240E+02  0.39999988742E+02 0.  0.
        -12    1    3    3    0    0  0.18876597128E+02  0.16319480343E+02 -0.27076352189E+02  0.36820920760E+02  0.00000000000E+00 0.  1.
         11    1    4    4    0    0  0.59658650255E+00  0.33293163621E+01  0.33323486935E+01  0.47481376317E+01  0.51100000000E-03 0. -1.
        -11    1    4    4    0    0  0.86196029289E+01 -0.11094913720E+02  0.57675841750E+01  0.15187484736E+02  0.51100000000E-03 0.  1.
        -12    1    4    4    0    0 -0.28092786559E+02 -0.85538829849E+01  0.17976419320E+02  0.34431456872E+02  0.00000000000E+00 0.  1.
</event>
<event>
 8    1  0.1229941E-006  0.9118800E+02  0.7816164E-02  0.1184000E+00
        -11   -1    0    0    0    0  0.00000000000E+00  0.00000000000E+00  0.45593999997E+02  0.45594000000E+02  0.51100000000E-03 0.  1.
         11   -1    0    0    0    0 -0.00000000000E+00 -0.00000000000E+00 -0.45593999997E+02  0.45594000000E+02  0.51100000000E-03 0. -1.
         23    2    1    2    0    0  0.00000000000E+00  0.00000000000E+00  0.00000000000E+00  0.91188000000E+02  0.91188000000E+02 0.  0.
    9900012    2    3    3    0    0  0.14586308632E+02 -0.95790099399E+01 -0.32422888812E+02  0.54367332572E+02  0.40000566260E+02 0.  0.
        -12    1    3    3    0    0 -0.14586308632E+02  0.95790099399E+01  0.32422888812E+02  0.36820667428E+02  0.00000000000E+00 0.  1.
         11    1    4    4    0    0  0.51122136198E+01  0.27207333577E+01 -0.82843441898E+00  0.58500787982E+01  0.51100000000E-03 0.  1.
        -11    1    4    4    0    0  0.87331433770E+00  0.96629822667E+01 -0.81074258620E+00  0.97361803609E+01  0.51100000000E-03 0. -1.
        -12    1    4    4    0    0  0.86007806745E+01 -0.21962725564E+02 -0.30783711807E+02  0.38781073413E+02  0.00000000000E+00 0.  1.
</event>
<event>
 8    1  0.1229941E-006  0.9118800E+02  0.7816164E-02  0.1184000E+00
        -11   -1    0    0    0    0  0.00000000000E+00  0.00000000000E+00  0.45593999997E+02  0.45594000000E+02  0.51100000000E-03 0.  1.
         11   -1    0    0    0    0 -0.00000000000E+00 -0.00000000000E+00 -0.45593999997E+02  0.45594000000E+02  0.51100000000E-03 0. -1.
         23    2    1    2    0    0  0.00000000000E+00  0.88817841970E-15 -0.17763568394E-14  0.91188000000E+02  0.91188000000E+02 0.  0.
    9900012    2    3    3    0    0  0.35084354237E+02 -0.30958705431E+01 -0.10737023021E+02  0.54367082168E+02  0.39999995417E+02 0.  0.
        -12    1    3    3    0    0 -0.35084354237E+02  0.30958705431E+01  0.10737023021E+02  0.36820917832E+02  0.00000000000E+00 0.  1.
         11    1    4    4    0    0  0.50766687450E+01  0.71444262637E+01  0.21822450758E+00  0.87671554327E+01  0.51100000000E-03 0. -1.
        -11    1    4    4    0    0 -0.28126999454E+00 -0.84310433315E-01  0.82961767212E+01  0.83013715439E+01  0.51100000000E-03 0.  1.
         12    1    4    4    0    0  0.30288955487E+02 -0.10155986373E+02 -0.19251424249E+02  0.37298555191E+02  0.00000000000E+00 0. -1.
</event>
<event>
 8    1  0.1229941E-006  0.9118800E+02  0.7816164E-02  0.1184000E+00
        -11   -1    0    0    0    0  0.00000000000E+00  0.00000000000E+00  0.45593999997E+02  0.45594000000E+02  0.51100000000E-03 0. -1.
         11   -1    0    0    0    0 -0.00000000000E+00 -0.00000000000E+00 -0.45593999997E+02  0.45594000000E+02  0.51100000000E-03 0.  1.
         23    2    1    2    0    0  0.35527136788E-14  0.00000000000E+00  0.00000000000E+00  0.91188000000E+02  0.91188000000E+02 0.  0.
    9900012    2    3    3    0    0  0.12456481879E+02 -0.11382489380E+02 -0.32726974331E+02  0.54367084012E+02  0.39999999623E+02 0.  0.
         12    1    3    3    0    0 -0.12456481879E+02  0.11382489380E+02  0.32726974331E+02  0.36820915988E+02  0.00000000000E+00 0. -1.
         11    1    4    4    0    0 -0.25673213735E+01 -0.17668389453E+02 -0.31785146834E+01  0.18134665168E+02  0.51100000000E-03 0. -1.
        -11    1    4    4    0    0 -0.18707463851E+01 -0.13683125931E+01 -0.45313547300E+01  0.50897099465E+01  0.51100000000E-03 0.  1.
         12    1    4    4    0    0  0.16894549638E+02  0.76542126661E+01 -0.25017104918E+02  0.31142708898E+02  0.00000000000E+00 0. -1.
</event>
<event>
 8    1  0.1229941E-006  0.9118800E+02  0.7816164E-02  0.1184000E+00
        -11   -1    0    0    0    0  0.00000000000E+00  0.00000000000E+00  0.45593999997E+02  0.45594000000E+02  0.51100000000E-03 0.  1.
         11   -1    0    0    0    0 -0.00000000000E+00 -0.00000000000E+00 -0.45593999997E+02  0.45594000000E+02  0.51100000000E-03 0. -1.
         23    2    1    2    0    0 -0.88817841970E-15 -0.35527136788E-14 -0.71054273576E-14  0.91188000000E+02  0.91188000000E+02 0.  0.
    9900012    2    3    3    0    0 -0.23568584548E+01 -0.25529911718E+02 -0.26428147925E+02  0.54367106789E+02  0.40000051547E+02 0.  0.
        -12    1    3    3    0    0  0.23568584548E+01  0.25529911718E+02  0.26428147925E+02  0.36820893211E+02  0.00000000000E+00 0.  1.
         11    1    4    4    0    0 -0.89004207596E+01 -0.18102348011E+02 -0.28472844001E+02  0.34894345373E+02  0.51100000000E-03 0. -1.
        -11    1    4    4    0    0  0.70546554401E+01 -0.11861592589E+02 -0.13475949465E+01  0.13866562463E+02  0.51100000000E-03 0.  1.
        -12    1    4    4    0    0 -0.51109313526E+00  0.44340288827E+01  0.33922910228E+01  0.56061989537E+01  0.00000000000E+00 0.  1.
</event>
<event>
 8    1  0.1229941E-006  0.9118800E+02  0.7816164E-02  0.1184000E+00
        -11   -1    0    0    0    0  0.00000000000E+00  0.00000000000E+00  0.45593999997E+02  0.45594000000E+02  0.51100000000E-03 0.  1.
         11   -1    0    0    0    0 -0.00000000000E+00 -0.00000000000E+00 -0.45593999997E+02  0.45594000000E+02  0.51100000000E-03 0. -1.
         23    2    1    2    0    0  0.00000000000E+00  0.88817841970E-15  0.35527136788E-14  0.91188000000E+02  0.91188000000E+02 0.  0.
    9900012    2    3    3    0    0  0.26758037951E+02  0.69755434033E+01 -0.24313177158E+02  0.54367063235E+02  0.39999952257E+02 0.  0.
        -12    1    3    3    0    0 -0.26758037951E+02 -0.69755434033E+01  0.24313177158E+02  0.36820936765E+02  0.00000000000E+00 0.  1.
         11    1    4    4    0    0 -0.25614054824E+01  0.23148686222E+00 -0.12013305632E+02  0.12285515728E+02  0.51100000000E-03 0. -1.
        -11    1    4    4    0    0  0.28089865672E+02  0.13955300116E+02 -0.14338554186E+02  0.34487462812E+02  0.51100000000E-03 0.  1.
        -12    1    4    4    0    0  0.12295777608E+01 -0.72112435750E+01  0.20386826611E+01  0.75940846954E+01  0.00000000000E+00 0.  1.
</event>
<event>
 8    1  0.1229941E-006  0.9118800E+02  0.7816164E-02  0.1184000E+00
        -11   -1    0    0    0    0  0.00000000000E+00  0.00000000000E+00  0.45593999997E+02  0.45594000000E+02  0.51100000000E-03 0. -1.
         11   -1    0    0    0    0 -0.00000000000E+00 -0.00000000000E+00 -0.45593999997E+02  0.45594000000E+02  0.51100000000E-03 0.  1.
         23    2    1    2    0    0 -0.44408920985E-15  0.88817841970E-15  0.00000000000E+00  0.91188000000E+02  0.91188000000E+02 0.  0.
    9900012    2    3    3    0    0 -0.32657937193E+01  0.66660919424E+01  0.36064899635E+02  0.54367093220E+02  0.40000020614E+02 0.  0.
        -12    1    3    3    0    0  0.32657937193E+01 -0.66660919424E+01 -0.36064899635E+02  0.36820906780E+02  0.00000000000E+00 0.  1.
         11    1    4    4    0    0  0.14859466722E+02 -0.38738501770E+01  0.20012051810E+02  0.25224842603E+02  0.51100000000E-03 0. -1.
        -11    1    4    4    0    0 -0.13312623776E+02  0.80753048240E+00  0.73556305717E+01  0.15230999922E+02  0.51100000000E-03 0.  1.
        -12    1    4    4    0    0 -0.48126366653E+01  0.97324116370E+01  0.86972172529E+01  0.13911250695E+02  0.00000000000E+00 0.  1.
</event>
<event>
 8    1  0.1229941E-006  0.9118800E+02  0.7816164E-02  0.1184000E+00
        -11   -1    0    0    0    0  0.00000000000E+00  0.00000000000E+00  0.45593999997E+02  0.45594000000E+02  0.51100000000E-03 0.  1.
         11   -1    0    0    0    0 -0.00000000000E+00 -0.00000000000E+00 -0.45593999997E+02  0.45594000000E+02  0.51100000000E-03 0. -1.
         23    2    1    2    0    0 -0.35527136788E-14  0.35527136788E-14  0.00000000000E+00  0.91188000000E+02  0.91188000000E+02 0.  0.
    9900012    2    3    3    0    0 -0.27506563279E+02 -0.10542287245E+02 -0.22091424098E+02  0.54367056741E+02  0.39999937453E+02 0.  0.
        -12    1    3    3    0    0  0.27506563279E+02  0.10542287245E+02  0.22091424098E+02  0.36820943259E+02  0.00000000000E+00 0.  1.
         11    1    4    4    0    0  0.12020431269E+01 -0.52224989457E+01 -0.71646721855E+01  0.89471744536E+01  0.51100000000E-03 0. -1.
        -11    1    4    4    0    0 -0.18678974735E+02  0.12425628123E+02 -0.91960005373E+01  0.24245963737E+02  0.51100000000E-03 0.  1.
        -12    1    4    4    0    0 -0.10029631671E+02 -0.17745416423E+02 -0.57307513755E+01  0.21173918551E+02  0.00000000000E+00 0.  1.
</event>
<event>
 8    1  0.1229941E-006  0.9118800E+02  0.7816164E-02  0.1184000E+00
        -11   -1    0    0    0    0  0.00000000000E+00  0.00000000000E+00  0.45593999997E+02  0.45594000000E+02  0.51100000000E-03 0. -1.
         11   -1    0    0    0    0 -0.00000000000E+00 -0.00000000000E+00 -0.45593999997E+02  0.45594000000E+02  0.51100000000E-03 0.  1.
         23    2    1    2    0    0  0.88817841970E-15  0.00000000000E+00  0.00000000000E+00  0.91188000000E+02  0.91188000000E+02 0.  0.
    9900012    2    3    3    0    0  0.77230625476E+01 -0.17822551606E+02 -0.31280837117E+02  0.54367084590E+02  0.40000000940E+02 0.  0.
        -12    1    3    3    0    0 -0.77230625476E+01  0.17822551606E+02  0.31280837117E+02  0.36820915410E+02  0.00000000000E+00 0.  1.
         11    1    4    4    0    0 -0.47959854314E+00 -0.17779238349E+02  0.84690895401E+00  0.17805858195E+02  0.51100000000E-03 0. -1.
        -11    1    4    4    0    0  0.10384829882E+02 -0.53283250013E+01 -0.20089965388E+02  0.23234509862E+02  0.51100000000E-03 0.  1.
        -12    1    4    4    0    0 -0.21821687915E+01  0.52850117439E+01 -0.12037780683E+02  0.13326716533E+02  0.00000000000E+00 0.  1.
</event>
<event>
 8    1  0.1229941E-006  0.9118800E+02  0.7816164E-02  0.1184000E+00
        -11   -1    0    0    0    0  0.00000000000E+00  0.00000000000E+00  0.45593999997E+02  0.45594000000E+02  0.51100000000E-03 0.  1.
         11   -1    0    0    0    0 -0.00000000000E+00 -0.00000000000E+00 -0.45593999997E+02  0.45594000000E+02  0.51100000000E-03 0. -1.
         23    2    1    2    0    0  0.17763568394E-14  0.35527136788E-14  0.35527136788E-14  0.91188000000E+02  0.91188000000E+02 0.  0.
    9900012    2    3    3    0    0  0.10774597776E+02  0.22944656938E+02  0.26706340381E+02  0.54367111149E+02  0.40000061486E+02 0.  0.
         12    1    3    3    0    0 -0.10774597776E+02 -0.22944656938E+02 -0.26706340381E+02  0.36820888851E+02  0.00000000000E+00 0. -1.
         11    1    4    4    0    0  0.16324742860E+02  0.60915885525E+01 -0.87668316917E-01  0.17424476076E+02  0.51100000000E-03 0.  1.
        -11    1    4    4    0    0 -0.10060940281E+02  0.88799271569E+01  0.70081827692E+01  0.15139030736E+02  0.51100000000E-03 0. -1.
        -12    1    4    4    0    0  0.45107951963E+01  0.79731412288E+01  0.19785825929E+02  0.21803604336E+02  0.00000000000E+00 0.  1.
</event>
<event>
 8    1  0.1229941E-006  0.9118800E+02  0.7816164E-02  0.1184000E+00
        -11   -1    0    0    0    0  0.00000000000E+00  0.00000000000E+00  0.45593999997E+02  0.45594000000E+02  0.51100000000E-03 0.  1.
         11   -1    0    0    0    0 -0.00000000000E+00 -0.00000000000E+00 -0.45593999997E+02  0.45594000000E+02  0.51100000000E-03 0. -1.
         23    2    1    2    0    0  0.00000000000E+00  0.00000000000E+00  0.00000000000E+00  0.91188000000E+02  0.91188000000E+02 0.  0.
    9900012    2    3    3    0    0 -0.29110665008E+02 -0.17703143451E+02 -0.13962340960E+02  0.54367094656E+02  0.40000023887E+02 0.  0.
        -12    1    3    3    0    0  0.29110665008E+02  0.17703143451E+02  0.13962340960E+02  0.36820905344E+02  0.00000000000E+00 0.  1.
         11    1    4    4    0    0 -0.32460236558E+02 -0.78077373787E+01 -0.14778016814E+02  0.36510512207E+02  0.51100000000E-03 0. -1.
        -11    1    4    4    0    0 -0.33965659257E+00  0.71088022286E+00  0.55964869028E+01  0.56516708332E+01  0.51100000000E-03 0.  1.
        -12    1    4    4    0    0  0.36892281425E+01 -0.10606286295E+02 -0.47808110491E+01  0.12204911616E+02  0.00000000000E+00 0.  1.
</event>
<event>
 8    1  0.1229941E-006  0.9118800E+02  0.7816164E-02  0.1184000E+00
        -11   -1    0    0    0    0  0.00000000000E+00  0.00000000000E+00  0.45593999997E+02  0.45594000000E+02  0.51100000000E-03 0.  1.
         11   -1    0    0    0    0 -0.00000000000E+00 -0.00000000000E+00 -0.45593999997E+02  0.45594000000E+02  0.51100000000E-03 0. -1.
         23    2    1    2    0    0 -0.44408920985E-15 -0.35527136788E-14  0.71054273576E-14  0.91188000000E+02  0.91188000000E+02 0.  0.
    9900012    2    3    3    0    0  0.30532874166E+01  0.17164289316E+02 -0.32432131144E+02  0.54367102098E+02  0.40000040853E+02 0.  0.
        -12    1    3    3    0    0 -0.30532874166E+01 -0.17164289316E+02  0.32432131144E+02  0.36820897902E+02  0.00000000000E+00 0.  1.
         11    1    4    4    0    0  0.44393441635E+01  0.12020513716E+02 -0.19518040668E+02  0.23348542532E+02  0.51100000000E-03 0. -1.
        -11    1    4    4    0    0 -0.28611551526E+01  0.16229160258E+02 -0.10612880993E+02  0.19601150341E+02  0.51100000000E-03 0.  1.
        -12    1    4    4    0    0  0.14750984056E+01 -0.11085384658E+02 -0.23012094830E+01  0.11417409225E+02  0.00000000000E+00 0.  1.
</event>
<event>
 8    1  0.1229941E-006  0.9118800E+02  0.7816164E-02  0.1184000E+00
        -11   -1    0    0    0    0  0.00000000000E+00  0.00000000000E+00  0.45593999997E+02  0.45594000000E+02  0.51100000000E-03 0.  1.
         11   -1    0    0    0    0 -0.00000000000E+00 -0.00000000000E+00 -0.45593999997E+02  0.45594000000E+02  0.51100000000E-03 0. -1.
         23    2    1    2    0    0 -0.17763568394E-14  0.00000000000E+00  0.00000000000E+00  0.91188000000E+02  0.91188000000E+02 0.  0.
    9900012    2    3    3    0    0  0.94762959077E+01 -0.12990705782E+02  0.33124533370E+02  0.54366900997E+02  0.39999582400E+02 0.  0.
         12    1    3    3    0    0 -0.94762959077E+01  0.12990705782E+02 -0.33124533370E+02  0.36821099003E+02  0.00000000000E+00 0. -1.
         11    1    4    4    0    0  0.14558947007E+02 -0.10239096154E+02  0.16978984222E+02  0.24598535190E+02  0.51100000000E-03 0. -1.
        -11    1    4    4    0    0  0.70243520876E+01  0.41720747710E+00  0.15746410141E+02  0.17247174172E+02  0.51100000000E-03 0.  1.
         12    1    4    4    0    0 -0.12107003187E+02 -0.31688171053E+01  0.39913900789E+00  0.12521191635E+02  0.00000000000E+00 0. -1.
</event>
<event>
 8    1  0.1229941E-006  0.9118800E+02  0.7816164E-02  0.1184000E+00
        -11   -1    0    0    0    0  0.00000000000E+00  0.00000000000E+00  0.45593999997E+02  0.45594000000E+02  0.51100000000E-03 0.  1.
         11   -1    0    0    0    0 -0.00000000000E+00 -0.00000000000E+00 -0.45593999997E+02  0.45594000000E+02  0.51100000000E-03 0. -1.
         23    2    1    2    0    0 -0.35527136788E-14  0.00000000000E+00  0.35527136788E-14  0.91188000000E+02  0.91188000000E+02 0.  0.
    9900012    2    3    3    0    0 -0.28627921913E+02 -0.10233493196E+02 -0.20772491367E+02  0.54367099771E+02  0.40000035548E+02 0.  0.
        -12    1    3    3    0    0  0.28627921913E+02  0.10233493196E+02  0.20772491367E+02  0.36820900229E+02  0.00000000000E+00 0.  1.
         11    1    4    4    0    0  0.18134973948E+00  0.76726403494E+00 -0.55563463861E+01  0.56120020715E+01  0.51100000000E-03 0. -1.
        -11    1    4    4    0    0  0.70693757479E+01 -0.44823498458E+01  0.17241942589E+01  0.85463664624E+01  0.51100000000E-03 0.  1.
        -12    1    4    4    0    0 -0.35878647401E+02 -0.65184073850E+01 -0.16940339240E+02  0.40208731237E+02  0.00000000000E+00 0.  1.
</event>
<event>
 8    1  0.1229941E-006  0.9118800E+02  0.7816164E-02  0.1184000E+00
        -11   -1    0    0    0    0  0.00000000000E+00  0.00000000000E+00  0.45593999997E+02  0.45594000000E+02  0.51100000000E-03 0.  1.
         11   -1    0    0    0    0 -0.00000000000E+00 -0.00000000000E+00 -0.45593999997E+02  0.45594000000E+02  0.51100000000E-03 0. -1.
         23    2    1    2    0    0  0.35527136788E-14  0.00000000000E+00  0.35527136788E-14  0.91188000000E+02  0.91188000000E+02 0.  0.
    9900012    2    3    3    0    0  0.25028261947E+02 -0.81900234768E+01  0.25734870911E+02  0.54367164031E+02  0.40000182042E+02 0.  0.
         12    1    3    3    0    0 -0.25028261947E+02  0.81900234768E+01 -0.25734870911E+02  0.36820835969E+02  0.00000000000E+00 0. -1.
         11    1    4    4    0    0 -0.63215965829E+01 -0.58210883540E+01  0.23955401587E-01  0.85934991188E+01  0.51100000000E-03 0. -1.
        -11    1    4    4    0    0  0.16355569222E+02 -0.11649336272E+02  0.15756597302E+02  0.25524146194E+02  0.51100000000E-03 0.  1.
         12    1    4    4    0    0  0.14994289308E+02  0.92804011493E+01  0.99543182073E+01  0.20249518718E+02  0.00000000000E+00 0. -1.
</event>
<event>
 8    1  0.1229941E-006  0.9118800E+02  0.7816164E-02  0.1184000E+00
        -11   -1    0    0    0    0  0.00000000000E+00  0.00000000000E+00  0.45593999997E+02  0.45594000000E+02  0.51100000000E-03 0.  1.
         11   -1    0    0    0    0 -0.00000000000E+00 -0.00000000000E+00 -0.45593999997E+02  0.45594000000E+02  0.51100000000E-03 0. -1.
         23    2    1    2    0    0  0.00000000000E+00 -0.71054273576E-14  0.00000000000E+00  0.91188000000E+02  0.91188000000E+02 0.  0.
    9900012    2    3    3    0    0 -0.85804850702E+01  0.32643766519E+02  0.14715268160E+02  0.54367091082E+02  0.40000015739E+02 0.  0.
         12    1    3    3    0    0  0.85804850702E+01 -0.32643766519E+02 -0.14715268160E+02  0.36820908918E+02  0.00000000000E+00 0. -1.
         11    1    4    4    0    0 -0.23114951009E+01 -0.60875187805E+01  0.63130824358E+01  0.90695040993E+01  0.51100000000E-03 0. -1.
        -11    1    4    4    0    0 -0.12166369523E+02  0.35711462148E+02  0.57582283985E+01  0.38163939402E+02  0.51100000000E-03 0.  1.
         12    1    4    4    0    0  0.58973795535E+01  0.30198231512E+01  0.26439573256E+01  0.71336475805E+01  0.00000000000E+00 0. -1.
</event>
<event>
 8    1  0.1229941E-006  0.9118800E+02  0.7816164E-02  0.1184000E+00
        -11   -1    0    0    0    0  0.00000000000E+00  0.00000000000E+00  0.45593999997E+02  0.45594000000E+02  0.51100000000E-03 0. -1.
         11   -1    0    0    0    0 -0.00000000000E+00 -0.00000000000E+00 -0.45593999997E+02  0.45594000000E+02  0.51100000000E-03 0.  1.
         23    2    1    2    0    0  0.88817841970E-15  0.00000000000E+00  0.00000000000E+00  0.91188000000E+02  0.91188000000E+02 0.  0.
    9900012    2    3    3    0    0  0.54378532108E+01  0.45693616095E+01 -0.36129344932E+02  0.54367097264E+02  0.40000029833E+02 0.  0.
         12    1    3    3    0    0 -0.54378532108E+01 -0.45693616095E+01  0.36129344932E+02  0.36820902736E+02  0.00000000000E+00 0. -1.
         11    1    4    4    0    0 -0.13796630329E+02  0.73590845209E+00 -0.13463827454E+02  0.19291532330E+02  0.51100000000E-03 0. -1.
        -11    1    4    4    0    0  0.81970521191E+01  0.29289673701E+01 -0.22362583940E+02  0.23996993021E+02  0.51100000000E-03 0.  1.
        -12    1    4    4    0    0  0.11037431420E+02  0.90448578736E+00 -0.30293353775E+00  0.11078571913E+02  0.00000000000E+00 0.  1.
</event>
<event>
 8    1  0.1229941E-006  0.9118800E+02  0.7816164E-02  0.1184000E+00
        -11   -1    0    0    0    0  0.00000000000E+00  0.00000000000E+00  0.45593999997E+02  0.45594000000E+02  0.51100000000E-03 0. -1.
         11   -1    0    0    0    0 -0.00000000000E+00 -0.00000000000E+00 -0.45593999997E+02  0.45594000000E+02  0.51100000000E-03 0.  1.
         23    2    1    2    0    0  0.00000000000E+00 -0.88817841970E-15  0.17763568394E-14  0.91188000000E+02  0.91188000000E+02 0.  0.
    9900012    2    3    3    0    0 -0.34989874343E+02  0.66022401514E+01  0.93754915161E+01  0.54367072218E+02  0.39999972736E+02 0.  0.
        -12    1    3    3    0    0  0.34989874343E+02 -0.66022401514E+01 -0.93754915161E+01  0.36820927782E+02  0.00000000000E+00 0.  1.
         11    1    4    4    0    0 -0.32554404226E+02  0.43500048745E+01  0.43732909704E+01  0.33133630213E+02  0.51100000000E-03 0. -1.
        -11    1    4    4    0    0 -0.14056886359E+00  0.96241279736E+01 -0.30313432512E+01  0.10091216033E+02  0.51100000000E-03 0.  1.
        -12    1    4    4    0    0 -0.22949012534E+01 -0.73718926966E+01  0.80335437969E+01  0.11142225973E+02  0.00000000000E+00 0.  1.
</event>
<event>
 8    1  0.1229941E-006  0.9118800E+02  0.7816164E-02  0.1184000E+00
        -11   -1    0    0    0    0  0.00000000000E+00  0.00000000000E+00  0.45593999997E+02  0.45594000000E+02  0.51100000000E-03 0. -1.
         11   -1    0    0    0    0 -0.00000000000E+00 -0.00000000000E+00 -0.45593999997E+02  0.45594000000E+02  0.51100000000E-03 0.  1.
         23    2    1    2    0    0  0.17763568394E-14  0.00000000000E+00  0.71054273576E-14  0.91188000000E+02  0.91188000000E+02 0.  0.
    9900012    2    3    3    0    0 -0.64979933470E+01  0.10461528147E+02 -0.34700297274E+02  0.54367107566E+02  0.40000053319E+02 0.  0.
         12    1    3    3    0    0  0.64979933470E+01 -0.10461528147E+02  0.34700297274E+02  0.36820892434E+02  0.00000000000E+00 0. -1.
         11    1    4    4    0    0  0.49884573174E+01  0.48608689768E+01  0.44035000406E+01  0.82403620361E+01  0.51100000000E-03 0. -1.
        -11    1    4    4    0    0 -0.36368768953E+01 -0.63568825672E+01 -0.24954795581E+02  0.26007280756E+02  0.51100000000E-03 0.  1.
         12    1    4    4    0    0 -0.78495737691E+01  0.11957541738E+02 -0.14149001733E+02  0.20119464775E+02  0.00000000000E+00 0. -1.
</event>
<event>
 8    1  0.1229941E-006  0.9118800E+02  0.7816164E-02  0.1184000E+00
        -11   -1    0    0    0    0  0.00000000000E+00  0.00000000000E+00  0.45593999997E+02  0.45594000000E+02  0.51100000000E-03 0.  1.
         11   -1    0    0    0    0 -0.00000000000E+00 -0.00000000000E+00 -0.45593999997E+02  0.45594000000E+02  0.51100000000E-03 0. -1.
         23    2    1    2    0    0  0.00000000000E+00  0.00000000000E+00 -0.22204460493E-15  0.91188000000E+02  0.91188000000E+02 0.  0.
    9900012    2    3    3    0    0 -0.24942015367E+02 -0.27054176477E+02  0.13223285129E+01  0.54367066442E+02  0.39999959567E+02 0.  0.
        -12    1    3    3    0    0  0.24942015367E+02  0.27054176477E+02 -0.13223285129E+01  0.36820933558E+02  0.00000000000E+00 0.  1.
         11    1    4    4    0    0 -0.51681790115E+01 -0.20449660494E+02  0.15324899543E+01  0.21148220122E+02  0.51100000000E-03 0. -1.
        -11    1    4    4    0    0 -0.17686354076E+02 -0.32668340431E+01  0.11173489067E+02  0.21173714444E+02  0.51100000000E-03 0.  1.
        -12    1    4    4    0    0 -0.20874822797E+01 -0.33376819398E+01 -0.11383650508E+02  0.12045131875E+02  0.00000000000E+00 0.  1.
</event>
<event>
 8    1  0.1229941E-006  0.9118800E+02  0.7816164E-02  0.1184000E+00
        -11   -1    0    0    0    0  0.00000000000E+00  0.00000000000E+00  0.45593999997E+02  0.45594000000E+02  0.51100000000E-03 0. -1.
         11   -1    0    0    0    0 -0.00000000000E+00 -0.00000000000E+00 -0.45593999997E+02  0.45594000000E+02  0.51100000000E-03 0.  1.
         23    2    1    2    0    0 -0.35527136788E-14 -0.71054273576E-14  0.17763568394E-14  0.91188000000E+02  0.91188000000E+02 0.  0.
    9900012    2    3    3    0    0 -0.17253891809E+02 -0.31304595773E+02  0.88377363230E+01  0.54367080913E+02  0.39999992558E+02 0.  0.
         12    1    3    3    0    0  0.17253891809E+02  0.31304595773E+02 -0.88377363230E+01  0.36820919087E+02  0.00000000000E+00 0. -1.
         11    1    4    4    0    0  0.49717692874E+01 -0.31081658453E+01  0.77472505450E+01  0.97159186924E+01  0.51100000000E-03 0. -1.
        -11    1    4    4    0    0 -0.50869420349E+01 -0.18782583325E+01  0.10540472134E+02  0.11853538995E+02  0.51100000000E-03 0.  1.
        -12    1    4    4    0    0 -0.17138719062E+02 -0.26318171595E+02 -0.94499863557E+01  0.32797623227E+02  0.00000000000E+00 0.  1.
</event>
<event>
 8    1  0.1229941E-006  0.9118800E+02  0.7816164E-02  0.1184000E+00
        -11   -1    0    0    0    0  0.00000000000E+00  0.00000000000E+00  0.45593999997E+02  0.45594000000E+02  0.51100000000E-03 0.  1.
         11   -1    0    0    0    0 -0.00000000000E+00 -0.00000000000E+00 -0.45593999997E+02  0.45594000000E+02  0.51100000000E-03 0. -1.
         23    2    1    2    0    0  0.00000000000E+00  0.00000000000E+00  0.00000000000E+00  0.91188000000E+02  0.91188000000E+02 0.  0.
    9900012    2    3    3    0    0 -0.28424572712E+02  0.17741666396E+02 -0.15266138331E+02  0.54367108648E+02  0.40000055785E+02 0.  0.
        -12    1    3    3    0    0  0.28424572712E+02 -0.17741666396E+02  0.15266138331E+02  0.36820891352E+02  0.00000000000E+00 0.  1.
         11    1    4    4    0    0 -0.31108589211E+02  0.59590393574E+01 -0.76477258788E+01  0.32584385588E+02  0.51100000000E-03 0. -1.
        -11    1    4    4    0    0 -0.29304925986E+01 -0.26745363912E+01  0.92820875674E+00  0.40746169802E+01  0.51100000000E-03 0.  1.
         12    1    4    4    0    0  0.56145090974E+01  0.14457163430E+02 -0.85466212087E+01  0.17708106080E+02  0.00000000000E+00 0. -1.
</event>
<event>
 8    1  0.1229941E-006  0.9118800E+02  0.7816164E-02  0.1184000E+00
        -11   -1    0    0    0    0  0.00000000000E+00  0.00000000000E+00  0.45593999997E+02  0.45594000000E+02  0.51100000000E-03 0.  1.
         11   -1    0    0    0    0 -0.00000000000E+00 -0.00000000000E+00 -0.45593999997E+02  0.45594000000E+02  0.51100000000E-03 0. -1.
         23    2    1    2    0    0 -0.17763568394E-14  0.17763568394E-14  0.00000000000E+00  0.91188000000E+02  0.91188000000E+02 0.  0.
    9900012    2    3    3    0    0  0.11179812514E+02 -0.12141665422E+02  0.32914587354E+02  0.54367105011E+02  0.40000047495E+02 0.  0.
         12    1    3    3    0    0 -0.11179812514E+02  0.12141665422E+02 -0.32914587354E+02  0.36820894989E+02  0.00000000000E+00 0. -1.
         11    1    4    4    0    0 -0.36577446157E+01  0.65685356267E+01  0.15101408523E+01  0.76684601849E+01  0.51100000000E-03 0. -1.
        -11    1    4    4    0    0  0.16141982880E+02 -0.11094562931E+02  0.33399004062E+02  0.38718812101E+02  0.51100000000E-03 0.  1.
        -12    1    4    4    0    0 -0.13044257508E+01 -0.76156381170E+01 -0.19945575596E+01  0.79798327255E+01  0.00000000000E+00 0.  1.
</event>
<event>
 8    1  0.1229941E-006  0.9118800E+02  0.7816164E-02  0.1184000E+00
        -11   -1    0    0    0    0  0.00000000000E+00  0.00000000000E+00  0.45593999997E+02  0.45594000000E+02  0.51100000000E-03 0.  1.
         11   -1    0    0    0    0 -0.00000000000E+00 -0.00000000000E+00 -0.45593999997E+02  0.45594000000E+02  0.51100000000E-03 0. -1.
         23    2    1    2    0    0 -0.17763568394E-14  0.22204460493E-15  0.00000000000E+00  0.91188000000E+02  0.91188000000E+02 0.  0.
    9900012    2    3    3    0    0  0.68688968460E+01  0.18726034842E+01 -0.36126050414E+02  0.54367083306E+02  0.39999998012E+02 0.  0.
        -12    1    3    3    0    0 -0.68688968460E+01 -0.18726034842E+01  0.36126050414E+02  0.36820916694E+02  0.00000000000E+00 0.  1.
         11    1    4    4    0    0  0.13629932640E+02  0.15671999690E-01 -0.13653920118E+02  0.19292611130E+02  0.51100000000E-03 0. -1.
        -11    1    4    4    0    0 -0.80690387423E+01 -0.13323197769E+01  0.34847084669E+01  0.88897500287E+01  0.51100000000E-03 0.  1.
        -12    1    4    4    0    0  0.13080029486E+01  0.31892512614E+01 -0.25956838763E+02  0.26184722147E+02  0.00000000000E+00 0.  1.
</event>
<event>
 8    1  0.1229941E-006  0.9118800E+02  0.7816164E-02  0.1184000E+00
        -11   -1    0    0    0    0  0.00000000000E+00  0.00000000000E+00  0.45593999997E+02  0.45594000000E+02  0.51100000000E-03 0.  1.
         11   -1    0    0    0    0 -0.00000000000E+00 -0.00000000000E+00 -0.45593999997E+02  0.45594000000E+02  0.51100000000E-03 0. -1.
         23    2    1    2    0    0  0.00000000000E+00  0.00000000000E+00  0.00000000000E+00  0.91188000000E+02  0.91188000000E+02 0.  0.
    9900012    2    3    3    0    0 -0.12386863966E+02  0.98075442524E+01  0.33258988389E+02  0.54367046294E+02  0.39999913636E+02 0.  0.
         12    1    3    3    0    0  0.12386863966E+02 -0.98075442524E+01 -0.33258988389E+02  0.36820953706E+02  0.00000000000E+00 0. -1.
         11    1    4    4    0    0 -0.59443435598E+01  0.22525569963E+02  0.14444742210E+02  0.27411441048E+02  0.51100000000E-03 0. -1.
        -11    1    4    4    0    0 -0.31091433513E+01  0.21431473298E+01  0.58066229633E+01  0.69265231795E+01  0.51100000000E-03 0.  1.
         12    1    4    4    0    0 -0.33333770554E+01 -0.14861173040E+02  0.13007623215E+02  0.20029082067E+02  0.00000000000E+00 0. -1.
</event>
<event>
 8    1  0.1229941E-006  0.9118800E+02  0.7816164E-02  0.1184000E+00
        -11   -1    0    0    0    0  0.00000000000E+00  0.00000000000E+00  0.45593999997E+02  0.45594000000E+02  0.51100000000E-03 0. -1.
         11   -1    0    0    0    0 -0.00000000000E+00 -0.00000000000E+00 -0.45593999997E+02  0.45594000000E+02  0.51100000000E-03 0.  1.
         23    2    1    2    0    0  0.00000000000E+00 -0.35527136788E-14 -0.35527136788E-14  0.91188000000E+02  0.91188000000E+02 0.  0.
    9900012    2    3    3    0    0  0.16539931655E+02 -0.19914857377E+02 -0.26184124696E+02  0.54367091951E+02  0.40000017720E+02 0.  0.
         12    1    3    3    0    0 -0.16539931655E+02  0.19914857377E+02  0.26184124696E+02  0.36820908049E+02  0.00000000000E+00 0. -1.
         11    1    4    4    0    0 -0.19884978423E+01 -0.18654745643E+02 -0.43703668858E+01  0.19262755920E+02  0.51100000000E-03 0. -1.
        -11    1    4    4    0    0  0.59211647895E+01  0.29750215041E+01  0.27474206483E+01  0.71735114062E+01  0.51100000000E-03 0.  1.
        -12    1    4    4    0    0  0.12607264707E+02 -0.42351332385E+01 -0.24561178458E+02  0.27930824624E+02  0.00000000000E+00 0.  1.
</event>
<event>
 8    1  0.1229941E-006  0.9118800E+02  0.7816164E-02  0.1184000E+00
        -11   -1    0    0    0    0  0.00000000000E+00  0.00000000000E+00  0.45593999997E+02  0.45594000000E+02  0.51100000000E-03 0.  1.
         11   -1    0    0    0    0 -0.00000000000E+00 -0.00000000000E+00 -0.45593999997E+02  0.45594000000E+02  0.51100000000E-03 0. -1.
         23    2    1    2    0    0  0.00000000000E+00  0.17763568394E-14 -0.35527136788E-14  0.91188000000E+02  0.91188000000E+02 0.  0.
    9900012    2    3    3    0    0  0.17896057738E+02  0.13558045637E+02 -0.29183715586E+02  0.54367099149E+02  0.40000034131E+02 0.  0.
        -12    1    3    3    0    0 -0.17896057738E+02 -0.13558045637E+02  0.29183715586E+02  0.36820900851E+02  0.00000000000E+00 0.  1.
         11    1    4    4    0    0  0.70876937572E+01 -0.57210832407E+01 -0.22191019542E+02  0.23987654008E+02  0.51100000000E-03 0. -1.
        -11    1    4    4    0    0  0.83288291058E+01  0.31344631982E+01  0.49146313602E+01  0.10166014730E+02  0.51100000000E-03 0.  1.
        -12    1    4    4    0    0  0.24795348746E+01  0.16144665679E+02 -0.11907327404E+02  0.20213430411E+02  0.00000000000E+00 0.  1.
</event>
<event>
 8    1  0.1229941E-006  0.9118800E+02  0.7816164E-02  0.1184000E+00
        -11   -1    0    0    0    0  0.00000000000E+00  0.00000000000E+00  0.45593999997E+02  0.45594000000E+02  0.51100000000E-03 0.  1.
         11   -1    0    0    0    0 -0.00000000000E+00 -0.00000000000E+00 -0.45593999997E+02  0.45594000000E+02  0.51100000000E-03 0. -1.
         23    2    1    2    0    0  0.00000000000E+00  0.00000000000E+00 -0.71054273576E-14  0.91188000000E+02  0.91188000000E+02 0.  0.
    9900012    2    3    3    0    0  0.12038067224E+02  0.49615979046E+01  0.34441945543E+02  0.54367080279E+02  0.39999991113E+02 0.  0.
         12    1    3    3    0    0 -0.12038067224E+02 -0.49615979046E+01 -0.34441945543E+02  0.36820919721E+02  0.00000000000E+00 0. -1.
         11    1    4    4    0    0 -0.10932796148E+01  0.27355582562E+00 -0.18487588255E+01  0.21651795680E+01  0.51100000000E-03 0. -1.
        -11    1    4    4    0    0  0.46145333387E+01 -0.91822710311E+01 -0.21128556208E+01  0.10491528886E+02  0.51100000000E-03 0.  1.
        -12    1    4    4    0    0  0.85168134999E+01  0.13870313110E+02  0.38403559990E+02  0.41710371826E+02  0.00000000000E+00 0.  1.
</event>
<event>
 8    1  0.1229941E-006  0.9118800E+02  0.7816164E-02  0.1184000E+00
        -11   -1    0    0    0    0  0.00000000000E+00  0.00000000000E+00  0.45593999997E+02  0.45594000000E+02  0.51100000000E-03 0. -1.
         11   -1    0    0    0    0 -0.00000000000E+00 -0.00000000000E+00 -0.45593999997E+02  0.45594000000E+02  0.51100000000E-03 0.  1.
         23    2    1    2    0    0  0.00000000000E+00 -0.17763568394E-14 -0.35527136788E-14  0.91188000000E+02  0.91188000000E+02 0.  0.
    9900012    2    3    3    0    0 -0.25001452686E+02 -0.10775219021E+02  0.24791150923E+02  0.54367093637E+02  0.40000021564E+02 0.  0.
        -12    1    3    3    0    0  0.25001452686E+02  0.10775219021E+02 -0.24791150923E+02  0.36820906363E+02  0.00000000000E+00 0.  1.
         11    1    4    4    0    0  0.79734756567E+01 -0.69558082761E+01  0.11271375021E+02  0.15459737318E+02  0.51100000000E-03 0. -1.
        -11    1    4    4    0    0 -0.10428629239E+02  0.56707873004E+01  0.60899177280E+01  0.13341710333E+02  0.51100000000E-03 0.  1.
        -12    1    4    4    0    0 -0.22546299103E+02 -0.94901980449E+01  0.74298581736E+01  0.25565645986E+02  0.00000000000E+00 0.  1.
</event>
<event>
 8    1  0.1229941E-006  0.9118800E+02  0.7816164E-02  0.1184000E+00
        -11   -1    0    0    0    0  0.00000000000E+00  0.00000000000E+00  0.45593999997E+02  0.45594000000E+02  0.51100000000E-03 0. -1.
         11   -1    0    0    0    0 -0.00000000000E+00 -0.00000000000E+00 -0.45593999997E+02  0.45594000000E+02  0.51100000000E-03 0.  1.
         23    2    1    2    0    0  0.88817841970E-15  0.00000000000E+00  0.00000000000E+00  0.91188000000E+02  0.91188000000E+02 0.  0.
    9900012    2    3    3    0    0  0.34417877234E+01 -0.65153579134E+01  0.36076073728E+02  0.54367097145E+02  0.40000029561E+02 0.  0.
        -12    1    3    3    0    0 -0.34417877234E+01  0.65153579134E+01 -0.36076073728E+02  0.36820902855E+02  0.00000000000E+00 0.  1.
         11    1    4    4    0    0 -0.95741123523E+01 -0.11084133886E+02  0.26073042862E+02  0.29905270701E+02  0.51100000000E-03 0. -1.
        -11    1    4    4    0    0  0.79241457674E+00 -0.28125465508E+01 -0.36704954490E+01  0.46915750089E+01  0.51100000000E-03 0.  1.
         12    1    4    4    0    0  0.12223485499E+02  0.73813225230E+01  0.13673526314E+02  0.19770251435E+02  0.00000000000E+00 0. -1.
</event>
<event>
 8    1  0.1229941E-006  0.9118800E+02  0.7816164E-02  0.1184000E+00
        -11   -1    0    0    0    0  0.00000000000E+00  0.00000000000E+00  0.45593999997E+02  0.45594000000E+02  0.51100000000E-03 0.  1.
         11   -1    0    0    0    0 -0.00000000000E+00 -0.00000000000E+00 -0.45593999997E+02  0.45594000000E+02  0.51100000000E-03 0. -1.
         23    2    1    2    0    0  0.00000000000E+00  0.00000000000E+00  0.00000000000E+00  0.91188000000E+02  0.91188000000E+02 0.  0.
    9900012    2    3    3    0    0 -0.18060066197E+02 -0.26273986414E+02  0.18419894960E+02  0.54367070035E+02  0.39999967759E+02 0.  0.
         12    1    3    3    0    0  0.18060066197E+02  0.26273986414E+02 -0.18419894960E+02  0.36820929965E+02  0.00000000000E+00 0. -1.
         11    1    4    4    0    0 -0.18398954673E+02 -0.10750256062E+02  0.21320935586E+01  0.21415773665E+02  0.51100000000E-03 0.  1.
        -11    1    4    4    0    0 -0.11591836198E+02 -0.53309151049E+01  0.92174138452E+01  0.15740077527E+02  0.51100000000E-03 0. -1.
         12    1    4    4    0    0  0.11930724673E+02 -0.10192815247E+02  0.70703875563E+01  0.17211218844E+02  0.00000000000E+00 0. -1.
</event>
<event>
 8    1  0.1229941E-006  0.9118800E+02  0.7816164E-02  0.1184000E+00
        -11   -1    0    0    0    0  0.00000000000E+00  0.00000000000E+00  0.45593999997E+02  0.45594000000E+02  0.51100000000E-03 0.  1.
         11   -1    0    0    0    0 -0.00000000000E+00 -0.00000000000E+00 -0.45593999997E+02  0.45594000000E+02  0.51100000000E-03 0. -1.
         23    2    1    2    0    0 -0.35527136788E-14  0.00000000000E+00  0.00000000000E+00  0.91188000000E+02  0.91188000000E+02 0.  0.
    9900012    2    3    3    0    0  0.13411202831E+02  0.28351913206E+02  0.19289532455E+02  0.54367117254E+02  0.40000075405E+02 0.  0.
         12    1    3    3    0    0 -0.13411202831E+02 -0.28351913206E+02 -0.19289532455E+02  0.36820882746E+02  0.00000000000E+00 0. -1.
         11    1    4    4    0    0 -0.30537117070E+01  0.23426000713E+01 -0.39285683282E-01  0.38489575094E+01  0.51100000000E-03 0. -1.
        -11    1    4    4    0    0 -0.42154720100E+01  0.25642373995E+02  0.10433928385E+02  0.28003007163E+02  0.51100000000E-03 0.  1.
        -12    1    4    4    0    0  0.20680386547E+02  0.36693914055E+00  0.88948897531E+01  0.22515152582E+02  0.00000000000E+00 0.  1.
</event>
<event>
 8    1  0.1229941E-006  0.9118800E+02  0.7816164E-02  0.1184000E+00
        -11   -1    0    0    0    0  0.00000000000E+00  0.00000000000E+00  0.45593999997E+02  0.45594000000E+02  0.51100000000E-03 0. -1.
         11   -1    0    0    0    0 -0.00000000000E+00 -0.00000000000E+00 -0.45593999997E+02  0.45594000000E+02  0.51100000000E-03 0.  1.
         23    2    1    2    0    0  0.00000000000E+00  0.88817841970E-15  0.00000000000E+00  0.91188000000E+02  0.91188000000E+02 0.  0.
    9900012    2    3    3    0    0  0.14570998285E+02 -0.41946398514E+01 -0.33554008220E+02  0.54367075756E+02  0.39999980802E+02 0.  0.
         12    1    3    3    0    0 -0.14570998285E+02  0.41946398514E+01  0.33554008220E+02  0.36820924244E+02  0.00000000000E+00 0. -1.
         11    1    4    4    0    0 -0.79780253651E+00 -0.49203321485E+00  0.59483305462E+01  0.60217291636E+01  0.51100000000E-03 0. -1.
        -11    1    4    4    0    0  0.77615874165E+01 -0.12201601515E+02 -0.30707415632E+02  0.33942107976E+02  0.51100000000E-03 0.  1.
        -12    1    4    4    0    0  0.76072134054E+01  0.84989948781E+01 -0.87949231339E+01  0.14403238617E+02  0.00000000000E+00 0.  1.
</event>
<event>
 8    1  0.1229941E-006  0.9118800E+02  0.7816164E-02  0.1184000E+00
        -11   -1    0    0    0    0  0.00000000000E+00  0.00000000000E+00  0.45593999997E+02  0.45594000000E+02  0.51100000000E-03 0.  1.
         11   -1    0    0    0    0 -0.00000000000E+00 -0.00000000000E+00 -0.45593999997E+02  0.45594000000E+02  0.51100000000E-03 0. -1.
         23    2    1    2    0    0  0.00000000000E+00  0.00000000000E+00  0.00000000000E+00  0.91188000000E+02  0.91188000000E+02 0.  0.
    9900012    2    3    3    0    0  0.46174393523E+01  0.20336871422E+02  0.30345870875E+02  0.54367068933E+02  0.39999965248E+02 0.  0.
         12    1    3    3    0    0 -0.46174393523E+01 -0.20336871422E+02 -0.30345870875E+02  0.36820931067E+02  0.00000000000E+00 0. -1.
         11    1    4    4    0    0  0.30732569018E+01  0.12255355859E+02 -0.19779158620E+01  0.12788698395E+02  0.51100000000E-03 0. -1.
        -11    1    4    4    0    0  0.15641586824E+01  0.16756970572E+02  0.16710595284E+02  0.23716801010E+02  0.51100000000E-03 0.  1.
        -12    1    4    4    0    0 -0.19976231852E-01 -0.86754550091E+01  0.15613191453E+02  0.17861569528E+02  0.00000000000E+00 0.  1.
</event>
<event>
 8    1  0.1229941E-006  0.9118800E+02  0.7816164E-02  0.1184000E+00
        -11   -1    0    0    0    0  0.00000000000E+00  0.00000000000E+00  0.45593999997E+02  0.45594000000E+02  0.51100000000E-03 0.  1.
         11   -1    0    0    0    0 -0.00000000000E+00 -0.00000000000E+00 -0.45593999997E+02  0.45594000000E+02  0.51100000000E-03 0. -1.
         23    2    1    2    0    0  0.35527136788E-14 -0.35527136788E-14  0.00000000000E+00  0.91188000000E+02  0.91188000000E+02 0.  0.
    9900012    2    3    3    0    0 -0.29132946439E+02 -0.13714547608E+02 -0.17859510279E+02  0.54367088935E+02  0.40000010844E+02 0.  0.
        -12    1    3    3    0    0  0.29132946439E+02  0.13714547608E+02  0.17859510279E+02  0.36820911065E+02  0.00000000000E+00 0.  1.
         11    1    4    4    0    0 -0.24864588227E+02 -0.10139463338E+02 -0.10463338327E+02  0.28819054698E+02  0.51100000000E-03 0. -1.
        -11    1    4    4    0    0 -0.27156827434E+01  0.53273912203E+01 -0.13416985583E+02  0.14689163773E+02  0.51100000000E-03 0.  1.
        -12    1    4    4    0    0 -0.15526754685E+01 -0.89024754904E+01  0.60208136307E+01  0.10858870463E+02  0.00000000000E+00 0.  1.
</event>
<event>
 8    1  0.1229941E-006  0.9118800E+02  0.7816164E-02  0.1184000E+00
        -11   -1    0    0    0    0  0.00000000000E+00  0.00000000000E+00  0.45593999997E+02  0.45594000000E+02  0.51100000000E-03 0.  1.
         11   -1    0    0    0    0 -0.00000000000E+00 -0.00000000000E+00 -0.45593999997E+02  0.45594000000E+02  0.51100000000E-03 0. -1.
         23    2    1    2    0    0  0.00000000000E+00  0.00000000000E+00 -0.35527136788E-14  0.91188000000E+02  0.91188000000E+02 0.  0.
    9900012    2    3    3    0    0  0.20386038131E+02  0.19290148693E+02  0.23834391918E+02  0.54367100699E+02  0.40000037663E+02 0.  0.
         12    1    3    3    0    0 -0.20386038131E+02 -0.19290148693E+02 -0.23834391918E+02  0.36820899301E+02  0.00000000000E+00 0. -1.
         11    1    4    4    0    0  0.66789063682E+01  0.89358160790E+01 -0.89722715033E+01  0.14316363207E+02  0.51100000000E-03 0. -1.
        -11    1    4    4    0    0  0.15700908400E+02  0.60887890831E+01  0.30423958386E+02  0.34773684321E+02  0.51100000000E-03 0.  1.
        -12    1    4    4    0    0 -0.19937766372E+01  0.42655435307E+01  0.23827050346E+01  0.52770531714E+01  0.00000000000E+00 0.  1.
</event>
<event>
 8    1  0.1229941E-006  0.9118800E+02  0.7816164E-02  0.1184000E+00
        -11   -1    0    0    0    0  0.00000000000E+00  0.00000000000E+00  0.45593999997E+02  0.45594000000E+02  0.51100000000E-03 0.  1.
         11   -1    0    0    0    0 -0.00000000000E+00 -0.00000000000E+00 -0.45593999997E+02  0.45594000000E+02  0.51100000000E-03 0. -1.
         23    2    1    2    0    0  0.00000000000E+00  0.00000000000E+00  0.00000000000E+00  0.91188000000E+02  0.91188000000E+02 0.  0.
    9900012    2    3    3    0    0  0.12474481623E+02  0.65933478124E+01  0.34010206099E+02  0.54367094986E+02  0.40000024640E+02 0.  0.
         12    1    3    3    0    0 -0.12474481623E+02 -0.65933478124E+01 -0.34010206099E+02  0.36820905014E+02  0.00000000000E+00 0. -1.
         11    1    4    4    0    0 -0.13451882913E+02  0.38372468061E+01  0.20955940099E+02  0.25195813991E+02  0.51100000000E-03 0. -1.
        -11    1    4    4    0    0  0.11880169297E+02  0.87899208423E+00  0.62048640550E+01  0.13431730633E+02  0.51100000000E-03 0.  1.
         12    1    4    4    0    0  0.14046195239E+02  0.18771089220E+01  0.68494019450E+01  0.15739550362E+02  0.00000000000E+00 0. -1.
</event>
<event>
 8    1  0.1229941E-006  0.9118800E+02  0.7816164E-02  0.1184000E+00
        -11   -1    0    0    0    0  0.00000000000E+00  0.00000000000E+00  0.45593999997E+02  0.45594000000E+02  0.51100000000E-03 0. -1.
         11   -1    0    0    0    0 -0.00000000000E+00 -0.00000000000E+00 -0.45593999997E+02  0.45594000000E+02  0.51100000000E-03 0.  1.
         23    2    1    2    0    0  0.22204460493E-15  0.17763568394E-14  0.71054273576E-14  0.91188000000E+02  0.91188000000E+02 0.  0.
    9900012    2    3    3    0    0  0.17471708708E+01  0.13218469581E+02 -0.34321991636E+02  0.54367086730E+02  0.40000005819E+02 0.  0.
         12    1    3    3    0    0 -0.17471708708E+01 -0.13218469581E+02  0.34321991636E+02  0.36820913270E+02  0.00000000000E+00 0. -1.
         11    1    4    4    0    0 -0.43941679901E+01 -0.11652365595E+01  0.89108905318E+00  0.46325509740E+01  0.51100000000E-03 0. -1.
        -11    1    4    4    0    0  0.15399661627E+02  0.13004453144E+02 -0.93296535735E+01  0.22210533894E+02  0.51100000000E-03 0.  1.
         12    1    4    4    0    0 -0.92583227656E+01  0.13792529971E+01 -0.25883427116E+02  0.27524001863E+02  0.00000000000E+00 0. -1.
</event>
<event>
 8    1  0.1229941E-006  0.9118800E+02  0.7816164E-02  0.1184000E+00
        -11   -1    0    0    0    0  0.00000000000E+00  0.00000000000E+00  0.45593999997E+02  0.45594000000E+02  0.51100000000E-03 0.  1.
         11   -1    0    0    0    0 -0.00000000000E+00 -0.00000000000E+00 -0.45593999997E+02  0.45594000000E+02  0.51100000000E-03 0. -1.
         23    2    1    2    0    0  0.00000000000E+00  0.00000000000E+00 -0.88817841970E-15  0.91188000000E+02  0.91188000000E+02 0.  0.
    9900012    2    3    3    0    0 -0.21380545775E+02 -0.29871156317E+02 -0.25228884423E+01  0.54367099910E+02  0.40000035864E+02 0.  0.
         12    1    3    3    0    0  0.21380545775E+02  0.29871156317E+02  0.25228884423E+01  0.36820900090E+02  0.00000000000E+00 0. -1.
         11    1    4    4    0    0  0.31299324415E+01 -0.17714565347E+01 -0.10690538275E+02  0.11279279419E+02  0.51100000000E-03 0. -1.
        -11    1    4    4    0    0 -0.95896699336E+01 -0.18593047121E+02 -0.44105351364E+01  0.21380271073E+02  0.51100000000E-03 0.  1.
        -12    1    4    4    0    0 -0.14920808283E+02 -0.95066526611E+01  0.12578184969E+02  0.21707549418E+02  0.00000000000E+00 0.  1.
</event>
<event>
 8    1  0.1229941E-006  0.9118800E+02  0.7816164E-02  0.1184000E+00
        -11   -1    0    0    0    0  0.00000000000E+00  0.00000000000E+00  0.45593999997E+02  0.45594000000E+02  0.51100000000E-03 0.  1.
         11   -1    0    0    0    0 -0.00000000000E+00 -0.00000000000E+00 -0.45593999997E+02  0.45594000000E+02  0.51100000000E-03 0. -1.
         23    2    1    2    0    0  0.11102230246E-14  0.00000000000E+00  0.13322676296E-14  0.91188000000E+02  0.91188000000E+02 0.  0.
    9900012    2    3    3    0    0  0.15400553766E+01 -0.36738452559E+02  0.19221686765E+01  0.54367076609E+02  0.39999982745E+02 0.  0.
         12    1    3    3    0    0 -0.15400553766E+01  0.36738452559E+02 -0.19221686765E+01  0.36820923391E+02  0.00000000000E+00 0. -1.
         11    1    4    4    0    0 -0.15536006657E+02 -0.18765078221E+02 -0.87097100194E+01  0.25871890390E+02  0.51100000000E-03 0. -1.
        -11    1    4    4    0    0  0.41569380334E+01 -0.89082388463E+01  0.71614162655E+00  0.98564553591E+01  0.51100000000E-03 0.  1.
         12    1    4    4    0    0  0.12919124000E+02 -0.90651354915E+01  0.99157370693E+01  0.18638730859E+02  0.00000000000E+00 0. -1.
</event>
<event>
 8    1  0.1229941E-006  0.9118800E+02  0.7816164E-02  0.1184000E+00
        -11   -1    0    0    0    0  0.00000000000E+00  0.00000000000E+00  0.45593999997E+02  0.45594000000E+02  0.51100000000E-03 0. -1.
         11   -1    0    0    0    0 -0.00000000000E+00 -0.00000000000E+00 -0.45593999997E+02  0.45594000000E+02  0.51100000000E-03 0.  1.
         23    2    1    2    0    0  0.00000000000E+00 -0.35527136788E-14 -0.35527136788E-14  0.91188000000E+02  0.91188000000E+02 0.  0.
    9900012    2    3    3    0    0  0.11552568462E+02  0.26853077687E+02  0.22388155629E+02  0.54367093822E+02  0.40000021985E+02 0.  0.
        -12    1    3    3    0    0 -0.11552568462E+02 -0.26853077687E+02 -0.22388155629E+02  0.36820906178E+02  0.00000000000E+00 0.  1.
         11    1    4    4    0    0 -0.30095963488E+01  0.27197274367E+01  0.13005875738E+01  0.42598257959E+01  0.51100000000E-03 0.  1.
        -11    1    4    4    0    0  0.22611964278E+02  0.17935542697E+02  0.25979101374E+02  0.38831666573E+02  0.51100000000E-03 0. -1.
         12    1    4    4    0    0 -0.80497994669E+01  0.61978075531E+01 -0.48915333189E+01  0.11275601453E+02  0.00000000000E+00 0. -1.
</event>
<event>
 8    1  0.1229941E-006  0.9118800E+02  0.7816164E-02  0.1184000E+00
        -11   -1    0    0    0    0  0.00000000000E+00  0.00000000000E+00  0.45593999997E+02  0.45594000000E+02  0.51100000000E-03 0. -1.
         11   -1    0    0    0    0 -0.00000000000E+00 -0.00000000000E+00 -0.45593999997E+02  0.45594000000E+02  0.51100000000E-03 0.  1.
         23    2    1    2    0    0  0.00000000000E+00  0.17763568394E-14 -0.44408920985E-15  0.91188000000E+02  0.91188000000E+02 0.  0.
    9900012    2    3    3    0    0 -0.35545417701E+02  0.94665850322E+01  0.16391381083E+01  0.54367085761E+02  0.40000003608E+02 0.  0.
        -12    1    3    3    0    0  0.35545417701E+02 -0.94665850322E+01 -0.16391381083E+01  0.36820914239E+02  0.00000000000E+00 0.  1.
         11    1    4    4    0    0 -0.42298983998E+01  0.78968079632E+01 -0.12084266520E+01  0.90394641276E+01  0.51100000000E-03 0. -1.
        -11    1    4    4    0    0  0.42513312325E+01 -0.67239244253E+01 -0.26717992627E+01  0.83918703808E+01  0.51100000000E-03 0.  1.
         12    1    4    4    0    0 -0.35566850533E+02  0.82937014943E+01  0.55193640231E+01  0.36935751252E+02  0.00000000000E+00 0. -1.
</event>
<event>
 8    1  0.1229941E-006  0.9118800E+02  0.7816164E-02  0.1184000E+00
        -11   -1    0    0    0    0  0.00000000000E+00  0.00000000000E+00  0.45593999997E+02  0.45594000000E+02  0.51100000000E-03 0.  1.
         11   -1    0    0    0    0 -0.00000000000E+00 -0.00000000000E+00 -0.45593999997E+02  0.45594000000E+02  0.51100000000E-03 0. -1.
         23    2    1    2    0    0  0.00000000000E+00  0.00000000000E+00 -0.88817841970E-15  0.91188000000E+02  0.91188000000E+02 0.  0.
    9900012    2    3    3    0    0  0.21307258031E+02 -0.29802511766E+02  0.36860765653E+01  0.54367134818E+02  0.40000115444E+02 0.  0.
         12    1    3    3    0    0 -0.21307258031E+02  0.29802511766E+02 -0.36860765653E+01  0.36820865182E+02  0.00000000000E+00 0. -1.
         11    1    4    4    0    0  0.10026273940E+02 -0.42383978112E+01 -0.42889647851E+01  0.11699803601E+02  0.51100000000E-03 0. -1.
        -11    1    4    4    0    0 -0.49482683872E+01 -0.23354266936E+02  0.10526999612E+02  0.26090704575E+02  0.51100000000E-03 0.  1.
        -12    1    4    4    0    0  0.16229252478E+02 -0.22098470188E+01 -0.25519582611E+01  0.16576626642E+02  0.00000000000E+00 0.  1.
</event>
<event>
 8    1  0.1229941E-006  0.9118800E+02  0.7816164E-02  0.1184000E+00
        -11   -1    0    0    0    0  0.00000000000E+00  0.00000000000E+00  0.45593999997E+02  0.45594000000E+02  0.51100000000E-03 0. -1.
         11   -1    0    0    0    0 -0.00000000000E+00 -0.00000000000E+00 -0.45593999997E+02  0.45594000000E+02  0.51100000000E-03 0.  1.
         23    2    1    2    0    0  0.00000000000E+00  0.17763568394E-14  0.00000000000E+00  0.91188000000E+02  0.91188000000E+02 0.  0.
    9900012    2    3    3    0    0 -0.11126045443E+02  0.75227599476E+01 -0.34284102265E+02  0.54367075615E+02  0.39999980480E+02 0.  0.
         12    1    3    3    0    0  0.11126045443E+02 -0.75227599476E+01  0.34284102265E+02  0.36820924385E+02  0.00000000000E+00 0. -1.
         11    1    4    4    0    0 -0.80040834373E+00 -0.50328573820E+00 -0.25064154482E+02  0.25081981385E+02  0.51100000000E-03 0. -1.
        -11    1    4    4    0    0 -0.16615654280E+02  0.11358463754E+02 -0.92876546930E+01  0.22166533242E+02  0.51100000000E-03 0.  1.
         12    1    4    4    0    0  0.62900171807E+01 -0.33324180683E+01  0.67706909556E-01  0.71185609881E+01  0.00000000000E+00 0. -1.
</event>
<event>
 8    1  0.1229941E-006  0.9118800E+02  0.7816164E-02  0.1184000E+00
        -11   -1    0    0    0    0  0.00000000000E+00  0.00000000000E+00  0.45593999997E+02  0.45594000000E+02  0.51100000000E-03 0. -1.
         11   -1    0    0    0    0 -0.00000000000E+00 -0.00000000000E+00 -0.45593999997E+02  0.45594000000E+02  0.51100000000E-03 0.  1.
         23    2    1    2    0    0 -0.35527136788E-14  0.35527136788E-14 -0.17763568394E-14  0.91188000000E+02  0.91188000000E+02 0.  0.
    9900012    2    3    3    0    0 -0.14467363069E+02  0.30638231490E+02 -0.14414393114E+02  0.54367074539E+02  0.39999978026E+02 0.  0.
         12    1    3    3    0    0  0.14467363069E+02 -0.30638231490E+02  0.14414393114E+02  0.36820925461E+02  0.00000000000E+00 0. -1.
         11    1    4    4    0    0  0.13312967091E+01 -0.50813700426E+01 -0.34900812163E+01  0.63066107852E+01  0.51100000000E-03 0. -1.
        -11    1    4    4    0    0  0.65939450550E+01  0.49965171609E+01  0.70720963448E+00  0.83033391389E+01  0.51100000000E-03 0.  1.
        -12    1    4    4    0    0 -0.22392604833E+02  0.30723084371E+02 -0.11631521532E+02  0.39757124615E+02  0.00000000000E+00 0.  1.
</event>
<event>
 8    1  0.1229941E-006  0.9118800E+02  0.7816164E-02  0.1184000E+00
        -11   -1    0    0    0    0  0.00000000000E+00  0.00000000000E+00  0.45593999997E+02  0.45594000000E+02  0.51100000000E-03 0.  1.
         11   -1    0    0    0    0 -0.00000000000E+00 -0.00000000000E+00 -0.45593999997E+02  0.45594000000E+02  0.51100000000E-03 0. -1.
         23    2    1    2    0    0 -0.17763568394E-14  0.00000000000E+00  0.35527136788E-14  0.91188000000E+02  0.91188000000E+02 0.  0.
    9900012    2    3    3    0    0 -0.15451798283E+02  0.28151959032E+02  0.18013567770E+02  0.54367088939E+02  0.40000010854E+02 0.  0.
         12    1    3    3    0    0  0.15451798283E+02 -0.28151959032E+02 -0.18013567770E+02  0.36820911061E+02  0.00000000000E+00 0. -1.
         11    1    4    4    0    0  0.24663264519E+01 -0.16814202504E+01 -0.48396629922E+01  0.56861479373E+01  0.51100000000E-03 0. -1.
        -11    1    4    4    0    0 -0.23862108177E+02  0.19688500375E+02  0.13967371360E+02  0.33942962696E+02  0.51100000000E-03 0.  1.
        -12    1    4    4    0    0  0.59439834414E+01  0.10144878908E+02  0.88858594023E+01  0.14737978305E+02  0.00000000000E+00 0.  1.
</event>
<event>
 8    1  0.1229941E-006  0.9118800E+02  0.7816164E-02  0.1184000E+00
        -11   -1    0    0    0    0  0.00000000000E+00  0.00000000000E+00  0.45593999997E+02  0.45594000000E+02  0.51100000000E-03 0. -1.
         11   -1    0    0    0    0 -0.00000000000E+00 -0.00000000000E+00 -0.45593999997E+02  0.45594000000E+02  0.51100000000E-03 0.  1.
         23    2    1    2    0    0  0.00000000000E+00 -0.35527136788E-14 -0.71054273576E-14  0.91188000000E+02  0.91188000000E+02 0.  0.
    9900012    2    3    3    0    0 -0.18124032791E+02  0.16139016760E+02  0.27691709882E+02  0.54367092586E+02  0.40000019168E+02 0.  0.
        -12    1    3    3    0    0  0.18124032791E+02 -0.16139016760E+02 -0.27691709882E+02  0.36820907414E+02  0.00000000000E+00 0.  1.
         11    1    4    4    0    0 -0.11519290182E+02  0.12488222616E+02  0.42653253851E+01  0.17516927565E+02  0.51100000000E-03 0. -1.
        -11    1    4    4    0    0 -0.95026550480E+01 -0.32792358475E+01 -0.20758912921E+01  0.10264656138E+02  0.51100000000E-03 0.  1.
         12    1    4    4    0    0  0.28979124390E+01  0.69300299917E+01  0.25502275789E+02  0.26585508884E+02  0.00000000000E+00 0. -1.
</event>
<event>
 8    1  0.1229941E-006  0.9118800E+02  0.7816164E-02  0.1184000E+00
        -11   -1    0    0    0    0  0.00000000000E+00  0.00000000000E+00  0.45593999997E+02  0.45594000000E+02  0.51100000000E-03 0.  1.
         11   -1    0    0    0    0 -0.00000000000E+00 -0.00000000000E+00 -0.45593999997E+02  0.45594000000E+02  0.51100000000E-03 0. -1.
         23    2    1    2    0    0 -0.35527136788E-14  0.00000000000E+00  0.00000000000E+00  0.91188000000E+02  0.91188000000E+02 0.  0.
    9900012    2    3    3    0    0  0.31601289315E+02 -0.17991035272E+02 -0.57846991802E+01  0.54367060561E+02  0.39999946161E+02 0.  0.
         12    1    3    3    0    0 -0.31601289315E+02  0.17991035272E+02  0.57846991802E+01  0.36820939439E+02  0.00000000000E+00 0. -1.
         11    1    4    4    0    0  0.18030525638E+02  0.47207380430E+01 -0.59960437105E+01  0.19579013328E+02  0.51100000000E-03 0. -1.
        -11    1    4    4    0    0  0.12049441186E+02 -0.12839312581E+01  0.44186432256E+01  0.12898136323E+02  0.51100000000E-03 0.  1.
        -12    1    4    4    0    0  0.15213224904E+01 -0.21427842057E+02 -0.42072986953E+01  0.21889910910E+02  0.00000000000E+00 0.  1.
</event>
<event>
 8    1  0.1229941E-006  0.9118800E+02  0.7816164E-02  0.1184000E+00
        -11   -1    0    0    0    0  0.00000000000E+00  0.00000000000E+00  0.45593999997E+02  0.45594000000E+02  0.51100000000E-03 0.  1.
         11   -1    0    0    0    0 -0.00000000000E+00 -0.00000000000E+00 -0.45593999997E+02  0.45594000000E+02  0.51100000000E-03 0. -1.
         23    2    1    2    0    0  0.00000000000E+00 -0.71054273576E-14  0.88817841970E-15  0.91188000000E+02  0.91188000000E+02 0.  0.
    9900012    2    3    3    0    0 -0.16813925214E+02  0.32439656510E+02 -0.45543042936E+01  0.54367067323E+02  0.39999961577E+02 0.  0.
         12    1    3    3    0    0  0.16813925214E+02 -0.32439656510E+02  0.45543042936E+01  0.36820932677E+02  0.00000000000E+00 0. -1.
         11    1    4    4    0    0  0.36077990889E+01  0.23573115730E+02 -0.11619467215E+02  0.26527721691E+02  0.51100000000E-03 0. -1.
        -11    1    4    4    0    0 -0.10537975185E+02 -0.14469635396E+01  0.83132163906E+01  0.13500081166E+02  0.51100000000E-03 0.  1.
        -12    1    4    4    0    0 -0.98837491178E+01  0.10313504319E+02 -0.12480534691E+01  0.14339264466E+02  0.00000000000E+00 0.  1.
</event>
<event>
 8    1  0.1229941E-006  0.9118800E+02  0.7816164E-02  0.1184000E+00
        -11   -1    0    0    0    0  0.00000000000E+00  0.00000000000E+00  0.45593999997E+02  0.45594000000E+02  0.51100000000E-03 0. -1.
         11   -1    0    0    0    0 -0.00000000000E+00 -0.00000000000E+00 -0.45593999997E+02  0.45594000000E+02  0.51100000000E-03 0.  1.
         23    2    1    2    0    0  0.00000000000E+00  0.00000000000E+00 -0.88817841970E-15  0.91188000000E+02  0.91188000000E+02 0.  0.
    9900012    2    3    3    0    0  0.22451158226E+02  0.28301282977E+02  0.71247838548E+01  0.54367086529E+02  0.40000005361E+02 0.  0.
        -12    1    3    3    0    0 -0.22451158226E+02 -0.28301282977E+02 -0.71247838548E+01  0.36820913471E+02  0.00000000000E+00 0.  1.
         11    1    4    4    0    0  0.35302683456E+00 -0.87057277730E+01  0.27610389323E+01  0.91398938862E+01  0.51100000000E-03 0. -1.
        -11    1    4    4    0    0  0.36225457379E+01  0.13466920828E+02  0.61668271151E+01  0.15248296664E+02  0.51100000000E-03 0.  1.
        -12    1    4    4    0    0  0.18475585654E+02  0.23540089921E+02 -0.18030821925E+01  0.29978895979E+02  0.00000000000E+00 0.  1.
</event>
<event>
 8    1  0.1229941E-006  0.9118800E+02  0.7816164E-02  0.1184000E+00
        -11   -1    0    0    0    0  0.00000000000E+00  0.00000000000E+00  0.45593999997E+02  0.45594000000E+02  0.51100000000E-03 0.  1.
         11   -1    0    0    0    0 -0.00000000000E+00 -0.00000000000E+00 -0.45593999997E+02  0.45594000000E+02  0.51100000000E-03 0. -1.
         23    2    1    2    0    0  0.00000000000E+00  0.17763568394E-14  0.00000000000E+00  0.91188000000E+02  0.91188000000E+02 0.  0.
    9900012    2    3    3    0    0  0.24613171759E+02  0.10628688124E+02  0.25238909663E+02  0.54367084799E+02  0.40000001416E+02 0.  0.
         12    1    3    3    0    0 -0.24613171759E+02 -0.10628688124E+02 -0.25238909663E+02  0.36820915201E+02  0.00000000000E+00 0. -1.
         11    1    4    4    0    0  0.17405116848E+02  0.19198857833E+02  0.62340397182E+01  0.26653282838E+02  0.51100000000E-03 0.  1.
        -11    1    4    4    0    0  0.41734579451E+01 -0.13633840592E+02  0.13052525641E+02  0.19330488519E+02  0.51100000000E-03 0. -1.
         12    1    4    4    0    0  0.30345969656E+01  0.50636708823E+01  0.59523443037E+01  0.83833134414E+01  0.00000000000E+00 0. -1.
</event>
<event>
 8    1  0.1229941E-006  0.9118800E+02  0.7816164E-02  0.1184000E+00
        -11   -1    0    0    0    0  0.00000000000E+00  0.00000000000E+00  0.45593999997E+02  0.45594000000E+02  0.51100000000E-03 0.  1.
         11   -1    0    0    0    0 -0.00000000000E+00 -0.00000000000E+00 -0.45593999997E+02  0.45594000000E+02  0.51100000000E-03 0. -1.
         23    2    1    2    0    0  0.71054273576E-14  0.00000000000E+00  0.00000000000E+00  0.91188000000E+02  0.91188000000E+02 0.  0.
    9900012    2    3    3    0    0 -0.35688675791E+02  0.26777556400E+01 -0.86561298841E+01  0.54367074705E+02  0.39999978406E+02 0.  0.
        -12    1    3    3    0    0  0.35688675791E+02 -0.26777556400E+01  0.86561298841E+01  0.36820925295E+02  0.00000000000E+00 0.  1.
         11    1    4    4    0    0 -0.31872654267E+02 -0.85364434259E+01 -0.10008845990E+02  0.34480631588E+02  0.51100000000E-03 0. -1.
        -11    1    4    4    0    0  0.54585825038E+01  0.79003360281E+01  0.26269080509E+01  0.99555049333E+01  0.51100000000E-03 0.  1.
        -12    1    4    4    0    0 -0.92746040280E+01  0.33138630377E+01 -0.12741919454E+01  0.99309381844E+01  0.00000000000E+00 0.  1.
</event>
<event>
 8    1  0.1229941E-006  0.9118800E+02  0.7816164E-02  0.1184000E+00
        -11   -1    0    0    0    0  0.00000000000E+00  0.00000000000E+00  0.45593999997E+02  0.45594000000E+02  0.51100000000E-03 0.  1.
         11   -1    0    0    0    0 -0.00000000000E+00 -0.00000000000E+00 -0.45593999997E+02  0.45594000000E+02  0.51100000000E-03 0. -1.
         23    2    1    2    0    0  0.35527136788E-14 -0.66613381478E-15  0.00000000000E+00  0.91188000000E+02  0.91188000000E+02 0.  0.
    9900012    2    3    3    0    0  0.18123531052E+02 -0.99826249409E+00 -0.32036252706E+02  0.54367076692E+02  0.39999982935E+02 0.  0.
        -12    1    3    3    0    0 -0.18123531052E+02  0.99826249409E+00  0.32036252706E+02  0.36820923308E+02  0.00000000000E+00 0.  1.
         11    1    4    4    0    0  0.11846757067E+02 -0.11931342134E+02 -0.17360552662E+02  0.24167982272E+02  0.51100000000E-03 0. -1.
        -11    1    4    4    0    0  0.33322343369E+01  0.60491613016E+01 -0.20748865878E+02  0.21868049149E+02  0.51100000000E-03 0.  1.
        -12    1    4    4    0    0  0.29445396473E+01  0.48839183381E+01  0.60731658332E+01  0.83310452708E+01  0.00000000000E+00 0.  1.
</event>
<event>
 8    1  0.1229941E-006  0.9118800E+02  0.7816164E-02  0.1184000E+00
        -11   -1    0    0    0    0  0.00000000000E+00  0.00000000000E+00  0.45593999997E+02  0.45594000000E+02  0.51100000000E-03 0.  1.
         11   -1    0    0    0    0 -0.00000000000E+00 -0.00000000000E+00 -0.45593999997E+02  0.45594000000E+02  0.51100000000E-03 0. -1.
         23    2    1    2    0    0  0.00000000000E+00  0.35527136788E-14  0.00000000000E+00  0.91188000000E+02  0.91188000000E+02 0.  0.
    9900012    2    3    3    0    0 -0.17588156107E+02 -0.21149815267E+02 -0.24476945323E+02  0.54367098688E+02  0.40000033080E+02 0.  0.
        -12    1    3    3    0    0  0.17588156107E+02  0.21149815267E+02  0.24476945323E+02  0.36820901312E+02  0.00000000000E+00 0.  1.
         11    1    4    4    0    0 -0.26713196313E+02 -0.90421306822E+01 -0.82258871722E+01  0.29377205527E+02  0.51100000000E-03 0. -1.
        -11    1    4    4    0    0 -0.73946247017E+00 -0.81245299157E+01 -0.88121959564E+01  0.12008729697E+02  0.51100000000E-03 0.  1.
        -12    1    4    4    0    0  0.98645026759E+01 -0.39831546686E+01 -0.74388621941E+01  0.12981163465E+02  0.00000000000E+00 0.  1.
</event>
<event>
 8    1  0.1229941E-006  0.9118800E+02  0.7816164E-02  0.1184000E+00
        -11   -1    0    0    0    0  0.00000000000E+00  0.00000000000E+00  0.45593999997E+02  0.45594000000E+02  0.51100000000E-03 0. -1.
         11   -1    0    0    0    0 -0.00000000000E+00 -0.00000000000E+00 -0.45593999997E+02  0.45594000000E+02  0.51100000000E-03 0.  1.
         23    2    1    2    0    0  0.00000000000E+00  0.00000000000E+00 -0.71054273576E-14  0.91188000000E+02  0.91188000000E+02 0.  0.
    9900012    2    3    3    0    0  0.10256632437E+02  0.89965739109E+01 -0.34199982674E+02  0.54367140885E+02  0.40000129275E+02 0.  0.
         12    1    3    3    0    0 -0.10256632437E+02 -0.89965739109E+01  0.34199982674E+02  0.36820859115E+02  0.00000000000E+00 0. -1.
         11    1    4    4    0    0 -0.71927946038E+01 -0.53897020122E+01  0.71743947922E+00  0.90166458098E+01  0.51100000000E-03 0. -1.
        -11    1    4    4    0    0  0.27380625786E+01  0.16777864758E+01 -0.21478339834E+02  0.21717067860E+02  0.51100000000E-03 0.  1.
        -12    1    4    4    0    0  0.14711364462E+02  0.12708489447E+02 -0.13439082319E+02  0.23633427216E+02  0.00000000000E+00 0.  1.
</event>
<event>
 8    1  0.1229941E-006  0.9118800E+02  0.7816164E-02  0.1184000E+00
        -11   -1    0    0    0    0  0.00000000000E+00  0.00000000000E+00  0.45593999997E+02  0.45594000000E+02  0.51100000000E-03 0.  1.
         11   -1    0    0    0    0 -0.00000000000E+00 -0.00000000000E+00 -0.45593999997E+02  0.45594000000E+02  0.51100000000E-03 0. -1.
         23    2    1    2    0    0  0.00000000000E+00  0.00000000000E+00  0.00000000000E+00  0.91188000000E+02  0.91188000000E+02 0.  0.
    9900012    2    3    3    0    0  0.55763283937E+01  0.35943821388E+02  0.57206509382E+01  0.54367087715E+02  0.40000008063E+02 0.  0.
        -12    1    3    3    0    0 -0.55763283937E+01 -0.35943821388E+02 -0.57206509382E+01  0.36820912285E+02  0.00000000000E+00 0.  1.
         11    1    4    4    0    0  0.85428425063E+01  0.18228473252E+02  0.50683301873E+00  0.20137385013E+02  0.51100000000E-03 0. -1.
        -11    1    4    4    0    0 -0.71872349944E+01  0.16330840507E+02  0.15110932607E+02  0.23381466657E+02  0.51100000000E-03 0.  1.
         12    1    4    4    0    0  0.42207208818E+01  0.13845076295E+01 -0.98971146876E+01  0.10848236045E+02  0.00000000000E+00 0. -1.
</event>
<event>
 8    1  0.1229941E-006  0.9118800E+02  0.7816164E-02  0.1184000E+00
        -11   -1    0    0    0    0  0.00000000000E+00  0.00000000000E+00  0.45593999997E+02  0.45594000000E+02  0.51100000000E-03 0.  1.
         11   -1    0    0    0    0 -0.00000000000E+00 -0.00000000000E+00 -0.45593999997E+02  0.45594000000E+02  0.51100000000E-03 0. -1.
         23    2    1    2    0    0  0.00000000000E+00  0.00000000000E+00  0.00000000000E+00  0.91188000000E+02  0.91188000000E+02 0.  0.
    9900012    2    3    3    0    0  0.24023753211E+02  0.24962487309E+02 -0.12470490621E+02  0.54367087093E+02  0.40000006646E+02 0.  0.
         12    1    3    3    0    0 -0.24023753211E+02 -0.24962487309E+02  0.12470490621E+02  0.36820912907E+02  0.00000000000E+00 0. -1.
         11    1    4    4    0    0  0.10092435189E+02 -0.49559318540E+01 -0.38060456909E+01  0.11870319821E+02  0.51100000000E-03 0. -1.
        -11    1    4    4    0    0  0.17751680964E+02  0.12477885709E+02 -0.11274905992E+02  0.24452879467E+02  0.51100000000E-03 0.  1.
        -12    1    4    4    0    0 -0.38203629426E+01  0.17440533454E+02  0.26104610624E+01  0.18043887805E+02  0.00000000000E+00 0.  1.
</event>
<event>
 8    1  0.1229941E-006  0.9118800E+02  0.7816164E-02  0.1184000E+00
        -11   -1    0    0    0    0  0.00000000000E+00  0.00000000000E+00  0.45593999997E+02  0.45594000000E+02  0.51100000000E-03 0. -1.
         11   -1    0    0    0    0 -0.00000000000E+00 -0.00000000000E+00 -0.45593999997E+02  0.45594000000E+02  0.51100000000E-03 0.  1.
         23    2    1    2    0    0  0.35527136788E-14 -0.17763568394E-14  0.00000000000E+00  0.91188000000E+02  0.91188000000E+02 0.  0.
    9900012    2    3    3    0    0 -0.25313512713E+02  0.12057037125E+02 -0.23866992612E+02  0.54367090092E+02  0.40000013482E+02 0.  0.
         12    1    3    3    0    0  0.25313512713E+02 -0.12057037125E+02  0.23866992612E+02  0.36820909908E+02  0.00000000000E+00 0. -1.
         11    1    4    4    0    0 -0.13307719280E+02  0.18291743944E+02 -0.10190336170E+02  0.24809801299E+02  0.51100000000E-03 0. -1.
        -11    1    4    4    0    0 -0.80007705407E+01 -0.11481995018E+02 -0.17120035954E+02  0.22112081995E+02  0.51100000000E-03 0.  1.
         12    1    4    4    0    0 -0.40050228923E+01  0.52472881988E+01  0.34433795114E+01  0.74452067983E+01  0.00000000000E+00 0. -1.
</event>
<event>
 8    1  0.1229941E-006  0.9118800E+02  0.7816164E-02  0.1184000E+00
        -11   -1    0    0    0    0  0.00000000000E+00  0.00000000000E+00  0.45593999997E+02  0.45594000000E+02  0.51100000000E-03 0. -1.
         11   -1    0    0    0    0 -0.00000000000E+00 -0.00000000000E+00 -0.45593999997E+02  0.45594000000E+02  0.51100000000E-03 0.  1.
         23    2    1    2    0    0  0.00000000000E+00 -0.17763568394E-14  0.88817841970E-15  0.91188000000E+02  0.91188000000E+02 0.  0.
    9900012    2    3    3    0    0 -0.35375746548E+02 -0.10000657943E+02  0.20793833428E+01  0.54367076081E+02  0.39999981543E+02 0.  0.
         12    1    3    3    0    0  0.35375746548E+02  0.10000657943E+02 -0.20793833428E+01  0.36820923919E+02  0.00000000000E+00 0. -1.
         11    1    4    4    0    0 -0.96323662420E+01 -0.12515927959E+02  0.57719547018E+01  0.16815064479E+02  0.51100000000E-03 0. -1.
        -11    1    4    4    0    0 -0.20775241503E+02 -0.97748301681E+01  0.21599418287E+01  0.23061294701E+02  0.51100000000E-03 0.  1.
        -12    1    4    4    0    0 -0.49681388031E+01  0.12290100184E+02 -0.58525131877E+01  0.14490716901E+02  0.00000000000E+00 0.  1.
</event>
<event>
 8    1  0.1229941E-006  0.9118800E+02  0.7816164E-02  0.1184000E+00
        -11   -1    0    0    0    0  0.00000000000E+00  0.00000000000E+00  0.45593999997E+02  0.45594000000E+02  0.51100000000E-03 0.  1.
         11   -1    0    0    0    0 -0.00000000000E+00 -0.00000000000E+00 -0.45593999997E+02  0.45594000000E+02  0.51100000000E-03 0. -1.
         23    2    1    2    0    0  0.00000000000E+00 -0.88817841970E-15 -0.88817841970E-15  0.91188000000E+02  0.91188000000E+02 0.  0.
    9900012    2    3    3    0    0  0.35829389940E+02 -0.56953246755E+01 -0.62925939121E+01  0.54367100435E+02  0.40000037063E+02 0.  0.
         12    1    3    3    0    0 -0.35829389940E+02  0.56953246755E+01  0.62925939121E+01  0.36820899565E+02  0.00000000000E+00 0. -1.
         11    1    4    4    0    0  0.23808322312E+01  0.37697727386E+01  0.51410374221E+01  0.68051314940E+01  0.51100000000E-03 0. -1.
        -11    1    4    4    0    0  0.32960182003E+02 -0.23640166827E+01  0.11940056701E+01  0.33066415323E+02  0.51100000000E-03 0.  1.
         12    1    4    4    0    0  0.48837570561E+00 -0.71010807315E+01 -0.12627637004E+02  0.14495553618E+02  0.00000000000E+00 0. -1.
</event>
<event>
 8    1  0.1229941E-006  0.9118800E+02  0.7816164E-02  0.1184000E+00
        -11   -1    0    0    0    0  0.00000000000E+00  0.00000000000E+00  0.45593999997E+02  0.45594000000E+02  0.51100000000E-03 0.  1.
         11   -1    0    0    0    0 -0.00000000000E+00 -0.00000000000E+00 -0.45593999997E+02  0.45594000000E+02  0.51100000000E-03 0. -1.
         23    2    1    2    0    0  0.00000000000E+00 -0.35527136788E-14 -0.35527136788E-14  0.91188000000E+02  0.91188000000E+02 0.  0.
    9900012    2    3    3    0    0  0.17603966600E+01  0.23766210188E+02  0.28068648706E+02  0.54367071395E+02  0.39999970860E+02 0.  0.
         12    1    3    3    0    0 -0.17603966600E+01 -0.23766210188E+02 -0.28068648706E+02  0.36820928605E+02  0.00000000000E+00 0. -1.
         11    1    4    4    0    0 -0.47600013933E+01  0.18896435673E+02  0.83105490865E+01  0.21184855930E+02  0.51100000000E-03 0. -1.
        -11    1    4    4    0    0  0.15172349787E+02  0.30903687212E+01  0.55427255051E+01  0.16446044606E+02  0.51100000000E-03 0.  1.
         12    1    4    4    0    0 -0.86519517341E+01  0.17794057944E+01  0.14215374115E+02  0.16736170859E+02  0.00000000000E+00 0. -1.
</event>
<event>
 8    1  0.1229941E-006  0.9118800E+02  0.7816164E-02  0.1184000E+00
        -11   -1    0    0    0    0  0.00000000000E+00  0.00000000000E+00  0.45593999997E+02  0.45594000000E+02  0.51100000000E-03 0.  1.
         11   -1    0    0    0    0 -0.00000000000E+00 -0.00000000000E+00 -0.45593999997E+02  0.45594000000E+02  0.51100000000E-03 0. -1.
         23    2    1    2    0    0  0.00000000000E+00  0.00000000000E+00  0.00000000000E+00  0.91188000000E+02  0.91188000000E+02 0.  0.
    9900012    2    3    3    0    0  0.33034916594E+02  0.10088733636E+02  0.12755023005E+02  0.54367097341E+02  0.40000030009E+02 0.  0.
        -12    1    3    3    0    0 -0.33034916594E+02 -0.10088733636E+02 -0.12755023005E+02  0.36820902659E+02  0.00000000000E+00 0.  1.
         11    1    4    4    0    0  0.14961151398E+02 -0.38544294025E+00 -0.22349765399E+01  0.15132076454E+02  0.51100000000E-03 0. -1.
        -11    1    4    4    0    0  0.38899401107E+01  0.18078651493E+02  0.13844337181E+02  0.23100539952E+02  0.51100000000E-03 0.  1.
         12    1    4    4    0    0  0.14183825085E+02 -0.76044749165E+01  0.11456623646E+01  0.16134480936E+02  0.00000000000E+00 0. -1.
</event>
<event>
 8    1  0.1229941E-006  0.9118800E+02  0.7816164E-02  0.1184000E+00
        -11   -1    0    0    0    0  0.00000000000E+00  0.00000000000E+00  0.45593999997E+02  0.45594000000E+02  0.51100000000E-03 0.  1.
         11   -1    0    0    0    0 -0.00000000000E+00 -0.00000000000E+00 -0.45593999997E+02  0.45594000000E+02  0.51100000000E-03 0. -1.
         23    2    1    2    0    0  0.00000000000E+00 -0.17763568394E-14  0.17763568394E-14  0.91188000000E+02  0.91188000000E+02 0.  0.
    9900012    2    3    3    0    0  0.31670194713E+02  0.11109936145E+02 -0.15144328284E+02  0.54367046815E+02  0.39999914824E+02 0.  0.
        -12    1    3    3    0    0 -0.31670194713E+02 -0.11109936145E+02  0.15144328284E+02  0.36820953185E+02  0.00000000000E+00 0.  1.
         11    1    4    4    0    0  0.26845397407E+02  0.15533925297E+02  0.40567199921E+01  0.31279948440E+02  0.51100000000E-03 0. -1.
        -11    1    4    4    0    0 -0.59439394641E+00 -0.41630090350E+01 -0.13298454613E+01  0.44104917641E+01  0.51100000000E-03 0.  1.
         12    1    4    4    0    0  0.54191912526E+01 -0.26098011673E+00 -0.17871202815E+02  0.18676606611E+02  0.00000000000E+00 0. -1.
</event>
<event>
 8    1  0.1229941E-006  0.9118800E+02  0.7816164E-02  0.1184000E+00
        -11   -1    0    0    0    0  0.00000000000E+00  0.00000000000E+00  0.45593999997E+02  0.45594000000E+02  0.51100000000E-03 0.  1.
         11   -1    0    0    0    0 -0.00000000000E+00 -0.00000000000E+00 -0.45593999997E+02  0.45594000000E+02  0.51100000000E-03 0. -1.
         23    2    1    2    0    0  0.35527136788E-14  0.22204460493E-15  0.00000000000E+00  0.91188000000E+02  0.91188000000E+02 0.  0.
    9900012    2    3    3    0    0  0.23214754514E+02  0.17194187379E+01  0.28528908865E+02  0.54367083811E+02  0.39999999164E+02 0.  0.
         12    1    3    3    0    0 -0.23214754514E+02 -0.17194187379E+01 -0.28528908865E+02  0.36820916189E+02  0.00000000000E+00 0. -1.
         11    1    4    4    0    0 -0.37169947888E+01 -0.15394647026E+01 -0.11977750483E+01  0.41976978402E+01  0.51100000000E-03 0. -1.
        -11    1    4    4    0    0  0.23250657744E+01  0.39973885235E+01  0.24590480438E+02  0.25021526218E+02  0.51100000000E-03 0.  1.
         12    1    4    4    0    0  0.24606683528E+02 -0.73850508298E+00  0.51362034762E+01  0.25147859753E+02  0.00000000000E+00 0. -1.
</event>
<event>
 8    1  0.1229941E-006  0.9118800E+02  0.7816164E-02  0.1184000E+00
        -11   -1    0    0    0    0  0.00000000000E+00  0.00000000000E+00  0.45593999997E+02  0.45594000000E+02  0.51100000000E-03 0. -1.
         11   -1    0    0    0    0 -0.00000000000E+00 -0.00000000000E+00 -0.45593999997E+02  0.45594000000E+02  0.51100000000E-03 0.  1.
         23    2    1    2    0    0 -0.18041124150E-15  0.00000000000E+00  0.00000000000E+00  0.91188000000E+02  0.91188000000E+02 0.  0.
    9900012    2    3    3    0    0 -0.71823483230E-01 -0.27766555073E+02 -0.24182495087E+02  0.54367084641E+02  0.40000001057E+02 0.  0.
         12    1    3    3    0    0  0.71823483230E-01  0.27766555073E+02  0.24182495087E+02  0.36820915359E+02  0.00000000000E+00 0. -1.
         11    1    4    4    0    0  0.10162936121E+01  0.14872746597E+01  0.46434629423E+01  0.49806211437E+01  0.51100000000E-03 0. -1.
        -11    1    4    4    0    0  0.99042312344E+01 -0.27104254505E+02 -0.21781851210E+02  0.36154992062E+02  0.51100000000E-03 0.  1.
        -12    1    4    4    0    0 -0.10992348330E+02 -0.21495752270E+01 -0.70441068196E+01  0.13231471435E+02  0.00000000000E+00 0.  1.
</event>
<event>
 8    1  0.1229941E-006  0.9118800E+02  0.7816164E-02  0.1184000E+00
        -11   -1    0    0    0    0  0.00000000000E+00  0.00000000000E+00  0.45593999997E+02  0.45594000000E+02  0.51100000000E-03 0. -1.
         11   -1    0    0    0    0 -0.00000000000E+00 -0.00000000000E+00 -0.45593999997E+02  0.45594000000E+02  0.51100000000E-03 0.  1.
         23    2    1    2    0    0  0.00000000000E+00  0.44408920985E-15  0.00000000000E+00  0.91188000000E+02  0.91188000000E+02 0.  0.
    9900012    2    3    3    0    0 -0.11234082524E+02  0.30730472191E+01 -0.34930381066E+02  0.54367085416E+02  0.40000002823E+02 0.  0.
         12    1    3    3    0    0  0.11234082524E+02 -0.30730472191E+01  0.34930381066E+02  0.36820914584E+02  0.00000000000E+00 0. -1.
         11    1    4    4    0    0  0.77870797809E+00  0.80433913737E+01 -0.17542565434E+02  0.19314350447E+02  0.51100000000E-03 0. -1.
        -11    1    4    4    0    0 -0.66609867541E+01  0.11321388381E+02 -0.58173765430E+01  0.14366086785E+02  0.51100000000E-03 0.  1.
         12    1    4    4    0    0 -0.53518037476E+01 -0.16291732536E+02 -0.11570439089E+02  0.20686648184E+02  0.00000000000E+00 0. -1.
</event>
<event>
 8    1  0.1229941E-006  0.9118800E+02  0.7816164E-02  0.1184000E+00
        -11   -1    0    0    0    0  0.00000000000E+00  0.00000000000E+00  0.45593999997E+02  0.45594000000E+02  0.51100000000E-03 0.  1.
         11   -1    0    0    0    0 -0.00000000000E+00 -0.00000000000E+00 -0.45593999997E+02  0.45594000000E+02  0.51100000000E-03 0. -1.
         23    2    1    2    0    0 -0.44408920985E-15  0.00000000000E+00 -0.71054273576E-14  0.91188000000E+02  0.91188000000E+02 0.  0.
    9900012    2    3    3    0    0 -0.34355630702E+01 -0.28786158390E+02 -0.22700919985E+02  0.54367112223E+02  0.40000063936E+02 0.  0.
        -12    1    3    3    0    0  0.34355630702E+01  0.28786158390E+02  0.22700919985E+02  0.36820887777E+02  0.00000000000E+00 0.  1.
         11    1    4    4    0    0  0.13575780050E+02 -0.92739568242E+01 -0.51341315319E+01  0.17224035125E+02  0.51100000000E-03 0. -1.
        -11    1    4    4    0    0  0.21342926740E+01 -0.11938171772E+02 -0.69470099631E+01  0.13976269108E+02  0.51100000000E-03 0.  1.
        -12    1    4    4    0    0 -0.19145635794E+02 -0.75740297938E+01 -0.10619778490E+02  0.23166807991E+02  0.00000000000E+00 0.  1.
</event>
<event>
 8    1  0.1229941E-006  0.9118800E+02  0.7816164E-02  0.1184000E+00
        -11   -1    0    0    0    0  0.00000000000E+00  0.00000000000E+00  0.45593999997E+02  0.45594000000E+02  0.51100000000E-03 0.  1.
         11   -1    0    0    0    0 -0.00000000000E+00 -0.00000000000E+00 -0.45593999997E+02  0.45594000000E+02  0.51100000000E-03 0. -1.
         23    2    1    2    0    0  0.00000000000E+00 -0.35527136788E-14  0.17763568394E-14  0.91188000000E+02  0.91188000000E+02 0.  0.
    9900012    2    3    3    0    0 -0.32506165485E+02 -0.16636560171E+02 -0.47279639814E+01  0.54367087840E+02  0.40000008349E+02 0.  0.
        -12    1    3    3    0    0  0.32506165485E+02  0.16636560171E+02  0.47279639814E+01  0.36820912160E+02  0.00000000000E+00 0.  1.
         11    1    4    4    0    0 -0.28229508079E+02 -0.17475136893E+02 -0.94992061982E+01  0.34532889460E+02  0.51100000000E-03 0. -1.
        -11    1    4    4    0    0 -0.91602956471E+00 -0.83210619943E-01  0.11880898952E+02  0.11916450576E+02  0.51100000000E-03 0.  1.
        -12    1    4    4    0    0 -0.33606278413E+01  0.92178734241E+00 -0.71096567350E+01  0.79177478037E+01  0.00000000000E+00 0.  1.
</event>
<event>
 8    1  0.1229941E-006  0.9118800E+02  0.7816164E-02  0.1184000E+00
        -11   -1    0    0    0    0  0.00000000000E+00  0.00000000000E+00  0.45593999997E+02  0.45594000000E+02  0.51100000000E-03 0.  1.
         11   -1    0    0    0    0 -0.00000000000E+00 -0.00000000000E+00 -0.45593999997E+02  0.45594000000E+02  0.51100000000E-03 0. -1.
         23    2    1    2    0    0  0.22204460493E-15  0.00000000000E+00  0.00000000000E+00  0.91188000000E+02  0.91188000000E+02 0.  0.
    9900012    2    3    3    0    0 -0.14656616435E+01  0.34725143776E+02 -0.12157105483E+02  0.54367095774E+02  0.40000026436E+02 0.  0.
         12    1    3    3    0    0  0.14656616435E+01 -0.34725143776E+02  0.12157105483E+02  0.36820904226E+02  0.00000000000E+00 0. -1.
         11    1    4    4    0    0  0.27895064979E+01  0.42174542470E+02 -0.11272362425E+02  0.43744022837E+02  0.51100000000E-03 0.  1.
        -11    1    4    4    0    0 -0.37000262401E+01 -0.68381468161E+01 -0.30144423938E+01  0.83389033609E+01  0.51100000000E-03 0. -1.
         12    1    4    4    0    0 -0.55514190124E+00 -0.61125187842E+00  0.21296993361E+01  0.22841695760E+01  0.00000000000E+00 0. -1.
</event>
<event>
 8    1  0.1229941E-006  0.9118800E+02  0.7816164E-02  0.1184000E+00
        -11   -1    0    0    0    0  0.00000000000E+00  0.00000000000E+00  0.45593999997E+02  0.45594000000E+02  0.51100000000E-03 0.  1.
         11   -1    0    0    0    0 -0.00000000000E+00 -0.00000000000E+00 -0.45593999997E+02  0.45594000000E+02  0.51100000000E-03 0. -1.
         23    2    1    2    0    0 -0.35527136788E-14  0.00000000000E+00  0.00000000000E+00  0.91188000000E+02  0.91188000000E+02 0.  0.
    9900012    2    3    3    0    0 -0.20064972792E+02  0.23525566321E+02  0.19993004991E+02  0.54367141069E+02  0.40000129694E+02 0.  0.
        -12    1    3    3    0    0  0.20064972792E+02 -0.23525566321E+02 -0.19993004991E+02  0.36820858931E+02  0.00000000000E+00 0.  1.
         11    1    4    4    0    0 -0.62137755767E+01  0.11807664922E+02 -0.27552287409E+01  0.13624362132E+02  0.51100000000E-03 0. -1.
        -11    1    4    4    0    0 -0.92248504497E+00  0.99911090844E+01  0.25508065531E+02  0.27410484249E+02  0.51100000000E-03 0.  1.
         12    1    4    4    0    0 -0.12928712170E+02  0.17267923154E+01 -0.27598317992E+01  0.13332294688E+02  0.00000000000E+00 0. -1.
</event>
<event>
 8    1  0.1229941E-006  0.9118800E+02  0.7816164E-02  0.1184000E+00
        -11   -1    0    0    0    0  0.00000000000E+00  0.00000000000E+00  0.45593999997E+02  0.45594000000E+02  0.51100000000E-03 0.  1.
         11   -1    0    0    0    0 -0.00000000000E+00 -0.00000000000E+00 -0.45593999997E+02  0.45594000000E+02  0.51100000000E-03 0. -1.
         23    2    1    2    0    0 -0.44408920985E-15  0.00000000000E+00  0.35527136788E-14  0.91188000000E+02  0.91188000000E+02 0.  0.
    9900012    2    3    3    0    0 -0.29286413463E+01 -0.30415705302E+02  0.20544758688E+02  0.54367093185E+02  0.40000020533E+02 0.  0.
        -12    1    3    3    0    0  0.29286413463E+01  0.30415705302E+02 -0.20544758688E+02  0.36820906815E+02  0.00000000000E+00 0.  1.
         11    1    4    4    0    0 -0.12139133395E+02 -0.11799265528E+02  0.15129207278E+02  0.22704055578E+02  0.51100000000E-03 0. -1.
        -11    1    4    4    0    0  0.11043184260E+02 -0.42609869160E+01  0.10992453113E+02  0.16153697837E+02  0.51100000000E-03 0.  1.
         12    1    4    4    0    0 -0.18326922116E+01 -0.14355452858E+02 -0.55769017028E+01  0.15509339770E+02  0.00000000000E+00 0. -1.
</event>
<event>
 8    1  0.1229941E-006  0.9118800E+02  0.7816164E-02  0.1184000E+00
        -11   -1    0    0    0    0  0.00000000000E+00  0.00000000000E+00  0.45593999997E+02  0.45594000000E+02  0.51100000000E-03 0.  1.
         11   -1    0    0    0    0 -0.00000000000E+00 -0.00000000000E+00 -0.45593999997E+02  0.45594000000E+02  0.51100000000E-03 0. -1.
         23    2    1    2    0    0  0.35527136788E-14  0.44408920985E-15  0.35527136788E-14  0.91188000000E+02  0.91188000000E+02 0.  0.
    9900012    2    3    3    0    0 -0.18385720166E+02 -0.15151693119E+01 -0.31866119199E+02  0.54367082074E+02  0.39999995205E+02 0.  0.
        -12    1    3    3    0    0  0.18385720166E+02  0.15151693119E+01  0.31866119199E+02  0.36820917926E+02  0.00000000000E+00 0.  1.
         11    1    4    4    0    0  0.48312881775E+01  0.12094513443E+01 -0.69045053301E+00  0.50280055895E+01  0.51100000000E-03 0. -1.
        -11    1    4    4    0    0  0.43836100553E+01  0.52584920994E+01 -0.14706202112E+02  0.16221595393E+02  0.51100000000E-03 0.  1.
         12    1    4    4    0    0 -0.27600618399E+02 -0.79831127557E+01 -0.16469466554E+02  0.33117481091E+02  0.00000000000E+00 0. -1.
</event>
<event>
 8    1  0.1229941E-006  0.9118800E+02  0.7816164E-02  0.1184000E+00
        -11   -1    0    0    0    0  0.00000000000E+00  0.00000000000E+00  0.45593999997E+02  0.45594000000E+02  0.51100000000E-03 0.  1.
         11   -1    0    0    0    0 -0.00000000000E+00 -0.00000000000E+00 -0.45593999997E+02  0.45594000000E+02  0.51100000000E-03 0. -1.
         23    2    1    2    0    0  0.17763568394E-14  0.00000000000E+00 -0.71054273576E-14  0.91188000000E+02  0.91188000000E+02 0.  0.
    9900012    2    3    3    0    0 -0.90263545005E+01  0.59326416263E+01  0.35200990612E+02  0.54367067743E+02  0.39999962533E+02 0.  0.
         12    1    3    3    0    0  0.90263545005E+01 -0.59326416263E+01 -0.35200990612E+02  0.36820932257E+02  0.00000000000E+00 0. -1.
         11    1    4    4    0    0 -0.22290094953E+01  0.69863713018E+01  0.16949512746E+02  0.18467914065E+02  0.51100000000E-03 0. -1.
        -11    1    4    4    0    0 -0.66946450481E+01  0.96877941853E+01  0.21638965847E+02  0.24635674777E+02  0.51100000000E-03 0.  1.
         12    1    4    4    0    0 -0.10269995708E+00 -0.10741523861E+02 -0.33874879818E+01  0.11263478901E+02  0.00000000000E+00 0. -1.
</event>
<event>
 8    1  0.1229941E-006  0.9118800E+02  0.7816164E-02  0.1184000E+00
        -11   -1    0    0    0    0  0.00000000000E+00  0.00000000000E+00  0.45593999997E+02  0.45594000000E+02  0.51100000000E-03 0.  1.
         11   -1    0    0    0    0 -0.00000000000E+00 -0.00000000000E+00 -0.45593999997E+02  0.45594000000E+02  0.51100000000E-03 0. -1.
         23    2    1    2    0    0 -0.35527136788E-14  0.35527136788E-14  0.35527136788E-14  0.91188000000E+02  0.91188000000E+02 0.  0.
    9900012    2    3    3    0    0 -0.25653251211E+02  0.16876188701E+02  0.20319552816E+02  0.54367091953E+02  0.40000017726E+02 0.  0.
         12    1    3    3    0    0  0.25653251211E+02 -0.16876188701E+02 -0.20319552816E+02  0.36820908047E+02  0.00000000000E+00 0. -1.
         11    1    4    4    0    0 -0.27011101356E+02  0.18294407563E+02  0.92015027163E+01  0.33896203284E+02  0.51100000000E-03 0. -1.
        -11    1    4    4    0    0  0.71390886966E+01 -0.24715075774E+01 -0.37347232970E+00  0.75640213489E+01  0.51100000000E-03 0.  1.
        -12    1    4    4    0    0 -0.57812385509E+01  0.10532887155E+01  0.11491522429E+02  0.12906867321E+02  0.00000000000E+00 0.  1.
</event>
<event>
 8    1  0.1229941E-006  0.9118800E+02  0.7816164E-02  0.1184000E+00
        -11   -1    0    0    0    0  0.00000000000E+00  0.00000000000E+00  0.45593999997E+02  0.45594000000E+02  0.51100000000E-03 0. -1.
         11   -1    0    0    0    0 -0.00000000000E+00 -0.00000000000E+00 -0.45593999997E+02  0.45594000000E+02  0.51100000000E-03 0.  1.
         23    2    1    2    0    0 -0.35527136788E-14  0.35527136788E-14  0.00000000000E+00  0.91188000000E+02  0.91188000000E+02 0.  0.
    9900012    2    3    3    0    0 -0.23246508120E+02  0.26646259777E+02  0.10264438610E+02  0.54367054876E+02  0.39999933200E+02 0.  0.
        -12    1    3    3    0    0  0.23246508120E+02 -0.26646259777E+02 -0.10264438610E+02  0.36820945124E+02  0.00000000000E+00 0.  1.
         11    1    4    4    0    0 -0.15197885042E+02  0.11804229897E+02  0.90254663695E+01  0.21254989924E+02  0.51100000000E-03 0. -1.
        -11    1    4    4    0    0 -0.76175300203E+01  0.14646173255E+02  0.13202811368E+02  0.21138859546E+02  0.51100000000E-03 0.  1.
        -12    1    4    4    0    0 -0.43109305793E+00  0.19585662462E+00 -0.11963839127E+02  0.11973205406E+02  0.00000000000E+00 0.  1.
</event>
<event>
 8    1  0.1229941E-006  0.9118800E+02  0.7816164E-02  0.1184000E+00
        -11   -1    0    0    0    0  0.00000000000E+00  0.00000000000E+00  0.45593999997E+02  0.45594000000E+02  0.51100000000E-03 0. -1.
         11   -1    0    0    0    0 -0.00000000000E+00 -0.00000000000E+00 -0.45593999997E+02  0.45594000000E+02  0.51100000000E-03 0.  1.
         23    2    1    2    0    0  0.26645352591E-14  0.00000000000E+00  0.00000000000E+00  0.91188000000E+02  0.91188000000E+02 0.  0.
    9900012    2    3    3    0    0 -0.14285942814E+01  0.35488087441E+02 -0.97126602146E+01  0.54367068449E+02  0.39999964144E+02 0.  0.
         12    1    3    3    0    0  0.14285942814E+01 -0.35488087441E+02  0.97126602146E+01  0.36820931551E+02  0.00000000000E+00 0. -1.
         11    1    4    4    0    0  0.20025853523E+01  0.66163844251E+01  0.28123340294E+01  0.74629829096E+01  0.51100000000E-03 0. -1.
        -11    1    4    4    0    0  0.71250167019E+01 -0.89795639587E+00 -0.13513069241E+02  0.15302785017E+02  0.51100000000E-03 0.  1.
        -12    1    4    4    0    0 -0.10556196336E+02  0.29769659411E+02  0.98807499700E+00  0.31601300523E+02  0.00000000000E+00 0.  1.
</event>
<event>
 8    1  0.1229941E-006  0.9118800E+02  0.7816164E-02  0.1184000E+00
        -11   -1    0    0    0    0  0.00000000000E+00  0.00000000000E+00  0.45593999997E+02  0.45594000000E+02  0.51100000000E-03 0. -1.
         11   -1    0    0    0    0 -0.00000000000E+00 -0.00000000000E+00 -0.45593999997E+02  0.45594000000E+02  0.51100000000E-03 0.  1.
         23    2    1    2    0    0  0.35527136788E-14 -0.35527136788E-14  0.17763568394E-14  0.91188000000E+02  0.91188000000E+02 0.  0.
    9900012    2    3    3    0    0 -0.19999880667E+02  0.30574247812E+02  0.45825662676E+01  0.54367085162E+02  0.40000002243E+02 0.  0.
         12    1    3    3    0    0  0.19999880667E+02 -0.30574247812E+02 -0.45825662676E+01  0.36820914838E+02  0.00000000000E+00 0. -1.
         11    1    4    4    0    0 -0.46334172342E+01 -0.29930048567E+01  0.21130083756E+01  0.59068974932E+01  0.51100000000E-03 0. -1.
        -11    1    4    4    0    0 -0.16333402150E+02  0.15816224528E+02 -0.11844478227E+02  0.25636393055E+02  0.51100000000E-03 0.  1.
        -12    1    4    4    0    0  0.96693871802E+00  0.17751028141E+02  0.14314036119E+02  0.22823794614E+02  0.00000000000E+00 0.  1.
</event>
<event>
 8    1  0.1229941E-006  0.9118800E+02  0.7816164E-02  0.1184000E+00
        -11   -1    0    0    0    0  0.00000000000E+00  0.00000000000E+00  0.45593999997E+02  0.45594000000E+02  0.51100000000E-03 0. -1.
         11   -1    0    0    0    0 -0.00000000000E+00 -0.00000000000E+00 -0.45593999997E+02  0.45594000000E+02  0.51100000000E-03 0.  1.
         23    2    1    2    0    0  0.00000000000E+00 -0.17763568394E-14  0.00000000000E+00  0.91188000000E+02  0.91188000000E+02 0.  0.
    9900012    2    3    3    0    0  0.10485096480E+02 -0.11289489743E+02 -0.33442333988E+02  0.54367088422E+02  0.40000009676E+02 0.  0.
         12    1    3    3    0    0 -0.10485096480E+02  0.11289489743E+02  0.33442333988E+02  0.36820911578E+02  0.00000000000E+00 0. -1.
         11    1    4    4    0    0  0.71872259036E+01  0.97884745817E+01  0.12845986368E+01  0.12211496417E+02  0.51100000000E-03 0. -1.
        -11    1    4    4    0    0  0.71661048306E+01 -0.13232748675E+02 -0.23806236987E+02  0.28163728725E+02  0.51100000000E-03 0.  1.
         12    1    4    4    0    0 -0.38682342545E+01 -0.78452156493E+01 -0.10920695638E+02  0.13991863280E+02  0.00000000000E+00 0. -1.
</event>
<event>
 8    1  0.1229941E-006  0.9118800E+02  0.7816164E-02  0.1184000E+00
        -11   -1    0    0    0    0  0.00000000000E+00  0.00000000000E+00  0.45593999997E+02  0.45594000000E+02  0.51100000000E-03 0. -1.
         11   -1    0    0    0    0 -0.00000000000E+00 -0.00000000000E+00 -0.45593999997E+02  0.45594000000E+02  0.51100000000E-03 0.  1.
         23    2    1    2    0    0  0.00000000000E+00  0.00000000000E+00  0.00000000000E+00  0.91188000000E+02  0.91188000000E+02 0.  0.
    9900012    2    3    3    0    0  0.11233503254E+02 -0.11081243791E+02  0.33268483624E+02  0.54367115139E+02  0.40000070581E+02 0.  0.
        -12    1    3    3    0    0 -0.11233503254E+02  0.11081243791E+02 -0.33268483624E+02  0.36820884861E+02  0.00000000000E+00 0.  1.
         11    1    4    4    0    0 -0.85997101506E+01 -0.15188901346E+01  0.99352945755E-01  0.87333792535E+01  0.51100000000E-03 0. -1.
        -11    1    4    4    0    0  0.35693344284E+01 -0.99686639843E+00 -0.31916035718E+01  0.48908306553E+01  0.51100000000E-03 0.  1.
         12    1    4    4    0    0  0.16263878976E+02 -0.85654872580E+01  0.36360734251E+02  0.40742905230E+02  0.00000000000E+00 0. -1.
</event>
<event>
 8    1  0.1229941E-006  0.9118800E+02  0.7816164E-02  0.1184000E+00
        -11   -1    0    0    0    0  0.00000000000E+00  0.00000000000E+00  0.45593999997E+02  0.45594000000E+02  0.51100000000E-03 0.  1.
         11   -1    0    0    0    0 -0.00000000000E+00 -0.00000000000E+00 -0.45593999997E+02  0.45594000000E+02  0.51100000000E-03 0. -1.
         23    2    1    2    0    0 -0.71054273576E-14  0.13322676296E-14  0.00000000000E+00  0.91188000000E+02  0.91188000000E+02 0.  0.
    9900012    2    3    3    0    0 -0.29562675449E+02 -0.12033379975E+01 -0.21917557673E+02  0.54367093759E+02  0.40000021843E+02 0.  0.
        -12    1    3    3    0    0  0.29562675449E+02  0.12033379975E+01  0.21917557673E+02  0.36820906241E+02  0.00000000000E+00 0.  1.
         11    1    4    4    0    0 -0.14339233016E+02 -0.83703958411E+01 -0.16381443477E+02  0.23324425409E+02  0.51100000000E-03 0. -1.
        -11    1    4    4    0    0 -0.11815764783E+02 -0.66141931212E+01  0.37846300830E+01  0.14059988378E+02  0.51100000000E-03 0.  1.
         12    1    4    4    0    0 -0.34076776498E+01  0.13781250965E+02 -0.93207442788E+01  0.16982679972E+02  0.00000000000E+00 0. -1.
</event>
<event>
 8    1  0.1229941E-006  0.9118800E+02  0.7816164E-02  0.1184000E+00
        -11   -1    0    0    0    0  0.00000000000E+00  0.00000000000E+00  0.45593999997E+02  0.45594000000E+02  0.51100000000E-03 0.  1.
         11   -1    0    0    0    0 -0.00000000000E+00 -0.00000000000E+00 -0.45593999997E+02  0.45594000000E+02  0.51100000000E-03 0. -1.
         23    2    1    2    0    0  0.00000000000E+00  0.00000000000E+00  0.00000000000E+00  0.91188000000E+02  0.91188000000E+02 0.  0.
    9900012    2    3    3    0    0  0.23881401936E+02 -0.16462825119E+02  0.22681140934E+02  0.54367080357E+02  0.39999991289E+02 0.  0.
        -12    1    3    3    0    0 -0.23881401936E+02  0.16462825119E+02 -0.22681140934E+02  0.36820919643E+02  0.00000000000E+00 0.  1.
         11    1    4    4    0    0 -0.58082869203E+01 -0.87469102314E+01  0.36690419688E+01  0.11122342594E+02  0.51100000000E-03 0. -1.
        -11    1    4    4    0    0  0.90164829558E+01 -0.89743235441E+01 -0.29478952222E+01  0.13058542586E+02  0.51100000000E-03 0.  1.
        -12    1    4    4    0    0  0.20673205900E+02  0.12584086564E+01  0.21959994188E+02  0.30186195177E+02  0.00000000000E+00 0.  1.
</event>
<event>
 8    1  0.1229941E-006  0.9118800E+02  0.7816164E-02  0.1184000E+00
        -11   -1    0    0    0    0  0.00000000000E+00  0.00000000000E+00  0.45593999997E+02  0.45594000000E+02  0.51100000000E-03 0.  1.
         11   -1    0    0    0    0 -0.00000000000E+00 -0.00000000000E+00 -0.45593999997E+02  0.45594000000E+02  0.51100000000E-03 0. -1.
         23    2    1    2    0    0  0.00000000000E+00 -0.88817841970E-15  0.17763568394E-14  0.91188000000E+02  0.91188000000E+02 0.  0.
    9900012    2    3    3    0    0  0.34170446132E+02 -0.53436063464E+01 -0.12633118383E+02  0.54367228719E+02  0.40000329510E+02 0.  0.
        -12    1    3    3    0    0 -0.34170446132E+02  0.53436063464E+01  0.12633118383E+02  0.36820771281E+02  0.00000000000E+00 0.  1.
         11    1    4    4    0    0  0.58329968316E+01 -0.87226618446E+01  0.38234366222E+00  0.10500231837E+02  0.51100000000E-03 0. -1.
        -11    1    4    4    0    0  0.16167687804E+02  0.32066354722E+01 -0.22881133257E+02  0.28199696796E+02  0.51100000000E-03 0.  1.
         12    1    4    4    0    0  0.12169761496E+02  0.17242002597E+00  0.98656712122E+01  0.15667300087E+02  0.00000000000E+00 0. -1.
</event>
<event>
 8    1  0.1229941E-006  0.9118800E+02  0.7816164E-02  0.1184000E+00
        -11   -1    0    0    0    0  0.00000000000E+00  0.00000000000E+00  0.45593999997E+02  0.45594000000E+02  0.51100000000E-03 0.  1.
         11   -1    0    0    0    0 -0.00000000000E+00 -0.00000000000E+00 -0.45593999997E+02  0.45594000000E+02  0.51100000000E-03 0. -1.
         23    2    1    2    0    0 -0.88817841970E-15  0.00000000000E+00  0.35527136788E-14  0.91188000000E+02  0.91188000000E+02 0.  0.
    9900012    2    3    3    0    0 -0.63183170383E+01  0.21684545205E+02  0.29079877398E+02  0.54367083384E+02  0.39999998191E+02 0.  0.
         12    1    3    3    0    0  0.63183170383E+01 -0.21684545205E+02 -0.29079877398E+02  0.36820916616E+02  0.00000000000E+00 0. -1.
         11    1    4    4    0    0 -0.89618818671E+01 -0.30073632769E+01 -0.30895236332E+01  0.99450850685E+01  0.51100000000E-03 0. -1.
        -11    1    4    4    0    0 -0.10340953504E+01  0.11032124960E+01  0.14852251831E+02  0.14929025947E+02  0.51100000000E-03 0.  1.
        -12    1    4    4    0    0  0.36776601792E+01  0.23588695986E+02  0.17317149200E+02  0.29492972369E+02  0.00000000000E+00 0.  1.
</event>
<event>
 8    1  0.1229941E-006  0.9118800E+02  0.7816164E-02  0.1184000E+00
        -11   -1    0    0    0    0  0.00000000000E+00  0.00000000000E+00  0.45593999997E+02  0.45594000000E+02  0.51100000000E-03 0. -1.
         11   -1    0    0    0    0 -0.00000000000E+00 -0.00000000000E+00 -0.45593999997E+02  0.45594000000E+02  0.51100000000E-03 0.  1.
         23    2    1    2    0    0 -0.44408920985E-15  0.88817841970E-15  0.00000000000E+00  0.91188000000E+02  0.91188000000E+02 0.  0.
    9900012    2    3    3    0    0 -0.31111826065E+01 -0.52283852008E+01 -0.36314880969E+02  0.54366999894E+02  0.39999807859E+02 0.  0.
         12    1    3    3    0    0  0.31111826065E+01  0.52283852008E+01  0.36314880969E+02  0.36821000106E+02  0.00000000000E+00 0. -1.
         11    1    4    4    0    0  0.64141761821E+01  0.66103256252E+01  0.37773185320E+01  0.99552095166E+01  0.51100000000E-03 0. -1.
        -11    1    4    4    0    0 -0.43736816655E+00 -0.86787346645E+01 -0.12780875513E+02  0.15455177302E+02  0.51100000000E-03 0.  1.
        -12    1    4    4    0    0 -0.90879906220E+01 -0.31599761614E+01 -0.27311323987E+02  0.28956613076E+02  0.00000000000E+00 0.  1.
</event>
<event>
 8    1  0.1229941E-006  0.9118800E+02  0.7816164E-02  0.1184000E+00
        -11   -1    0    0    0    0  0.00000000000E+00  0.00000000000E+00  0.45593999997E+02  0.45594000000E+02  0.51100000000E-03 0.  1.
         11   -1    0    0    0    0 -0.00000000000E+00 -0.00000000000E+00 -0.45593999997E+02  0.45594000000E+02  0.51100000000E-03 0. -1.
         23    2    1    2    0    0  0.00000000000E+00  0.00000000000E+00  0.00000000000E+00  0.91188000000E+02  0.91188000000E+02 0.  0.
    9900012    2    3    3    0    0 -0.18916012239E+02  0.17571640870E+02 -0.26252654575E+02  0.54367082655E+02  0.39999996528E+02 0.  0.
        -12    1    3    3    0    0  0.18916012239E+02 -0.17571640870E+02  0.26252654575E+02  0.36820917345E+02  0.00000000000E+00 0.  1.
         11    1    4    4    0    0 -0.18291757123E+02  0.19086411520E+02 -0.23075144101E+02  0.35090479604E+02  0.51100000000E-03 0.  1.
        -11    1    4    4    0    0  0.57089453433E+01 -0.75821472012E+01  0.10340772649E+01  0.95472681519E+01  0.51100000000E-03 0. -1.
         12    1    4    4    0    0 -0.63332004602E+01  0.60673765511E+01 -0.42115877392E+01  0.97293348985E+01  0.00000000000E+00 0. -1.
</event>
<event>
 8    1  0.1229941E-006  0.9118800E+02  0.7816164E-02  0.1184000E+00
        -11   -1    0    0    0    0  0.00000000000E+00  0.00000000000E+00  0.45593999997E+02  0.45594000000E+02  0.51100000000E-03 0. -1.
         11   -1    0    0    0    0 -0.00000000000E+00 -0.00000000000E+00 -0.45593999997E+02  0.45594000000E+02  0.51100000000E-03 0.  1.
         23    2    1    2    0    0  0.17763568394E-14  0.71054273576E-14  0.00000000000E+00  0.91188000000E+02  0.91188000000E+02 0.  0.
    9900012    2    3    3    0    0 -0.19227937007E+01 -0.31595666097E+02  0.18809457358E+02  0.54367096455E+02  0.40000027989E+02 0.  0.
        -12    1    3    3    0    0  0.19227937007E+01  0.31595666097E+02 -0.18809457358E+02  0.36820903545E+02  0.00000000000E+00 0.  1.
         11    1    4    4    0    0  0.34054992868E+01 -0.24166330670E+02  0.55292262459E+01  0.25023614978E+02  0.51100000000E-03 0. -1.
        -11    1    4    4    0    0 -0.10146170224E+02  0.13445190994E+01 -0.26108904069E+01  0.10562634652E+02  0.51100000000E-03 0.  1.
         12    1    4    4    0    0  0.48178772361E+01 -0.87738545263E+01  0.15891121519E+02  0.18780846825E+02  0.00000000000E+00 0. -1.
</event>
<event>
 8    1  0.1229941E-006  0.9118800E+02  0.7816164E-02  0.1184000E+00
        -11   -1    0    0    0    0  0.00000000000E+00  0.00000000000E+00  0.45593999997E+02  0.45594000000E+02  0.51100000000E-03 0.  1.
         11   -1    0    0    0    0 -0.00000000000E+00 -0.00000000000E+00 -0.45593999997E+02  0.45594000000E+02  0.51100000000E-03 0. -1.
         23    2    1    2    0    0  0.71054273576E-14  0.00000000000E+00 -0.17763568394E-14  0.91188000000E+02  0.91188000000E+02 0.  0.
    9900012    2    3    3    0    0 -0.34745155080E+02 -0.84085062077E+01  0.88233152400E+01  0.54367086513E+02  0.40000005324E+02 0.  0.
        -12    1    3    3    0    0  0.34745155080E+02  0.84085062077E+01 -0.88233152400E+01  0.36820913487E+02  0.00000000000E+00 0.  1.
         11    1    4    4    0    0  0.19819968262E+01 -0.35393253291E+01 -0.41079248771E+01  0.57732297946E+01  0.51100000000E-03 0. -1.
        -11    1    4    4    0    0 -0.72408519123E+01 -0.12782640320E+02 -0.16081952350E+01  0.14778772688E+02  0.51100000000E-03 0.  1.
        -12    1    4    4    0    0 -0.29486299994E+02  0.79134594418E+01  0.14539435352E+02  0.33815084031E+02  0.00000000000E+00 0.  1.
</event>
<event>
 8    1  0.1229941E-006  0.9118800E+02  0.7816164E-02  0.1184000E+00
        -11   -1    0    0    0    0  0.00000000000E+00  0.00000000000E+00  0.45593999997E+02  0.45594000000E+02  0.51100000000E-03 0. -1.
         11   -1    0    0    0    0 -0.00000000000E+00 -0.00000000000E+00 -0.45593999997E+02  0.45594000000E+02  0.51100000000E-03 0.  1.
         23    2    1    2    0    0  0.35527136788E-14  0.88817841970E-15  0.00000000000E+00  0.91188000000E+02  0.91188000000E+02 0.  0.
    9900012    2    3    3    0    0  0.55937635243E+01  0.39063480306E+01  0.36183283391E+02  0.54367085532E+02  0.40000003087E+02 0.  0.
        -12    1    3    3    0    0 -0.55937635243E+01 -0.39063480306E+01 -0.36183283391E+02  0.36820914468E+02  0.00000000000E+00 0.  1.
         11    1    4    4    0    0  0.21529374800E+00 -0.12607541908E+01  0.16115938015E+02  0.16166610990E+02  0.51100000000E-03 0. -1.
        -11    1    4    4    0    0 -0.10298464346E+02 -0.65163420359E+01  0.37979243463E+01  0.12765003369E+02  0.51100000000E-03 0.  1.
        -12    1    4    4    0    0  0.15676934122E+02  0.11683444257E+02  0.16269421030E+02  0.25435471173E+02  0.00000000000E+00 0.  1.
</event>
<event>
 8    1  0.1229941E-006  0.9118800E+02  0.7816164E-02  0.1184000E+00
        -11   -1    0    0    0    0  0.00000000000E+00  0.00000000000E+00  0.45593999997E+02  0.45594000000E+02  0.51100000000E-03 0.  1.
         11   -1    0    0    0    0 -0.00000000000E+00 -0.00000000000E+00 -0.45593999997E+02  0.45594000000E+02  0.51100000000E-03 0. -1.
         23    2    1    2    0    0  0.00000000000E+00  0.00000000000E+00  0.35527136788E-14  0.91188000000E+02  0.91188000000E+02 0.  0.
    9900012    2    3    3    0    0  0.22412327624E+02 -0.74267876229E+01 -0.28254392909E+02  0.54367077652E+02  0.39999985122E+02 0.  0.
        -12    1    3    3    0    0 -0.22412327624E+02  0.74267876229E+01  0.28254392909E+02  0.36820922348E+02  0.00000000000E+00 0.  1.
         11    1    4    4    0    0 -0.13048767931E+01 -0.10419571143E+01 -0.78755788164E+01  0.80506596021E+01  0.51100000000E-03 0. -1.
        -11    1    4    4    0    0  0.57581434010E+01  0.47168163064E+01 -0.23791786629E+02  0.24928972757E+02  0.51100000000E-03 0.  1.
        -12    1    4    4    0    0  0.17959061016E+02 -0.11101646815E+02  0.34129725360E+01  0.21387445292E+02  0.00000000000E+00 0.  1.
</event>
<event>
 8    1  0.1229941E-006  0.9118800E+02  0.7816164E-02  0.1184000E+00
        -11   -1    0    0    0    0  0.00000000000E+00  0.00000000000E+00  0.45593999997E+02  0.45594000000E+02  0.51100000000E-03 0. -1.
         11   -1    0    0    0    0 -0.00000000000E+00 -0.00000000000E+00 -0.45593999997E+02  0.45594000000E+02  0.51100000000E-03 0.  1.
         23    2    1    2    0    0  0.00000000000E+00  0.35527136788E-14  0.17763568394E-14  0.91188000000E+02  0.91188000000E+02 0.  0.
    9900012    2    3    3    0    0 -0.26985826192E+02  0.19921071326E+02 -0.15188795808E+02  0.54367035644E+02  0.39999889357E+02 0.  0.
         12    1    3    3    0    0  0.26985826192E+02 -0.19921071326E+02  0.15188795808E+02  0.36820964356E+02  0.00000000000E+00 0. -1.
         11    1    4    4    0    0  0.61491859682E+01  0.24902022903E+01  0.10632092443E+01  0.67189292061E+01  0.51100000000E-03 0. -1.
        -11    1    4    4    0    0 -0.11138232670E+02  0.16448747595E+02 -0.16193867371E+02  0.25629336026E+02  0.51100000000E-03 0.  1.
        -12    1    4    4    0    0 -0.21996779490E+02  0.98212144090E+00 -0.58137681444E-01  0.22018770411E+02  0.00000000000E+00 0.  1.
</event>
<event>
 8    1  0.1229941E-006  0.9118800E+02  0.7816164E-02  0.1184000E+00
        -11   -1    0    0    0    0  0.00000000000E+00  0.00000000000E+00  0.45593999997E+02  0.45594000000E+02  0.51100000000E-03 0.  1.
         11   -1    0    0    0    0 -0.00000000000E+00 -0.00000000000E+00 -0.45593999997E+02  0.45594000000E+02  0.51100000000E-03 0. -1.
         23    2    1    2    0    0  0.40245584643E-15  0.00000000000E+00  0.00000000000E+00  0.91188000000E+02  0.91188000000E+02 0.  0.
    9900012    2    3    3    0    0 -0.67120471566E-01 -0.29005542884E+01  0.36706435044E+02  0.54367080755E+02  0.39999992198E+02 0.  0.
         12    1    3    3    0    0  0.67120471566E-01  0.29005542884E+01 -0.36706435044E+02  0.36820919245E+02  0.00000000000E+00 0. -1.
         11    1    4    4    0    0 -0.13150053602E+02 -0.71431332501E+01  0.32972461790E+02  0.36209549833E+02  0.51100000000E-03 0. -1.
        -11    1    4    4    0    0  0.39106000350E+01  0.38125926423E+01  0.65733002252E+01  0.85461647188E+01  0.51100000000E-03 0.  1.
         12    1    4    4    0    0  0.91723330953E+01  0.42998631944E+00 -0.28393269710E+01  0.96113662033E+01  0.00000000000E+00 0. -1.
</event>
<event>
 8    1  0.1229941E-006  0.9118800E+02  0.7816164E-02  0.1184000E+00
        -11   -1    0    0    0    0  0.00000000000E+00  0.00000000000E+00  0.45593999997E+02  0.45594000000E+02  0.51100000000E-03 0.  1.
         11   -1    0    0    0    0 -0.00000000000E+00 -0.00000000000E+00 -0.45593999997E+02  0.45594000000E+02  0.51100000000E-03 0. -1.
         23    2    1    2    0    0 -0.35527136788E-14  0.00000000000E+00  0.00000000000E+00  0.91188000000E+02  0.91188000000E+02 0.  0.
    9900012    2    3    3    0    0  0.19493017773E+02 -0.17052529547E+02 -0.26172763959E+02  0.54367080959E+02  0.39999992661E+02 0.  0.
        -12    1    3    3    0    0 -0.19493017773E+02  0.17052529547E+02  0.26172763959E+02  0.36820919041E+02  0.00000000000E+00 0.  1.
         11    1    4    4    0    0  0.26847666090E+02 -0.16390018297E+02 -0.25337092014E+02  0.40390569521E+02  0.51100000000E-03 0. -1.
        -11    1    4    4    0    0 -0.17374220326E+01  0.48442742885E+01 -0.28137120860E+01  0.58653733612E+01  0.51100000000E-03 0.  1.
         12    1    4    4    0    0 -0.56172262845E+01 -0.55067855381E+01  0.19780401412E+01  0.81111380764E+01  0.00000000000E+00 0. -1.
</event>
<event>
 8    1  0.1229941E-006  0.9118800E+02  0.7816164E-02  0.1184000E+00
        -11   -1    0    0    0    0  0.00000000000E+00  0.00000000000E+00  0.45593999997E+02  0.45594000000E+02  0.51100000000E-03 0.  1.
         11   -1    0    0    0    0 -0.00000000000E+00 -0.00000000000E+00 -0.45593999997E+02  0.45594000000E+02  0.51100000000E-03 0. -1.
         23    2    1    2    0    0  0.88817841970E-15 -0.35527136788E-14  0.00000000000E+00  0.91188000000E+02  0.91188000000E+02 0.  0.
    9900012    2    3    3    0    0 -0.46233046374E+01  0.16219031627E+02  0.32731300780E+02  0.54367218049E+02  0.40000305186E+02 0.  0.
         12    1    3    3    0    0  0.46233046374E+01 -0.16219031627E+02 -0.32731300780E+02  0.36820781951E+02  0.00000000000E+00 0. -1.
         11    1    4    4    0    0  0.66823618897E+01  0.11913680787E+02  0.20283430962E+02  0.24454188234E+02  0.51100000000E-03 0. -1.
        -11    1    4    4    0    0 -0.90917201728E+01 -0.21991006942E+01  0.18517009914E+02  0.20745483267E+02  0.51100000000E-03 0.  1.
         12    1    4    4    0    0 -0.22139463543E+01  0.65044515342E+01 -0.60691400958E+01  0.91675465487E+01  0.00000000000E+00 0. -1.
</event>
<event>
 8    1  0.1229941E-006  0.9118800E+02  0.7816164E-02  0.1184000E+00
        -11   -1    0    0    0    0  0.00000000000E+00  0.00000000000E+00  0.45593999997E+02  0.45594000000E+02  0.51100000000E-03 0.  1.
         11   -1    0    0    0    0 -0.00000000000E+00 -0.00000000000E+00 -0.45593999997E+02  0.45594000000E+02  0.51100000000E-03 0. -1.
         23    2    1    2    0    0  0.17763568394E-14  0.00000000000E+00  0.00000000000E+00  0.91188000000E+02  0.91188000000E+02 0.  0.
    9900012    2    3    3    0    0 -0.93161457633E+01 -0.18362908915E+02 -0.30525285354E+02  0.54367081467E+02  0.39999993820E+02 0.  0.
        -12    1    3    3    0    0  0.93161457633E+01  0.18362908915E+02  0.30525285354E+02  0.36820918533E+02  0.00000000000E+00 0.  1.
         11    1    4    4    0    0 -0.19559034270E+01 -0.24502475933E+01 -0.24702788476E+02  0.24900944364E+02  0.51100000000E-03 0. -1.
        -11    1    4    4    0    0 -0.59013642752E+01 -0.15866965969E+01  0.76194068299E+01  0.97672446012E+01  0.51100000000E-03 0.  1.
         12    1    4    4    0    0 -0.14588780611E+01 -0.14325964725E+02 -0.13441903708E+02  0.19698892502E+02  0.00000000000E+00 0. -1.
</event>
<event>
 8    1  0.1229941E-006  0.9118800E+02  0.7816164E-02  0.1184000E+00
        -11   -1    0    0    0    0  0.00000000000E+00  0.00000000000E+00  0.45593999997E+02  0.45594000000E+02  0.51100000000E-03 0.  1.
         11   -1    0    0    0    0 -0.00000000000E+00 -0.00000000000E+00 -0.45593999997E+02  0.45594000000E+02  0.51100000000E-03 0. -1.
         23    2    1    2    0    0  0.00000000000E+00  0.71054273576E-14  0.88817841970E-15  0.91188000000E+02  0.91188000000E+02 0.  0.
    9900012    2    3    3    0    0 -0.16080652636E+02 -0.32742332562E+02 -0.50130728298E+01  0.54367100636E+02  0.40000037519E+02 0.  0.
        -12    1    3    3    0    0  0.16080652636E+02  0.32742332562E+02  0.50130728298E+01  0.36820899364E+02  0.00000000000E+00 0.  1.
         11    1    4    4    0    0 -0.12774442841E+02 -0.10467768125E+02  0.10292746311E+02  0.19460246306E+02  0.51100000000E-03 0. -1.
        -11    1    4    4    0    0 -0.90849243026E+01 -0.88437782527E+01  0.13425220560E+01  0.12749534466E+02  0.51100000000E-03 0.  1.
         12    1    4    4    0    0  0.57787145080E+01 -0.13430786185E+02 -0.16648341197E+02  0.22157319863E+02  0.00000000000E+00 0. -1.
</event>
<event>
 8    1  0.1229941E-006  0.9118800E+02  0.7816164E-02  0.1184000E+00
        -11   -1    0    0    0    0  0.00000000000E+00  0.00000000000E+00  0.45593999997E+02  0.45594000000E+02  0.51100000000E-03 0.  1.
         11   -1    0    0    0    0 -0.00000000000E+00 -0.00000000000E+00 -0.45593999997E+02  0.45594000000E+02  0.51100000000E-03 0. -1.
         23    2    1    2    0    0  0.00000000000E+00  0.00000000000E+00  0.00000000000E+00  0.91188000000E+02  0.91188000000E+02 0.  0.
    9900012    2    3    3    0    0  0.82984930166E+01 -0.84957148987E+01 -0.34853091384E+02  0.54367080172E+02  0.39999990867E+02 0.  0.
        -12    1    3    3    0    0 -0.82984930166E+01  0.84957148987E+01  0.34853091384E+02  0.36820919828E+02  0.00000000000E+00 0.  1.
         11    1    4    4    0    0 -0.15512660662E+02 -0.69748448970E+01 -0.18114352091E+02  0.24847954726E+02  0.51100000000E-03 0. -1.
        -11    1    4    4    0    0  0.75714077933E+01  0.15752490130E+01 -0.44765713920E+01  0.89357326008E+01  0.51100000000E-03 0.  1.
         12    1    4    4    0    0  0.16239745885E+02 -0.30961190148E+01 -0.12262167901E+02  0.20583392845E+02  0.00000000000E+00 0. -1.
</event>
<event>
 8    1  0.1229941E-006  0.9118800E+02  0.7816164E-02  0.1184000E+00
        -11   -1    0    0    0    0  0.00000000000E+00  0.00000000000E+00  0.45593999997E+02  0.45594000000E+02  0.51100000000E-03 0.  1.
         11   -1    0    0    0    0 -0.00000000000E+00 -0.00000000000E+00 -0.45593999997E+02  0.45594000000E+02  0.51100000000E-03 0. -1.
         23    2    1    2    0    0  0.35527136788E-14  0.00000000000E+00  0.00000000000E+00  0.91188000000E+02  0.91188000000E+02 0.  0.
    9900012    2    3    3    0    0  0.21703434604E+02  0.12955710408E+02  0.26774798315E+02  0.54367091122E+02  0.40000015831E+02 0.  0.
         12    1    3    3    0    0 -0.21703434604E+02 -0.12955710408E+02 -0.26774798315E+02  0.36820908878E+02  0.00000000000E+00 0. -1.
         11    1    4    4    0    0  0.29498350043E+02  0.71777975043E+00  0.17116358845E+02  0.34112132788E+02  0.51100000000E-03 0. -1.
        -11    1    4    4    0    0 -0.48018205045E+01 -0.17479375007E+00  0.41495564185E+01  0.63487677343E+01  0.51100000000E-03 0.  1.
         12    1    4    4    0    0 -0.29930949344E+01  0.12412724408E+02  0.55088830516E+01  0.13906190600E+02  0.00000000000E+00 0. -1.
</event>
<event>
 8    1  0.1229941E-006  0.9118800E+02  0.7816164E-02  0.1184000E+00
        -11   -1    0    0    0    0  0.00000000000E+00  0.00000000000E+00  0.45593999997E+02  0.45594000000E+02  0.51100000000E-03 0.  1.
         11   -1    0    0    0    0 -0.00000000000E+00 -0.00000000000E+00 -0.45593999997E+02  0.45594000000E+02  0.51100000000E-03 0. -1.
         23    2    1    2    0    0  0.00000000000E+00  0.00000000000E+00  0.00000000000E+00  0.91188000000E+02  0.91188000000E+02 0.  0.
    9900012    2    3    3    0    0 -0.20620980738E+02 -0.29313059920E+02 -0.84439372995E+01  0.54367076525E+02  0.39999982554E+02 0.  0.
        -12    1    3    3    0    0  0.20620980738E+02  0.29313059920E+02  0.84439372995E+01  0.36820923475E+02  0.00000000000E+00 0.  1.
         11    1    4    4    0    0  0.32581178114E+01 -0.19993886036E+00 -0.14806312568E+00  0.32676031233E+01  0.51100000000E-03 0. -1.
        -11    1    4    4    0    0  0.81943634904E+01 -0.96056636425E+01 -0.43425615449E+01  0.13351936491E+02  0.51100000000E-03 0.  1.
         12    1    4    4    0    0 -0.32073462040E+02 -0.19507457417E+02 -0.39533126289E+01  0.37747536911E+02  0.00000000000E+00 0. -1.
</event>
<event>
 8    1  0.1229941E-006  0.9118800E+02  0.7816164E-02  0.1184000E+00
        -11   -1    0    0    0    0  0.00000000000E+00  0.00000000000E+00  0.45593999997E+02  0.45594000000E+02  0.51100000000E-03 0. -1.
         11   -1    0    0    0    0 -0.00000000000E+00 -0.00000000000E+00 -0.45593999997E+02  0.45594000000E+02  0.51100000000E-03 0.  1.
         23    2    1    2    0    0  0.17763568394E-14 -0.35527136788E-14 -0.35527136788E-14  0.91188000000E+02  0.91188000000E+02 0.  0.
    9900012    2    3    3    0    0 -0.23617140700E+01 -0.23189284493E+02 -0.28503646579E+02  0.54367102715E+02  0.40000042258E+02 0.  0.
         12    1    3    3    0    0  0.23617140700E+01  0.23189284493E+02  0.28503646579E+02  0.36820897285E+02  0.00000000000E+00 0. -1.
         11    1    4    4    0    0 -0.59483867771E+01 -0.90045622946E+01  0.24092251296E+01  0.11057568148E+02  0.51100000000E-03 0. -1.
        -11    1    4    4    0    0 -0.96493757987E+01 -0.64560438930E+01 -0.38932856413E+01  0.12245351338E+02  0.51100000000E-03 0.  1.
         12    1    4    4    0    0  0.13236048506E+02 -0.77286783051E+01 -0.27019586067E+02  0.31064183228E+02  0.00000000000E+00 0. -1.
</event>
<event>
 8    1  0.1229941E-006  0.9118800E+02  0.7816164E-02  0.1184000E+00
        -11   -1    0    0    0    0  0.00000000000E+00  0.00000000000E+00  0.45593999997E+02  0.45594000000E+02  0.51100000000E-03 0.  1.
         11   -1    0    0    0    0 -0.00000000000E+00 -0.00000000000E+00 -0.45593999997E+02  0.45594000000E+02  0.51100000000E-03 0. -1.
         23    2    1    2    0    0 -0.71054273576E-14  0.00000000000E+00  0.17763568394E-14  0.91188000000E+02  0.91188000000E+02 0.  0.
    9900012    2    3    3    0    0 -0.31327247000E+02 -0.19042096032E+02  0.34324738023E+01  0.54367086075E+02  0.40000004325E+02 0.  0.
        -12    1    3    3    0    0  0.31327247000E+02  0.19042096032E+02 -0.34324738023E+01  0.36820913925E+02  0.00000000000E+00 0.  1.
         11    1    4    4    0    0  0.15653864060E+01 -0.14009258031E+02 -0.93400688583E+01  0.16909956585E+02  0.51100000000E-03 0. -1.
        -11    1    4    4    0    0 -0.18679598249E+02 -0.83346797221E+01  0.92356059531E+01  0.22443054480E+02  0.51100000000E-03 0.  1.
         12    1    4    4    0    0 -0.14213035157E+02  0.33018417209E+01  0.35369367075E+01  0.15014075010E+02  0.00000000000E+00 0. -1.
</event>
<event>
 8    1  0.1229941E-006  0.9118800E+02  0.7816164E-02  0.1184000E+00
        -11   -1    0    0    0    0  0.00000000000E+00  0.00000000000E+00  0.45593999997E+02  0.45594000000E+02  0.51100000000E-03 0. -1.
         11   -1    0    0    0    0 -0.00000000000E+00 -0.00000000000E+00 -0.45593999997E+02  0.45594000000E+02  0.51100000000E-03 0.  1.
         23    2    1    2    0    0  0.00000000000E+00 -0.88817841970E-15  0.00000000000E+00  0.91188000000E+02  0.91188000000E+02 0.  0.
    9900012    2    3    3    0    0 -0.32576304689E+02  0.72299834509E+01  0.15565662732E+02  0.54367107233E+02  0.40000052558E+02 0.  0.
        -12    1    3    3    0    0  0.32576304689E+02 -0.72299834509E+01 -0.15565662732E+02  0.36820892767E+02  0.00000000000E+00 0.  1.
         11    1    4    4    0    0 -0.22232423296E+02  0.17170217470E+02  0.19249662538E+02  0.34053583095E+02  0.51100000000E-03 0. -1.
        -11    1    4    4    0    0  0.22261790664E+00  0.30540545636E+01 -0.15432493325E+01  0.34290562511E+01  0.51100000000E-03 0.  1.
         12    1    4    4    0    0 -0.10566499300E+02 -0.12994288582E+02 -0.21407504730E+01  0.16884467886E+02  0.00000000000E+00 0. -1.
</event>
<event>
 8    1  0.1229941E-006  0.9118800E+02  0.7816164E-02  0.1184000E+00
        -11   -1    0    0    0    0  0.00000000000E+00  0.00000000000E+00  0.45593999997E+02  0.45594000000E+02  0.51100000000E-03 0. -1.
         11   -1    0    0    0    0 -0.00000000000E+00 -0.00000000000E+00 -0.45593999997E+02  0.45594000000E+02  0.51100000000E-03 0.  1.
         23    2    1    2    0    0  0.00000000000E+00  0.00000000000E+00 -0.35527136788E-14  0.91188000000E+02  0.91188000000E+02 0.  0.
    9900012    2    3    3    0    0 -0.15935950954E+02  0.23897015185E+02 -0.23038214736E+02  0.54367065658E+02  0.39999957780E+02 0.  0.
         12    1    3    3    0    0  0.15935950954E+02 -0.23897015185E+02  0.23038214736E+02  0.36820934342E+02  0.00000000000E+00 0. -1.
         11    1    4    4    0    0 -0.41965382664E+01 -0.43974151628E+01  0.11572834023E+01  0.61876892836E+01  0.51100000000E-03 0. -1.
        -11    1    4    4    0    0 -0.13350419787E+02  0.32480463253E+02 -0.15480465385E+02  0.38377845308E+02  0.51100000000E-03 0.  1.
        -12    1    4    4    0    0  0.16110070996E+01 -0.41860329052E+01 -0.87150327533E+01  0.98015310666E+01  0.00000000000E+00 0.  1.
</event>
<event>
 8    1  0.1229941E-006  0.9118800E+02  0.7816164E-02  0.1184000E+00
        -11   -1    0    0    0    0  0.00000000000E+00  0.00000000000E+00  0.45593999997E+02  0.45594000000E+02  0.51100000000E-03 0.  1.
         11   -1    0    0    0    0 -0.00000000000E+00 -0.00000000000E+00 -0.45593999997E+02  0.45594000000E+02  0.51100000000E-03 0. -1.
         23    2    1    2    0    0  0.00000000000E+00  0.00000000000E+00  0.00000000000E+00  0.91188000000E+02  0.91188000000E+02 0.  0.
    9900012    2    3    3    0    0  0.17339177432E+02  0.20625962937E+01  0.32417253581E+02  0.54367086007E+02  0.40000004171E+02 0.  0.
         12    1    3    3    0    0 -0.17339177432E+02 -0.20625962937E+01 -0.32417253581E+02  0.36820913993E+02  0.00000000000E+00 0. -1.
         11    1    4    4    0    0  0.13522912489E+01 -0.18066877502E+01  0.26838723193E+01  0.35065628664E+01  0.51100000000E-03 0. -1.
        -11    1    4    4    0    0  0.22240748347E+02 -0.10653637547E+02  0.22833903192E+02  0.33608600317E+02  0.51100000000E-03 0.  1.
         12    1    4    4    0    0 -0.62538621636E+01  0.14522921591E+02  0.68994780702E+01  0.17251922824E+02  0.00000000000E+00 0. -1.
</event>
<event>
 8    1  0.1229941E-006  0.9118800E+02  0.7816164E-02  0.1184000E+00
        -11   -1    0    0    0    0  0.00000000000E+00  0.00000000000E+00  0.45593999997E+02  0.45594000000E+02  0.51100000000E-03 0.  1.
         11   -1    0    0    0    0 -0.00000000000E+00 -0.00000000000E+00 -0.45593999997E+02  0.45594000000E+02  0.51100000000E-03 0. -1.
         23    2    1    2    0    0 -0.35527136788E-14  0.00000000000E+00  0.35527136788E-14  0.91188000000E+02  0.91188000000E+02 0.  0.
    9900012    2    3    3    0    0 -0.21052608891E+02  0.65466487216E+01  0.29490824583E+02  0.54367086307E+02  0.40000004854E+02 0.  0.
         12    1    3    3    0    0  0.21052608891E+02 -0.65466487216E+01 -0.29490824583E+02  0.36820913693E+02  0.00000000000E+00 0. -1.
         11    1    4    4    0    0 -0.24492408751E+00  0.57645121882E+01  0.12922984109E+02  0.14152494731E+02  0.51100000000E-03 0. -1.
        -11    1    4    4    0    0 -0.84097174714E+01 -0.69535354261E+01  0.22053507220E+02  0.24605531569E+02  0.51100000000E-03 0.  1.
        -12    1    4    4    0    0 -0.12397967333E+02  0.77356719596E+01 -0.54856667455E+01  0.15609060006E+02  0.00000000000E+00 0.  1.
</event>
<event>
 8    1  0.1229941E-006  0.9118800E+02  0.7816164E-02  0.1184000E+00
        -11   -1    0    0    0    0  0.00000000000E+00  0.00000000000E+00  0.45593999997E+02  0.45594000000E+02  0.51100000000E-03 0. -1.
         11   -1    0    0    0    0 -0.00000000000E+00 -0.00000000000E+00 -0.45593999997E+02  0.45594000000E+02  0.51100000000E-03 0.  1.
         23    2    1    2    0    0  0.17763568394E-14  0.00000000000E+00  0.00000000000E+00  0.91188000000E+02  0.91188000000E+02 0.  0.
    9900012    2    3    3    0    0  0.15794226321E+02 -0.28583147401E+02 -0.17009565144E+02  0.54367092803E+02  0.40000019663E+02 0.  0.
        -12    1    3    3    0    0 -0.15794226321E+02  0.28583147401E+02  0.17009565144E+02  0.36820907197E+02  0.00000000000E+00 0.  1.
         11    1    4    4    0    0 -0.60860471665E+01 -0.22749750805E+02 -0.15309277052E+02  0.28088522495E+02  0.51100000000E-03 0. -1.
        -11    1    4    4    0    0  0.31025226276E+01  0.37458950229E+01 -0.18339208042E+01  0.51981383162E+01  0.51100000000E-03 0.  1.
         12    1    4    4    0    0  0.18777750860E+02 -0.95792916187E+01  0.13363271229E+00  0.21080431992E+02  0.00000000000E+00 0. -1.
</event>
<event>
 8    1  0.1229941E-006  0.9118800E+02  0.7816164E-02  0.1184000E+00
        -11   -1    0    0    0    0  0.00000000000E+00  0.00000000000E+00  0.45593999997E+02  0.45594000000E+02  0.51100000000E-03 0.  1.
         11   -1    0    0    0    0 -0.00000000000E+00 -0.00000000000E+00 -0.45593999997E+02  0.45594000000E+02  0.51100000000E-03 0. -1.
         23    2    1    2    0    0 -0.17763568394E-14  0.00000000000E+00 -0.35527136788E-14  0.91188000000E+02  0.91188000000E+02 0.  0.
    9900012    2    3    3    0    0 -0.12202516527E+02 -0.20584081926E+02 -0.27985275171E+02  0.54367062142E+02  0.39999949765E+02 0.  0.
        -12    1    3    3    0    0  0.12202516527E+02  0.20584081926E+02  0.27985275171E+02  0.36820937858E+02  0.00000000000E+00 0.  1.
         11    1    4    4    0    0 -0.98436991876E+01  0.23240985606E-01 -0.56763828317E+01  0.11363110320E+02  0.51100000000E-03 0.  1.
        -11    1    4    4    0    0 -0.14248187936E+02 -0.20134536658E+02 -0.17107783692E+02  0.30018106020E+02  0.51100000000E-03 0. -1.
         12    1    4    4    0    0  0.11889370597E+02 -0.47278625338E+00 -0.52011086475E+01  0.12985845802E+02  0.00000000000E+00 0. -1.
</event>
<event>
 8    1  0.1229941E-006  0.9118800E+02  0.7816164E-02  0.1184000E+00
        -11   -1    0    0    0    0  0.00000000000E+00  0.00000000000E+00  0.45593999997E+02  0.45594000000E+02  0.51100000000E-03 0.  1.
         11   -1    0    0    0    0 -0.00000000000E+00 -0.00000000000E+00 -0.45593999997E+02  0.45594000000E+02  0.51100000000E-03 0. -1.
         23    2    1    2    0    0  0.00000000000E+00  0.00000000000E+00  0.00000000000E+00  0.91188000000E+02  0.91188000000E+02 0.  0.
    9900012    2    3    3    0    0 -0.27728964221E+02 -0.10491961735E+02 -0.21835834061E+02  0.54367077049E+02  0.39999983748E+02 0.  0.
         12    1    3    3    0    0  0.27728964221E+02  0.10491961735E+02  0.21835834061E+02  0.36820922951E+02  0.00000000000E+00 0. -1.
         11    1    4    4    0    0 -0.25209370230E+02 -0.60956085564E-01 -0.22305992724E+02  0.33661155279E+02  0.51100000000E-03 0. -1.
        -11    1    4    4    0    0 -0.68263473824E+01 -0.13580092734E+02 -0.80439419369E+00  0.15220544916E+02  0.51100000000E-03 0.  1.
        -12    1    4    4    0    0  0.43067533917E+01  0.31490870853E+01  0.12745528558E+01  0.54853768540E+01  0.00000000000E+00 0.  1.
</event>
<event>
 8    1  0.1229941E-006  0.9118800E+02  0.7816164E-02  0.1184000E+00
        -11   -1    0    0    0    0  0.00000000000E+00  0.00000000000E+00  0.45593999997E+02  0.45594000000E+02  0.51100000000E-03 0.  1.
         11   -1    0    0    0    0 -0.00000000000E+00 -0.00000000000E+00 -0.45593999997E+02  0.45594000000E+02  0.51100000000E-03 0. -1.
         23    2    1    2    0    0  0.88817841970E-15 -0.35527136788E-14  0.00000000000E+00  0.91188000000E+02  0.91188000000E+02 0.  0.
    9900012    2    3    3    0    0  0.22670523535E+01  0.27513147732E+02 -0.24365277563E+02  0.54367087800E+02  0.40000008259E+02 0.  0.
        -12    1    3    3    0    0 -0.22670523535E+01 -0.27513147732E+02  0.24365277563E+02  0.36820912200E+02  0.00000000000E+00 0.  1.
         11    1    4    4    0    0  0.13195558894E+02  0.22741140522E+01  0.20023520016E+01  0.13538972748E+02  0.51100000000E-03 0. -1.
        -11    1    4    4    0    0  0.95156523574E+00 -0.99467660112E+00  0.47850150791E+00  0.14573338303E+01  0.51100000000E-03 0.  1.
         12    1    4    4    0    0 -0.11880071777E+02  0.26233710280E+02 -0.26846131073E+02  0.39370781223E+02  0.00000000000E+00 0. -1.
</event>
<event>
 8    1  0.1229941E-006  0.9118800E+02  0.7816164E-02  0.1184000E+00
        -11   -1    0    0    0    0  0.00000000000E+00  0.00000000000E+00  0.45593999997E+02  0.45594000000E+02  0.51100000000E-03 0.  1.
         11   -1    0    0    0    0 -0.00000000000E+00 -0.00000000000E+00 -0.45593999997E+02  0.45594000000E+02  0.51100000000E-03 0. -1.
         23    2    1    2    0    0  0.00000000000E+00 -0.35527136788E-14  0.00000000000E+00  0.91188000000E+02  0.91188000000E+02 0.  0.
    9900012    2    3    3    0    0  0.16193683336E+02 -0.28903553394E+02  0.16066397581E+02  0.54367083254E+02  0.39999997895E+02 0.  0.
         12    1    3    3    0    0 -0.16193683336E+02  0.28903553394E+02 -0.16066397581E+02  0.36820916746E+02  0.00000000000E+00 0. -1.
         11    1    4    4    0    0 -0.42280649090E+01 -0.21684613837E+02 -0.32776460271E+01  0.22334770513E+02  0.51100000000E-03 0. -1.
        -11    1    4    4    0    0  0.17830154133E+02 -0.10880696272E+02  0.14483881437E+02  0.25418236948E+02  0.51100000000E-03 0.  1.
        -12    1    4    4    0    0  0.25915941112E+01  0.36617567152E+01  0.48601621705E+01  0.66140757935E+01  0.00000000000E+00 0.  1.
</event>
<event>
 8    1  0.1229941E-006  0.9118800E+02  0.7816164E-02  0.1184000E+00
        -11   -1    0    0    0    0  0.00000000000E+00  0.00000000000E+00  0.45593999997E+02  0.45594000000E+02  0.51100000000E-03 0. -1.
         11   -1    0    0    0    0 -0.00000000000E+00 -0.00000000000E+00 -0.45593999997E+02  0.45594000000E+02  0.51100000000E-03 0.  1.
         23    2    1    2    0    0 -0.38857805862E-15 -0.35527136788E-14 -0.71054273576E-14  0.91188000000E+02  0.91188000000E+02 0.  0.
    9900012    2    3    3    0    0  0.29260970411E+00 -0.13794077094E+02 -0.34138186462E+02  0.54367109758E+02  0.40000058315E+02 0.  0.
         12    1    3    3    0    0 -0.29260970411E+00  0.13794077094E+02  0.34138186462E+02  0.36820890242E+02  0.00000000000E+00 0. -1.
         11    1    4    4    0    0 -0.43778693164E+01 -0.14734378086E+02 -0.12351622357E+02  0.19718778168E+02  0.51100000000E-03 0. -1.
        -11    1    4    4    0    0 -0.51702232284E-01  0.12734548485E+02 -0.52001927397E+01  0.13755486288E+02  0.51100000000E-03 0.  1.
        -12    1    4    4    0    0  0.47221812528E+01 -0.11794247493E+02 -0.16586371365E+02  0.20892845301E+02  0.00000000000E+00 0.  1.
</event>
<event>
 8    1  0.1229941E-006  0.9118800E+02  0.7816164E-02  0.1184000E+00
        -11   -1    0    0    0    0  0.00000000000E+00  0.00000000000E+00  0.45593999997E+02  0.45594000000E+02  0.51100000000E-03 0.  1.
         11   -1    0    0    0    0 -0.00000000000E+00 -0.00000000000E+00 -0.45593999997E+02  0.45594000000E+02  0.51100000000E-03 0. -1.
         23    2    1    2    0    0  0.00000000000E+00 -0.95409791179E-16  0.44408920985E-15  0.91188000000E+02  0.91188000000E+02 0.  0.
    9900012    2    3    3    0    0  0.36754956964E+02  0.13863395938E-01  0.22027932514E+01  0.54367090835E+02  0.40000015176E+02 0.  0.
         12    1    3    3    0    0 -0.36754956964E+02 -0.13863395938E-01 -0.22027932514E+01  0.36820909165E+02  0.00000000000E+00 0. -1.
         11    1    4    4    0    0 -0.16529589493E+00 -0.11909069430E+02  0.75418146393E+01  0.14097241778E+02  0.51100000000E-03 0. -1.
        -11    1    4    4    0    0  0.14493872035E+02  0.98116862972E+00 -0.48383154148E+01  0.15311574536E+02  0.51100000000E-03 0.  1.
        -12    1    4    4    0    0  0.22426380824E+02  0.10941764197E+02 -0.50070597313E+00  0.24958274521E+02  0.00000000000E+00 0.  1.
</event>
<event>
 8    1  0.1229941E-006  0.9118800E+02  0.7816164E-02  0.1184000E+00
        -11   -1    0    0    0    0  0.00000000000E+00  0.00000000000E+00  0.45593999997E+02  0.45594000000E+02  0.51100000000E-03 0. -1.
         11   -1    0    0    0    0 -0.00000000000E+00 -0.00000000000E+00 -0.45593999997E+02  0.45594000000E+02  0.51100000000E-03 0.  1.
         23    2    1    2    0    0 -0.17763568394E-14  0.17763568394E-14  0.00000000000E+00  0.91188000000E+02  0.91188000000E+02 0.  0.
    9900012    2    3    3    0    0 -0.82659136313E+01 -0.13398845345E+02  0.33285508186E+02  0.54367089637E+02  0.40000012445E+02 0.  0.
        -12    1    3    3    0    0  0.82659136313E+01  0.13398845345E+02 -0.33285508186E+02  0.36820910363E+02  0.00000000000E+00 0.  1.
         11    1    4    4    0    0  0.43007880847E+01  0.43168414157E+01  0.34889899794E+01  0.70217483076E+01  0.51100000000E-03 0. -1.
        -11    1    4    4    0    0  0.65125991094E+01 -0.13466050303E+02  0.21309724074E+02  0.26035606355E+02  0.51100000000E-03 0.  1.
         12    1    4    4    0    0 -0.19079300825E+02 -0.42496364581E+01  0.84867941327E+01  0.21309734974E+02  0.00000000000E+00 0. -1.
</event>
<event>
 8    1  0.1229941E-006  0.9118800E+02  0.7816164E-02  0.1184000E+00
        -11   -1    0    0    0    0  0.00000000000E+00  0.00000000000E+00  0.45593999997E+02  0.45594000000E+02  0.51100000000E-03 0.  1.
         11   -1    0    0    0    0 -0.00000000000E+00 -0.00000000000E+00 -0.45593999997E+02  0.45594000000E+02  0.51100000000E-03 0. -1.
         23    2    1    2    0    0  0.00000000000E+00 -0.35527136788E-14 -0.17763568394E-14  0.91188000000E+02  0.91188000000E+02 0.  0.
    9900012    2    3    3    0    0 -0.21853150614E+02  0.26834327447E+02  0.12575318205E+02  0.54367082721E+02  0.39999996678E+02 0.  0.
         12    1    3    3    0    0  0.21853150614E+02 -0.26834327447E+02 -0.12575318205E+02  0.36820917279E+02  0.00000000000E+00 0. -1.
         11    1    4    4    0    0  0.17909979127E+01 -0.24938085275E+01  0.25037351881E+01  0.39617476760E+01  0.51100000000E-03 0. -1.
        -11    1    4    4    0    0 -0.25290840113E+02  0.17698221518E+02 -0.50280117404E+01  0.31275142539E+02  0.51100000000E-03 0.  1.
        -12    1    4    4    0    0  0.16466915857E+01  0.11629914457E+02  0.15099594758E+02  0.19130192505E+02  0.00000000000E+00 0.  1.
</event>
<event>
 8    1  0.1229941E-006  0.9118800E+02  0.7816164E-02  0.1184000E+00
        -11   -1    0    0    0    0  0.00000000000E+00  0.00000000000E+00  0.45593999997E+02  0.45594000000E+02  0.51100000000E-03 0. -1.
         11   -1    0    0    0    0 -0.00000000000E+00 -0.00000000000E+00 -0.45593999997E+02  0.45594000000E+02  0.51100000000E-03 0.  1.
         23    2    1    2    0    0  0.00000000000E+00  0.00000000000E+00  0.00000000000E+00  0.91188000000E+02  0.91188000000E+02 0.  0.
    9900012    2    3    3    0    0  0.59786644653E+01  0.17541092589E+02 -0.31817372883E+02  0.54367087800E+02  0.40000008259E+02 0.  0.
         12    1    3    3    0    0 -0.59786644653E+01 -0.17541092589E+02  0.31817372883E+02  0.36820912200E+02  0.00000000000E+00 0. -1.
         11    1    4    4    0    0  0.37023041024E+01  0.29630577450E+02 -0.20469150590E+02  0.36203097959E+02  0.51100000000E-03 0. -1.
        -11    1    4    4    0    0 -0.18472798954E+01 -0.10767043673E+01 -0.32332218243E+01  0.38762686869E+01  0.51100000000E-03 0.  1.
         12    1    4    4    0    0  0.41236402583E+01 -0.11012780494E+02 -0.81150004690E+01  0.14287721155E+02  0.00000000000E+00 0. -1.
</event>
<event>
 8    1  0.1229941E-006  0.9118800E+02  0.7816164E-02  0.1184000E+00
        -11   -1    0    0    0    0  0.00000000000E+00  0.00000000000E+00  0.45593999997E+02  0.45594000000E+02  0.51100000000E-03 0.  1.
         11   -1    0    0    0    0 -0.00000000000E+00 -0.00000000000E+00 -0.45593999997E+02  0.45594000000E+02  0.51100000000E-03 0. -1.
         23    2    1    2    0    0  0.00000000000E+00 -0.35527136788E-14 -0.35527136788E-14  0.91188000000E+02  0.91188000000E+02 0.  0.
    9900012    2    3    3    0    0  0.20454454518E+02 -0.19473988556E+02 -0.23625332462E+02  0.54367119051E+02  0.40000079501E+02 0.  0.
         12    1    3    3    0    0 -0.20454454518E+02  0.19473988556E+02  0.23625332462E+02  0.36820880949E+02  0.00000000000E+00 0. -1.
         11    1    4    4    0    0  0.21703119101E+02  0.23180982951E+01 -0.11614748656E+02  0.24724508995E+02  0.51100000000E-03 0. -1.
        -11    1    4    4    0    0 -0.34270347932E+01  0.13206253317E+01 -0.29922858343E+01  0.47373403420E+01  0.51100000000E-03 0.  1.
        -12    1    4    4    0    0  0.21783702095E+01 -0.23112712183E+02 -0.90182979724E+01  0.24905269714E+02  0.00000000000E+00 0.  1.
</event>
<event>
 8    1  0.1229941E-006  0.9118800E+02  0.7816164E-02  0.1184000E+00
        -11   -1    0    0    0    0  0.00000000000E+00  0.00000000000E+00  0.45593999997E+02  0.45594000000E+02  0.51100000000E-03 0. -1.
         11   -1    0    0    0    0 -0.00000000000E+00 -0.00000000000E+00 -0.45593999997E+02  0.45594000000E+02  0.51100000000E-03 0.  1.
         23    2    1    2    0    0  0.00000000000E+00  0.17763568394E-14 -0.17763568394E-14  0.91188000000E+02  0.91188000000E+02 0.  0.
    9900012    2    3    3    0    0 -0.30762525538E+02 -0.14578370921E+02  0.14032848727E+02  0.54367045103E+02  0.39999910920E+02 0.  0.
        -12    1    3    3    0    0  0.30762525538E+02  0.14578370921E+02 -0.14032848727E+02  0.36820954897E+02  0.00000000000E+00 0.  1.
         11    1    4    4    0    0  0.51496685488E+00  0.10309996323E+02  0.47661957234E+01  0.11370041204E+02  0.51100000000E-03 0. -1.
        -11    1    4    4    0    0 -0.11423787623E+02 -0.14444333188E+02 -0.74566527829E+00  0.18430889882E+02  0.51100000000E-03 0.  1.
         12    1    4    4    0    0 -0.19853704770E+02 -0.10444034057E+02  0.10012318282E+02  0.24566114016E+02  0.00000000000E+00 0. -1.
</event>
<event>
 8    1  0.1229941E-006  0.9118800E+02  0.7816164E-02  0.1184000E+00
        -11   -1    0    0    0    0  0.00000000000E+00  0.00000000000E+00  0.45593999997E+02  0.45594000000E+02  0.51100000000E-03 0. -1.
         11   -1    0    0    0    0 -0.00000000000E+00 -0.00000000000E+00 -0.45593999997E+02  0.45594000000E+02  0.51100000000E-03 0.  1.
         23    2    1    2    0    0 -0.88817841970E-15  0.35527136788E-14  0.35527136788E-14  0.91188000000E+02  0.91188000000E+02 0.  0.
    9900012    2    3    3    0    0 -0.33503350573E+01  0.25770537540E+02  0.26085084131E+02  0.54367123256E+02  0.40000089086E+02 0.  0.
        -12    1    3    3    0    0  0.33503350573E+01 -0.25770537540E+02 -0.26085084131E+02  0.36820876744E+02  0.00000000000E+00 0.  1.
         11    1    4    4    0    0 -0.35070605073E+01  0.11719174245E+02  0.31422223625E+02  0.33719351361E+02  0.51100000000E-03 0. -1.
        -11    1    4    4    0    0 -0.62556795519E+01  0.47670777939E+01 -0.50769333124E+01  0.93612931515E+01  0.51100000000E-03 0.  1.
         12    1    4    4    0    0  0.64124050018E+01  0.92842855010E+01 -0.26020618187E+00  0.11286478744E+02  0.00000000000E+00 0. -1.
</event>
<event>
 8    1  0.1229941E-006  0.9118800E+02  0.7816164E-02  0.1184000E+00
        -11   -1    0    0    0    0  0.00000000000E+00  0.00000000000E+00  0.45593999997E+02  0.45594000000E+02  0.51100000000E-03 0.  1.
         11   -1    0    0    0    0 -0.00000000000E+00 -0.00000000000E+00 -0.45593999997E+02  0.45594000000E+02  0.51100000000E-03 0. -1.
         23    2    1    2    0    0  0.00000000000E+00 -0.17763568394E-14 -0.88817841970E-15  0.91188000000E+02  0.91188000000E+02 0.  0.
    9900012    2    3    3    0    0 -0.34995793962E+02  0.10660034500E+02 -0.41758959990E+01  0.54367081517E+02  0.39999993934E+02 0.  0.
        -12    1    3    3    0    0  0.34995793962E+02 -0.10660034500E+02  0.41758959990E+01  0.36820918483E+02  0.00000000000E+00 0.  1.
         11    1    4    4    0    0 -0.13092245450E+02  0.17207888645E+00  0.62699793863E+01  0.14517201652E+02  0.51100000000E-03 0. -1.
        -11    1    4    4    0    0 -0.27360634647E+02  0.25516168489E+01 -0.29342892679E+01  0.27635577262E+02  0.51100000000E-03 0.  1.
         12    1    4    4    0    0  0.54570861347E+01  0.79363387644E+01 -0.75115861173E+01  0.12214302602E+02  0.00000000000E+00 0. -1.
</event>
<event>
 8    1  0.1229941E-006  0.9118800E+02  0.7816164E-02  0.1184000E+00
        -11   -1    0    0    0    0  0.00000000000E+00  0.00000000000E+00  0.45593999997E+02  0.45594000000E+02  0.51100000000E-03 0. -1.
         11   -1    0    0    0    0 -0.00000000000E+00 -0.00000000000E+00 -0.45593999997E+02  0.45594000000E+02  0.51100000000E-03 0.  1.
         23    2    1    2    0    0  0.22204460493E-15  0.00000000000E+00 -0.88817841970E-15  0.91188000000E+02  0.91188000000E+02 0.  0.
    9900012    2    3    3    0    0  0.13275676908E+01 -0.36341387632E+02  0.57723950471E+01  0.54367089696E+02  0.40000012581E+02 0.  0.
        -12    1    3    3    0    0 -0.13275676908E+01  0.36341387632E+02 -0.57723950471E+01  0.36820910304E+02  0.00000000000E+00 0.  1.
         11    1    4    4    0    0 -0.20673610425E+00  0.49662789502E+01 -0.26378948883E+01  0.56271801224E+01  0.51100000000E-03 0. -1.
        -11    1    4    4    0    0  0.11576924317E+02 -0.11214893039E+02  0.92658193321E+00  0.16144892594E+02  0.51100000000E-03 0.  1.
         12    1    4    4    0    0 -0.10042620522E+02 -0.30092773543E+02  0.74837080021E+01  0.32595016980E+02  0.00000000000E+00 0. -1.
</event>
<event>
 8    1  0.1229941E-006  0.9118800E+02  0.7816164E-02  0.1184000E+00
        -11   -1    0    0    0    0  0.00000000000E+00  0.00000000000E+00  0.45593999997E+02  0.45594000000E+02  0.51100000000E-03 0. -1.
         11   -1    0    0    0    0 -0.00000000000E+00 -0.00000000000E+00 -0.45593999997E+02  0.45594000000E+02  0.51100000000E-03 0.  1.
         23    2    1    2    0    0  0.22204460493E-15  0.35527136788E-14  0.35527136788E-14  0.91188000000E+02  0.91188000000E+02 0.  0.
    9900012    2    3    3    0    0 -0.71681419324E+00 -0.31788542072E+02 -0.18567585666E+02  0.54367075689E+02  0.39999980648E+02 0.  0.
         12    1    3    3    0    0  0.71681419324E+00  0.31788542072E+02  0.18567585666E+02  0.36820924311E+02  0.00000000000E+00 0. -1.
         11    1    4    4    0    0  0.54781961499E+01 -0.18757298036E+02 -0.19364034767E+02  0.27510229105E+02  0.51100000000E-03 0. -1.
        -11    1    4    4    0    0  0.76076362953E+01 -0.77783130666E+01  0.42655399920E+01  0.11686450096E+02  0.51100000000E-03 0.  1.
        -12    1    4    4    0    0 -0.13802646638E+02 -0.52529309694E+01 -0.34690908905E+01  0.15170396488E+02  0.00000000000E+00 0.  1.
</event>
<event>
 8    1  0.1229941E-006  0.9118800E+02  0.7816164E-02  0.1184000E+00
        -11   -1    0    0    0    0  0.00000000000E+00  0.00000000000E+00  0.45593999997E+02  0.45594000000E+02  0.51100000000E-03 0. -1.
         11   -1    0    0    0    0 -0.00000000000E+00 -0.00000000000E+00 -0.45593999997E+02  0.45594000000E+02  0.51100000000E-03 0.  1.
         23    2    1    2    0    0  0.00000000000E+00  0.00000000000E+00  0.00000000000E+00  0.91188000000E+02  0.91188000000E+02 0.  0.
    9900012    2    3    3    0    0 -0.19254342797E+02  0.62608131361E+01  0.30754708112E+02  0.54367087889E+02  0.40000008460E+02 0.  0.
        -12    1    3    3    0    0  0.19254342797E+02 -0.62608131361E+01 -0.30754708112E+02  0.36820912111E+02  0.00000000000E+00 0.  1.
         11    1    4    4    0    0 -0.13375308530E+02 -0.84039851558E+01  0.32229051906E+01  0.16121816365E+02  0.51100000000E-03 0. -1.
        -11    1    4    4    0    0 -0.56990131678E+01 -0.35893811901E+01  0.13953841545E+02  0.15494260310E+02  0.51100000000E-03 0.  1.
        -12    1    4    4    0    0 -0.18002109917E+00  0.18254179482E+02  0.13577961376E+02  0.22751011215E+02  0.00000000000E+00 0.  1.
</event>
<event>
 8    1  0.1229941E-006  0.9118800E+02  0.7816164E-02  0.1184000E+00
        -11   -1    0    0    0    0  0.00000000000E+00  0.00000000000E+00  0.45593999997E+02  0.45594000000E+02  0.51100000000E-03 0.  1.
         11   -1    0    0    0    0 -0.00000000000E+00 -0.00000000000E+00 -0.45593999997E+02  0.45594000000E+02  0.51100000000E-03 0. -1.
         23    2    1    2    0    0  0.00000000000E+00  0.00000000000E+00 -0.17763568394E-14  0.91188000000E+02  0.91188000000E+02 0.  0.
    9900012    2    3    3    0    0 -0.27699442634E+02 -0.20129471814E+02 -0.13539768312E+02  0.54367080896E+02  0.39999992518E+02 0.  0.
        -12    1    3    3    0    0  0.27699442634E+02  0.20129471814E+02  0.13539768312E+02  0.36820919104E+02  0.00000000000E+00 0.  1.
         11    1    4    4    0    0 -0.10378581468E+02  0.52177251578E+01 -0.39274624252E+01  0.12262323208E+02  0.51100000000E-03 0. -1.
        -11    1    4    4    0    0 -0.23117481175E+02 -0.11560432348E+02 -0.41244099584E+01  0.26173885644E+02  0.51100000000E-03 0.  1.
         12    1    4    4    0    0  0.57966200094E+01 -0.13786764624E+02 -0.54878959281E+01  0.15930872043E+02  0.00000000000E+00 0. -1.
</event>
<event>
 8    1  0.1229941E-006  0.9118800E+02  0.7816164E-02  0.1184000E+00
        -11   -1    0    0    0    0  0.00000000000E+00  0.00000000000E+00  0.45593999997E+02  0.45594000000E+02  0.51100000000E-03 0. -1.
         11   -1    0    0    0    0 -0.00000000000E+00 -0.00000000000E+00 -0.45593999997E+02  0.45594000000E+02  0.51100000000E-03 0.  1.
         23    2    1    2    0    0  0.88817841970E-15  0.00000000000E+00  0.00000000000E+00  0.91188000000E+02  0.91188000000E+02 0.  0.
    9900012    2    3    3    0    0  0.62933550805E+01 -0.25217007558E+02  0.26082153102E+02  0.54367048101E+02  0.39999917755E+02 0.  0.
        -12    1    3    3    0    0 -0.62933550805E+01  0.25217007558E+02 -0.26082153102E+02  0.36820951899E+02  0.00000000000E+00 0.  1.
         11    1    4    4    0    0  0.22728089375E+01  0.10362785265E+01 -0.58734417389E+01  0.63825427356E+01  0.51100000000E-03 0.  1.
        -11    1    4    4    0    0 -0.41803759971E+01 -0.80591696829E+01 -0.13287987545E+01  0.91755907628E+01  0.51100000000E-03 0. -1.
         12    1    4    4    0    0  0.82009221402E+01 -0.18194116401E+02  0.33284393595E+02  0.38808914602E+02  0.00000000000E+00 0. -1.
</event>
<event>
 8    1  0.1229941E-006  0.9118800E+02  0.7816164E-02  0.1184000E+00
        -11   -1    0    0    0    0  0.00000000000E+00  0.00000000000E+00  0.45593999997E+02  0.45594000000E+02  0.51100000000E-03 0. -1.
         11   -1    0    0    0    0 -0.00000000000E+00 -0.00000000000E+00 -0.45593999997E+02  0.45594000000E+02  0.51100000000E-03 0.  1.
         23    2    1    2    0    0  0.00000000000E+00 -0.88817841970E-15  0.00000000000E+00  0.91188000000E+02  0.91188000000E+02 0.  0.
    9900012    2    3    3    0    0 -0.15756028538E+02  0.30283250767E+01  0.33141467882E+02  0.54367080927E+02  0.39999992589E+02 0.  0.
        -12    1    3    3    0    0  0.15756028538E+02 -0.30283250767E+01 -0.33141467882E+02  0.36820919073E+02  0.00000000000E+00 0.  1.
         11    1    4    4    0    0 -0.65197169360E+01  0.19888705802E+01  0.44861944451E+01  0.81601627417E+01  0.51100000000E-03 0. -1.
        -11    1    4    4    0    0 -0.39056351633E+00 -0.15953874692E+02  0.73961421826E+01  0.17589246061E+02  0.51100000000E-03 0.  1.
        -12    1    4    4    0    0 -0.88457480856E+01  0.16993329189E+02  0.21259131254E+02  0.28617672124E+02  0.00000000000E+00 0.  1.
</event>
<event>
 8    1  0.1229941E-006  0.9118800E+02  0.7816164E-02  0.1184000E+00
        -11   -1    0    0    0    0  0.00000000000E+00  0.00000000000E+00  0.45593999997E+02  0.45594000000E+02  0.51100000000E-03 0.  1.
         11   -1    0    0    0    0 -0.00000000000E+00 -0.00000000000E+00 -0.45593999997E+02  0.45594000000E+02  0.51100000000E-03 0. -1.
         23    2    1    2    0    0  0.00000000000E+00  0.00000000000E+00  0.35527136788E-14  0.91188000000E+02  0.91188000000E+02 0.  0.
    9900012    2    3    3    0    0 -0.32013678405E+02  0.12537572452E+02 -0.13180087772E+02  0.54367067886E+02  0.39999962860E+02 0.  0.
        -12    1    3    3    0    0  0.32013678405E+02 -0.12537572452E+02  0.13180087772E+02  0.36820932114E+02  0.00000000000E+00 0.  1.
         11    1    4    4    0    0 -0.18098908658E+02  0.40127089000E+01 -0.17067151407E+02  0.25198412346E+02  0.51100000000E-03 0. -1.
        -11    1    4    4    0    0 -0.94418349285E+01  0.17655493976E+01  0.13516589199E+02  0.16582026273E+02  0.51100000000E-03 0.  1.
        -12    1    4    4    0    0 -0.44729348185E+01  0.67593141543E+01 -0.96295255642E+01  0.12586629268E+02  0.00000000000E+00 0.  1.
</event>
<event>
 8    1  0.1229941E-006  0.9118800E+02  0.7816164E-02  0.1184000E+00
        -11   -1    0    0    0    0  0.00000000000E+00  0.00000000000E+00  0.45593999997E+02  0.45594000000E+02  0.51100000000E-03 0. -1.
         11   -1    0    0    0    0 -0.00000000000E+00 -0.00000000000E+00 -0.45593999997E+02  0.45594000000E+02  0.51100000000E-03 0.  1.
         23    2    1    2    0    0  0.17763568394E-14  0.44408920985E-15 -0.71054273576E-14  0.91188000000E+02  0.91188000000E+02 0.  0.
    9900012    2    3    3    0    0 -0.13640911083E+02  0.30956821949E+01  0.34060558228E+02  0.54367091127E+02  0.40000015843E+02 0.  0.
        -12    1    3    3    0    0  0.13640911083E+02 -0.30956821949E+01 -0.34060558228E+02  0.36820908873E+02  0.00000000000E+00 0.  1.
         11    1    4    4    0    0 -0.14429670693E+02 -0.49149599101E+01  0.40925044429E+02  0.43671861524E+02  0.51100000000E-03 0. -1.
        -11    1    4    4    0    0 -0.37858445731E-01  0.39376073332E+01 -0.24783319326E+01  0.46527748926E+01  0.51100000000E-03 0.  1.
         12    1    4    4    0    0  0.82661805581E+00  0.40730347718E+01 -0.43861542683E+01  0.60424547104E+01  0.00000000000E+00 0. -1.
</event>
<event>
 8    1  0.1229941E-006  0.9118800E+02  0.7816164E-02  0.1184000E+00
        -11   -1    0    0    0    0  0.00000000000E+00  0.00000000000E+00  0.45593999997E+02  0.45594000000E+02  0.51100000000E-03 0.  1.
         11   -1    0    0    0    0 -0.00000000000E+00 -0.00000000000E+00 -0.45593999997E+02  0.45594000000E+02  0.51100000000E-03 0. -1.
         23    2    1    2    0    0  0.35527136788E-14  0.00000000000E+00  0.35527136788E-14  0.91188000000E+02  0.91188000000E+02 0.  0.
    9900012    2    3    3    0    0 -0.21503743734E+02  0.26802314281E+02  0.13228926610E+02  0.54367088215E+02  0.40000009203E+02 0.  0.
         12    1    3    3    0    0  0.21503743734E+02 -0.26802314281E+02 -0.13228926610E+02  0.36820911785E+02  0.00000000000E+00 0. -1.
         11    1    4    4    0    0 -0.22083351876E+02  0.16442874103E+02 -0.92565134955E+01  0.29046954767E+02  0.51100000000E-03 0. -1.
        -11    1    4    4    0    0  0.11275183348E+01  0.85766152642E+01  0.12749299135E+02  0.15406954783E+02  0.51100000000E-03 0.  1.
         12    1    4    4    0    0 -0.54791019341E+00  0.17828249137E+01  0.97361409707E+01  0.99131786655E+01  0.00000000000E+00 0. -1.
</event>
<event>
 8    1  0.1229941E-006  0.9118800E+02  0.7816164E-02  0.1184000E+00
        -11   -1    0    0    0    0  0.00000000000E+00  0.00000000000E+00  0.45593999997E+02  0.45594000000E+02  0.51100000000E-03 0.  1.
         11   -1    0    0    0    0 -0.00000000000E+00 -0.00000000000E+00 -0.45593999997E+02  0.45594000000E+02  0.51100000000E-03 0. -1.
         23    2    1    2    0    0  0.00000000000E+00  0.00000000000E+00  0.00000000000E+00  0.91188000000E+02  0.91188000000E+02 0.  0.
    9900012    2    3    3    0    0  0.25658417645E+02 -0.99481153739E+01  0.24463460588E+02  0.54367077965E+02  0.39999985837E+02 0.  0.
         12    1    3    3    0    0 -0.25658417645E+02  0.99481153739E+01 -0.24463460588E+02  0.36820922035E+02  0.00000000000E+00 0. -1.
         11    1    4    4    0    0 -0.32641887859E+00  0.72094751536E+00 -0.40833813163E+01  0.41593650765E+01  0.51100000000E-03 0. -1.
        -11    1    4    4    0    0  0.72860270265E+01 -0.56344183518E+01  0.29415235097E+02  0.30823512390E+02  0.51100000000E-03 0.  1.
        -12    1    4    4    0    0  0.18698809497E+02 -0.50346445375E+01 -0.86839319251E+00  0.19384200499E+02  0.00000000000E+00 0.  1.
</event>
<event>
 8    1  0.1229941E-006  0.9118800E+02  0.7816164E-02  0.1184000E+00
        -11   -1    0    0    0    0  0.00000000000E+00  0.00000000000E+00  0.45593999997E+02  0.45594000000E+02  0.51100000000E-03 0.  1.
         11   -1    0    0    0    0 -0.00000000000E+00 -0.00000000000E+00 -0.45593999997E+02  0.45594000000E+02  0.51100000000E-03 0. -1.
         23    2    1    2    0    0  0.00000000000E+00  0.00000000000E+00  0.00000000000E+00  0.91188000000E+02  0.91188000000E+02 0.  0.
    9900012    2    3    3    0    0 -0.97159133843E+01 -0.13090440660E+02 -0.33015500442E+02  0.54367056517E+02  0.39999936941E+02 0.  0.
        -12    1    3    3    0    0  0.97159133843E+01  0.13090440660E+02  0.33015500442E+02  0.36820943483E+02  0.00000000000E+00 0.  1.
         11    1    4    4    0    0 -0.19354701045E+02 -0.37542172741E+01 -0.20585888166E+02  0.28503989050E+02  0.51100000000E-03 0. -1.
        -11    1    4    4    0    0 -0.51235655854E+01 -0.86786884897E+00 -0.81831888327E+00  0.52605861558E+01  0.51100000000E-03 0.  1.
        -12    1    4    4    0    0  0.14762353246E+02 -0.84683545365E+01 -0.11611293392E+02  0.20602481311E+02  0.00000000000E+00 0.  1.
</event>
<event>
 8    1  0.1229941E-006  0.9118800E+02  0.7816164E-02  0.1184000E+00
        -11   -1    0    0    0    0  0.00000000000E+00  0.00000000000E+00  0.45593999997E+02  0.45594000000E+02  0.51100000000E-03 0.  1.
         11   -1    0    0    0    0 -0.00000000000E+00 -0.00000000000E+00 -0.45593999997E+02  0.45594000000E+02  0.51100000000E-03 0. -1.
         23    2    1    2    0    0  0.44408920985E-15  0.17763568394E-14  0.00000000000E+00  0.91188000000E+02  0.91188000000E+02 0.  0.
    9900012    2    3    3    0    0 -0.35407003413E+01  0.12250512305E+02 -0.34542269362E+02  0.54367082258E+02  0.39999995624E+02 0.  0.
        -12    1    3    3    0    0  0.35407003413E+01 -0.12250512305E+02  0.34542269362E+02  0.36820917742E+02  0.00000000000E+00 0.  1.
         11    1    4    4    0    0  0.13183353007E+01 -0.64972258765E+00  0.28901698454E+01  0.32424110477E+01  0.51100000000E-03 0. -1.
        -11    1    4    4    0    0 -0.13888947140E+02 -0.34225581221E+01 -0.83185830647E+01  0.16547373847E+02  0.51100000000E-03 0.  1.
         12    1    4    4    0    0  0.90299114982E+01  0.16322793014E+02 -0.29113856143E+02  0.34577297364E+02  0.00000000000E+00 0. -1.
</event>
<event>
 8    1  0.1229941E-006  0.9118800E+02  0.7816164E-02  0.1184000E+00
        -11   -1    0    0    0    0  0.00000000000E+00  0.00000000000E+00  0.45593999997E+02  0.45594000000E+02  0.51100000000E-03 0.  1.
         11   -1    0    0    0    0 -0.00000000000E+00 -0.00000000000E+00 -0.45593999997E+02  0.45594000000E+02  0.51100000000E-03 0. -1.
         23    2    1    2    0    0  0.00000000000E+00  0.00000000000E+00  0.71054273576E-14  0.91188000000E+02  0.91188000000E+02 0.  0.
    9900012    2    3    3    0    0 -0.20021382654E+02  0.86198498523E+01  0.29675277737E+02  0.54367086328E+02  0.40000004901E+02 0.  0.
         12    1    3    3    0    0  0.20021382654E+02 -0.86198498523E+01 -0.29675277737E+02  0.36820913672E+02  0.00000000000E+00 0. -1.
         11    1    4    4    0    0 -0.17449262580E+01  0.36747194574E+01 -0.41094310275E+01  0.57823658106E+01  0.51100000000E-03 0. -1.
        -11    1    4    4    0    0 -0.14343599998E+02  0.14993872177E+02  0.31230963871E+02  0.37495708666E+02  0.51100000000E-03 0.  1.
         12    1    4    4    0    0 -0.39328563980E+01 -0.10048741782E+02  0.25537448937E+01  0.11089011851E+02  0.00000000000E+00 0. -1.
</event>
<event>
 8    1  0.1229941E-006  0.9118800E+02  0.7816164E-02  0.1184000E+00
        -11   -1    0    0    0    0  0.00000000000E+00  0.00000000000E+00  0.45593999997E+02  0.45594000000E+02  0.51100000000E-03 0.  1.
         11   -1    0    0    0    0 -0.00000000000E+00 -0.00000000000E+00 -0.45593999997E+02  0.45594000000E+02  0.51100000000E-03 0. -1.
         23    2    1    2    0    0  0.17763568394E-14  0.00000000000E+00  0.71054273576E-14  0.91188000000E+02  0.91188000000E+02 0.  0.
    9900012    2    3    3    0    0 -0.11952040254E+02  0.46871790323E+01 -0.34510267682E+02  0.54367088971E+02  0.40000010927E+02 0.  0.
        -12    1    3    3    0    0  0.11952040254E+02 -0.46871790323E+01  0.34510267682E+02  0.36820911029E+02  0.00000000000E+00 0.  1.
         11    1    4    4    0    0 -0.33928814033E-01 -0.49898953730E+00 -0.15556666150E+02  0.15564703778E+02  0.51100000000E-03 0. -1.
        -11    1    4    4    0    0  0.11811210019E+01 -0.76773439629E+01  0.45314898331E+01  0.89928336755E+01  0.51100000000E-03 0.  1.
        -12    1    4    4    0    0 -0.13099232442E+02  0.12863512532E+02 -0.23485091365E+02  0.29809551517E+02  0.00000000000E+00 0.  1.
</event>
<event>
 8    1  0.1229941E-006  0.9118800E+02  0.7816164E-02  0.1184000E+00
        -11   -1    0    0    0    0  0.00000000000E+00  0.00000000000E+00  0.45593999997E+02  0.45594000000E+02  0.51100000000E-03 0.  1.
         11   -1    0    0    0    0 -0.00000000000E+00 -0.00000000000E+00 -0.45593999997E+02  0.45594000000E+02  0.51100000000E-03 0. -1.
         23    2    1    2    0    0  0.00000000000E+00  0.00000000000E+00  0.00000000000E+00  0.91188000000E+02  0.91188000000E+02 0.  0.
    9900012    2    3    3    0    0 -0.31223114132E+02  0.85656543696E+01 -0.17536428104E+02  0.54367087443E+02  0.40000007444E+02 0.  0.
        -12    1    3    3    0    0  0.31223114132E+02 -0.85656543696E+01  0.17536428104E+02  0.36820912557E+02  0.00000000000E+00 0.  1.
         11    1    4    4    0    0  0.59893633941E+01 -0.84788408336E+00 -0.34698165259E+01  0.69735936410E+01  0.51100000000E-03 0. -1.
        -11    1    4    4    0    0 -0.49770762404E+01  0.14362411635E+01  0.65160715624E+01  0.83242576516E+01  0.51100000000E-03 0.  1.
        -12    1    4    4    0    0 -0.32235401286E+02  0.79772972895E+01 -0.20582683141E+02  0.39069236150E+02  0.00000000000E+00 0.  1.
</event>
<event>
 8    1  0.1229941E-006  0.9118800E+02  0.7816164E-02  0.1184000E+00
        -11   -1    0    0    0    0  0.00000000000E+00  0.00000000000E+00  0.45593999997E+02  0.45594000000E+02  0.51100000000E-03 0. -1.
         11   -1    0    0    0    0 -0.00000000000E+00 -0.00000000000E+00 -0.45593999997E+02  0.45594000000E+02  0.51100000000E-03 0.  1.
         23    2    1    2    0    0 -0.44408920985E-14  0.88817841970E-15  0.71054273576E-14  0.91188000000E+02  0.91188000000E+02 0.  0.
    9900012    2    3    3    0    0  0.14038113482E+01  0.41045948967E+01  0.36564461083E+02  0.54367106477E+02  0.40000050834E+02 0.  0.
        -12    1    3    3    0    0 -0.14038113482E+01 -0.41045948967E+01 -0.36564461083E+02  0.36820893523E+02  0.00000000000E+00 0.  1.
         11    1    4    4    0    0  0.16392087793E+02  0.12213957610E+02  0.26106105000E+02  0.33157352447E+02  0.51100000000E-03 0. -1.
        -11    1    4    4    0    0 -0.76162510737E+01 -0.26782562695E+01  0.11540647677E+01  0.81555013832E+01  0.51100000000E-03 0.  1.
         12    1    4    4    0    0 -0.73720253716E+01 -0.54311064439E+01  0.93042913151E+01  0.13054252647E+02  0.00000000000E+00 0. -1.
</event>
<event>
 8    1  0.1229941E-006  0.9118800E+02  0.7816164E-02  0.1184000E+00
        -11   -1    0    0    0    0  0.00000000000E+00  0.00000000000E+00  0.45593999997E+02  0.45594000000E+02  0.51100000000E-03 0.  1.
         11   -1    0    0    0    0 -0.00000000000E+00 -0.00000000000E+00 -0.45593999997E+02  0.45594000000E+02  0.51100000000E-03 0. -1.
         23    2    1    2    0    0  0.35527136788E-14 -0.17763568394E-14 -0.35527136788E-14  0.91188000000E+02  0.91188000000E+02 0.  0.
    9900012    2    3    3    0    0 -0.15263367324E+02  0.12681098891E+02  0.31016130754E+02  0.54367068207E+02  0.39999963592E+02 0.  0.
         12    1    3    3    0    0  0.15263367324E+02 -0.12681098891E+02 -0.31016130754E+02  0.36820931793E+02  0.00000000000E+00 0. -1.
         11    1    4    4    0    0 -0.12218129095E+02  0.42248293975E+01  0.60215152133E+01  0.14261504400E+02  0.51100000000E-03 0. -1.
        -11    1    4    4    0    0 -0.16180053537E+02  0.35897672751E+01  0.90549434333E+01  0.18885776722E+02  0.51100000000E-03 0.  1.
        -12    1    4    4    0    0  0.13134815309E+02  0.48665022184E+01  0.15939672107E+02  0.21219787085E+02  0.00000000000E+00 0.  1.
</event>
<event>
 8    1  0.1229941E-006  0.9118800E+02  0.7816164E-02  0.1184000E+00
        -11   -1    0    0    0    0  0.00000000000E+00  0.00000000000E+00  0.45593999997E+02  0.45594000000E+02  0.51100000000E-03 0. -1.
         11   -1    0    0    0    0 -0.00000000000E+00 -0.00000000000E+00 -0.45593999997E+02  0.45594000000E+02  0.51100000000E-03 0.  1.
         23    2    1    2    0    0  0.55511151231E-15  0.00000000000E+00 -0.22204460493E-15  0.91188000000E+02  0.91188000000E+02 0.  0.
    9900012    2    3    3    0    0 -0.80428992146E+00 -0.36772804014E+02 -0.17012341891E+01  0.54367079383E+02  0.39999989069E+02 0.  0.
         12    1    3    3    0    0  0.80428992146E+00  0.36772804014E+02  0.17012341891E+01  0.36820920617E+02  0.00000000000E+00 0. -1.
         11    1    4    4    0    0  0.74776455512E+01  0.47352105991E+01 -0.73523736107E+01  0.11506293946E+02  0.51100000000E-03 0. -1.
        -11    1    4    4    0    0 -0.45578291609E+01 -0.15931149338E+02  0.34072970234E+01  0.16917003256E+02  0.51100000000E-03 0.  1.
         12    1    4    4    0    0 -0.37241063118E+01 -0.25576865275E+02  0.22438423983E+01  0.25943782180E+02  0.00000000000E+00 0. -1.
</event>
<event>
 8    1  0.1229941E-006  0.9118800E+02  0.7816164E-02  0.1184000E+00
        -11   -1    0    0    0    0  0.00000000000E+00  0.00000000000E+00  0.45593999997E+02  0.45594000000E+02  0.51100000000E-03 0. -1.
         11   -1    0    0    0    0 -0.00000000000E+00 -0.00000000000E+00 -0.45593999997E+02  0.45594000000E+02  0.51100000000E-03 0.  1.
         23    2    1    2    0    0  0.00000000000E+00 -0.17763568394E-14  0.00000000000E+00  0.91188000000E+02  0.91188000000E+02 0.  0.
    9900012    2    3    3    0    0 -0.13059288271E+02 -0.10742431954E+02 -0.32708348199E+02  0.54367069860E+02  0.39999967360E+02 0.  0.
         12    1    3    3    0    0  0.13059288271E+02  0.10742431954E+02  0.32708348199E+02  0.36820930140E+02  0.00000000000E+00 0. -1.
         11    1    4    4    0    0 -0.15147440827E+01  0.99398623729E+01 -0.37954822678E+01  0.10747139133E+02  0.51100000000E-03 0. -1.
        -11    1    4    4    0    0 -0.16918191016E+02 -0.12272414292E+02 -0.25720201752E+02  0.33141607055E+02  0.51100000000E-03 0.  1.
         12    1    4    4    0    0  0.53736468269E+01 -0.84098800346E+01 -0.31926641795E+01  0.10478323672E+02  0.00000000000E+00 0. -1.
</event>
<event>
 8    1  0.1229941E-006  0.9118800E+02  0.7816164E-02  0.1184000E+00
        -11   -1    0    0    0    0  0.00000000000E+00  0.00000000000E+00  0.45593999997E+02  0.45594000000E+02  0.51100000000E-03 0. -1.
         11   -1    0    0    0    0 -0.00000000000E+00 -0.00000000000E+00 -0.45593999997E+02  0.45594000000E+02  0.51100000000E-03 0.  1.
         23    2    1    2    0    0 -0.35527136788E-14  0.00000000000E+00  0.00000000000E+00  0.91188000000E+02  0.91188000000E+02 0.  0.
    9900012    2    3    3    0    0  0.19138233546E+02  0.30814823421E+02 -0.63209881433E+01  0.54367079087E+02  0.39999988395E+02 0.  0.
         12    1    3    3    0    0 -0.19138233546E+02 -0.30814823421E+02  0.63209881433E+01  0.36820920913E+02  0.00000000000E+00 0. -1.
         11    1    4    4    0    0 -0.56125073414E+01  0.18179485256E+02 -0.44845828988E+01  0.19547516642E+02  0.51100000000E-03 0. -1.
        -11    1    4    4    0    0  0.13126445407E+02  0.16111550851E+02  0.43015982306E+01  0.21222379402E+02  0.51100000000E-03 0.  1.
         12    1    4    4    0    0  0.11624295480E+02 -0.34762126865E+01 -0.61380034751E+01  0.13597183043E+02  0.00000000000E+00 0. -1.
</event>
<event>
 8    1  0.1229941E-006  0.9118800E+02  0.7816164E-02  0.1184000E+00
        -11   -1    0    0    0    0  0.00000000000E+00  0.00000000000E+00  0.45593999997E+02  0.45594000000E+02  0.51100000000E-03 0.  1.
         11   -1    0    0    0    0 -0.00000000000E+00 -0.00000000000E+00 -0.45593999997E+02  0.45594000000E+02  0.51100000000E-03 0. -1.
         23    2    1    2    0    0  0.00000000000E+00 -0.17763568394E-14  0.00000000000E+00  0.91188000000E+02  0.91188000000E+02 0.  0.
    9900012    2    3    3    0    0 -0.34428210227E+02  0.10939632528E+02 -0.71276257451E+01  0.54367078393E+02  0.39999986812E+02 0.  0.
         12    1    3    3    0    0  0.34428210227E+02 -0.10939632528E+02  0.71276257451E+01  0.36820921607E+02  0.00000000000E+00 0. -1.
         11    1    4    4    0    0  0.52395607326E+01  0.29677710906E+01  0.43373957282E+01  0.74211632431E+01  0.51100000000E-03 0. -1.
        -11    1    4    4    0    0 -0.32817980408E+02  0.23740781835E+01 -0.56588123143E+00  0.32908605366E+02  0.51100000000E-03 0.  1.
        -12    1    4    4    0    0 -0.68497905511E+01  0.55977832539E+01 -0.10899140242E+02  0.14037309784E+02  0.00000000000E+00 0.  1.
</event>
<event>
 8    1  0.1229941E-006  0.9118800E+02  0.7816164E-02  0.1184000E+00
        -11   -1    0    0    0    0  0.00000000000E+00  0.00000000000E+00  0.45593999997E+02  0.45594000000E+02  0.51100000000E-03 0.  1.
         11   -1    0    0    0    0 -0.00000000000E+00 -0.00000000000E+00 -0.45593999997E+02  0.45594000000E+02  0.51100000000E-03 0. -1.
         23    2    1    2    0    0 -0.35527136788E-14  0.00000000000E+00 -0.88817841970E-15  0.91188000000E+02  0.91188000000E+02 0.  0.
    9900012    2    3    3    0    0  0.20381345297E+02  0.29842145380E+02 -0.70591350189E+01  0.54367024127E+02  0.39999863103E+02 0.  0.
        -12    1    3    3    0    0 -0.20381345297E+02 -0.29842145380E+02  0.70591350189E+01  0.36820975873E+02  0.00000000000E+00 0.  1.
         11    1    4    4    0    0  0.20323438903E+02  0.20761155767E+02 -0.70586764159E+01  0.29898037906E+02  0.51100000000E-03 0. -1.
        -11    1    4    4    0    0  0.70285049080E-01  0.66658746411E+01  0.11187662979E+02  0.13023157371E+02  0.51100000000E-03 0.  1.
         12    1    4    4    0    0 -0.12378654537E-01  0.24151149719E+01 -0.11188121582E+02  0.11445828851E+02  0.00000000000E+00 0. -1.
</event>
<event>
 8    1  0.1229941E-006  0.9118800E+02  0.7816164E-02  0.1184000E+00
        -11   -1    0    0    0    0  0.00000000000E+00  0.00000000000E+00  0.45593999997E+02  0.45594000000E+02  0.51100000000E-03 0. -1.
         11   -1    0    0    0    0 -0.00000000000E+00 -0.00000000000E+00 -0.45593999997E+02  0.45594000000E+02  0.51100000000E-03 0.  1.
         23    2    1    2    0    0  0.17763568394E-14 -0.35527136788E-14 -0.35527136788E-14  0.91188000000E+02  0.91188000000E+02 0.  0.
    9900012    2    3    3    0    0 -0.13974824541E+02  0.19020233678E+02  0.28261535617E+02  0.54367090104E+02  0.40000013510E+02 0.  0.
        -12    1    3    3    0    0  0.13974824541E+02 -0.19020233678E+02 -0.28261535617E+02  0.36820909896E+02  0.00000000000E+00 0.  1.
         11    1    4    4    0    0  0.11564398963E+02  0.34902351324E+00  0.95351874997E+01  0.14992562879E+02  0.51100000000E-03 0.  1.
        -11    1    4    4    0    0 -0.11398261326E+02  0.56433223171E+01  0.26870144754E+00  0.12721621311E+02  0.51100000000E-03 0. -1.
         12    1    4    4    0    0 -0.14140962177E+02  0.13027887848E+02  0.18457646670E+02  0.26652905914E+02  0.00000000000E+00 0. -1.
</event>
<event>
 8    1  0.1229941E-006  0.9118800E+02  0.7816164E-02  0.1184000E+00
        -11   -1    0    0    0    0  0.00000000000E+00  0.00000000000E+00  0.45593999997E+02  0.45594000000E+02  0.51100000000E-03 0.  1.
         11   -1    0    0    0    0 -0.00000000000E+00 -0.00000000000E+00 -0.45593999997E+02  0.45594000000E+02  0.51100000000E-03 0. -1.
         23    2    1    2    0    0  0.00000000000E+00 -0.44408920985E-15  0.00000000000E+00  0.91188000000E+02  0.91188000000E+02 0.  0.
    9900012    2    3    3    0    0 -0.29951763027E+02  0.26704437204E+01 -0.21249455617E+02  0.54367099113E+02  0.40000034049E+02 0.  0.
        -12    1    3    3    0    0  0.29951763027E+02 -0.26704437204E+01  0.21249455617E+02  0.36820900887E+02  0.00000000000E+00 0.  1.
         11    1    4    4    0    0 -0.45063281138E+01 -0.10577189949E+02  0.26960036643E+01  0.11808995567E+02  0.51100000000E-03 0. -1.
        -11    1    4    4    0    0  0.22844179888E+01  0.60673392586E+01 -0.35196687883E+01  0.73769397359E+01  0.51100000000E-03 0.  1.
         12    1    4    4    0    0 -0.27729852902E+02  0.71802944108E+01 -0.20425790493E+02  0.35181163810E+02  0.00000000000E+00 0. -1.
</event>
<event>
 8    1  0.1229941E-006  0.9118800E+02  0.7816164E-02  0.1184000E+00
        -11   -1    0    0    0    0  0.00000000000E+00  0.00000000000E+00  0.45593999997E+02  0.45594000000E+02  0.51100000000E-03 0.  1.
         11   -1    0    0    0    0 -0.00000000000E+00 -0.00000000000E+00 -0.45593999997E+02  0.45594000000E+02  0.51100000000E-03 0. -1.
         23    2    1    2    0    0 -0.35527136788E-14 -0.10658141036E-13  0.53290705182E-14  0.91188000000E+02  0.91188000000E+02 0.  0.
    9900012    2    3    3    0    0 -0.21081527007E+02 -0.27733573902E+02  0.11924789609E+02  0.54367047954E+02  0.39999917421E+02 0.  0.
         12    1    3    3    0    0  0.21081527007E+02  0.27733573902E+02 -0.11924789609E+02  0.36820952046E+02  0.00000000000E+00 0. -1.
         11    1    4    4    0    0 -0.53218413855E+01 -0.20767930587E+02 -0.69227094313E+00  0.21450132305E+02  0.51100000000E-03 0. -1.
        -11    1    4    4    0    0 -0.38625400042E+01  0.59810582727E+01 -0.44637267995E+01  0.84033999397E+01  0.51100000000E-03 0.  1.
        -12    1    4    4    0    0 -0.11897145617E+02 -0.12946701589E+02  0.17080787352E+02  0.24513515709E+02  0.00000000000E+00 0.  1.
</event>
<event>
 8    1  0.1229941E-006  0.9118800E+02  0.7816164E-02  0.1184000E+00
        -11   -1    0    0    0    0  0.00000000000E+00  0.00000000000E+00  0.45593999997E+02  0.45594000000E+02  0.51100000000E-03 0.  1.
         11   -1    0    0    0    0 -0.00000000000E+00 -0.00000000000E+00 -0.45593999997E+02  0.45594000000E+02  0.51100000000E-03 0. -1.
         23    2    1    2    0    0  0.00000000000E+00 -0.71054273576E-14  0.88817841970E-15  0.91188000000E+02  0.91188000000E+02 0.  0.
    9900012    2    3    3    0    0 -0.14601828692E+02 -0.33388120307E+02 -0.52725519492E+01  0.54367084980E+02  0.40000001830E+02 0.  0.
         12    1    3    3    0    0  0.14601828692E+02  0.33388120307E+02  0.52725519492E+01  0.36820915020E+02  0.00000000000E+00 0. -1.
         11    1    4    4    0    0  0.11427864348E+01 -0.35885181161E+02 -0.41941667963E+01  0.36147520291E+02  0.51100000000E-03 0.  1.
        -11    1    4    4    0    0 -0.12309372135E+02  0.25383475945E+01  0.29653952456E+01  0.12913458874E+02  0.51100000000E-03 0. -1.
        -12    1    4    4    0    0 -0.34352429917E+01 -0.41286740486E-01 -0.40437803985E+01  0.53061058148E+01  0.00000000000E+00 0.  1.
</event>
<event>
 8    1  0.1229941E-006  0.9118800E+02  0.7816164E-02  0.1184000E+00
        -11   -1    0    0    0    0  0.00000000000E+00  0.00000000000E+00  0.45593999997E+02  0.45594000000E+02  0.51100000000E-03 0.  1.
         11   -1    0    0    0    0 -0.00000000000E+00 -0.00000000000E+00 -0.45593999997E+02  0.45594000000E+02  0.51100000000E-03 0. -1.
         23    2    1    2    0    0  0.00000000000E+00  0.35527136788E-14  0.00000000000E+00  0.91188000000E+02  0.91188000000E+02 0.  0.
    9900012    2    3    3    0    0  0.16579503430E+02 -0.95053871887E+01  0.31472996657E+02  0.54367057071E+02  0.39999938205E+02 0.  0.
         12    1    3    3    0    0 -0.16579503430E+02  0.95053871887E+01 -0.31472996657E+02  0.36820942929E+02  0.00000000000E+00 0. -1.
         11    1    4    4    0    0 -0.18657063618E+00 -0.77106831543E+01 -0.45536757668E+01  0.89568636564E+01  0.51100000000E-03 0. -1.
        -11    1    4    4    0    0  0.98118012599E+01  0.81828891381E+01  0.28168173564E+02  0.30930197555E+02  0.51100000000E-03 0.  1.
        -12    1    4    4    0    0  0.69542728062E+01 -0.99775931724E+01  0.78584988601E+01  0.14479995860E+02  0.00000000000E+00 0.  1.
</event>
<event>
 8    1  0.1229941E-006  0.9118800E+02  0.7816164E-02  0.1184000E+00
        -11   -1    0    0    0    0  0.00000000000E+00  0.00000000000E+00  0.45593999997E+02  0.45594000000E+02  0.51100000000E-03 0.  1.
         11   -1    0    0    0    0 -0.00000000000E+00 -0.00000000000E+00 -0.45593999997E+02  0.45594000000E+02  0.51100000000E-03 0. -1.
         23    2    1    2    0    0  0.00000000000E+00  0.88817841970E-15 -0.35527136788E-14  0.91188000000E+02  0.91188000000E+02 0.  0.
    9900012    2    3    3    0    0 -0.17754811405E+02  0.75819726252E+01  0.31353716997E+02  0.54367147125E+02  0.40000143501E+02 0.  0.
         12    1    3    3    0    0  0.17754811405E+02 -0.75819726252E+01 -0.31353716997E+02  0.36820852875E+02  0.00000000000E+00 0. -1.
         11    1    4    4    0    0 -0.84682266970E+01  0.11706008890E+02  0.10389969329E+02  0.17795869477E+02  0.51100000000E-03 0.  1.
        -11    1    4    4    0    0 -0.40150178819E+01  0.10981645791E+02  0.21742709598E+01  0.11893038608E+02  0.51100000000E-03 0. -1.
         12    1    4    4    0    0 -0.52715668264E+01 -0.15105682055E+02  0.18789476708E+02  0.24678239040E+02  0.00000000000E+00 0. -1.
</event>
<event>
 8    1  0.1229941E-006  0.9118800E+02  0.7816164E-02  0.1184000E+00
        -11   -1    0    0    0    0  0.00000000000E+00  0.00000000000E+00  0.45593999997E+02  0.45594000000E+02  0.51100000000E-03 0.  1.
         11   -1    0    0    0    0 -0.00000000000E+00 -0.00000000000E+00 -0.45593999997E+02  0.45594000000E+02  0.51100000000E-03 0. -1.
         23    2    1    2    0    0 -0.35527136788E-14  0.71054273576E-14  0.00000000000E+00  0.91188000000E+02  0.91188000000E+02 0.  0.
    9900012    2    3    3    0    0  0.21182435977E+02 -0.28995347653E+02 -0.81457615730E+01  0.54367092746E+02  0.40000019532E+02 0.  0.
        -12    1    3    3    0    0 -0.21182435977E+02  0.28995347653E+02  0.81457615730E+01  0.36820907254E+02  0.00000000000E+00 0.  1.
         11    1    4    4    0    0  0.13484870941E+02 -0.15103135918E+02 -0.11369378651E+02  0.23220879183E+02  0.51100000000E-03 0. -1.
        -11    1    4    4    0    0 -0.22262427011E+01  0.54853983267E+01  0.68735222645E+01  0.90714419994E+01  0.51100000000E-03 0.  1.
         12    1    4    4    0    0  0.99238077374E+01 -0.19377610062E+02 -0.36499051863E+01  0.22074771564E+02  0.00000000000E+00 0. -1.
</event>
<event>
 8    1  0.1229941E-006  0.9118800E+02  0.7816164E-02  0.1184000E+00
        -11   -1    0    0    0    0  0.00000000000E+00  0.00000000000E+00  0.45593999997E+02  0.45594000000E+02  0.51100000000E-03 0. -1.
         11   -1    0    0    0    0 -0.00000000000E+00 -0.00000000000E+00 -0.45593999997E+02  0.45594000000E+02  0.51100000000E-03 0.  1.
         23    2    1    2    0    0 -0.17763568394E-14  0.00000000000E+00 -0.35527136788E-14  0.91188000000E+02  0.91188000000E+02 0.  0.
    9900012    2    3    3    0    0 -0.48614955267E+01 -0.29128200780E+02 -0.21993037815E+02  0.54367082959E+02  0.39999997222E+02 0.  0.
         12    1    3    3    0    0  0.48614955267E+01  0.29128200780E+02  0.21993037815E+02  0.36820917041E+02  0.00000000000E+00 0. -1.
         11    1    4    4    0    0 -0.12516484587E+02 -0.50795548281E+01 -0.14042335238E+02  0.19484646337E+02  0.51100000000E-03 0. -1.
        -11    1    4    4    0    0  0.12533292137E+02 -0.25577091591E+02 -0.48198341099E+01  0.28887745276E+02  0.51100000000E-03 0.  1.
        -12    1    4    4    0    0 -0.48783030764E+01  0.15284456393E+01 -0.31308684667E+01  0.59946913460E+01  0.00000000000E+00 0.  1.
</event>
<event>
 8    1  0.1229941E-006  0.9118800E+02  0.7816164E-02  0.1184000E+00
        -11   -1    0    0    0    0  0.00000000000E+00  0.00000000000E+00  0.45593999997E+02  0.45594000000E+02  0.51100000000E-03 0. -1.
         11   -1    0    0    0    0 -0.00000000000E+00 -0.00000000000E+00 -0.45593999997E+02  0.45594000000E+02  0.51100000000E-03 0.  1.
         23    2    1    2    0    0  0.00000000000E+00  0.00000000000E+00  0.88817841970E-15  0.91188000000E+02  0.91188000000E+02 0.  0.
    9900012    2    3    3    0    0  0.29481265213E+02  0.21186154814E+02  0.61466570146E+01  0.54367088186E+02  0.40000009138E+02 0.  0.
        -12    1    3    3    0    0 -0.29481265213E+02 -0.21186154814E+02 -0.61466570146E+01  0.36820911814E+02  0.00000000000E+00 0.  1.
         11    1    4    4    0    0  0.12830098027E+02 -0.81120347494E+00  0.16308924839E+00  0.12856751722E+02  0.51100000000E-03 0. -1.
        -11    1    4    4    0    0  0.22281821577E+02  0.17290611446E+02  0.13269275942E+02  0.31169191540E+02  0.51100000000E-03 0.  1.
        -12    1    4    4    0    0 -0.56306543917E+01  0.47067468435E+01 -0.72857081758E+01  0.10341144925E+02  0.00000000000E+00 0.  1.
</event>
<event>
 8    1  0.1229941E-006  0.9118800E+02  0.7816164E-02  0.1184000E+00
        -11   -1    0    0    0    0  0.00000000000E+00  0.00000000000E+00  0.45593999997E+02  0.45594000000E+02  0.51100000000E-03 0.  1.
         11   -1    0    0    0    0 -0.00000000000E+00 -0.00000000000E+00 -0.45593999997E+02  0.45594000000E+02  0.51100000000E-03 0. -1.
         23    2    1    2    0    0 -0.35527136788E-14 -0.17763568394E-14 -0.35527136788E-14  0.91188000000E+02  0.91188000000E+02 0.  0.
    9900012    2    3    3    0    0 -0.22897311937E+02 -0.10599881627E+02 -0.26816421095E+02  0.54367288101E+02  0.40000464880E+02 0.  0.
        -12    1    3    3    0    0  0.22897311937E+02  0.10599881627E+02  0.26816421095E+02  0.36820711899E+02  0.00000000000E+00 0.  1.
         11    1    4    4    0    0  0.90748746547E+01 -0.10566616811E+02 -0.87016500689E+01  0.16423320462E+02  0.51100000000E-03 0. -1.
        -11    1    4    4    0    0 -0.10986183811E+02  0.29815674924E+01 -0.26125315780E+01  0.11679524860E+02  0.51100000000E-03 0.  1.
         12    1    4    4    0    0 -0.20986002780E+02 -0.30148323080E+01 -0.15502239448E+02  0.26264442778E+02  0.00000000000E+00 0. -1.
</event>
<event>
 8    1  0.1229941E-006  0.9118800E+02  0.7816164E-02  0.1184000E+00
        -11   -1    0    0    0    0  0.00000000000E+00  0.00000000000E+00  0.45593999997E+02  0.45594000000E+02  0.51100000000E-03 0.  1.
         11   -1    0    0    0    0 -0.00000000000E+00 -0.00000000000E+00 -0.45593999997E+02  0.45594000000E+02  0.51100000000E-03 0. -1.
         23    2    1    2    0    0  0.00000000000E+00  0.00000000000E+00 -0.17763568394E-14  0.91188000000E+02  0.91188000000E+02 0.  0.
    9900012    2    3    3    0    0  0.32567641270E+02 -0.11767656683E+02 -0.12516056666E+02  0.54367072850E+02  0.39999974176E+02 0.  0.
         12    1    3    3    0    0 -0.32567641270E+02  0.11767656683E+02  0.12516056666E+02  0.36820927150E+02  0.00000000000E+00 0. -1.
         11    1    4    4    0    0  0.30948923711E+02  0.74310261410E+00 -0.16368914773E+02  0.35018987013E+02  0.51100000000E-03 0. -1.
        -11    1    4    4    0    0  0.55541489834E+01 -0.13610630916E+02  0.40787057632E+01  0.15255611618E+02  0.51100000000E-03 0.  1.
         12    1    4    4    0    0 -0.39354314238E+01  0.10998716193E+01 -0.22584765630E+00  0.40924742191E+01  0.00000000000E+00 0. -1.
</event>
<event>
 8    1  0.1229941E-006  0.9118800E+02  0.7816164E-02  0.1184000E+00
        -11   -1    0    0    0    0  0.00000000000E+00  0.00000000000E+00  0.45593999997E+02  0.45594000000E+02  0.51100000000E-03 0. -1.
         11   -1    0    0    0    0 -0.00000000000E+00 -0.00000000000E+00 -0.45593999997E+02  0.45594000000E+02  0.51100000000E-03 0.  1.
         23    2    1    2    0    0 -0.11102230246E-15  0.00000000000E+00  0.00000000000E+00  0.91188000000E+02  0.91188000000E+02 0.  0.
    9900012    2    3    3    0    0 -0.70403169176E+00 -0.34773438809E+02  0.12086875842E+02  0.54367078300E+02  0.39999986600E+02 0.  0.
         12    1    3    3    0    0  0.70403169176E+00  0.34773438809E+02 -0.12086875842E+02  0.36820921700E+02  0.00000000000E+00 0. -1.
         11    1    4    4    0    0  0.61846709999E+01  0.11400353828E+01 -0.56431394864E+01  0.84495478917E+01  0.51100000000E-03 0. -1.
        -11    1    4    4    0    0  0.95306215779E+00 -0.24529866324E+02  0.14935403744E+01  0.24593766131E+02  0.51100000000E-03 0.  1.
         12    1    4    4    0    0 -0.78417648494E+01 -0.11383607867E+02  0.16236474954E+02  0.21323764278E+02  0.00000000000E+00 0. -1.
</event>
<event>
 8    1  0.1229941E-006  0.9118800E+02  0.7816164E-02  0.1184000E+00
        -11   -1    0    0    0    0  0.00000000000E+00  0.00000000000E+00  0.45593999997E+02  0.45594000000E+02  0.51100000000E-03 0.  1.
         11   -1    0    0    0    0 -0.00000000000E+00 -0.00000000000E+00 -0.45593999997E+02  0.45594000000E+02  0.51100000000E-03 0. -1.
         23    2    1    2    0    0 -0.30531133177E-15  0.00000000000E+00  0.22204460493E-14  0.91188000000E+02  0.91188000000E+02 0.  0.
    9900012    2    3    3    0    0  0.66045513550E-01 -0.36705834905E+02  0.29082761249E+01  0.54367071873E+02  0.39999971950E+02 0.  0.
         12    1    3    3    0    0 -0.66045513550E-01  0.36705834905E+02 -0.29082761249E+01  0.36820928127E+02  0.00000000000E+00 0. -1.
         11    1    4    4    0    0 -0.15434650133E+01 -0.59884609036E+01 -0.44975273693E+01  0.76466790792E+01  0.51100000000E-03 0. -1.
        -11    1    4    4    0    0  0.12720396156E+01 -0.31548065520E+02 -0.69558092905E+01  0.32330818207E+02  0.51100000000E-03 0.  1.
        -12    1    4    4    0    0  0.33747091124E+00  0.83069151828E+00  0.14361612785E+02  0.14389574587E+02  0.00000000000E+00 0.  1.
</event>
<event>
 8    1  0.1229941E-006  0.9118800E+02  0.7816164E-02  0.1184000E+00
        -11   -1    0    0    0    0  0.00000000000E+00  0.00000000000E+00  0.45593999997E+02  0.45594000000E+02  0.51100000000E-03 0. -1.
         11   -1    0    0    0    0 -0.00000000000E+00 -0.00000000000E+00 -0.45593999997E+02  0.45594000000E+02  0.51100000000E-03 0.  1.
         23    2    1    2    0    0 -0.17763568394E-14  0.00000000000E+00  0.35527136788E-14  0.91188000000E+02  0.91188000000E+02 0.  0.
    9900012    2    3    3    0    0 -0.84116296471E+01 -0.27446638802E+02  0.23058737753E+02  0.54367097219E+02  0.40000029730E+02 0.  0.
        -12    1    3    3    0    0  0.84116296471E+01  0.27446638802E+02 -0.23058737753E+02  0.36820902781E+02  0.00000000000E+00 0.  1.
         11    1    4    4    0    0  0.36205297202E+01 -0.27271806977E+01  0.10187476257E+01  0.46458149983E+01  0.51100000000E-03 0. -1.
        -11    1    4    4    0    0  0.11255090542E+02 -0.11329541374E+01  0.40985800898E+01  0.12031583736E+02  0.51100000000E-03 0.  1.
         12    1    4    4    0    0 -0.23287249909E+02 -0.23586503967E+02  0.17941410037E+02  0.37689698484E+02  0.00000000000E+00 0. -1.
</event>
<event>
 8    1  0.1229941E-006  0.9118800E+02  0.7816164E-02  0.1184000E+00
        -11   -1    0    0    0    0  0.00000000000E+00  0.00000000000E+00  0.45593999997E+02  0.45594000000E+02  0.51100000000E-03 0. -1.
         11   -1    0    0    0    0 -0.00000000000E+00 -0.00000000000E+00 -0.45593999997E+02  0.45594000000E+02  0.51100000000E-03 0.  1.
         23    2    1    2    0    0  0.00000000000E+00  0.00000000000E+00  0.00000000000E+00  0.91188000000E+02  0.91188000000E+02 0.  0.
    9900012    2    3    3    0    0 -0.24773633126E+01  0.33489338526E+02  0.15103170630E+02  0.54367097146E+02  0.40000029564E+02 0.  0.
        -12    1    3    3    0    0  0.24773633126E+01 -0.33489338526E+02 -0.15103170630E+02  0.36820902854E+02  0.00000000000E+00 0.  1.
         11    1    4    4    0    0  0.45210119716E+01 -0.13980141170E+01  0.11115205096E+02  0.12080636461E+02  0.51100000000E-03 0. -1.
        -11    1    4    4    0    0  0.12534374242E+01  0.30603261418E+02 -0.28263830590E+01  0.30759049990E+02  0.51100000000E-03 0.  1.
        -12    1    4    4    0    0 -0.82518127084E+01  0.42840912248E+01  0.68143485933E+01  0.11527410696E+02  0.00000000000E+00 0.  1.
</event>
<event>
 8    1  0.1229941E-006  0.9118800E+02  0.7816164E-02  0.1184000E+00
        -11   -1    0    0    0    0  0.00000000000E+00  0.00000000000E+00  0.45593999997E+02  0.45594000000E+02  0.51100000000E-03 0. -1.
         11   -1    0    0    0    0 -0.00000000000E+00 -0.00000000000E+00 -0.45593999997E+02  0.45594000000E+02  0.51100000000E-03 0.  1.
         23    2    1    2    0    0  0.00000000000E+00  0.00000000000E+00  0.88817841970E-15  0.91188000000E+02  0.91188000000E+02 0.  0.
    9900012    2    3    3    0    0 -0.32207080924E+02 -0.17060453393E+02  0.52368750548E+01  0.54367082141E+02  0.39999995356E+02 0.  0.
        -12    1    3    3    0    0  0.32207080924E+02  0.17060453393E+02 -0.52368750548E+01  0.36820917859E+02  0.00000000000E+00 0.  1.
         11    1    4    4    0    0 -0.28687816939E+02 -0.69408225487E+01  0.11052095429E+02  0.31516895025E+02  0.51100000000E-03 0. -1.
        -11    1    4    4    0    0  0.50019208694E+01  0.33310398430E+01 -0.28607444887E+01  0.66557417400E+01  0.51100000000E-03 0.  1.
        -12    1    4    4    0    0 -0.85211848546E+01 -0.13450670688E+02 -0.29544758854E+01  0.16194445376E+02  0.00000000000E+00 0.  1.
</event>
<event>
 8    1  0.1229941E-006  0.9118800E+02  0.7816164E-02  0.1184000E+00
        -11   -1    0    0    0    0  0.00000000000E+00  0.00000000000E+00  0.45593999997E+02  0.45594000000E+02  0.51100000000E-03 0.  1.
         11   -1    0    0    0    0 -0.00000000000E+00 -0.00000000000E+00 -0.45593999997E+02  0.45594000000E+02  0.51100000000E-03 0. -1.
         23    2    1    2    0    0 -0.35527136788E-14 -0.35527136788E-14  0.35527136788E-14  0.91188000000E+02  0.91188000000E+02 0.  0.
    9900012    2    3    3    0    0  0.43593734184E+01  0.21616094293E+02 -0.29487643494E+02  0.54367071333E+02  0.39999970719E+02 0.  0.
        -12    1    3    3    0    0 -0.43593734184E+01 -0.21616094293E+02  0.29487643494E+02  0.36820928667E+02  0.00000000000E+00 0.  1.
         11    1    4    4    0    0 -0.48610919291E+01  0.33760744052E+01 -0.92295160829E+01  0.10964126072E+02  0.51100000000E-03 0. -1.
        -11    1    4    4    0    0 -0.97811900039E+01  0.10969601669E+02 -0.70695677828E-02  0.14697070760E+02  0.51100000000E-03 0.  1.
         12    1    4    4    0    0  0.19001655351E+02  0.72704182183E+01 -0.20251057843E+02  0.28705874502E+02  0.00000000000E+00 0. -1.
</event>
<event>
 8    1  0.1229941E-006  0.9118800E+02  0.7816164E-02  0.1184000E+00
        -11   -1    0    0    0    0  0.00000000000E+00  0.00000000000E+00  0.45593999997E+02  0.45594000000E+02  0.51100000000E-03 0.  1.
         11   -1    0    0    0    0 -0.00000000000E+00 -0.00000000000E+00 -0.45593999997E+02  0.45594000000E+02  0.51100000000E-03 0. -1.
         23    2    1    2    0    0  0.00000000000E+00  0.88817841970E-15 -0.71054273576E-14  0.91188000000E+02  0.91188000000E+02 0.  0.
    9900012    2    3    3    0    0  0.13128178466E+02  0.27296463598E+01 -0.34292573421E+02  0.54367073465E+02  0.39999975577E+02 0.  0.
        -12    1    3    3    0    0 -0.13128178466E+02 -0.27296463598E+01  0.34292573421E+02  0.36820926535E+02  0.00000000000E+00 0.  1.
         11    1    4    4    0    0  0.39505861015E+01 -0.16001299956E+02 -0.15085805155E+02  0.22343460973E+02  0.51100000000E-03 0. -1.
        -11    1    4    4    0    0  0.24440496054E+01 -0.63462484162E+00  0.14560991961E+01  0.29148503037E+01  0.51100000000E-03 0.  1.
        -12    1    4    4    0    0  0.67335427588E+01  0.19365571157E+02 -0.20662867462E+02  0.29108762188E+02  0.00000000000E+00 0.  1.
</event>
<event>
 8    1  0.1229941E-006  0.9118800E+02  0.7816164E-02  0.1184000E+00
        -11   -1    0    0    0    0  0.00000000000E+00  0.00000000000E+00  0.45593999997E+02  0.45594000000E+02  0.51100000000E-03 0.  1.
         11   -1    0    0    0    0 -0.00000000000E+00 -0.00000000000E+00 -0.45593999997E+02  0.45594000000E+02  0.51100000000E-03 0. -1.
         23    2    1    2    0    0  0.00000000000E+00  0.00000000000E+00  0.11102230246E-15  0.91188000000E+02  0.91188000000E+02 0.  0.
    9900012    2    3    3    0    0  0.10150886327E+01  0.36800561574E+02  0.68442769947E+00  0.54367079610E+02  0.39999989586E+02 0.  0.
         12    1    3    3    0    0 -0.10150886327E+01 -0.36800561574E+02 -0.68442769947E+00  0.36820920390E+02  0.00000000000E+00 0. -1.
         11    1    4    4    0    0  0.91013601589E+00 -0.40464764531E+01 -0.12160434410E+01  0.43221616310E+01  0.51100000000E-03 0. -1.
        -11    1    4    4    0    0 -0.11891226453E+02  0.11135706339E+02 -0.54355656725E+01  0.17174125790E+02  0.51100000000E-03 0.  1.
         12    1    4    4    0    0  0.11996179070E+02  0.29711331689E+02  0.73360368129E+01  0.32870792189E+02  0.00000000000E+00 0. -1.
</event>
<event>
 8    1  0.1229941E-006  0.9118800E+02  0.7816164E-02  0.1184000E+00
        -11   -1    0    0    0    0  0.00000000000E+00  0.00000000000E+00  0.45593999997E+02  0.45594000000E+02  0.51100000000E-03 0. -1.
         11   -1    0    0    0    0 -0.00000000000E+00 -0.00000000000E+00 -0.45593999997E+02  0.45594000000E+02  0.51100000000E-03 0.  1.
         23    2    1    2    0    0  0.00000000000E+00  0.35527136788E-14  0.00000000000E+00  0.91188000000E+02  0.91188000000E+02 0.  0.
    9900012    2    3    3    0    0 -0.15891468676E+02 -0.26447016388E+02  0.20094718451E+02  0.54367066251E+02  0.39999959133E+02 0.  0.
        -12    1    3    3    0    0  0.15891468676E+02  0.26447016388E+02 -0.20094718451E+02  0.36820933749E+02  0.00000000000E+00 0.  1.
         11    1    4    4    0    0 -0.10265687725E+02 -0.25921331430E+01  0.14071696420E+02  0.17610114682E+02  0.51100000000E-03 0. -1.
        -11    1    4    4    0    0 -0.97427464989E+01 -0.22694213053E+02  0.13497690429E+02  0.28144911842E+02  0.51100000000E-03 0.  1.
        -12    1    4    4    0    0  0.41169655477E+01 -0.11606701923E+01 -0.74746683978E+01  0.86120397278E+01  0.00000000000E+00 0.  1.
</event>
<event>
 8    1  0.1229941E-006  0.9118800E+02  0.7816164E-02  0.1184000E+00
        -11   -1    0    0    0    0  0.00000000000E+00  0.00000000000E+00  0.45593999997E+02  0.45594000000E+02  0.51100000000E-03 0.  1.
         11   -1    0    0    0    0 -0.00000000000E+00 -0.00000000000E+00 -0.45593999997E+02  0.45594000000E+02  0.51100000000E-03 0. -1.
         23    2    1    2    0    0 -0.17763568394E-14  0.88817841970E-15  0.71054273576E-14  0.91188000000E+02  0.91188000000E+02 0.  0.
    9900012    2    3    3    0    0 -0.51275466654E+01  0.69353469490E+01 -0.35796499935E+02  0.54367079592E+02  0.39999989546E+02 0.  0.
        -12    1    3    3    0    0  0.51275466654E+01 -0.69353469490E+01  0.35796499935E+02  0.36820920408E+02  0.00000000000E+00 0.  1.
         11    1    4    4    0    0  0.12489168696E+01 -0.10631964857E-01 -0.79369051479E+01  0.80345734158E+01  0.51100000000E-03 0. -1.
        -11    1    4    4    0    0 -0.13898978563E+02 -0.10879895416E+02 -0.14086500496E+02  0.22582808193E+02  0.51100000000E-03 0.  1.
        -12    1    4    4    0    0  0.75225150281E+01  0.17825874330E+02 -0.13773094290E+02  0.23749697984E+02  0.00000000000E+00 0.  1.
</event>
<event>
 8    1  0.1229941E-006  0.9118800E+02  0.7816164E-02  0.1184000E+00
        -11   -1    0    0    0    0  0.00000000000E+00  0.00000000000E+00  0.45593999997E+02  0.45594000000E+02  0.51100000000E-03 0. -1.
         11   -1    0    0    0    0 -0.00000000000E+00 -0.00000000000E+00 -0.45593999997E+02  0.45594000000E+02  0.51100000000E-03 0.  1.
         23    2    1    2    0    0  0.88817841970E-15  0.00000000000E+00  0.00000000000E+00  0.91188000000E+02  0.91188000000E+02 0.  0.
    9900012    2    3    3    0    0 -0.40629099556E+01  0.21671978245E+02  0.29488937085E+02  0.54367091690E+02  0.40000017126E+02 0.  0.
        -12    1    3    3    0    0  0.40629099556E+01 -0.21671978245E+02 -0.29488937085E+02  0.36820908310E+02  0.00000000000E+00 0.  1.
         11    1    4    4    0    0  0.91086718357E+01 -0.41359926677E+01  0.13831398871E+02  0.17069913091E+02  0.51100000000E-03 0. -1.
        -11    1    4    4    0    0 -0.40619699439E+01  0.19147889174E+02  0.21432306650E+01  0.19690980107E+02  0.51100000000E-03 0.  1.
         12    1    4    4    0    0 -0.91096118474E+01  0.66600817390E+01  0.13514307549E+02  0.17606198491E+02  0.00000000000E+00 0. -1.
</event>
<event>
 8    1  0.1229941E-006  0.9118800E+02  0.7816164E-02  0.1184000E+00
        -11   -1    0    0    0    0  0.00000000000E+00  0.00000000000E+00  0.45593999997E+02  0.45594000000E+02  0.51100000000E-03 0.  1.
         11   -1    0    0    0    0 -0.00000000000E+00 -0.00000000000E+00 -0.45593999997E+02  0.45594000000E+02  0.51100000000E-03 0. -1.
         23    2    1    2    0    0  0.00000000000E+00  0.17763568394E-14  0.00000000000E+00  0.91188000000E+02  0.91188000000E+02 0.  0.
    9900012    2    3    3    0    0 -0.33569409018E+02  0.12919406308E+02  0.78716795895E+01  0.54367087182E+02  0.40000006849E+02 0.  0.
        -12    1    3    3    0    0  0.33569409018E+02 -0.12919406308E+02 -0.78716795895E+01  0.36820912818E+02  0.00000000000E+00 0.  1.
         11    1    4    4    0    0 -0.12508244616E+02  0.50761458547E+01  0.14592004676E+02  0.19878381243E+02  0.51100000000E-03 0. -1.
        -11    1    4    4    0    0 -0.22708996962E+02  0.66919355353E+01  0.36245584438E+01  0.23950322929E+02  0.51100000000E-03 0.  1.
         12    1    4    4    0    0  0.16478325603E+01  0.11513249182E+01 -0.10344883530E+02  0.10538383010E+02  0.00000000000E+00 0. -1.
</event>
<event>
 8    1  0.1229941E-006  0.9118800E+02  0.7816164E-02  0.1184000E+00
        -11   -1    0    0    0    0  0.00000000000E+00  0.00000000000E+00  0.45593999997E+02  0.45594000000E+02  0.51100000000E-03 0. -1.
         11   -1    0    0    0    0 -0.00000000000E+00 -0.00000000000E+00 -0.45593999997E+02  0.45594000000E+02  0.51100000000E-03 0.  1.
         23    2    1    2    0    0 -0.35527136788E-14  0.00000000000E+00 -0.17763568394E-14  0.91188000000E+02  0.91188000000E+02 0.  0.
    9900012    2    3    3    0    0  0.19350992064E+02  0.29895736347E+02  0.93575815919E+01  0.54367078246E+02  0.39999986477E+02 0.  0.
        -12    1    3    3    0    0 -0.19350992064E+02 -0.29895736347E+02 -0.93575815919E+01  0.36820921754E+02  0.00000000000E+00 0.  1.
         11    1    4    4    0    0  0.19506693326E+02  0.24084400156E+02  0.14612803338E+02  0.34265192791E+02  0.51100000000E-03 0. -1.
        -11    1    4    4    0    0 -0.31563703273E+01  0.97852402755E+01  0.27781008216E+01  0.10650419960E+02  0.51100000000E-03 0.  1.
        -12    1    4    4    0    0  0.30006690655E+01 -0.39739040842E+01 -0.80333225679E+01  0.94514654943E+01  0.00000000000E+00 0.  1.
</event>
<event>
 8    1  0.1229941E-006  0.9118800E+02  0.7816164E-02  0.1184000E+00
        -11   -1    0    0    0    0  0.00000000000E+00  0.00000000000E+00  0.45593999997E+02  0.45594000000E+02  0.51100000000E-03 0. -1.
         11   -1    0    0    0    0 -0.00000000000E+00 -0.00000000000E+00 -0.45593999997E+02  0.45594000000E+02  0.51100000000E-03 0.  1.
         23    2    1    2    0    0  0.00000000000E+00  0.35527136788E-14  0.00000000000E+00  0.91188000000E+02  0.91188000000E+02 0.  0.
    9900012    2    3    3    0    0 -0.22177049916E+02  0.28996172260E+02 -0.48146335670E+01  0.54367078704E+02  0.39999987523E+02 0.  0.
         12    1    3    3    0    0  0.22177049916E+02 -0.28996172260E+02  0.48146335670E+01  0.36820921296E+02  0.00000000000E+00 0. -1.
         11    1    4    4    0    0 -0.13010851454E+02  0.11086829023E+02  0.22373014099E+01  0.17239650553E+02  0.51100000000E-03 0. -1.
        -11    1    4    4    0    0 -0.15431224931E+02  0.74165796028E+01  0.70070601411E+01  0.18499385070E+02  0.51100000000E-03 0.  1.
         12    1    4    4    0    0  0.62650264688E+01  0.10492763633E+02 -0.14058995118E+02  0.18628043082E+02  0.00000000000E+00 0. -1.
</event>
<event>
 8    1  0.1229941E-006  0.9118800E+02  0.7816164E-02  0.1184000E+00
        -11   -1    0    0    0    0  0.00000000000E+00  0.00000000000E+00  0.45593999997E+02  0.45594000000E+02  0.51100000000E-03 0.  1.
         11   -1    0    0    0    0 -0.00000000000E+00 -0.00000000000E+00 -0.45593999997E+02  0.45594000000E+02  0.51100000000E-03 0. -1.
         23    2    1    2    0    0  0.35527136788E-14  0.00000000000E+00 -0.35527136788E-14  0.91188000000E+02  0.91188000000E+02 0.  0.
    9900012    2    3    3    0    0  0.21447352255E+02  0.16273227539E+02 -0.25119161879E+02  0.54367093618E+02  0.40000021521E+02 0.  0.
        -12    1    3    3    0    0 -0.21447352255E+02 -0.16273227539E+02  0.25119161879E+02  0.36820906382E+02  0.00000000000E+00 0.  1.
         11    1    4    4    0    0  0.17873188333E+02  0.28142438982E+01 -0.98943703924E+00  0.18120425377E+02  0.51100000000E-03 0. -1.
        -11    1    4    4    0    0  0.56665414328E+01  0.13242789263E+01  0.29312393595E+01  0.65157939599E+01  0.51100000000E-03 0.  1.
         12    1    4    4    0    0 -0.20923775112E+01  0.12134704714E+02 -0.27060964199E+02  0.29730874281E+02  0.00000000000E+00 0. -1.
</event>
<event>
 8    1  0.1229941E-006  0.9118800E+02  0.7816164E-02  0.1184000E+00
        -11   -1    0    0    0    0  0.00000000000E+00  0.00000000000E+00  0.45593999997E+02  0.45594000000E+02  0.51100000000E-03 0.  1.
         11   -1    0    0    0    0 -0.00000000000E+00 -0.00000000000E+00 -0.45593999997E+02  0.45594000000E+02  0.51100000000E-03 0. -1.
         23    2    1    2    0    0 -0.17763568394E-14  0.00000000000E+00  0.17763568394E-14  0.91188000000E+02  0.91188000000E+02 0.  0.
    9900012    2    3    3    0    0 -0.86778914659E+01  0.35115731305E+02  0.68818106956E+01  0.54367086054E+02  0.40000004277E+02 0.  0.
         12    1    3    3    0    0  0.86778914659E+01 -0.35115731305E+02 -0.68818106956E+01  0.36820913946E+02  0.00000000000E+00 0. -1.
         11    1    4    4    0    0 -0.89685795573E+01  0.14449014254E+02  0.12449898391E+02  0.21076275819E+02  0.51100000000E-03 0. -1.
        -11    1    4    4    0    0  0.11660855594E+02  0.97053639563E+01  0.27844230725E+01  0.15424741645E+02  0.51100000000E-03 0.  1.
         12    1    4    4    0    0 -0.11370167503E+02  0.10961353095E+02 -0.83525107682E+01  0.17866068589E+02  0.00000000000E+00 0. -1.
</event>
<event>
 8    1  0.1229941E-006  0.9118800E+02  0.7816164E-02  0.1184000E+00
        -11   -1    0    0    0    0  0.00000000000E+00  0.00000000000E+00  0.45593999997E+02  0.45594000000E+02  0.51100000000E-03 0. -1.
         11   -1    0    0    0    0 -0.00000000000E+00 -0.00000000000E+00 -0.45593999997E+02  0.45594000000E+02  0.51100000000E-03 0.  1.
         23    2    1    2    0    0  0.71054273576E-14 -0.17763568394E-14  0.00000000000E+00  0.91188000000E+02  0.91188000000E+02 0.  0.
    9900012    2    3    3    0    0 -0.32207993619E+02  0.12073176383E+02 -0.13139549537E+02  0.54367296544E+02  0.40000484129E+02 0.  0.
         12    1    3    3    0    0  0.32207993619E+02 -0.12073176383E+02  0.13139549537E+02  0.36820703456E+02  0.00000000000E+00 0. -1.
         11    1    4    4    0    0 -0.27943519709E+02  0.10987224669E+02 -0.30589468867E+01  0.30181394202E+02  0.51100000000E-03 0. -1.
        -11    1    4    4    0    0 -0.79114966001E+01 -0.22987292415E+01 -0.15047631232E+02  0.17155382261E+02  0.51100000000E-03 0.  1.
         12    1    4    4    0    0  0.36470226904E+01  0.33846809563E+01  0.49670285819E+01  0.70305200813E+01  0.00000000000E+00 0. -1.
</event>
<event>
 8    1  0.1229941E-006  0.9118800E+02  0.7816164E-02  0.1184000E+00
        -11   -1    0    0    0    0  0.00000000000E+00  0.00000000000E+00  0.45593999997E+02  0.45594000000E+02  0.51100000000E-03 0.  1.
         11   -1    0    0    0    0 -0.00000000000E+00 -0.00000000000E+00 -0.45593999997E+02  0.45594000000E+02  0.51100000000E-03 0. -1.
         23    2    1    2    0    0  0.00000000000E+00  0.00000000000E+00 -0.35527136788E-14  0.91188000000E+02  0.91188000000E+02 0.  0.
    9900012    2    3    3    0    0 -0.69407866913E+01  0.31973285990E+02 -0.16891216984E+02  0.54367099032E+02  0.40000033863E+02 0.  0.
        -12    1    3    3    0    0  0.69407866913E+01 -0.31973285990E+02  0.16891216984E+02  0.36820900968E+02  0.00000000000E+00 0.  1.
         11    1    4    4    0    0  0.19720778318E+01  0.12469529340E+02 -0.38829004251E+01  0.13208147823E+02  0.51100000000E-03 0. -1.
        -11    1    4    4    0    0 -0.16481717832E+01 -0.56454460965E+01  0.63094596805E+01  0.86253587506E+01  0.51100000000E-03 0.  1.
        -12    1    4    4    0    0 -0.72646927399E+01  0.25149202747E+02 -0.19317776239E+02  0.32533592458E+02  0.00000000000E+00 0.  1.
</event>
<event>
 8    1  0.1229941E-006  0.9118800E+02  0.7816164E-02  0.1184000E+00
        -11   -1    0    0    0    0  0.00000000000E+00  0.00000000000E+00  0.45593999997E+02  0.45594000000E+02  0.51100000000E-03 0.  1.
         11   -1    0    0    0    0 -0.00000000000E+00 -0.00000000000E+00 -0.45593999997E+02  0.45594000000E+02  0.51100000000E-03 0. -1.
         23    2    1    2    0    0  0.00000000000E+00  0.88817841970E-15  0.00000000000E+00  0.91188000000E+02  0.91188000000E+02 0.  0.
    9900012    2    3    3    0    0  0.11129394729E+02  0.77419781372E+01  0.34234163230E+02  0.54367087674E+02  0.40000007969E+02 0.  0.
         12    1    3    3    0    0 -0.11129394729E+02 -0.77419781372E+01 -0.34234163230E+02  0.36820912326E+02  0.00000000000E+00 0. -1.
         11    1    4    4    0    0  0.13262200535E+02 -0.63235121048E+01  0.62783487013E+01  0.15977810584E+02  0.51100000000E-03 0. -1.
        -11    1    4    4    0    0 -0.62203725034E+01 -0.35111230409E+01  0.13477918894E+02  0.15253698472E+02  0.51100000000E-03 0.  1.
        -12    1    4    4    0    0  0.40875666977E+01  0.17576613283E+02  0.14477895634E+02  0.23135578618E+02  0.00000000000E+00 0.  1.
</event>
<event>
 8    1  0.1229941E-006  0.9118800E+02  0.7816164E-02  0.1184000E+00
        -11   -1    0    0    0    0  0.00000000000E+00  0.00000000000E+00  0.45593999997E+02  0.45594000000E+02  0.51100000000E-03 0. -1.
         11   -1    0    0    0    0 -0.00000000000E+00 -0.00000000000E+00 -0.45593999997E+02  0.45594000000E+02  0.51100000000E-03 0.  1.
         23    2    1    2    0    0 -0.35527136788E-14 -0.26645352591E-14  0.00000000000E+00  0.91188000000E+02  0.91188000000E+02 0.  0.
    9900012    2    3    3    0    0  0.29570310183E+02  0.73370653187E+01  0.20677136409E+02  0.54367085537E+02  0.40000003098E+02 0.  0.
        -12    1    3    3    0    0 -0.29570310183E+02 -0.73370653187E+01 -0.20677136409E+02  0.36820914463E+02  0.00000000000E+00 0.  1.
         11    1    4    4    0    0  0.65534505318E+01 -0.28436992843E+01 -0.22776279735E+01  0.74981283624E+01  0.51100000000E-03 0. -1.
        -11    1    4    4    0    0  0.48887673623E+01  0.17625715260E+02  0.23644476699E+01  0.18443332068E+02  0.51100000000E-03 0.  1.
         12    1    4    4    0    0  0.18128092289E+02 -0.74449506568E+01  0.20590316713E+02  0.28425625106E+02  0.00000000000E+00 0. -1.
</event>
<event>
 8    1  0.1229941E-006  0.9118800E+02  0.7816164E-02  0.1184000E+00
        -11   -1    0    0    0    0  0.00000000000E+00  0.00000000000E+00  0.45593999997E+02  0.45594000000E+02  0.51100000000E-03 0.  1.
         11   -1    0    0    0    0 -0.00000000000E+00 -0.00000000000E+00 -0.45593999997E+02  0.45594000000E+02  0.51100000000E-03 0. -1.
         23    2    1    2    0    0  0.00000000000E+00  0.22204460493E-15  0.00000000000E+00  0.91188000000E+02  0.91188000000E+02 0.  0.
    9900012    2    3    3    0    0  0.35223575146E+02 -0.12071818831E+01 -0.10659276111E+02  0.54367113246E+02  0.40000066267E+02 0.  0.
         12    1    3    3    0    0 -0.35223575146E+02  0.12071818831E+01  0.10659276111E+02  0.36820886754E+02  0.00000000000E+00 0. -1.
         11    1    4    4    0    0  0.69332288384E+01 -0.14909136159E+01  0.13958280591E+02  0.15656502894E+02  0.51100000000E-03 0.  1.
        -11    1    4    4    0    0  0.21345556494E+02  0.25366637579E+01 -0.22479342972E+02  0.31102866520E+02  0.51100000000E-03 0. -1.
        -12    1    4    4    0    0  0.69447898133E+01 -0.22529320251E+01 -0.21382137306E+01  0.76077438324E+01  0.00000000000E+00 0.  1.
</event>
<event>
 8    1  0.1229941E-006  0.9118800E+02  0.7816164E-02  0.1184000E+00
        -11   -1    0    0    0    0  0.00000000000E+00  0.00000000000E+00  0.45593999997E+02  0.45594000000E+02  0.51100000000E-03 0.  1.
         11   -1    0    0    0    0 -0.00000000000E+00 -0.00000000000E+00 -0.45593999997E+02  0.45594000000E+02  0.51100000000E-03 0. -1.
         23    2    1    2    0    0  0.26645352591E-14 -0.35527136788E-14  0.00000000000E+00  0.91188000000E+02  0.91188000000E+02 0.  0.
    9900012    2    3    3    0    0 -0.72371974215E+01  0.24948520733E+02  0.26095446927E+02  0.54367108327E+02  0.40000055053E+02 0.  0.
         12    1    3    3    0    0  0.72371974215E+01 -0.24948520733E+02 -0.26095446927E+02  0.36820891673E+02  0.00000000000E+00 0. -1.
         11    1    4    4    0    0  0.57185782839E+01  0.34788184702E+00 -0.54298401265E+01  0.78934354643E+01  0.51100000000E-03 0. -1.
        -11    1    4    4    0    0  0.13848025177E+01  0.41762762754E+01  0.17081680672E+02  0.17639239677E+02  0.51100000000E-03 0.  1.
        -12    1    4    4    0    0 -0.14340578223E+02  0.20424362611E+02  0.14443606381E+02  0.28834433185E+02  0.00000000000E+00 0.  1.
</event>
<event>
 8    1  0.1229941E-006  0.9118800E+02  0.7816164E-02  0.1184000E+00
        -11   -1    0    0    0    0  0.00000000000E+00  0.00000000000E+00  0.45593999997E+02  0.45594000000E+02  0.51100000000E-03 0.  1.
         11   -1    0    0    0    0 -0.00000000000E+00 -0.00000000000E+00 -0.45593999997E+02  0.45594000000E+02  0.51100000000E-03 0. -1.
         23    2    1    2    0    0  0.71054273576E-14 -0.88817841970E-15 -0.22204460493E-15  0.91188000000E+02  0.91188000000E+02 0.  0.
    9900012    2    3    3    0    0  0.36669138030E+02 -0.32286550438E+01 -0.85441742800E+00  0.54367083032E+02  0.39999997388E+02 0.  0.
         12    1    3    3    0    0 -0.36669138030E+02  0.32286550438E+01  0.85441742800E+00  0.36820916968E+02  0.00000000000E+00 0. -1.
         11    1    4    4    0    0  0.13774758451E+02 -0.16706700566E+00 -0.14120396670E+01  0.13847950681E+02  0.51100000000E-03 0. -1.
        -11    1    4    4    0    0  0.24345820038E+02  0.92064255180E+01 -0.57387438403E+01  0.26653525194E+02  0.51100000000E-03 0.  1.
         12    1    4    4    0    0 -0.14514404601E+01 -0.12268013556E+02  0.62963660793E+01  0.13865607157E+02  0.00000000000E+00 0. -1.
</event>
<event>
 8    1  0.1229941E-006  0.9118800E+02  0.7816164E-02  0.1184000E+00
        -11   -1    0    0    0    0  0.00000000000E+00  0.00000000000E+00  0.45593999997E+02  0.45594000000E+02  0.51100000000E-03 0. -1.
         11   -1    0    0    0    0 -0.00000000000E+00 -0.00000000000E+00 -0.45593999997E+02  0.45594000000E+02  0.51100000000E-03 0.  1.
         23    2    1    2    0    0 -0.17763568394E-14  0.00000000000E+00  0.00000000000E+00  0.91188000000E+02  0.91188000000E+02 0.  0.
    9900012    2    3    3    0    0  0.13081898797E+02 -0.24104073104E+02  0.24569015006E+02  0.54367096770E+02  0.40000028706E+02 0.  0.
        -12    1    3    3    0    0 -0.13081898797E+02  0.24104073104E+02 -0.24569015006E+02  0.36820903230E+02  0.00000000000E+00 0.  1.
         11    1    4    4    0    0  0.15413651646E+01 -0.12913077706E+02  0.16690593437E+02  0.21158905736E+02  0.51100000000E-03 0. -1.
        -11    1    4    4    0    0  0.12601894964E+02  0.34511807045E+01  0.12229534177E+02  0.17896365871E+02  0.51100000000E-03 0.  1.
         12    1    4    4    0    0 -0.10613613315E+01 -0.14642176102E+02 -0.43511126078E+01  0.15311825163E+02  0.00000000000E+00 0. -1.
</event>
<event>
 8    1  0.1229941E-006  0.9118800E+02  0.7816164E-02  0.1184000E+00
        -11   -1    0    0    0    0  0.00000000000E+00  0.00000000000E+00  0.45593999997E+02  0.45594000000E+02  0.51100000000E-03 0.  1.
         11   -1    0    0    0    0 -0.00000000000E+00 -0.00000000000E+00 -0.45593999997E+02  0.45594000000E+02  0.51100000000E-03 0. -1.
         23    2    1    2    0    0 -0.17763568394E-14 -0.35527136788E-14  0.35527136788E-14  0.91188000000E+02  0.91188000000E+02 0.  0.
    9900012    2    3    3    0    0  0.11047224331E+02  0.17106293869E+02 -0.30677555840E+02  0.54367097136E+02  0.40000029541E+02 0.  0.
        -12    1    3    3    0    0 -0.11047224331E+02 -0.17106293869E+02  0.30677555840E+02  0.36820902864E+02  0.00000000000E+00 0.  1.
         11    1    4    4    0    0 -0.77788684836E+01  0.31975983786E+01 -0.18935525509E+02  0.20719303966E+02  0.51100000000E-03 0. -1.
        -11    1    4    4    0    0 -0.20591032703E+01 -0.35030379570E+01 -0.87821950021E-01  0.40643442475E+01  0.51100000000E-03 0.  1.
         12    1    4    4    0    0  0.20885196085E+02  0.17411733448E+02 -0.11654208381E+02  0.29583448922E+02  0.00000000000E+00 0. -1.
</event>
<event>
 8    1  0.1229941E-006  0.9118800E+02  0.7816164E-02  0.1184000E+00
        -11   -1    0    0    0    0  0.00000000000E+00  0.00000000000E+00  0.45593999997E+02  0.45594000000E+02  0.51100000000E-03 0.  1.
         11   -1    0    0    0    0 -0.00000000000E+00 -0.00000000000E+00 -0.45593999997E+02  0.45594000000E+02  0.51100000000E-03 0. -1.
         23    2    1    2    0    0  0.00000000000E+00  0.35527136788E-14  0.35527136788E-14  0.91188000000E+02  0.91188000000E+02 0.  0.
    9900012    2    3    3    0    0 -0.13766176819E+02 -0.25233648836E+02  0.23011649103E+02  0.54367073175E+02  0.39999974918E+02 0.  0.
         12    1    3    3    0    0  0.13766176819E+02  0.25233648836E+02 -0.23011649103E+02  0.36820926825E+02  0.00000000000E+00 0. -1.
         11    1    4    4    0    0 -0.11291589485E+02 -0.25274772928E+02  0.89255456716E+01  0.29085726834E+02  0.51100000000E-03 0. -1.
        -11    1    4    4    0    0 -0.86720305459E+01  0.13540834395E+01  0.16347569667E+02  0.18554802344E+02  0.51100000000E-03 0.  1.
         12    1    4    4    0    0  0.61974432116E+01 -0.13129593472E+01 -0.22614662360E+01  0.67265439971E+01  0.00000000000E+00 0. -1.
</event>
<event>
 8    1  0.1229941E-006  0.9118800E+02  0.7816164E-02  0.1184000E+00
        -11   -1    0    0    0    0  0.00000000000E+00  0.00000000000E+00  0.45593999997E+02  0.45594000000E+02  0.51100000000E-03 0.  1.
         11   -1    0    0    0    0 -0.00000000000E+00 -0.00000000000E+00 -0.45593999997E+02  0.45594000000E+02  0.51100000000E-03 0. -1.
         23    2    1    2    0    0 -0.88817841970E-15  0.00000000000E+00  0.00000000000E+00  0.91188000000E+02  0.91188000000E+02 0.  0.
    9900012    2    3    3    0    0 -0.78877205069E+01  0.32473882872E+02  0.15459952855E+02  0.54367090915E+02  0.40000015358E+02 0.  0.
         12    1    3    3    0    0  0.78877205069E+01 -0.32473882872E+02 -0.15459952855E+02  0.36820909085E+02  0.00000000000E+00 0. -1.
         11    1    4    4    0    0  0.36345968221E+01  0.31183845972E+01 -0.60605563320E+01  0.77243096695E+01  0.51100000000E-03 0. -1.
        -11    1    4    4    0    0  0.25697858974E+01  0.65186276776E+01  0.18324271750E+02  0.19618237479E+02  0.51100000000E-03 0.  1.
         12    1    4    4    0    0 -0.14092103226E+02  0.22836870597E+02  0.31962374378E+01  0.27024543766E+02  0.00000000000E+00 0. -1.
</event>
<event>
 8    1  0.1229941E-006  0.9118800E+02  0.7816164E-02  0.1184000E+00
        -11   -1    0    0    0    0  0.00000000000E+00  0.00000000000E+00  0.45593999997E+02  0.45594000000E+02  0.51100000000E-03 0.  1.
         11   -1    0    0    0    0 -0.00000000000E+00 -0.00000000000E+00 -0.45593999997E+02  0.45594000000E+02  0.51100000000E-03 0. -1.
         23    2    1    2    0    0  0.71054273576E-14 -0.35527136788E-14 -0.35527136788E-14  0.91188000000E+02  0.91188000000E+02 0.  0.
    9900012    2    3    3    0    0  0.22899951841E+02 -0.24948957557E+02 -0.14454091743E+02  0.54367094992E+02  0.40000024653E+02 0.  0.
        -12    1    3    3    0    0 -0.22899951841E+02  0.24948957557E+02  0.14454091743E+02  0.36820905008E+02  0.00000000000E+00 0.  1.
         11    1    4    4    0    0  0.25288072162E+01  0.63009837753E+00 -0.26157104153E+01  0.36924018118E+01  0.51100000000E-03 0. -1.
        -11    1    4    4    0    0  0.71176181987E+01  0.43269895437E+01 -0.15663440002E+02  0.17740537768E+02  0.51100000000E-03 0.  1.
         12    1    4    4    0    0  0.13253526426E+02 -0.29906045478E+02  0.38250586744E+01  0.32934155413E+02  0.00000000000E+00 0. -1.
</event>
<event>
 8    1  0.1229941E-006  0.9118800E+02  0.7816164E-02  0.1184000E+00
        -11   -1    0    0    0    0  0.00000000000E+00  0.00000000000E+00  0.45593999997E+02  0.45594000000E+02  0.51100000000E-03 0.  1.
         11   -1    0    0    0    0 -0.00000000000E+00 -0.00000000000E+00 -0.45593999997E+02  0.45594000000E+02  0.51100000000E-03 0. -1.
         23    2    1    2    0    0 -0.35527136788E-14 -0.71054273576E-14 -0.53290705182E-14  0.91188000000E+02  0.91188000000E+02 0.  0.
    9900012    2    3    3    0    0  0.21775676315E+02  0.27981363619E+02  0.99319342828E+01  0.54367080572E+02  0.39999991779E+02 0.  0.
         12    1    3    3    0    0 -0.21775676315E+02 -0.27981363619E+02 -0.99319342828E+01  0.36820919428E+02  0.00000000000E+00 0. -1.
         11    1    4    4    0    0  0.12831048269E+02  0.92407649701E+01 -0.91184724522E+01  0.18253056649E+02  0.51100000000E-03 0. -1.
        -11    1    4    4    0    0  0.11392322235E+02  0.11079645666E+02  0.50478315919E+00  0.15899633967E+02  0.51100000000E-03 0.  1.
         12    1    4    4    0    0 -0.24476941890E+01  0.76609529826E+01  0.18545623576E+02  0.20214389955E+02  0.00000000000E+00 0. -1.
</event>
<event>
 8    1  0.1229941E-006  0.9118800E+02  0.7816164E-02  0.1184000E+00
        -11   -1    0    0    0    0  0.00000000000E+00  0.00000000000E+00  0.45593999997E+02  0.45594000000E+02  0.51100000000E-03 0. -1.
         11   -1    0    0    0    0 -0.00000000000E+00 -0.00000000000E+00 -0.45593999997E+02  0.45594000000E+02  0.51100000000E-03 0.  1.
         23    2    1    2    0    0  0.17763568394E-14  0.00000000000E+00 -0.88817841970E-15  0.91188000000E+02  0.91188000000E+02 0.  0.
    9900012    2    3    3    0    0 -0.96375100077E+01 -0.35353631353E+02  0.36078836736E+01  0.54367113623E+02  0.40000067125E+02 0.  0.
        -12    1    3    3    0    0  0.96375100077E+01  0.35353631353E+02 -0.36078836736E+01  0.36820886377E+02  0.00000000000E+00 0.  1.
         11    1    4    4    0    0  0.91345680344E+01 -0.25165810578E+02  0.13554567446E+02  0.30008076482E+02  0.51100000000E-03 0. -1.
        -11    1    4    4    0    0 -0.99793888729E+00  0.25776404971E-01 -0.22510157532E+01  0.24624415989E+01  0.51100000000E-03 0.  1.
         12    1    4    4    0    0 -0.17774139155E+02 -0.10213597180E+02 -0.76956680194E+01  0.21896595542E+02  0.00000000000E+00 0. -1.
</event>
<event>
 8    1  0.1229941E-006  0.9118800E+02  0.7816164E-02  0.1184000E+00
        -11   -1    0    0    0    0  0.00000000000E+00  0.00000000000E+00  0.45593999997E+02  0.45594000000E+02  0.51100000000E-03 0.  1.
         11   -1    0    0    0    0 -0.00000000000E+00 -0.00000000000E+00 -0.45593999997E+02  0.45594000000E+02  0.51100000000E-03 0. -1.
         23    2    1    2    0    0  0.35527136788E-14  0.00000000000E+00  0.00000000000E+00  0.91188000000E+02  0.91188000000E+02 0.  0.
    9900012    2    3    3    0    0 -0.15427241420E+02 -0.72948531853E+01  0.32627669676E+02  0.54367088967E+02  0.40000010918E+02 0.  0.
         12    1    3    3    0    0  0.15427241420E+02  0.72948531853E+01 -0.32627669676E+02  0.36820911033E+02  0.00000000000E+00 0. -1.
         11    1    4    4    0    0 -0.23354635855E+02 -0.24240987859E+01  0.11647933215E+02  0.26210486819E+02  0.51100000000E-03 0. -1.
        -11    1    4    4    0    0 -0.39484745481E+01  0.59062703429E+00  0.73631742687E+00  0.40597358491E+01  0.51100000000E-03 0.  1.
         12    1    4    4    0    0  0.11875868983E+02 -0.54613814337E+01  0.20243419034E+02  0.24096866299E+02  0.00000000000E+00 0. -1.
</event>
<event>
 8    1  0.1229941E-006  0.9118800E+02  0.7816164E-02  0.1184000E+00
        -11   -1    0    0    0    0  0.00000000000E+00  0.00000000000E+00  0.45593999997E+02  0.45594000000E+02  0.51100000000E-03 0. -1.
         11   -1    0    0    0    0 -0.00000000000E+00 -0.00000000000E+00 -0.45593999997E+02  0.45594000000E+02  0.51100000000E-03 0.  1.
         23    2    1    2    0    0  0.00000000000E+00  0.35527136788E-14  0.00000000000E+00  0.91188000000E+02  0.91188000000E+02 0.  0.
    9900012    2    3    3    0    0  0.28572738726E+02  0.20976279721E+02 -0.99686817068E+01  0.54367077629E+02  0.39999985072E+02 0.  0.
         12    1    3    3    0    0 -0.28572738726E+02 -0.20976279721E+02  0.99686817068E+01  0.36820922371E+02  0.00000000000E+00 0. -1.
         11    1    4    4    0    0 -0.27201968145E+00  0.20346632504E+02 -0.71076296609E+01  0.21554068029E+02  0.51100000000E-03 0. -1.
        -11    1    4    4    0    0  0.29248587505E+02  0.34135931369E+01 -0.41147460162E+01  0.29733207432E+02  0.51100000000E-03 0.  1.
         12    1    4    4    0    0 -0.40382909730E+00 -0.27839459200E+01  0.12536939703E+01  0.30798021684E+01  0.00000000000E+00 0. -1.
</event>
<event>
 8    1  0.1229941E-006  0.9118800E+02  0.7816164E-02  0.1184000E+00
        -11   -1    0    0    0    0  0.00000000000E+00  0.00000000000E+00  0.45593999997E+02  0.45594000000E+02  0.51100000000E-03 0.  1.
         11   -1    0    0    0    0 -0.00000000000E+00 -0.00000000000E+00 -0.45593999997E+02  0.45594000000E+02  0.51100000000E-03 0. -1.
         23    2    1    2    0    0  0.71054273576E-14 -0.44408920985E-15 -0.35527136788E-14  0.91188000000E+02  0.91188000000E+02 0.  0.
    9900012    2    3    3    0    0 -0.26950619914E+02 -0.28060946292E+01  0.24931297223E+02  0.54367086622E+02  0.40000005571E+02 0.  0.
        -12    1    3    3    0    0  0.26950619914E+02  0.28060946292E+01 -0.24931297223E+02  0.36820913378E+02  0.00000000000E+00 0.  1.
         11    1    4    4    0    0  0.30061532314E+01 -0.18575627959E+01 -0.67081105934E+00  0.35968714919E+01  0.51100000000E-03 0.  1.
        -11    1    4    4    0    0  0.50791894387E+01 -0.29049488411E+01  0.11594276897E+02  0.12987076274E+02  0.51100000000E-03 0. -1.
         12    1    4    4    0    0 -0.35035962584E+02  0.19564170078E+01  0.14007831386E+02  0.37783138856E+02  0.00000000000E+00 0. -1.
</event>
<event>
 8    1  0.1229941E-006  0.9118800E+02  0.7816164E-02  0.1184000E+00
        -11   -1    0    0    0    0  0.00000000000E+00  0.00000000000E+00  0.45593999997E+02  0.45594000000E+02  0.51100000000E-03 0.  1.
         11   -1    0    0    0    0 -0.00000000000E+00 -0.00000000000E+00 -0.45593999997E+02  0.45594000000E+02  0.51100000000E-03 0. -1.
         23    2    1    2    0    0 -0.35527136788E-14 -0.88817841970E-15  0.00000000000E+00  0.91188000000E+02  0.91188000000E+02 0.  0.
    9900012    2    3    3    0    0 -0.22288846766E+02 -0.51880919056E+01  0.28845661468E+02  0.54367066099E+02  0.39999958787E+02 0.  0.
         12    1    3    3    0    0  0.22288846766E+02  0.51880919056E+01 -0.28845661468E+02  0.36820933901E+02  0.00000000000E+00 0. -1.
         11    1    4    4    0    0 -0.57336790303E+00  0.13391248882E+02  0.63689525175E+01  0.14839739008E+02  0.51100000000E-03 0. -1.
        -11    1    4    4    0    0 -0.13021070408E+02 -0.13027122441E+01  0.76592180281E+01  0.15162748921E+02  0.51100000000E-03 0.  1.
         12    1    4    4    0    0 -0.86944084548E+01 -0.17276628544E+02  0.14817490922E+02  0.24364578171E+02  0.00000000000E+00 0. -1.
</event>
<event>
 8    1  0.1229941E-006  0.9118800E+02  0.7816164E-02  0.1184000E+00
        -11   -1    0    0    0    0  0.00000000000E+00  0.00000000000E+00  0.45593999997E+02  0.45594000000E+02  0.51100000000E-03 0.  1.
         11   -1    0    0    0    0 -0.00000000000E+00 -0.00000000000E+00 -0.45593999997E+02  0.45594000000E+02  0.51100000000E-03 0. -1.
         23    2    1    2    0    0  0.00000000000E+00  0.35527136788E-14  0.00000000000E+00  0.91188000000E+02  0.91188000000E+02 0.  0.
    9900012    2    3    3    0    0  0.24790135486E+01 -0.15735377635E+02  0.33196931625E+02  0.54367029253E+02  0.39999874787E+02 0.  0.
         12    1    3    3    0    0 -0.24790135486E+01  0.15735377635E+02 -0.33196931625E+02  0.36820970747E+02  0.00000000000E+00 0. -1.
         11    1    4    4    0    0  0.22456260212E+01 -0.41347143869E+01  0.18442877242E+02  0.19033612913E+02  0.51100000000E-03 0. -1.
        -11    1    4    4    0    0  0.21642391045E+01 -0.17456474141E+02  0.20425540522E+02  0.26955799491E+02  0.51100000000E-03 0.  1.
         12    1    4    4    0    0 -0.19308515771E+01  0.58558108926E+01 -0.56714861398E+01  0.83776168483E+01  0.00000000000E+00 0. -1.
</event>
<event>
 8    1  0.1229941E-006  0.9118800E+02  0.7816164E-02  0.1184000E+00
        -11   -1    0    0    0    0  0.00000000000E+00  0.00000000000E+00  0.45593999997E+02  0.45594000000E+02  0.51100000000E-03 0.  1.
         11   -1    0    0    0    0 -0.00000000000E+00 -0.00000000000E+00 -0.45593999997E+02  0.45594000000E+02  0.51100000000E-03 0. -1.
         23    2    1    2    0    0  0.35527136788E-14 -0.17763568394E-14  0.00000000000E+00  0.91188000000E+02  0.91188000000E+02 0.  0.
    9900012    2    3    3    0    0 -0.29063749363E+02  0.91039869736E+01  0.20692836047E+02  0.54367115036E+02  0.40000070348E+02 0.  0.
        -12    1    3    3    0    0  0.29063749363E+02 -0.91039869736E+01 -0.20692836047E+02  0.36820884964E+02  0.00000000000E+00 0.  1.
         11    1    4    4    0    0 -0.12030913929E+02  0.10800221631E+02  0.95659091809E+01  0.18785480988E+02  0.51100000000E-03 0. -1.
        -11    1    4    4    0    0 -0.23282610549E+02  0.37163151558E+01  0.13250359504E+02  0.27045572273E+02  0.51100000000E-03 0.  1.
        -12    1    4    4    0    0  0.62497751149E+01 -0.54125498130E+01 -0.21234326378E+01  0.85360617753E+01  0.00000000000E+00 0.  1.
</event>
<event>
 8    1  0.1229941E-006  0.9118800E+02  0.7816164E-02  0.1184000E+00
        -11   -1    0    0    0    0  0.00000000000E+00  0.00000000000E+00  0.45593999997E+02  0.45594000000E+02  0.51100000000E-03 0.  1.
         11   -1    0    0    0    0 -0.00000000000E+00 -0.00000000000E+00 -0.45593999997E+02  0.45594000000E+02  0.51100000000E-03 0. -1.
         23    2    1    2    0    0  0.00000000000E+00  0.35527136788E-14  0.35527136788E-14  0.91188000000E+02  0.91188000000E+02 0.  0.
    9900012    2    3    3    0    0 -0.19935405657E+02 -0.26500661594E+02  0.16002316396E+02  0.54367087550E+02  0.40000007687E+02 0.  0.
         12    1    3    3    0    0  0.19935405657E+02  0.26500661594E+02 -0.16002316396E+02  0.36820912450E+02  0.00000000000E+00 0. -1.
         11    1    4    4    0    0 -0.15502373386E+02 -0.79665553147E+01 -0.10921560492E+02  0.20568667143E+02  0.51100000000E-03 0. -1.
        -11    1    4    4    0    0 -0.27116851712E+01 -0.18512096000E+02  0.24617368516E+02  0.30920313189E+02  0.51100000000E-03 0.  1.
         12    1    4    4    0    0 -0.17213470996E+01 -0.22010279814E-01  0.23065083724E+01  0.28781072186E+01  0.00000000000E+00 0. -1.
</event>
<event>
 8    1  0.1229941E-006  0.9118800E+02  0.7816164E-02  0.1184000E+00
        -11   -1    0    0    0    0  0.00000000000E+00  0.00000000000E+00  0.45593999997E+02  0.45594000000E+02  0.51100000000E-03 0.  1.
         11   -1    0    0    0    0 -0.00000000000E+00 -0.00000000000E+00 -0.45593999997E+02  0.45594000000E+02  0.51100000000E-03 0. -1.
         23    2    1    2    0    0 -0.35527136788E-14 -0.35527136788E-14  0.35527136788E-14  0.91188000000E+02  0.91188000000E+02 0.  0.
    9900012    2    3    3    0    0 -0.20158432086E+02 -0.19204185942E+02 -0.24095989962E+02  0.54367083742E+02  0.39999999006E+02 0.  0.
        -12    1    3    3    0    0  0.20158432086E+02  0.19204185942E+02  0.24095989962E+02  0.36820916258E+02  0.00000000000E+00 0.  1.
         11    1    4    4    0    0  0.28719183197E+01  0.42962257990E+01  0.14308897122E+01  0.53621746130E+01  0.51100000000E-03 0. -1.
        -11    1    4    4    0    0 -0.78739816235E+01  0.50705418578E+01 -0.41994282328E+01  0.10263779961E+02  0.51100000000E-03 0.  1.
         12    1    4    4    0    0 -0.15156368782E+02 -0.28570953599E+02 -0.21327451441E+02  0.38741129168E+02  0.00000000000E+00 0. -1.
</event>
<event>
 8    1  0.1229941E-006  0.9118800E+02  0.7816164E-02  0.1184000E+00
        -11   -1    0    0    0    0  0.00000000000E+00  0.00000000000E+00  0.45593999997E+02  0.45594000000E+02  0.51100000000E-03 0. -1.
         11   -1    0    0    0    0 -0.00000000000E+00 -0.00000000000E+00 -0.45593999997E+02  0.45594000000E+02  0.51100000000E-03 0.  1.
         23    2    1    2    0    0 -0.11102230246E-14 -0.35527136788E-14  0.35527136788E-14  0.91188000000E+02  0.91188000000E+02 0.  0.
    9900012    2    3    3    0    0  0.18657461738E+01  0.28052093839E+02 -0.23777707747E+02  0.54367077100E+02  0.39999983865E+02 0.  0.
        -12    1    3    3    0    0 -0.18657461738E+01 -0.28052093839E+02  0.23777707747E+02  0.36820922900E+02  0.00000000000E+00 0.  1.
         11    1    4    4    0    0  0.90163467586E+01  0.11147366096E+02 -0.55872631880E+01  0.15387520591E+02  0.51100000000E-03 0. -1.
        -11    1    4    4    0    0  0.10409426253E+02  0.54272142962E+01 -0.86367354942E+00  0.11771012794E+02  0.51100000000E-03 0.  1.
        -12    1    4    4    0    0 -0.17560026838E+02  0.11477513447E+02 -0.17326771009E+02  0.27208543715E+02  0.00000000000E+00 0.  1.
</event>
<event>
 8    1  0.1229941E-006  0.9118800E+02  0.7816164E-02  0.1184000E+00
        -11   -1    0    0    0    0  0.00000000000E+00  0.00000000000E+00  0.45593999997E+02  0.45594000000E+02  0.51100000000E-03 0. -1.
         11   -1    0    0    0    0 -0.00000000000E+00 -0.00000000000E+00 -0.45593999997E+02  0.45594000000E+02  0.51100000000E-03 0.  1.
         23    2    1    2    0    0 -0.17763568394E-14  0.00000000000E+00  0.17763568394E-14  0.91188000000E+02  0.91188000000E+02 0.  0.
    9900012    2    3    3    0    0  0.84137962218E+01 -0.35182795718E+02  0.68672251724E+01  0.54367083893E+02  0.39999999351E+02 0.  0.
        -12    1    3    3    0    0 -0.84137962218E+01  0.35182795718E+02 -0.68672251724E+01  0.36820916107E+02  0.00000000000E+00 0.  1.
         11    1    4    4    0    0  0.14654792118E+02 -0.20571152863E+02  0.19245573091E+02  0.31754170529E+02  0.51100000000E-03 0. -1.
        -11    1    4    4    0    0 -0.36917310346E+01 -0.69092299060E+01 -0.12198952739E+02  0.14497613049E+02  0.51100000000E-03 0.  1.
         12    1    4    4    0    0 -0.25492648615E+01 -0.77024129490E+01 -0.17939518034E+00  0.81153003150E+01  0.00000000000E+00 0. -1.
</event>
<event>
 8    1  0.1229941E-006  0.9118800E+02  0.7816164E-02  0.1184000E+00
        -11   -1    0    0    0    0  0.00000000000E+00  0.00000000000E+00  0.45593999997E+02  0.45594000000E+02  0.51100000000E-03 0.  1.
         11   -1    0    0    0    0 -0.00000000000E+00 -0.00000000000E+00 -0.45593999997E+02  0.45594000000E+02  0.51100000000E-03 0. -1.
         23    2    1    2    0    0  0.35527136788E-14  0.71054273576E-14  0.10658141036E-13  0.91188000000E+02  0.91188000000E+02 0.  0.
    9900012    2    3    3    0    0 -0.81079584377E+01 -0.24557311288E+02 -0.26210276348E+02  0.54367094064E+02  0.40000022538E+02 0.  0.
        -12    1    3    3    0    0  0.81079584377E+01  0.24557311288E+02  0.26210276348E+02  0.36820905936E+02  0.00000000000E+00 0.  1.
         11    1    4    4    0    0 -0.98339393380E+01 -0.10936403609E+02 -0.29164159435E+02  0.32662814983E+02  0.51100000000E-03 0. -1.
        -11    1    4    4    0    0  0.39680204414E+01 -0.76126425644E+01 -0.61558184701E+01  0.10563693215E+02  0.51100000000E-03 0.  1.
        -12    1    4    4    0    0 -0.22420395411E+01 -0.60082651138E+01  0.91097015573E+01  0.11140585866E+02  0.00000000000E+00 0.  1.
</event>
<event>
 8    1  0.1229941E-006  0.9118800E+02  0.7816164E-02  0.1184000E+00
        -11   -1    0    0    0    0  0.00000000000E+00  0.00000000000E+00  0.45593999997E+02  0.45594000000E+02  0.51100000000E-03 0.  1.
         11   -1    0    0    0    0 -0.00000000000E+00 -0.00000000000E+00 -0.45593999997E+02  0.45594000000E+02  0.51100000000E-03 0. -1.
         23    2    1    2    0    0  0.00000000000E+00  0.00000000000E+00  0.00000000000E+00  0.91188000000E+02  0.91188000000E+02 0.  0.
    9900012    2    3    3    0    0  0.10862759167E+01 -0.30133728511E+02 -0.21131934553E+02  0.54367078674E+02  0.39999987453E+02 0.  0.
        -12    1    3    3    0    0 -0.10862759167E+01  0.30133728511E+02  0.21131934553E+02  0.36820921326E+02  0.00000000000E+00 0.  1.
         11    1    4    4    0    0  0.23507635622E+01 -0.42378231221E+01 -0.23354607027E+02  0.23852104809E+02  0.51100000000E-03 0. -1.
        -11    1    4    4    0    0  0.68631953662E+01 -0.13594382500E+02 -0.15172207692E+01  0.15304007492E+02  0.51100000000E-03 0.  1.
        -12    1    4    4    0    0 -0.81276830116E+01 -0.12301522889E+02  0.37398932436E+01  0.15210966373E+02  0.00000000000E+00 0.  1.
</event>
<event>
 8    1  0.1229941E-006  0.9118800E+02  0.7816164E-02  0.1184000E+00
        -11   -1    0    0    0    0  0.00000000000E+00  0.00000000000E+00  0.45593999997E+02  0.45594000000E+02  0.51100000000E-03 0.  1.
         11   -1    0    0    0    0 -0.00000000000E+00 -0.00000000000E+00 -0.45593999997E+02  0.45594000000E+02  0.51100000000E-03 0. -1.
         23    2    1    2    0    0  0.00000000000E+00 -0.35527136788E-14  0.00000000000E+00  0.91188000000E+02  0.91188000000E+02 0.  0.
    9900012    2    3    3    0    0 -0.14370710157E+02 -0.17792999213E+02 -0.28856052666E+02  0.54367083297E+02  0.39999997992E+02 0.  0.
         12    1    3    3    0    0  0.14370710157E+02  0.17792999213E+02  0.28856052666E+02  0.36820916703E+02  0.00000000000E+00 0. -1.
         11    1    4    4    0    0 -0.47214700171E+01 -0.22022335414E+02 -0.22632698079E+02  0.31929838064E+02  0.51100000000E-03 0. -1.
        -11    1    4    4    0    0 -0.15326746424E+02  0.40259680759E+01 -0.40635548082E+01  0.16359402582E+02  0.51100000000E-03 0.  1.
        -12    1    4    4    0    0  0.56775062842E+01  0.20336812532E+00 -0.21597997789E+01  0.60778426507E+01  0.00000000000E+00 0.  1.
</event>
<event>
 8    1  0.1229941E-006  0.9118800E+02  0.7816164E-02  0.1184000E+00
        -11   -1    0    0    0    0  0.00000000000E+00  0.00000000000E+00  0.45593999997E+02  0.45594000000E+02  0.51100000000E-03 0.  1.
         11   -1    0    0    0    0 -0.00000000000E+00 -0.00000000000E+00 -0.45593999997E+02  0.45594000000E+02  0.51100000000E-03 0. -1.
         23    2    1    2    0    0  0.00000000000E+00  0.00000000000E+00  0.00000000000E+00  0.91188000000E+02  0.91188000000E+02 0.  0.
    9900012    2    3    3    0    0 -0.17422890338E+02  0.96189499199E+01  0.30979017010E+02  0.54367071166E+02  0.39999970338E+02 0.  0.
         12    1    3    3    0    0  0.17422890338E+02 -0.96189499199E+01 -0.30979017010E+02  0.36820928834E+02  0.00000000000E+00 0. -1.
         11    1    4    4    0    0  0.69314892223E+00  0.33638647385E+01 -0.20197496520E+01  0.39843983643E+01  0.51100000000E-03 0. -1.
        -11    1    4    4    0    0 -0.54034379010E+01 -0.20016692813E+01 -0.61342895497E+01  0.84162538936E+01  0.51100000000E-03 0.  1.
        -12    1    4    4    0    0 -0.12712601359E+02  0.82567544626E+01  0.39133056211E+02  0.41966418908E+02  0.00000000000E+00 0.  1.
</event>
<event>
 8    1  0.1229941E-006  0.9118800E+02  0.7816164E-02  0.1184000E+00
        -11   -1    0    0    0    0  0.00000000000E+00  0.00000000000E+00  0.45593999997E+02  0.45594000000E+02  0.51100000000E-03 0. -1.
         11   -1    0    0    0    0 -0.00000000000E+00 -0.00000000000E+00 -0.45593999997E+02  0.45594000000E+02  0.51100000000E-03 0.  1.
         23    2    1    2    0    0  0.00000000000E+00 -0.17763568394E-14  0.35527136788E-14  0.91188000000E+02  0.91188000000E+02 0.  0.
    9900012    2    3    3    0    0  0.26779767148E+02  0.11827594017E+02 -0.22332306925E+02  0.54367084186E+02  0.40000000020E+02 0.  0.
         12    1    3    3    0    0 -0.26779767148E+02 -0.11827594017E+02  0.22332306925E+02  0.36820915814E+02  0.00000000000E+00 0. -1.
         11    1    4    4    0    0  0.73303030079E+01  0.34173360629E+01  0.84784530943E+01  0.11717324570E+02  0.51100000000E-03 0. -1.
        -11    1    4    4    0    0  0.13394494948E+02 -0.40534154270E+00 -0.28803617211E+02  0.31768304352E+02  0.51100000000E-03 0.  1.
         12    1    4    4    0    0  0.60549691918E+01  0.88155994970E+01 -0.20071428083E+01  0.10881455264E+02  0.00000000000E+00 0. -1.
</event>
<event>
 8    1  0.1229941E-006  0.9118800E+02  0.7816164E-02  0.1184000E+00
        -11   -1    0    0    0    0  0.00000000000E+00  0.00000000000E+00  0.45593999997E+02  0.45594000000E+02  0.51100000000E-03 0. -1.
         11   -1    0    0    0    0 -0.00000000000E+00 -0.00000000000E+00 -0.45593999997E+02  0.45594000000E+02  0.51100000000E-03 0.  1.
         23    2    1    2    0    0 -0.35527136788E-14  0.00000000000E+00 -0.35527136788E-14  0.91188000000E+02  0.91188000000E+02 0.  0.
    9900012    2    3    3    0    0  0.27886809013E+02 -0.24166088625E+01  0.23922056241E+02  0.54367097104E+02  0.40000029467E+02 0.  0.
        -12    1    3    3    0    0 -0.27886809013E+02  0.24166088625E+01 -0.23922056241E+02  0.36820902896E+02  0.00000000000E+00 0.  1.
         11    1    4    4    0    0  0.12145568712E+02  0.79402081441E-02 -0.51783867863E+01  0.13203431083E+02  0.51100000000E-03 0. -1.
        -11    1    4    4    0    0  0.14195817311E+02  0.98160346754E+00  0.32891751501E+02  0.35837858357E+02  0.51100000000E-03 0.  1.
        -12    1    4    4    0    0  0.15454229892E+01 -0.34061525382E+01 -0.37913084741E+01  0.53258076641E+01  0.00000000000E+00 0.  1.
</event>
<event>
 8    1  0.1229941E-006  0.9118800E+02  0.7816164E-02  0.1184000E+00
        -11   -1    0    0    0    0  0.00000000000E+00  0.00000000000E+00  0.45593999997E+02  0.45594000000E+02  0.51100000000E-03 0.  1.
         11   -1    0    0    0    0 -0.00000000000E+00 -0.00000000000E+00 -0.45593999997E+02  0.45594000000E+02  0.51100000000E-03 0. -1.
         23    2    1    2    0    0  0.13322676296E-14  0.00000000000E+00 -0.88817841970E-15  0.91188000000E+02  0.91188000000E+02 0.  0.
    9900012    2    3    3    0    0  0.19517950509E+01 -0.36625054857E+02  0.32528700129E+01  0.54367009919E+02  0.39999830712E+02 0.  0.
        -12    1    3    3    0    0 -0.19517950509E+01  0.36625054857E+02 -0.32528700129E+01  0.36820990081E+02  0.00000000000E+00 0.  1.
         11    1    4    4    0    0  0.54858525223E+01 -0.17325143127E+02 -0.23331295165E+01  0.18322081101E+02  0.51100000000E-03 0. -1.
        -11    1    4    4    0    0  0.10563568957E+02 -0.38022172095E+01 -0.53223821707E+01  0.12424717182E+02  0.51100000000E-03 0.  1.
        -12    1    4    4    0    0 -0.14097626429E+02 -0.15497694521E+02  0.10908381700E+02  0.23620211635E+02  0.00000000000E+00 0.  1.
</event>
<event>
 8    1  0.1229941E-006  0.9118800E+02  0.7816164E-02  0.1184000E+00
        -11   -1    0    0    0    0  0.00000000000E+00  0.00000000000E+00  0.45593999997E+02  0.45594000000E+02  0.51100000000E-03 0.  1.
         11   -1    0    0    0    0 -0.00000000000E+00 -0.00000000000E+00 -0.45593999997E+02  0.45594000000E+02  0.51100000000E-03 0. -1.
         23    2    1    2    0    0  0.00000000000E+00 -0.35527136788E-14 -0.35527136788E-14  0.91188000000E+02  0.91188000000E+02 0.  0.
    9900012    2    3    3    0    0 -0.22573878907E+01  0.25374310121E+02 -0.26586258944E+02  0.54367074172E+02  0.39999977189E+02 0.  0.
        -12    1    3    3    0    0  0.22573878907E+01 -0.25374310121E+02  0.26586258944E+02  0.36820925828E+02  0.00000000000E+00 0.  1.
         11    1    4    4    0    0 -0.86415629402E+01 -0.21937342615E+01 -0.39836972235E+01  0.97651893933E+01  0.51100000000E-03 0. -1.
        -11    1    4    4    0    0 -0.35298402751E+01  0.27443519456E+02 -0.12226951631E+02  0.30250700470E+02  0.51100000000E-03 0.  1.
         12    1    4    4    0    0  0.99140153246E+01  0.12452492658E+00 -0.10375610090E+02  0.14351184308E+02  0.00000000000E+00 0. -1.
</event>
<event>
 8    1  0.1229941E-006  0.9118800E+02  0.7816164E-02  0.1184000E+00
        -11   -1    0    0    0    0  0.00000000000E+00  0.00000000000E+00  0.45593999997E+02  0.45594000000E+02  0.51100000000E-03 0.  1.
         11   -1    0    0    0    0 -0.00000000000E+00 -0.00000000000E+00 -0.45593999997E+02  0.45594000000E+02  0.51100000000E-03 0. -1.
         23    2    1    2    0    0  0.00000000000E+00 -0.17763568394E-14 -0.17763568394E-14  0.91188000000E+02  0.91188000000E+02 0.  0.
    9900012    2    3    3    0    0 -0.35016505898E+02  0.80291173133E+01 -0.80722893525E+01  0.54367024110E+02  0.39999863063E+02 0.  0.
         12    1    3    3    0    0  0.35016505898E+02 -0.80291173133E+01  0.80722893525E+01  0.36820975890E+02  0.00000000000E+00 0. -1.
         11    1    4    4    0    0 -0.83403285126E+01 -0.32824424583E+01 -0.81296524923E+01  0.12100692464E+02  0.51100000000E-03 0. -1.
        -11    1    4    4    0    0 -0.12385013910E+02  0.58252882487E+01 -0.15337296559E+02  0.20556147954E+02  0.51100000000E-03 0.  1.
        -12    1    4    4    0    0 -0.14291163475E+02  0.54862715230E+01  0.15394659698E+02  0.21710183692E+02  0.00000000000E+00 0.  1.
</event>
<event>
 8    1  0.1229941E-006  0.9118800E+02  0.7816164E-02  0.1184000E+00
        -11   -1    0    0    0    0  0.00000000000E+00  0.00000000000E+00  0.45593999997E+02  0.45594000000E+02  0.51100000000E-03 0.  1.
         11   -1    0    0    0    0 -0.00000000000E+00 -0.00000000000E+00 -0.45593999997E+02  0.45594000000E+02  0.51100000000E-03 0. -1.
         23    2    1    2    0    0  0.00000000000E+00 -0.17763568394E-14  0.35527136788E-14  0.91188000000E+02  0.91188000000E+02 0.  0.
    9900012    2    3    3    0    0  0.13705315595E+02  0.12124771414E+02 -0.31952048419E+02  0.54367093499E+02  0.40000021250E+02 0.  0.
        -12    1    3    3    0    0 -0.13705315595E+02 -0.12124771414E+02  0.31952048419E+02  0.36820906501E+02  0.00000000000E+00 0.  1.
         11    1    4    4    0    0  0.72600344618E+01  0.14300004952E+02 -0.99148625004E+01  0.18854780314E+02  0.51100000000E-03 0. -1.
        -11    1    4    4    0    0  0.11182987958E+01 -0.67298749278E+01  0.44290647440E+01  0.81337828535E+01  0.51100000000E-03 0.  1.
        -12    1    4    4    0    0  0.53269823370E+01  0.45546413896E+01 -0.26466250662E+02  0.27378530332E+02  0.00000000000E+00 0.  1.
</event>
<event>
 8    1  0.1229941E-006  0.9118800E+02  0.7816164E-02  0.1184000E+00
        -11   -1    0    0    0    0  0.00000000000E+00  0.00000000000E+00  0.45593999997E+02  0.45594000000E+02  0.51100000000E-03 0.  1.
         11   -1    0    0    0    0 -0.00000000000E+00 -0.00000000000E+00 -0.45593999997E+02  0.45594000000E+02  0.51100000000E-03 0. -1.
         23    2    1    2    0    0  0.00000000000E+00  0.00000000000E+00  0.35527136788E-14  0.91188000000E+02  0.91188000000E+02 0.  0.
    9900012    2    3    3    0    0  0.20029185030E+02 -0.15657434248E+02 -0.26635634673E+02  0.54367074772E+02  0.39999978558E+02 0.  0.
         12    1    3    3    0    0 -0.20029185030E+02  0.15657434248E+02  0.26635634673E+02  0.36820925228E+02  0.00000000000E+00 0. -1.
         11    1    4    4    0    0  0.36692950720E+00 -0.19397156623E+01 -0.77662783881E+01  0.80132524218E+01  0.51100000000E-03 0. -1.
        -11    1    4    4    0    0  0.19392901760E+02 -0.12369683642E+02  0.40819179923E+01  0.23361416199E+02  0.51100000000E-03 0.  1.
        -12    1    4    4    0    0  0.26935376271E+00 -0.13480349439E+01 -0.22951274278E+02  0.22992406151E+02  0.00000000000E+00 0.  1.
</event>
<event>
 8    1  0.1229941E-006  0.9118800E+02  0.7816164E-02  0.1184000E+00
        -11   -1    0    0    0    0  0.00000000000E+00  0.00000000000E+00  0.45593999997E+02  0.45594000000E+02  0.51100000000E-03 0. -1.
         11   -1    0    0    0    0 -0.00000000000E+00 -0.00000000000E+00 -0.45593999997E+02  0.45594000000E+02  0.51100000000E-03 0.  1.
         23    2    1    2    0    0 -0.11657341759E-14  0.71054273576E-14  0.35527136788E-14  0.91188000000E+02  0.91188000000E+02 0.  0.
    9900012    2    3    3    0    0  0.37887488228E+00  0.31486850848E+02  0.19084539055E+02  0.54367014768E+02  0.39999841766E+02 0.  0.
        -12    1    3    3    0    0 -0.37887488228E+00 -0.31486850848E+02 -0.19084539055E+02  0.36820985232E+02  0.00000000000E+00 0.  1.
         11    1    4    4    0    0  0.57356966041E+01  0.20360104251E+01  0.51501391385E+01  0.79729221364E+01  0.51100000000E-03 0. -1.
        -11    1    4    4    0    0 -0.55845149554E+01 -0.82757731493E+00  0.15070802626E+02  0.16093501283E+02  0.51100000000E-03 0.  1.
         12    1    4    4    0    0  0.22769323357E+00  0.30278417738E+02 -0.11364027095E+01  0.30300591348E+02  0.00000000000E+00 0. -1.
</event>
<event>
 8    1  0.1229941E-006  0.9118800E+02  0.7816164E-02  0.1184000E+00
        -11   -1    0    0    0    0  0.00000000000E+00  0.00000000000E+00  0.45593999997E+02  0.45594000000E+02  0.51100000000E-03 0.  1.
         11   -1    0    0    0    0 -0.00000000000E+00 -0.00000000000E+00 -0.45593999997E+02  0.45594000000E+02  0.51100000000E-03 0. -1.
         23    2    1    2    0    0  0.22204460493E-15  0.00000000000E+00  0.00000000000E+00  0.91188000000E+02  0.91188000000E+02 0.  0.
    9900012    2    3    3    0    0 -0.10762399399E+01  0.19456259081E+02 -0.31242232667E+02  0.54367062860E+02  0.39999951401E+02 0.  0.
        -12    1    3    3    0    0  0.10762399399E+01 -0.19456259081E+02  0.31242232667E+02  0.36820937140E+02  0.00000000000E+00 0.  1.
         11    1    4    4    0    0  0.98511001800E+01  0.29835801428E+01 -0.12235512504E+02  0.15989174204E+02  0.51100000000E-03 0. -1.
        -11    1    4    4    0    0  0.50498552631E+01  0.15902605104E+02 -0.58764378501E+01  0.17689726096E+02  0.51100000000E-03 0.  1.
         12    1    4    4    0    0 -0.15977195383E+02  0.57007383431E+00 -0.13130282313E+02  0.20688162560E+02  0.00000000000E+00 0. -1.
</event>
<event>
 8    1  0.1229941E-006  0.9118800E+02  0.7816164E-02  0.1184000E+00
        -11   -1    0    0    0    0  0.00000000000E+00  0.00000000000E+00  0.45593999997E+02  0.45594000000E+02  0.51100000000E-03 0.  1.
         11   -1    0    0    0    0 -0.00000000000E+00 -0.00000000000E+00 -0.45593999997E+02  0.45594000000E+02  0.51100000000E-03 0. -1.
         23    2    1    2    0    0 -0.17763568394E-14 -0.35527136788E-14  0.00000000000E+00  0.91188000000E+02  0.91188000000E+02 0.  0.
    9900012    2    3    3    0    0  0.15526376091E+02 -0.25466946546E+02  0.21590423162E+02  0.54367080766E+02  0.39999992223E+02 0.  0.
         12    1    3    3    0    0 -0.15526376091E+02  0.25466946546E+02 -0.21590423162E+02  0.36820919234E+02  0.00000000000E+00 0. -1.
         11    1    4    4    0    0 -0.14663374458E+01 -0.14117926114E+01 -0.64477113614E+01  0.67613819551E+01  0.51100000000E-03 0. -1.
        -11    1    4    4    0    0  0.23321490795E+02 -0.18195178167E+02  0.19248711894E+02  0.35291207847E+02  0.51100000000E-03 0.  1.
        -12    1    4    4    0    0 -0.63287772577E+01 -0.58599757672E+01  0.87894226285E+01  0.12314490964E+02  0.00000000000E+00 0.  1.
</event>
<event>
 8    1  0.1229941E-006  0.9118800E+02  0.7816164E-02  0.1184000E+00
        -11   -1    0    0    0    0  0.00000000000E+00  0.00000000000E+00  0.45593999997E+02  0.45594000000E+02  0.51100000000E-03 0. -1.
         11   -1    0    0    0    0 -0.00000000000E+00 -0.00000000000E+00 -0.45593999997E+02  0.45594000000E+02  0.51100000000E-03 0.  1.
         23    2    1    2    0    0  0.71054273576E-14  0.13322676296E-14  0.00000000000E+00  0.91188000000E+02  0.91188000000E+02 0.  0.
    9900012    2    3    3    0    0 -0.36397905069E+02  0.32529661692E+01  0.45155353588E+01  0.54367090969E+02  0.40000015482E+02 0.  0.
        -12    1    3    3    0    0  0.36397905069E+02 -0.32529661692E+01 -0.45155353588E+01  0.36820909031E+02  0.00000000000E+00 0.  1.
         11    1    4    4    0    0 -0.10039313797E+02 -0.76232425873E+01 -0.10545270072E+01  0.12649651241E+02  0.51100000000E-03 0. -1.
        -11    1    4    4    0    0  0.26403182269E+01 -0.63586291486E+01 -0.19493190751E+01  0.71556474275E+01  0.51100000000E-03 0.  1.
         12    1    4    4    0    0 -0.28998909499E+02  0.17234837905E+02  0.75193814411E+01  0.34561792300E+02  0.00000000000E+00 0. -1.
</event>
<event>
 8    1  0.1229941E-006  0.9118800E+02  0.7816164E-02  0.1184000E+00
        -11   -1    0    0    0    0  0.00000000000E+00  0.00000000000E+00  0.45593999997E+02  0.45594000000E+02  0.51100000000E-03 0. -1.
         11   -1    0    0    0    0 -0.00000000000E+00 -0.00000000000E+00 -0.45593999997E+02  0.45594000000E+02  0.51100000000E-03 0.  1.
         23    2    1    2    0    0  0.00000000000E+00  0.17763568394E-14  0.00000000000E+00  0.91188000000E+02  0.91188000000E+02 0.  0.
    9900012    2    3    3    0    0  0.51432554861E+01 -0.85894968336E+01  0.35433691780E+02  0.54367094987E+02  0.40000024641E+02 0.  0.
        -12    1    3    3    0    0 -0.51432554861E+01  0.85894968336E+01 -0.35433691780E+02  0.36820905013E+02  0.00000000000E+00 0.  1.
         11    1    4    4    0    0 -0.71789518940E+01 -0.20540642345E+02  0.17590498588E+02  0.27980010347E+02  0.51100000000E-03 0. -1.
        -11    1    4    4    0    0  0.84686594338E+01  0.27500800084E+01  0.53043676821E+01  0.10364238970E+02  0.51100000000E-03 0.  1.
         12    1    4    4    0    0  0.38535479462E+01  0.92010655026E+01  0.12538825510E+02  0.16022845669E+02  0.00000000000E+00 0. -1.
</event>
<event>
 8    1  0.1229941E-006  0.9118800E+02  0.7816164E-02  0.1184000E+00
        -11   -1    0    0    0    0  0.00000000000E+00  0.00000000000E+00  0.45593999997E+02  0.45594000000E+02  0.51100000000E-03 0.  1.
         11   -1    0    0    0    0 -0.00000000000E+00 -0.00000000000E+00 -0.45593999997E+02  0.45594000000E+02  0.51100000000E-03 0. -1.
         23    2    1    2    0    0 -0.17763568394E-14  0.00000000000E+00  0.35527136788E-14  0.91188000000E+02  0.91188000000E+02 0.  0.
    9900012    2    3    3    0    0 -0.13162928247E+02  0.12878962761E+02  0.31884969093E+02  0.54367060090E+02  0.39999945086E+02 0.  0.
         12    1    3    3    0    0  0.13162928247E+02 -0.12878962761E+02 -0.31884969093E+02  0.36820939910E+02  0.00000000000E+00 0. -1.
         11    1    4    4    0    0 -0.19342598896E+02  0.64252372331E+01  0.20427948307E+02  0.28856903469E+02  0.51100000000E-03 0. -1.
        -11    1    4    4    0    0  0.22896430025E+01  0.55470385034E+01  0.17368357559E+02  0.18375852247E+02  0.51100000000E-03 0.  1.
         12    1    4    4    0    0  0.38900276469E+01  0.90668702459E+00 -0.59113367728E+01  0.71343043736E+01  0.00000000000E+00 0. -1.
</event>
<event>
 8    1  0.1229941E-006  0.9118800E+02  0.7816164E-02  0.1184000E+00
        -11   -1    0    0    0    0  0.00000000000E+00  0.00000000000E+00  0.45593999997E+02  0.45594000000E+02  0.51100000000E-03 0.  1.
         11   -1    0    0    0    0 -0.00000000000E+00 -0.00000000000E+00 -0.45593999997E+02  0.45594000000E+02  0.51100000000E-03 0. -1.
         23    2    1    2    0    0 -0.35527136788E-14  0.44408920985E-15 -0.35527136788E-14  0.91188000000E+02  0.91188000000E+02 0.  0.
    9900012    2    3    3    0    0 -0.24946292786E+02 -0.32169807384E+01  0.26890765787E+02  0.54367085109E+02  0.40000002122E+02 0.  0.
         12    1    3    3    0    0  0.24946292786E+02  0.32169807384E+01 -0.26890765787E+02  0.36820914891E+02  0.00000000000E+00 0. -1.
         11    1    4    4    0    0 -0.16151602929E+02 -0.28985701341E+01  0.54597908616E+01  0.17294082876E+02  0.51100000000E-03 0. -1.
        -11    1    4    4    0    0 -0.13798027581E+02  0.10788333155E+02  0.90930294563E+01  0.19734661952E+02  0.51100000000E-03 0.  1.
         12    1    4    4    0    0  0.50033377240E+01 -0.11106743759E+02  0.12337945469E+02  0.17338340281E+02  0.00000000000E+00 0. -1.
</event>
<event>
 8    1  0.1229941E-006  0.9118800E+02  0.7816164E-02  0.1184000E+00
        -11   -1    0    0    0    0  0.00000000000E+00  0.00000000000E+00  0.45593999997E+02  0.45594000000E+02  0.51100000000E-03 0.  1.
         11   -1    0    0    0    0 -0.00000000000E+00 -0.00000000000E+00 -0.45593999997E+02  0.45594000000E+02  0.51100000000E-03 0. -1.
         23    2    1    2    0    0  0.00000000000E+00  0.00000000000E+00  0.35527136788E-14  0.91188000000E+02  0.91188000000E+02 0.  0.
    9900012    2    3    3    0    0 -0.10225979823E+02  0.24917512241E+02 -0.25106333382E+02  0.54367067699E+02  0.39999962434E+02 0.  0.
        -12    1    3    3    0    0  0.10225979823E+02 -0.24917512241E+02  0.25106333382E+02  0.36820932301E+02  0.00000000000E+00 0.  1.
         11    1    4    4    0    0 -0.20653445499E+02  0.20274905246E+02 -0.19366520608E+02  0.34823823949E+02  0.51100000000E-03 0. -1.
        -11    1    4    4    0    0 -0.27843968496E+01  0.46325466149E+01 -0.93738207444E+00  0.54856211471E+01  0.51100000000E-03 0.  1.
        -12    1    4    4    0    0  0.13211862526E+02  0.10060380691E-01 -0.48024306997E+01  0.14057622603E+02  0.00000000000E+00 0.  1.
</event>
<event>
 8    1  0.1229941E-006  0.9118800E+02  0.7816164E-02  0.1184000E+00
        -11   -1    0    0    0    0  0.00000000000E+00  0.00000000000E+00  0.45593999997E+02  0.45594000000E+02  0.51100000000E-03 0. -1.
         11   -1    0    0    0    0 -0.00000000000E+00 -0.00000000000E+00 -0.45593999997E+02  0.45594000000E+02  0.51100000000E-03 0.  1.
         23    2    1    2    0    0  0.00000000000E+00  0.00000000000E+00 -0.35527136788E-14  0.91188000000E+02  0.91188000000E+02 0.  0.
    9900012    2    3    3    0    0 -0.99437985237E+01  0.21334793158E+02  0.28314759883E+02  0.54367107080E+02  0.40000052211E+02 0.  0.
        -12    1    3    3    0    0  0.99437985237E+01 -0.21334793158E+02 -0.28314759883E+02  0.36820892920E+02  0.00000000000E+00 0.  1.
         11    1    4    4    0    0  0.46472165926E+01  0.13323675427E+02  0.22958145114E+02  0.26947975365E+02  0.51100000000E-03 0. -1.
        -11    1    4    4    0    0 -0.31141613945E+01  0.11261411584E+02  0.92168888748E+01  0.14881815509E+02  0.51100000000E-03 0.  1.
        -12    1    4    4    0    0 -0.11476853722E+02 -0.32502938522E+01 -0.38602741066E+01  0.12537316206E+02  0.00000000000E+00 0.  1.
</event>
<event>
 8    1  0.1229941E-006  0.9118800E+02  0.7816164E-02  0.1184000E+00
        -11   -1    0    0    0    0  0.00000000000E+00  0.00000000000E+00  0.45593999997E+02  0.45594000000E+02  0.51100000000E-03 0. -1.
         11   -1    0    0    0    0 -0.00000000000E+00 -0.00000000000E+00 -0.45593999997E+02  0.45594000000E+02  0.51100000000E-03 0.  1.
         23    2    1    2    0    0  0.00000000000E+00  0.61062266354E-15  0.35527136788E-14  0.91188000000E+02  0.91188000000E+02 0.  0.
    9900012    2    3    3    0    0  0.19223620228E+02 -0.17647984510E+00  0.31403849205E+02  0.54367075722E+02  0.39999980724E+02 0.  0.
        -12    1    3    3    0    0 -0.19223620228E+02  0.17647984510E+00 -0.31403849205E+02  0.36820924278E+02  0.00000000000E+00 0.  1.
         11    1    4    4    0    0  0.20279532444E+02  0.80419997144E+01  0.29332453005E+02  0.36555792908E+02  0.51100000000E-03 0.  1.
        -11    1    4    4    0    0 -0.30475183275E+01 -0.34445235854E+00 -0.57619331054E+01  0.65273186498E+01  0.51100000000E-03 0. -1.
         12    1    4    4    0    0  0.19916061116E+01 -0.78740272009E+01  0.78333293051E+01  0.11283964165E+02  0.00000000000E+00 0. -1.
</event>
<event>
 8    1  0.1229941E-006  0.9118800E+02  0.7816164E-02  0.1184000E+00
        -11   -1    0    0    0    0  0.00000000000E+00  0.00000000000E+00  0.45593999997E+02  0.45594000000E+02  0.51100000000E-03 0. -1.
         11   -1    0    0    0    0 -0.00000000000E+00 -0.00000000000E+00 -0.45593999997E+02  0.45594000000E+02  0.51100000000E-03 0.  1.
         23    2    1    2    0    0 -0.88817841970E-15  0.00000000000E+00  0.71054273576E-14  0.91188000000E+02  0.91188000000E+02 0.  0.
    9900012    2    3    3    0    0 -0.73794305879E+01  0.15187751477E+02 -0.32720881926E+02  0.54367083326E+02  0.39999998057E+02 0.  0.
         12    1    3    3    0    0  0.73794305879E+01 -0.15187751477E+02  0.32720881926E+02  0.36820916674E+02  0.00000000000E+00 0. -1.
         11    1    4    4    0    0  0.56601613035E+01  0.91125574360E+01 -0.37872379732E+01  0.11376260402E+02  0.51100000000E-03 0. -1.
        -11    1    4    4    0    0 -0.62924547262E-02  0.91562700390E+01 -0.28120492718E+02  0.29573627298E+02  0.51100000000E-03 0.  1.
         12    1    4    4    0    0 -0.13033299437E+02 -0.30810759982E+01 -0.81315123490E+00  0.13417195625E+02  0.00000000000E+00 0. -1.
</event>
<event>
 8    1  0.1229941E-006  0.9118800E+02  0.7816164E-02  0.1184000E+00
        -11   -1    0    0    0    0  0.00000000000E+00  0.00000000000E+00  0.45593999997E+02  0.45594000000E+02  0.51100000000E-03 0.  1.
         11   -1    0    0    0    0 -0.00000000000E+00 -0.00000000000E+00 -0.45593999997E+02  0.45594000000E+02  0.51100000000E-03 0. -1.
         23    2    1    2    0    0  0.00000000000E+00  0.00000000000E+00 -0.61062266354E-15  0.91188000000E+02  0.91188000000E+02 0.  0.
    9900012    2    3    3    0    0  0.36184349942E+02  0.68114988372E+01 -0.26457984313E+00  0.54367167586E+02  0.40000190145E+02 0.  0.
         12    1    3    3    0    0 -0.36184349942E+02 -0.68114988372E+01  0.26457984313E+00  0.36820832414E+02  0.00000000000E+00 0. -1.
         11    1    4    4    0    0  0.88709881548E-01  0.91468703871E+00  0.70854248882E+01  0.71447720698E+01  0.51100000000E-03 0. -1.
        -11    1    4    4    0    0  0.14952880843E+01  0.42740008424E+01  0.81116009712E+01  0.92898353179E+01  0.51100000000E-03 0.  1.
        -12    1    4    4    0    0  0.34600351977E+02  0.16228109562E+01 -0.15461605703E+02  0.37932560198E+02  0.00000000000E+00 0.  1.
</event>
<event>
 8    1  0.1229941E-006  0.9118800E+02  0.7816164E-02  0.1184000E+00
        -11   -1    0    0    0    0  0.00000000000E+00  0.00000000000E+00  0.45593999997E+02  0.45594000000E+02  0.51100000000E-03 0.  1.
         11   -1    0    0    0    0 -0.00000000000E+00 -0.00000000000E+00 -0.45593999997E+02  0.45594000000E+02  0.51100000000E-03 0. -1.
         23    2    1    2    0    0  0.00000000000E+00  0.17763568394E-14 -0.88817841970E-15  0.91188000000E+02  0.91188000000E+02 0.  0.
    9900012    2    3    3    0    0  0.35501133989E+02 -0.68999369837E+01  0.69168254448E+01  0.54367053256E+02  0.39999929508E+02 0.  0.
        -12    1    3    3    0    0 -0.35501133989E+02  0.68999369837E+01 -0.69168254448E+01  0.36820946744E+02  0.00000000000E+00 0.  1.
         11    1    4    4    0    0  0.28685196948E+02 -0.10711646923E+02  0.98874146865E+01  0.32176713213E+02  0.51100000000E-03 0. -1.
        -11    1    4    4    0    0 -0.39824584372E+00 -0.49697418308E+01  0.59355212104E+01  0.77516027966E+01  0.51100000000E-03 0.  1.
         12    1    4    4    0    0  0.72141828842E+01  0.87814517705E+01 -0.89061104521E+01  0.14438737246E+02  0.00000000000E+00 0. -1.
</event>
<event>
 8    1  0.1229941E-006  0.9118800E+02  0.7816164E-02  0.1184000E+00
        -11   -1    0    0    0    0  0.00000000000E+00  0.00000000000E+00  0.45593999997E+02  0.45594000000E+02  0.51100000000E-03 0.  1.
         11   -1    0    0    0    0 -0.00000000000E+00 -0.00000000000E+00 -0.45593999997E+02  0.45594000000E+02  0.51100000000E-03 0. -1.
         23    2    1    2    0    0  0.00000000000E+00  0.35527136788E-14 -0.88817841970E-15  0.91188000000E+02  0.91188000000E+02 0.  0.
    9900012    2    3    3    0    0  0.20798347830E+02  0.29341470805E+02 -0.78921770442E+01  0.54367086921E+02  0.40000006254E+02 0.  0.
         12    1    3    3    0    0 -0.20798347830E+02 -0.29341470805E+02  0.78921770442E+01  0.36820913079E+02  0.00000000000E+00 0. -1.
         11    1    4    4    0    0  0.27290854618E+02  0.99042855366E+01 -0.10660613218E+02  0.30927888583E+02  0.51100000000E-03 0. -1.
        -11    1    4    4    0    0 -0.70627364319E+00  0.15732103716E+02 -0.65740543739E+00  0.15761665266E+02  0.51100000000E-03 0.  1.
         12    1    4    4    0    0 -0.57862331454E+01  0.37050815531E+01  0.34258416108E+01  0.76775330719E+01  0.00000000000E+00 0. -1.
</event>
<event>
 8    1  0.1229941E-006  0.9118800E+02  0.7816164E-02  0.1184000E+00
        -11   -1    0    0    0    0  0.00000000000E+00  0.00000000000E+00  0.45593999997E+02  0.45594000000E+02  0.51100000000E-03 0. -1.
         11   -1    0    0    0    0 -0.00000000000E+00 -0.00000000000E+00 -0.45593999997E+02  0.45594000000E+02  0.51100000000E-03 0.  1.
         23    2    1    2    0    0 -0.88817841970E-15  0.00000000000E+00  0.35527136788E-14  0.91188000000E+02  0.91188000000E+02 0.  0.
    9900012    2    3    3    0    0  0.49369128555E+01 -0.32780201990E+02 -0.16027037787E+02  0.54367072645E+02  0.39999973709E+02 0.  0.
         12    1    3    3    0    0 -0.49369128555E+01  0.32780201990E+02  0.16027037787E+02  0.36820927355E+02  0.00000000000E+00 0. -1.
         11    1    4    4    0    0  0.62911575039E+00 -0.18139202874E+02 -0.71291956160E+01  0.19500048665E+02  0.51100000000E-03 0. -1.
        -11    1    4    4    0    0  0.12507344140E+02 -0.19110644772E+02 -0.10913792107E+02  0.25313262521E+02  0.51100000000E-03 0.  1.
         12    1    4    4    0    0 -0.81995470353E+01  0.44696456558E+01  0.20159499360E+01  0.95537614591E+01  0.00000000000E+00 0. -1.
</event>
<event>
 8    1  0.1229941E-006  0.9118800E+02  0.7816164E-02  0.1184000E+00
        -11   -1    0    0    0    0  0.00000000000E+00  0.00000000000E+00  0.45593999997E+02  0.45594000000E+02  0.51100000000E-03 0. -1.
         11   -1    0    0    0    0 -0.00000000000E+00 -0.00000000000E+00 -0.45593999997E+02  0.45594000000E+02  0.51100000000E-03 0.  1.
         23    2    1    2    0    0  0.00000000000E+00  0.00000000000E+00  0.00000000000E+00  0.91188000000E+02  0.91188000000E+02 0.  0.
    9900012    2    3    3    0    0 -0.28168534808E+02  0.43482389299E+01 -0.23311090476E+02  0.54367075593E+02  0.39999980428E+02 0.  0.
         12    1    3    3    0    0  0.28168534808E+02 -0.43482389299E+01  0.23311090476E+02  0.36820924407E+02  0.00000000000E+00 0. -1.
         11    1    4    4    0    0 -0.94809061017E+01  0.49379527994E+01  0.44517334298E+01  0.11579675693E+02  0.51100000000E-03 0. -1.
        -11    1    4    4    0    0 -0.22073529500E+02  0.14569560876E+01 -0.94558324948E+01  0.24057767853E+02  0.51100000000E-03 0.  1.
        -12    1    4    4    0    0  0.33859007932E+01 -0.20466699571E+01 -0.18306991411E+02  0.18729632047E+02  0.00000000000E+00 0.  1.
</event>
<event>
 8    1  0.1229941E-006  0.9118800E+02  0.7816164E-02  0.1184000E+00
        -11   -1    0    0    0    0  0.00000000000E+00  0.00000000000E+00  0.45593999997E+02  0.45594000000E+02  0.51100000000E-03 0. -1.
         11   -1    0    0    0    0 -0.00000000000E+00 -0.00000000000E+00 -0.45593999997E+02  0.45594000000E+02  0.51100000000E-03 0.  1.
         23    2    1    2    0    0  0.17763568394E-14  0.00000000000E+00 -0.35527136788E-14  0.91188000000E+02  0.91188000000E+02 0.  0.
    9900012    2    3    3    0    0  0.11990056290E+02 -0.16901510328E+02  0.30436109827E+02  0.54367091774E+02  0.40000017316E+02 0.  0.
        -12    1    3    3    0    0 -0.11990056290E+02  0.16901510328E+02 -0.30436109827E+02  0.36820908226E+02  0.00000000000E+00 0.  1.
         11    1    4    4    0    0 -0.21203745104E+01  0.25275390647E+01  0.56693557514E+00  0.33475151972E+01  0.51100000000E-03 0. -1.
        -11    1    4    4    0    0 -0.40043861064E+01  0.28716344633E+01 -0.41846867989E+01  0.64647503004E+01  0.51100000000E-03 0.  1.
         12    1    4    4    0    0  0.18114816907E+02 -0.22300683856E+02  0.34053861051E+02  0.44554826276E+02  0.00000000000E+00 0. -1.
</event>
<event>
 8    1  0.1229941E-006  0.9118800E+02  0.7816164E-02  0.1184000E+00
        -11   -1    0    0    0    0  0.00000000000E+00  0.00000000000E+00  0.45593999997E+02  0.45594000000E+02  0.51100000000E-03 0. -1.
         11   -1    0    0    0    0 -0.00000000000E+00 -0.00000000000E+00 -0.45593999997E+02  0.45594000000E+02  0.51100000000E-03 0.  1.
         23    2    1    2    0    0 -0.35527136788E-14  0.00000000000E+00  0.00000000000E+00  0.91188000000E+02  0.91188000000E+02 0.  0.
    9900012    2    3    3    0    0  0.25422981948E+02 -0.18743156372E+02 -0.18924636930E+02  0.54367138999E+02  0.40000124976E+02 0.  0.
         12    1    3    3    0    0 -0.25422981948E+02  0.18743156372E+02  0.18924636930E+02  0.36820861001E+02  0.00000000000E+00 0. -1.
         11    1    4    4    0    0  0.21604259815E+01  0.84671497642E+00  0.42388679995E+01  0.48324288770E+01  0.51100000000E-03 0. -1.
        -11    1    4    4    0    0  0.24739569581E+02 -0.14070819777E+02 -0.30483022018E+01  0.28623878473E+02  0.51100000000E-03 0.  1.
        -12    1    4    4    0    0 -0.14770136153E+01 -0.55190515716E+01 -0.20115202728E+02  0.20910831649E+02  0.00000000000E+00 0.  1.
</event>
<event>
 8    1  0.1229941E-006  0.9118800E+02  0.7816164E-02  0.1184000E+00
        -11   -1    0    0    0    0  0.00000000000E+00  0.00000000000E+00  0.45593999997E+02  0.45594000000E+02  0.51100000000E-03 0.  1.
         11   -1    0    0    0    0 -0.00000000000E+00 -0.00000000000E+00 -0.45593999997E+02  0.45594000000E+02  0.51100000000E-03 0. -1.
         23    2    1    2    0    0 -0.44408920985E-15 -0.71054273576E-14 -0.17763568394E-14  0.91188000000E+02  0.91188000000E+02 0.  0.
    9900012    2    3    3    0    0  0.11025585037E+01  0.33721823118E+02  0.14744594556E+02  0.54367081241E+02  0.39999993305E+02 0.  0.
         12    1    3    3    0    0 -0.11025585037E+01 -0.33721823118E+02 -0.14744594556E+02  0.36820918759E+02  0.00000000000E+00 0. -1.
         11    1    4    4    0    0 -0.65705829215E+00  0.70357790234E+01 -0.60315309366E+01  0.92904939462E+01  0.51100000000E-03 0. -1.
        -11    1    4    4    0    0 -0.35459752683E+01 -0.41872930914E+01 -0.25198422275E+01  0.60379606780E+01  0.51100000000E-03 0.  1.
        -12    1    4    4    0    0  0.53055920641E+01  0.30873337186E+02  0.23295967720E+02  0.39038626617E+02  0.00000000000E+00 0.  1.
</event>
<event>
 8    1  0.1229941E-006  0.9118800E+02  0.7816164E-02  0.1184000E+00
        -11   -1    0    0    0    0  0.00000000000E+00  0.00000000000E+00  0.45593999997E+02  0.45594000000E+02  0.51100000000E-03 0.  1.
         11   -1    0    0    0    0 -0.00000000000E+00 -0.00000000000E+00 -0.45593999997E+02  0.45594000000E+02  0.51100000000E-03 0. -1.
         23    2    1    2    0    0 -0.88817841970E-15  0.00000000000E+00  0.00000000000E+00  0.91188000000E+02  0.91188000000E+02 0.  0.
    9900012    2    3    3    0    0  0.79791484500E+01 -0.33604044663E+02 -0.12762493035E+02  0.54367083985E+02  0.39999999561E+02 0.  0.
        -12    1    3    3    0    0 -0.79791484500E+01  0.33604044663E+02  0.12762493035E+02  0.36820916015E+02  0.00000000000E+00 0.  1.
         11    1    4    4    0    0  0.38762241838E+01 -0.12233457576E+02 -0.61461679331E+00  0.12847581572E+02  0.51100000000E-03 0. -1.
        -11    1    4    4    0    0  0.72731565761E+01 -0.28549513336E+02 -0.32263227381E+01  0.29637521438E+02  0.51100000000E-03 0.  1.
         12    1    4    4    0    0 -0.31702323100E+01  0.71789262489E+01 -0.89215535035E+01  0.11881980976E+02  0.00000000000E+00 0. -1.
</event>
<event>
 8    1  0.1229941E-006  0.9118800E+02  0.7816164E-02  0.1184000E+00
        -11   -1    0    0    0    0  0.00000000000E+00  0.00000000000E+00  0.45593999997E+02  0.45594000000E+02  0.51100000000E-03 0. -1.
         11   -1    0    0    0    0 -0.00000000000E+00 -0.00000000000E+00 -0.45593999997E+02  0.45594000000E+02  0.51100000000E-03 0.  1.
         23    2    1    2    0    0  0.35527136788E-14  0.15543122345E-14  0.35527136788E-14  0.91188000000E+02  0.91188000000E+02 0.  0.
    9900012    2    3    3    0    0  0.31875002052E+02  0.15446774539E+01  0.18367863516E+02  0.54367079393E+02  0.39999989092E+02 0.  0.
        -12    1    3    3    0    0 -0.31875002052E+02 -0.15446774539E+01 -0.18367863516E+02  0.36820920607E+02  0.00000000000E+00 0.  1.
         11    1    4    4    0    0  0.12536676458E+01  0.83964140061E+00 -0.71943243941E+01  0.73508492024E+01  0.51100000000E-03 0. -1.
        -11    1    4    4    0    0  0.35760830995E+01  0.10033165953E+02  0.90988705383E+01  0.14008648569E+02  0.51100000000E-03 0.  1.
         12    1    4    4    0    0  0.27045251306E+02 -0.93281299001E+01  0.16463317372E+02  0.33007581622E+02  0.00000000000E+00 0. -1.
</event>
<event>
 8    1  0.1229941E-006  0.9118800E+02  0.7816164E-02  0.1184000E+00
        -11   -1    0    0    0    0  0.00000000000E+00  0.00000000000E+00  0.45593999997E+02  0.45594000000E+02  0.51100000000E-03 0.  1.
         11   -1    0    0    0    0 -0.00000000000E+00 -0.00000000000E+00 -0.45593999997E+02  0.45594000000E+02  0.51100000000E-03 0. -1.
         23    2    1    2    0    0  0.00000000000E+00 -0.71054273576E-14  0.17763568394E-14  0.91188000000E+02  0.91188000000E+02 0.  0.
    9900012    2    3    3    0    0  0.84364535652E+01  0.34305546958E+02 -0.10379668816E+02  0.54367057242E+02  0.39999938595E+02 0.  0.
         12    1    3    3    0    0 -0.84364535652E+01 -0.34305546958E+02  0.10379668816E+02  0.36820942758E+02  0.00000000000E+00 0. -1.
         11    1    4    4    0    0  0.11252395477E+02  0.12573603296E+02 -0.13077048898E+02  0.21347625440E+02  0.51100000000E-03 0.  1.
        -11    1    4    4    0    0 -0.98959916410E+01  0.15285346471E+01  0.55070262872E+01  0.11427791016E+02  0.51100000000E-03 0. -1.
         12    1    4    4    0    0  0.70800497297E+01  0.20203409015E+02 -0.28096462059E+01  0.21591640786E+02  0.00000000000E+00 0. -1.
</event>
<event>
 8    1  0.1229941E-006  0.9118800E+02  0.7816164E-02  0.1184000E+00
        -11   -1    0    0    0    0  0.00000000000E+00  0.00000000000E+00  0.45593999997E+02  0.45594000000E+02  0.51100000000E-03 0.  1.
         11   -1    0    0    0    0 -0.00000000000E+00 -0.00000000000E+00 -0.45593999997E+02  0.45594000000E+02  0.51100000000E-03 0. -1.
         23    2    1    2    0    0 -0.35527136788E-14  0.00000000000E+00  0.00000000000E+00  0.91188000000E+02  0.91188000000E+02 0.  0.
    9900012    2    3    3    0    0 -0.31547144718E+02 -0.10476780110E+02 -0.15836432849E+02  0.54367111001E+02  0.40000061148E+02 0.  0.
        -12    1    3    3    0    0  0.31547144718E+02  0.10476780110E+02  0.15836432849E+02  0.36820888999E+02  0.00000000000E+00 0.  1.
         11    1    4    4    0    0  0.87946332915E+00 -0.96836601390E+00 -0.16863348236E+02  0.16914009059E+02  0.51100000000E-03 0. -1.
        -11    1    4    4    0    0 -0.56581422146E+01  0.11174127471E+01 -0.54481965147E+01  0.79338534201E+01  0.51100000000E-03 0.  1.
        -12    1    4    4    0    0 -0.26768465832E+02 -0.10625826843E+02  0.64751119010E+01  0.29519248521E+02  0.00000000000E+00 0.  1.
</event>
<event>
 8    1  0.1229941E-006  0.9118800E+02  0.7816164E-02  0.1184000E+00
        -11   -1    0    0    0    0  0.00000000000E+00  0.00000000000E+00  0.45593999997E+02  0.45594000000E+02  0.51100000000E-03 0. -1.
         11   -1    0    0    0    0 -0.00000000000E+00 -0.00000000000E+00 -0.45593999997E+02  0.45594000000E+02  0.51100000000E-03 0.  1.
         23    2    1    2    0    0  0.00000000000E+00  0.35527136788E-14 -0.35527136788E-14  0.91188000000E+02  0.91188000000E+02 0.  0.
    9900012    2    3    3    0    0 -0.92945574732E+01  0.28350925509E+02 -0.21578163575E+02  0.54367069551E+02  0.39999966656E+02 0.  0.
         12    1    3    3    0    0  0.92945574732E+01 -0.28350925509E+02  0.21578163575E+02  0.36820930449E+02  0.00000000000E+00 0. -1.
         11    1    4    4    0    0  0.10360006168E+02  0.11655758641E+01 -0.73055174084E+00  0.10450933020E+02  0.51100000000E-03 0. -1.
        -11    1    4    4    0    0  0.32007160023E+01  0.42209420298E+01 -0.67552202441E+01  0.85845171882E+01  0.51100000000E-03 0.  1.
        -12    1    4    4    0    0 -0.22855279643E+02  0.22964407615E+02 -0.14092391590E+02  0.35331619343E+02  0.00000000000E+00 0.  1.
</event>
<event>
 8    1  0.1229941E-006  0.9118800E+02  0.7816164E-02  0.1184000E+00
        -11   -1    0    0    0    0  0.00000000000E+00  0.00000000000E+00  0.45593999997E+02  0.45594000000E+02  0.51100000000E-03 0.  1.
         11   -1    0    0    0    0 -0.00000000000E+00 -0.00000000000E+00 -0.45593999997E+02  0.45594000000E+02  0.51100000000E-03 0. -1.
         23    2    1    2    0    0 -0.35527136788E-14  0.35527136788E-14  0.00000000000E+00  0.91188000000E+02  0.91188000000E+02 0.  0.
    9900012    2    3    3    0    0 -0.17597841146E+02 -0.22806546265E+02 -0.22933847699E+02  0.54367028586E+02  0.39999873268E+02 0.  0.
        -12    1    3    3    0    0  0.17597841146E+02  0.22806546265E+02  0.22933847699E+02  0.36820971414E+02  0.00000000000E+00 0.  1.
         11    1    4    4    0    0 -0.24189431890E+01 -0.52997191595E+01 -0.14605111183E+02  0.15724108314E+02  0.51100000000E-03 0. -1.
        -11    1    4    4    0    0  0.32673706911E+01 -0.16011660595E+02 -0.11342675641E+02  0.19892342175E+02  0.51100000000E-03 0.  1.
        -12    1    4    4    0    0 -0.18446268648E+02 -0.14951665108E+01  0.30139391256E+01  0.18750578098E+02  0.00000000000E+00 0.  1.
</event>
<event>
 8    1  0.1229941E-006  0.9118800E+02  0.7816164E-02  0.1184000E+00
        -11   -1    0    0    0    0  0.00000000000E+00  0.00000000000E+00  0.45593999997E+02  0.45594000000E+02  0.51100000000E-03 0. -1.
         11   -1    0    0    0    0 -0.00000000000E+00 -0.00000000000E+00 -0.45593999997E+02  0.45594000000E+02  0.51100000000E-03 0.  1.
         23    2    1    2    0    0  0.17763568394E-14  0.00000000000E+00  0.00000000000E+00  0.91188000000E+02  0.91188000000E+02 0.  0.
    9900012    2    3    3    0    0  0.13411510725E+02 -0.20031249458E+01  0.34232996733E+02  0.54367092966E+02  0.40000020035E+02 0.  0.
        -12    1    3    3    0    0 -0.13411510725E+02  0.20031249458E+01 -0.34232996733E+02  0.36820907034E+02  0.00000000000E+00 0.  1.
         11    1    4    4    0    0 -0.74299545319E+01 -0.21740571642E+01  0.24390127346E+01  0.81166207427E+01  0.51100000000E-03 0. -1.
        -11    1    4    4    0    0  0.19622964748E+02 -0.30328366921E+01  0.67483650897E+01  0.20971391836E+02  0.51100000000E-03 0.  1.
         12    1    4    4    0    0  0.12185005086E+01  0.32037689105E+01  0.25045618908E+02  0.25279080387E+02  0.00000000000E+00 0. -1.
</event>
<event>
 8    1  0.1229941E-006  0.9118800E+02  0.7816164E-02  0.1184000E+00
        -11   -1    0    0    0    0  0.00000000000E+00  0.00000000000E+00  0.45593999997E+02  0.45594000000E+02  0.51100000000E-03 0.  1.
         11   -1    0    0    0    0 -0.00000000000E+00 -0.00000000000E+00 -0.45593999997E+02  0.45594000000E+02  0.51100000000E-03 0. -1.
         23    2    1    2    0    0 -0.35527136788E-14  0.00000000000E+00  0.00000000000E+00  0.91188000000E+02  0.91188000000E+02 0.  0.
    9900012    2    3    3    0    0 -0.26779760591E+02 -0.23461589202E+02  0.93903052612E+01  0.54367087761E+02  0.40000008169E+02 0.  0.
         12    1    3    3    0    0  0.26779760591E+02  0.23461589202E+02 -0.93903052612E+01  0.36820912239E+02  0.00000000000E+00 0. -1.
         11    1    4    4    0    0 -0.20144276254E+01  0.61670660777E+01 -0.58785251456E+01  0.87548661219E+01  0.51100000000E-03 0. -1.
        -11    1    4    4    0    0 -0.14165957815E+02 -0.81174704567E+01  0.14150046087E+02  0.21605357946E+02  0.51100000000E-03 0.  1.
        -12    1    4    4    0    0 -0.10599375151E+02 -0.21511184822E+02  0.11187843198E+01  0.24006863694E+02  0.00000000000E+00 0.  1.
</event>
<event>
 8    1  0.1229941E-006  0.9118800E+02  0.7816164E-02  0.1184000E+00
        -11   -1    0    0    0    0  0.00000000000E+00  0.00000000000E+00  0.45593999997E+02  0.45594000000E+02  0.51100000000E-03 0. -1.
         11   -1    0    0    0    0 -0.00000000000E+00 -0.00000000000E+00 -0.45593999997E+02  0.45594000000E+02  0.51100000000E-03 0.  1.
         23    2    1    2    0    0 -0.17763568394E-14  0.00000000000E+00  0.00000000000E+00  0.91188000000E+02  0.91188000000E+02 0.  0.
    9900012    2    3    3    0    0 -0.10796968424E+00 -0.19850470221E+02  0.31011731904E+02  0.54367077400E+02  0.39999984548E+02 0.  0.
        -12    1    3    3    0    0  0.10796968424E+00  0.19850470221E+02 -0.31011731904E+02  0.36820922600E+02  0.00000000000E+00 0.  1.
         11    1    4    4    0    0 -0.81629286696E+01  0.66834389396E+01  0.17021875833E+02  0.20026133367E+02  0.51100000000E-03 0. -1.
        -11    1    4    4    0    0  0.95602708889E+01 -0.15470004703E+02  0.25647258574E+01  0.18365664811E+02  0.51100000000E-03 0.  1.
         12    1    4    4    0    0 -0.15053119036E+01 -0.11063904458E+02  0.11425130214E+02  0.15975279221E+02  0.00000000000E+00 0. -1.
</event>
<event>
 8    1  0.1229941E-006  0.9118800E+02  0.7816164E-02  0.1184000E+00
        -11   -1    0    0    0    0  0.00000000000E+00  0.00000000000E+00  0.45593999997E+02  0.45594000000E+02  0.51100000000E-03 0.  1.
         11   -1    0    0    0    0 -0.00000000000E+00 -0.00000000000E+00 -0.45593999997E+02  0.45594000000E+02  0.51100000000E-03 0. -1.
         23    2    1    2    0    0  0.35527136788E-14  0.00000000000E+00 -0.66613381478E-15  0.91188000000E+02  0.91188000000E+02 0.  0.
    9900012    2    3    3    0    0 -0.27391393410E+02 -0.24578460301E+02  0.11794543353E+01  0.54367078553E+02  0.39999987176E+02 0.  0.
        -12    1    3    3    0    0  0.27391393410E+02  0.24578460301E+02 -0.11794543353E+01  0.36820921447E+02  0.00000000000E+00 0.  1.
         11    1    4    4    0    0 -0.29491285783E+01 -0.36258034673E+01 -0.63512263647E+01  0.78855492359E+01  0.51100000000E-03 0. -1.
        -11    1    4    4    0    0 -0.62527679853E+00  0.35199076691E+01 -0.81536018088E+01  0.89029177122E+01  0.51100000000E-03 0.  1.
        -12    1    4    4    0    0 -0.23816988033E+02 -0.24472564503E+02  0.15684282509E+02  0.37578611605E+02  0.00000000000E+00 0.  1.
</event>
<event>
 8    1  0.1229941E-006  0.9118800E+02  0.7816164E-02  0.1184000E+00
        -11   -1    0    0    0    0  0.00000000000E+00  0.00000000000E+00  0.45593999997E+02  0.45594000000E+02  0.51100000000E-03 0. -1.
         11   -1    0    0    0    0 -0.00000000000E+00 -0.00000000000E+00 -0.45593999997E+02  0.45594000000E+02  0.51100000000E-03 0.  1.
         23    2    1    2    0    0  0.00000000000E+00  0.00000000000E+00  0.35527136788E-14  0.91188000000E+02  0.91188000000E+02 0.  0.
    9900012    2    3    3    0    0  0.14074293620E+02  0.18139526332E+02  0.28786385173E+02  0.54367025980E+02  0.39999867327E+02 0.  0.
        -12    1    3    3    0    0 -0.14074293620E+02 -0.18139526332E+02 -0.28786385173E+02  0.36820974020E+02  0.00000000000E+00 0.  1.
         11    1    4    4    0    0 -0.12519783662E+02  0.10883216248E+02  0.44933084181E+01  0.17186599420E+02  0.51100000000E-03 0.  1.
        -11    1    4    4    0    0  0.75162566992E+01  0.94510089186E+00  0.98861490463E+01  0.12454849405E+02  0.51100000000E-03 0. -1.
         12    1    4    4    0    0  0.19077820583E+02  0.63112091927E+01  0.14406927708E+02  0.24725577155E+02  0.00000000000E+00 0. -1.
</event>
<event>
 8    1  0.1229941E-006  0.9118800E+02  0.7816164E-02  0.1184000E+00
        -11   -1    0    0    0    0  0.00000000000E+00  0.00000000000E+00  0.45593999997E+02  0.45594000000E+02  0.51100000000E-03 0.  1.
         11   -1    0    0    0    0 -0.00000000000E+00 -0.00000000000E+00 -0.45593999997E+02  0.45594000000E+02  0.51100000000E-03 0. -1.
         23    2    1    2    0    0  0.17763568394E-14 -0.17763568394E-14  0.00000000000E+00  0.91188000000E+02  0.91188000000E+02 0.  0.
    9900012    2    3    3    0    0  0.82117219690E+01  0.10196110079E+02 -0.34414925346E+02  0.54367080334E+02  0.39999991238E+02 0.  0.
        -12    1    3    3    0    0 -0.82117219690E+01 -0.10196110079E+02  0.34414925346E+02  0.36820919666E+02  0.00000000000E+00 0.  1.
         11    1    4    4    0    0 -0.30016706897E+01  0.20864608112E+02 -0.11537725941E+02  0.24030418614E+02  0.51100000000E-03 0. -1.
        -11    1    4    4    0    0 -0.16332381756E+01  0.14882273104E+01 -0.30634607550E+01  0.37771787784E+01  0.51100000000E-03 0.  1.
        -12    1    4    4    0    0  0.12846630834E+02 -0.12156725343E+02 -0.19813738650E+02  0.26559482942E+02  0.00000000000E+00 0.  1.
</event>
<event>
 8    1  0.1229941E-006  0.9118800E+02  0.7816164E-02  0.1184000E+00
        -11   -1    0    0    0    0  0.00000000000E+00  0.00000000000E+00  0.45593999997E+02  0.45594000000E+02  0.51100000000E-03 0.  1.
         11   -1    0    0    0    0 -0.00000000000E+00 -0.00000000000E+00 -0.45593999997E+02  0.45594000000E+02  0.51100000000E-03 0. -1.
         23    2    1    2    0    0 -0.35527136788E-14  0.00000000000E+00  0.00000000000E+00  0.91188000000E+02  0.91188000000E+02 0.  0.
    9900012    2    3    3    0    0  0.22622874487E+02  0.36789000969E+00  0.29049062354E+02  0.54367111679E+02  0.40000062695E+02 0.  0.
        -12    1    3    3    0    0 -0.22622874487E+02 -0.36789000969E+00 -0.29049062354E+02  0.36820888321E+02  0.00000000000E+00 0.  1.
         11    1    4    4    0    0 -0.22500677233E+01 -0.23339021876E+01  0.11113390009E+01  0.34270948071E+01  0.51100000000E-03 0.  1.
        -11    1    4    4    0    0  0.26326155379E+02 -0.11240605950E+01  0.39964673169E+01  0.26651486273E+02  0.51100000000E-03 0. -1.
        -12    1    4    4    0    0 -0.14532131688E+01  0.38258527922E+01  0.23941256036E+02  0.24288530599E+02  0.00000000000E+00 0.  1.
</event>
<event>
 8    1  0.1229941E-006  0.9118800E+02  0.7816164E-02  0.1184000E+00
        -11   -1    0    0    0    0  0.00000000000E+00  0.00000000000E+00  0.45593999997E+02  0.45594000000E+02  0.51100000000E-03 0. -1.
         11   -1    0    0    0    0 -0.00000000000E+00 -0.00000000000E+00 -0.45593999997E+02  0.45594000000E+02  0.51100000000E-03 0.  1.
         23    2    1    2    0    0  0.00000000000E+00  0.17763568394E-14 -0.71054273576E-14  0.91188000000E+02  0.91188000000E+02 0.  0.
    9900012    2    3    3    0    0 -0.13024792882E+02  0.10813879340E+02 -0.32698651146E+02  0.54366986940E+02  0.39999778328E+02 0.  0.
         12    1    3    3    0    0  0.13024792882E+02 -0.10813879340E+02  0.32698651146E+02  0.36821013060E+02  0.00000000000E+00 0. -1.
         11    1    4    4    0    0 -0.41640788987E+01 -0.44526726443E+01 -0.26126429582E+02  0.26828271836E+02  0.51100000000E-03 0.  1.
        -11    1    4    4    0    0 -0.11234635419E+01  0.13324979958E+02 -0.11937254544E+02  0.17925270082E+02  0.51100000000E-03 0. -1.
         12    1    4    4    0    0 -0.77372504409E+01  0.19415720258E+01  0.53650329801E+01  0.96134450222E+01  0.00000000000E+00 0. -1.
</event>
<event>
 8    1  0.1229941E-006  0.9118800E+02  0.7816164E-02  0.1184000E+00
        -11   -1    0    0    0    0  0.00000000000E+00  0.00000000000E+00  0.45593999997E+02  0.45594000000E+02  0.51100000000E-03 0. -1.
         11   -1    0    0    0    0 -0.00000000000E+00 -0.00000000000E+00 -0.45593999997E+02  0.45594000000E+02  0.51100000000E-03 0.  1.
         23    2    1    2    0    0  0.17763568394E-14 -0.14432899320E-14  0.00000000000E+00  0.91188000000E+02  0.91188000000E+02 0.  0.
    9900012    2    3    3    0    0  0.13373429370E+02 -0.59502531800E+00 -0.34301273998E+02  0.54367081134E+02  0.39999993061E+02 0.  0.
         12    1    3    3    0    0 -0.13373429370E+02  0.59502531800E+00  0.34301273998E+02  0.36820918866E+02  0.00000000000E+00 0. -1.
         11    1    4    4    0    0  0.10736654769E+01 -0.11459608506E+02 -0.66943297723E+01  0.13315007924E+02  0.51100000000E-03 0. -1.
        -11    1    4    4    0    0 -0.44437677376E+00 -0.61428183397E+01  0.66966735193E-01  0.61592347476E+01  0.51100000000E-03 0.  1.
        -12    1    4    4    0    0  0.12744140667E+02  0.17007401528E+02 -0.27673910961E+02  0.34892838462E+02  0.00000000000E+00 0.  1.
</event>
<event>
 8    1  0.1229941E-006  0.9118800E+02  0.7816164E-02  0.1184000E+00
        -11   -1    0    0    0    0  0.00000000000E+00  0.00000000000E+00  0.45593999997E+02  0.45594000000E+02  0.51100000000E-03 0.  1.
         11   -1    0    0    0    0 -0.00000000000E+00 -0.00000000000E+00 -0.45593999997E+02  0.45594000000E+02  0.51100000000E-03 0. -1.
         23    2    1    2    0    0 -0.35527136788E-14 -0.22204460493E-15  0.00000000000E+00  0.91188000000E+02  0.91188000000E+02 0.  0.
    9900012    2    3    3    0    0 -0.30524385998E+02 -0.17084429025E+01  0.20521351605E+02  0.54367044155E+02  0.39999908759E+02 0.  0.
         12    1    3    3    0    0  0.30524385998E+02  0.17084429025E+01 -0.20521351605E+02  0.36820955845E+02  0.00000000000E+00 0. -1.
         11    1    4    4    0    0 -0.78082997891E+01 -0.88659109684E+01  0.83197855966E+00  0.11843399490E+02  0.51100000000E-03 0. -1.
        -11    1    4    4    0    0 -0.29688508702E+02  0.68745873281E+01  0.17810182257E+02  0.35296885021E+02  0.51100000000E-03 0.  1.
         12    1    4    4    0    0  0.69724224931E+01  0.28288073772E+00  0.18791907875E+01  0.72267596439E+01  0.00000000000E+00 0. -1.
</event>
<event>
 8    1  0.1229941E-006  0.9118800E+02  0.7816164E-02  0.1184000E+00
        -11   -1    0    0    0    0  0.00000000000E+00  0.00000000000E+00  0.45593999997E+02  0.45594000000E+02  0.51100000000E-03 0. -1.
         11   -1    0    0    0    0 -0.00000000000E+00 -0.00000000000E+00 -0.45593999997E+02  0.45594000000E+02  0.51100000000E-03 0.  1.
         23    2    1    2    0    0  0.00000000000E+00  0.13322676296E-14  0.35527136788E-14  0.91188000000E+02  0.91188000000E+02 0.  0.
    9900012    2    3    3    0    0 -0.21030102203E+02  0.23281600907E+01  0.30134623406E+02  0.54367067694E+02  0.39999962422E+02 0.  0.
        -12    1    3    3    0    0  0.21030102203E+02 -0.23281600907E+01 -0.30134623406E+02  0.36820932306E+02  0.00000000000E+00 0.  1.
         11    1    4    4    0    0 -0.10950827300E+02 -0.56121826026E+01  0.59360926771E+01  0.13662152417E+02  0.51100000000E-03 0. -1.
        -11    1    4    4    0    0 -0.15052270908E+02  0.78699232589E+01  0.10388391933E+01  0.17017218889E+02  0.51100000000E-03 0.  1.
         12    1    4    4    0    0  0.49729960056E+01  0.70419434376E-01  0.23159691536E+02  0.23687696388E+02  0.00000000000E+00 0. -1.
</event>
<event>
 8    1  0.1229941E-006  0.9118800E+02  0.7816164E-02  0.1184000E+00
        -11   -1    0    0    0    0  0.00000000000E+00  0.00000000000E+00  0.45593999997E+02  0.45594000000E+02  0.51100000000E-03 0. -1.
         11   -1    0    0    0    0 -0.00000000000E+00 -0.00000000000E+00 -0.45593999997E+02  0.45594000000E+02  0.51100000000E-03 0.  1.
         23    2    1    2    0    0  0.00000000000E+00  0.56343818500E-14  0.00000000000E+00  0.91188000000E+02  0.91188000000E+02 0.  0.
    9900012    2    3    3    0    0 -0.27540071970E+02  0.24527186261E+00 -0.24438990837E+02  0.54367082093E+02  0.39999995247E+02 0.  0.
         12    1    3    3    0    0  0.27540071970E+02 -0.24527186261E+00  0.24438990837E+02  0.36820917907E+02  0.00000000000E+00 0. -1.
         11    1    4    4    0    0 -0.10631175798E+02  0.84902273764E+01  0.18907523344E+01  0.13736113147E+02  0.51100000000E-03 0. -1.
        -11    1    4    4    0    0 -0.73919457207E+01 -0.16510512625E+02 -0.12940388725E+02  0.22241662468E+02  0.51100000000E-03 0.  1.
        -12    1    4    4    0    0 -0.95169504512E+01  0.82655571116E+01 -0.13389354446E+02  0.18389306478E+02  0.00000000000E+00 0.  1.
</event>
<event>
 8    1  0.1229941E-006  0.9118800E+02  0.7816164E-02  0.1184000E+00
        -11   -1    0    0    0    0  0.00000000000E+00  0.00000000000E+00  0.45593999997E+02  0.45594000000E+02  0.51100000000E-03 0. -1.
         11   -1    0    0    0    0 -0.00000000000E+00 -0.00000000000E+00 -0.45593999997E+02  0.45594000000E+02  0.51100000000E-03 0.  1.
         23    2    1    2    0    0 -0.17763568394E-14  0.00000000000E+00 -0.17763568394E-14  0.91188000000E+02  0.91188000000E+02 0.  0.
    9900012    2    3    3    0    0 -0.80619198219E+01  0.33433824863E+02  0.13151568161E+02  0.54367096408E+02  0.40000027882E+02 0.  0.
        -12    1    3    3    0    0  0.80619198219E+01 -0.33433824863E+02 -0.13151568161E+02  0.36820903592E+02  0.00000000000E+00 0.  1.
         11    1    4    4    0    0  0.55285474859E+00  0.43736841118E+01  0.34132815255E+01  0.55754149726E+01  0.51100000000E-03 0. -1.
        -11    1    4    4    0    0 -0.16659247476E+02  0.22399701435E+02 -0.72574435730E+01  0.28843502533E+02  0.51100000000E-03 0.  1.
        -12    1    4    4    0    0  0.80444729060E+01  0.66604393162E+01  0.16995730209E+02  0.19948178903E+02  0.00000000000E+00 0.  1.
</event>
<event>
 8    1  0.1229941E-006  0.9118800E+02  0.7816164E-02  0.1184000E+00
        -11   -1    0    0    0    0  0.00000000000E+00  0.00000000000E+00  0.45593999997E+02  0.45594000000E+02  0.51100000000E-03 0. -1.
         11   -1    0    0    0    0 -0.00000000000E+00 -0.00000000000E+00 -0.45593999997E+02  0.45594000000E+02  0.51100000000E-03 0.  1.
         23    2    1    2    0    0  0.00000000000E+00  0.71054273576E-14 -0.17763568394E-14  0.91188000000E+02  0.91188000000E+02 0.  0.
    9900012    2    3    3    0    0 -0.27997817075E+02  0.19910458663E+02 -0.13246777010E+02  0.54367065380E+02  0.39999957146E+02 0.  0.
         12    1    3    3    0    0  0.27997817075E+02 -0.19910458663E+02  0.13246777010E+02  0.36820934620E+02  0.00000000000E+00 0. -1.
         11    1    4    4    0    0 -0.56717325061E+01  0.18194506179E+02  0.40231086137E+01  0.19478039118E+02  0.51100000000E-03 0. -1.
        -11    1    4    4    0    0 -0.25492263679E+02  0.67502441072E+00 -0.10967505321E+02  0.27759635060E+02  0.51100000000E-03 0.  1.
        -12    1    4    4    0    0  0.31661791099E+01  0.10409280736E+01 -0.63023803035E+01  0.71293912013E+01  0.00000000000E+00 0.  1.
</event>
<event>
 8    1  0.1229941E-006  0.9118800E+02  0.7816164E-02  0.1184000E+00
        -11   -1    0    0    0    0  0.00000000000E+00  0.00000000000E+00  0.45593999997E+02  0.45594000000E+02  0.51100000000E-03 0.  1.
         11   -1    0    0    0    0 -0.00000000000E+00 -0.00000000000E+00 -0.45593999997E+02  0.45594000000E+02  0.51100000000E-03 0. -1.
         23    2    1    2    0    0  0.00000000000E+00 -0.88817841970E-15  0.00000000000E+00  0.91188000000E+02  0.91188000000E+02 0.  0.
    9900012    2    3    3    0    0  0.32521288980E+02  0.68696615342E+01  0.15841520550E+02  0.54367078503E+02  0.39999987064E+02 0.  0.
         12    1    3    3    0    0 -0.32521288980E+02 -0.68696615342E+01 -0.15841520550E+02  0.36820921497E+02  0.00000000000E+00 0. -1.
         11    1    4    4    0    0  0.39520038590E+01  0.53827893952E+01  0.86563670097E+01  0.10932769377E+02  0.51100000000E-03 0. -1.
        -11    1    4    4    0    0 -0.49168691549E+01 -0.56749062247E+01 -0.23856107690E+01  0.78785342513E+01  0.51100000000E-03 0.  1.
        -12    1    4    4    0    0  0.33486154276E+02  0.71617783638E+01  0.95707643090E+01  0.35555774876E+02  0.00000000000E+00 0.  1.
</event>
<event>
 8    1  0.1229941E-006  0.9118800E+02  0.7816164E-02  0.1184000E+00
        -11   -1    0    0    0    0  0.00000000000E+00  0.00000000000E+00  0.45593999997E+02  0.45594000000E+02  0.51100000000E-03 0. -1.
         11   -1    0    0    0    0 -0.00000000000E+00 -0.00000000000E+00 -0.45593999997E+02  0.45594000000E+02  0.51100000000E-03 0.  1.
         23    2    1    2    0    0  0.35527136788E-14  0.00000000000E+00  0.00000000000E+00  0.91188000000E+02  0.91188000000E+02 0.  0.
    9900012    2    3    3    0    0  0.23995380712E+02  0.81149718414E+01  0.26723575426E+02  0.54367074604E+02  0.39999978174E+02 0.  0.
        -12    1    3    3    0    0 -0.23995380712E+02 -0.81149718414E+01 -0.26723575426E+02  0.36820925396E+02  0.00000000000E+00 0.  1.
         11    1    4    4    0    0 -0.96994257936E+01  0.31320588824E+01  0.13243368928E+02  0.16711537164E+02  0.51100000000E-03 0. -1.
        -11    1    4    4    0    0  0.42166894436E+01  0.36734603927E+01  0.29721850175E+01  0.63331402290E+01  0.51100000000E-03 0.  1.
         12    1    4    4    0    0  0.29478117062E+02  0.13094525663E+01  0.10508021480E+02  0.31322397210E+02  0.00000000000E+00 0. -1.
</event>
<event>
 8    1  0.1229941E-006  0.9118800E+02  0.7816164E-02  0.1184000E+00
        -11   -1    0    0    0    0  0.00000000000E+00  0.00000000000E+00  0.45593999997E+02  0.45594000000E+02  0.51100000000E-03 0. -1.
         11   -1    0    0    0    0 -0.00000000000E+00 -0.00000000000E+00 -0.45593999997E+02  0.45594000000E+02  0.51100000000E-03 0.  1.
         23    2    1    2    0    0  0.00000000000E+00 -0.17763568394E-14  0.35527136788E-14  0.91188000000E+02  0.91188000000E+02 0.  0.
    9900012    2    3    3    0    0  0.32940072836E+02 -0.10836126083E+02 -0.12381804667E+02  0.54367094067E+02  0.40000022544E+02 0.  0.
         12    1    3    3    0    0 -0.32940072836E+02  0.10836126083E+02  0.12381804667E+02  0.36820905933E+02  0.00000000000E+00 0. -1.
         11    1    4    4    0    0  0.64675312407E+01  0.64613148174E+01  0.67389288593E+01  0.11357407801E+02  0.51100000000E-03 0. -1.
        -11    1    4    4    0    0  0.62694158067E+01 -0.15461361777E+02 -0.26805660336E+01  0.16898068443E+02  0.51100000000E-03 0.  1.
         12    1    4    4    0    0  0.20203125788E+02 -0.18360791233E+01 -0.16440167493E+02  0.26111617824E+02  0.00000000000E+00 0. -1.
</event>
<event>
 8    1  0.1229941E-006  0.9118800E+02  0.7816164E-02  0.1184000E+00
        -11   -1    0    0    0    0  0.00000000000E+00  0.00000000000E+00  0.45593999997E+02  0.45594000000E+02  0.51100000000E-03 0.  1.
         11   -1    0    0    0    0 -0.00000000000E+00 -0.00000000000E+00 -0.45593999997E+02  0.45594000000E+02  0.51100000000E-03 0. -1.
         23    2    1    2    0    0 -0.35527136788E-14 -0.35527136788E-14  0.35527136788E-14  0.91188000000E+02  0.91188000000E+02 0.  0.
    9900012    2    3    3    0    0 -0.23268119187E+02 -0.22023113365E+02  0.18148332694E+02  0.54367015869E+02  0.39999844277E+02 0.  0.
         12    1    3    3    0    0  0.23268119187E+02  0.22023113365E+02 -0.18148332694E+02  0.36820984131E+02  0.00000000000E+00 0. -1.
         11    1    4    4    0    0  0.15827178157E+00 -0.77228898140E+01 -0.94150524091E+01  0.12178312246E+02  0.51100000000E-03 0. -1.
        -11    1    4    4    0    0 -0.49676633130E+01 -0.55921162368E+01  0.18310768240E+02  0.19779627818E+02  0.51100000000E-03 0.  1.
         12    1    4    4    0    0 -0.18458727655E+02 -0.87081073144E+01  0.92526168623E+01  0.22409075806E+02  0.00000000000E+00 0. -1.
</event>
<event>
 8    1  0.1229941E-006  0.9118800E+02  0.7816164E-02  0.1184000E+00
        -11   -1    0    0    0    0  0.00000000000E+00  0.00000000000E+00  0.45593999997E+02  0.45594000000E+02  0.51100000000E-03 0. -1.
         11   -1    0    0    0    0 -0.00000000000E+00 -0.00000000000E+00 -0.45593999997E+02  0.45594000000E+02  0.51100000000E-03 0.  1.
         23    2    1    2    0    0  0.00000000000E+00  0.00000000000E+00  0.00000000000E+00  0.91188000000E+02  0.91188000000E+02 0.  0.
    9900012    2    3    3    0    0  0.25718563896E+02  0.10168399952E+02 -0.24309237735E+02  0.54367083041E+02  0.39999997408E+02 0.  0.
         12    1    3    3    0    0 -0.25718563896E+02 -0.10168399952E+02  0.24309237735E+02  0.36820916959E+02  0.00000000000E+00 0. -1.
         11    1    4    4    0    0  0.85711449087E+01  0.33429374474E+01  0.61471066209E+01  0.11064658869E+02  0.51100000000E-03 0. -1.
        -11    1    4    4    0    0  0.19049854863E+02 -0.42538399687E+01 -0.20094172161E+02  0.28013708785E+02  0.51100000000E-03 0.  1.
        -12    1    4    4    0    0 -0.19024358764E+01  0.11079302474E+02 -0.10362172195E+02  0.15288715386E+02  0.00000000000E+00 0.  1.
</event>
<event>
 8    1  0.1229941E-006  0.9118800E+02  0.7816164E-02  0.1184000E+00
        -11   -1    0    0    0    0  0.00000000000E+00  0.00000000000E+00  0.45593999997E+02  0.45594000000E+02  0.51100000000E-03 0. -1.
         11   -1    0    0    0    0 -0.00000000000E+00 -0.00000000000E+00 -0.45593999997E+02  0.45594000000E+02  0.51100000000E-03 0.  1.
         23    2    1    2    0    0  0.00000000000E+00  0.00000000000E+00 -0.88817841970E-15  0.91188000000E+02  0.91188000000E+02 0.  0.
    9900012    2    3    3    0    0  0.20673124289E+02  0.30122287854E+02  0.45879845803E+01  0.54367083446E+02  0.39999998331E+02 0.  0.
        -12    1    3    3    0    0 -0.20673124289E+02 -0.30122287854E+02 -0.45879845803E+01  0.36820916554E+02  0.00000000000E+00 0.  1.
         11    1    4    4    0    0  0.85258638653E+00 -0.94543745555E+00 -0.41975346076E+01  0.43863484326E+01  0.51100000000E-03 0. -1.
        -11    1    4    4    0    0 -0.59259163370E+01  0.13501752710E+02 -0.54444305489E+01  0.15718003529E+02  0.51100000000E-03 0.  1.
         12    1    4    4    0    0  0.25746454239E+02  0.17565972599E+02  0.14229949737E+02  0.34262731484E+02  0.00000000000E+00 0. -1.
</event>
<event>
 8    1  0.1229941E-006  0.9118800E+02  0.7816164E-02  0.1184000E+00
        -11   -1    0    0    0    0  0.00000000000E+00  0.00000000000E+00  0.45593999997E+02  0.45594000000E+02  0.51100000000E-03 0.  1.
         11   -1    0    0    0    0 -0.00000000000E+00 -0.00000000000E+00 -0.45593999997E+02  0.45594000000E+02  0.51100000000E-03 0. -1.
         23    2    1    2    0    0 -0.35527136788E-14  0.00000000000E+00  0.00000000000E+00  0.91188000000E+02  0.91188000000E+02 0.  0.
    9900012    2    3    3    0    0  0.23436182737E+02 -0.25937557151E+02 -0.11565828452E+02  0.54367083118E+02  0.39999997583E+02 0.  0.
         12    1    3    3    0    0 -0.23436182737E+02  0.25937557151E+02  0.11565828452E+02  0.36820916882E+02  0.00000000000E+00 0. -1.
         11    1    4    4    0    0 -0.23607678630E+01  0.49717881874E+01 -0.46423347077E+01  0.72002204468E+01  0.51100000000E-03 0. -1.
        -11    1    4    4    0    0  0.16339507578E+02 -0.60554974171E+01  0.48452887342E+01  0.18086607753E+02  0.51100000000E-03 0.  1.
         12    1    4    4    0    0  0.94574430226E+01 -0.24853847922E+02 -0.11768782479E+02  0.29080254918E+02  0.00000000000E+00 0. -1.
</event>
<event>
 8    1  0.1229941E-006  0.9118800E+02  0.7816164E-02  0.1184000E+00
        -11   -1    0    0    0    0  0.00000000000E+00  0.00000000000E+00  0.45593999997E+02  0.45594000000E+02  0.51100000000E-03 0.  1.
         11   -1    0    0    0    0 -0.00000000000E+00 -0.00000000000E+00 -0.45593999997E+02  0.45594000000E+02  0.51100000000E-03 0. -1.
         23    2    1    2    0    0 -0.66613381478E-15  0.00000000000E+00 -0.35527136788E-14  0.91188000000E+02  0.91188000000E+02 0.  0.
    9900012    2    3    3    0    0 -0.10316582994E+01  0.32053763235E+02 -0.18090662515E+02  0.54367080313E+02  0.39999991189E+02 0.  0.
         12    1    3    3    0    0  0.10316582994E+01 -0.32053763235E+02  0.18090662515E+02  0.36820919687E+02  0.00000000000E+00 0. -1.
         11    1    4    4    0    0  0.75456309532E+01  0.14097138111E+02 -0.25626098632E+02  0.30205343580E+02  0.51100000000E-03 0. -1.
        -11    1    4    4    0    0 -0.51514231425E+01  0.58287091300E+00  0.96227998267E+00  0.52728438172E+01  0.51100000000E-03 0.  1.
         12    1    4    4    0    0 -0.34258661102E+01  0.17373754211E+02  0.65731561349E+01  0.18888892915E+02  0.00000000000E+00 0. -1.
</event>
<event>
 8    1  0.1229941E-006  0.9118800E+02  0.7816164E-02  0.1184000E+00
        -11   -1    0    0    0    0  0.00000000000E+00  0.00000000000E+00  0.45593999997E+02  0.45594000000E+02  0.51100000000E-03 0.  1.
         11   -1    0    0    0    0 -0.00000000000E+00 -0.00000000000E+00 -0.45593999997E+02  0.45594000000E+02  0.51100000000E-03 0. -1.
         23    2    1    2    0    0  0.32751579226E-14  0.00000000000E+00  0.00000000000E+00  0.91188000000E+02  0.91188000000E+02 0.  0.
    9900012    2    3    3    0    0  0.36401468952E+00 -0.35385184011E+02 -0.10175545820E+02  0.54367007524E+02  0.39999825252E+02 0.  0.
        -12    1    3    3    0    0 -0.36401468952E+00  0.35385184011E+02  0.10175545820E+02  0.36820992476E+02  0.00000000000E+00 0.  1.
         11    1    4    4    0    0 -0.10597780797E+02 -0.18945524061E+02 -0.11226963510E+02  0.24439528426E+02  0.51100000000E-03 0. -1.
        -11    1    4    4    0    0  0.87554282271E+01 -0.16650108174E+02  0.95834797092E+01  0.21112240745E+02  0.51100000000E-03 0.  1.
         12    1    4    4    0    0  0.22063672592E+01  0.21044822446E+00 -0.85320620187E+01  0.88152383535E+01  0.00000000000E+00 0. -1.
</event>
<event>
 8    1  0.1229941E-006  0.9118800E+02  0.7816164E-02  0.1184000E+00
        -11   -1    0    0    0    0  0.00000000000E+00  0.00000000000E+00  0.45593999997E+02  0.45594000000E+02  0.51100000000E-03 0.  1.
         11   -1    0    0    0    0 -0.00000000000E+00 -0.00000000000E+00 -0.45593999997E+02  0.45594000000E+02  0.51100000000E-03 0. -1.
         23    2    1    2    0    0  0.00000000000E+00  0.00000000000E+00  0.00000000000E+00  0.91188000000E+02  0.91188000000E+02 0.  0.
    9900012    2    3    3    0    0 -0.86048113979E+01 -0.30531223201E+02 -0.18697238062E+02  0.54367013043E+02  0.39999837833E+02 0.  0.
        -12    1    3    3    0    0  0.86048113979E+01  0.30531223201E+02  0.18697238062E+02  0.36820986957E+02  0.00000000000E+00 0.  1.
         11    1    4    4    0    0  0.39847725138E+01 -0.15800826795E+02  0.42590047274E+01  0.16842911296E+02  0.51100000000E-03 0. -1.
        -11    1    4    4    0    0 -0.17227181474E+02 -0.17149558105E+02 -0.20233911939E+02  0.31627429825E+02  0.51100000000E-03 0.  1.
        -12    1    4    4    0    0  0.46375975627E+01  0.24191616998E+01 -0.27223308511E+01  0.58966719212E+01  0.00000000000E+00 0.  1.
</event>
<event>
 8    1  0.1229941E-006  0.9118800E+02  0.7816164E-02  0.1184000E+00
        -11   -1    0    0    0    0  0.00000000000E+00  0.00000000000E+00  0.45593999997E+02  0.45594000000E+02  0.51100000000E-03 0. -1.
         11   -1    0    0    0    0 -0.00000000000E+00 -0.00000000000E+00 -0.45593999997E+02  0.45594000000E+02  0.51100000000E-03 0.  1.
         23    2    1    2    0    0 -0.71054273576E-14  0.71054273576E-14  0.00000000000E+00  0.91188000000E+02  0.91188000000E+02 0.  0.
    9900012    2    3    3    0    0  0.25901539359E+02 -0.24183437946E+02 -0.10002547923E+02  0.54367090492E+02  0.40000014394E+02 0.  0.
         12    1    3    3    0    0 -0.25901539359E+02  0.24183437946E+02  0.10002547923E+02  0.36820909508E+02  0.00000000000E+00 0. -1.
         11    1    4    4    0    0  0.30527290487E+01 -0.14015015748E+02  0.45620829588E+01  0.15051658455E+02  0.51100000000E-03 0. -1.
        -11    1    4    4    0    0 -0.58145947813E+01  0.55794167156E+00 -0.32617350186E+01  0.66902710687E+01  0.51100000000E-03 0.  1.
        -12    1    4    4    0    0  0.28663405091E+02 -0.10726363870E+02 -0.11302895864E+02  0.32625160968E+02  0.00000000000E+00 0.  1.
</event>
<event>
 8    1  0.1229941E-006  0.9118800E+02  0.7816164E-02  0.1184000E+00
        -11   -1    0    0    0    0  0.00000000000E+00  0.00000000000E+00  0.45593999997E+02  0.45594000000E+02  0.51100000000E-03 0.  1.
         11   -1    0    0    0    0 -0.00000000000E+00 -0.00000000000E+00 -0.45593999997E+02  0.45594000000E+02  0.51100000000E-03 0. -1.
         23    2    1    2    0    0  0.00000000000E+00  0.00000000000E+00  0.00000000000E+00  0.91188000000E+02  0.91188000000E+02 0.  0.
    9900012    2    3    3    0    0  0.17594669720E+02 -0.32046711461E+02 -0.43835790207E+01  0.54367083620E+02  0.39999998728E+02 0.  0.
        -12    1    3    3    0    0 -0.17594669720E+02  0.32046711461E+02  0.43835790207E+01  0.36820916380E+02  0.00000000000E+00 0.  1.
         11    1    4    4    0    0  0.12826262286E+02  0.35714024225E+01 -0.68817408033E+01  0.14987537364E+02  0.51100000000E-03 0.  1.
        -11    1    4    4    0    0 -0.26315854442E+01 -0.27349098428E+02  0.51893503867E+01  0.27961183531E+02  0.51100000000E-03 0. -1.
         12    1    4    4    0    0  0.73999928785E+01 -0.82690154561E+01 -0.26911886041E+01  0.11418362725E+02  0.00000000000E+00 0. -1.
</event>
<event>
 8    1  0.1229941E-006  0.9118800E+02  0.7816164E-02  0.1184000E+00
        -11   -1    0    0    0    0  0.00000000000E+00  0.00000000000E+00  0.45593999997E+02  0.45594000000E+02  0.51100000000E-03 0.  1.
         11   -1    0    0    0    0 -0.00000000000E+00 -0.00000000000E+00 -0.45593999997E+02  0.45594000000E+02  0.51100000000E-03 0. -1.
         23    2    1    2    0    0  0.00000000000E+00  0.00000000000E+00  0.00000000000E+00  0.91188000000E+02  0.91188000000E+02 0.  0.
    9900012    2    3    3    0    0  0.21327715877E+02 -0.24878866252E+02 -0.16791331600E+02  0.54367105559E+02  0.40000048742E+02 0.  0.
         12    1    3    3    0    0 -0.21327715877E+02  0.24878866252E+02  0.16791331600E+02  0.36820894441E+02  0.00000000000E+00 0. -1.
         11    1    4    4    0    0  0.74742196479E+01  0.21186118293E+00 -0.71700301238E+01  0.10359448670E+02  0.51100000000E-03 0. -1.
        -11    1    4    4    0    0  0.29196301123E+01 -0.13969328579E+02  0.11095229889E+02  0.18076794724E+02  0.51100000000E-03 0.  1.
        -12    1    4    4    0    0  0.10933866117E+02 -0.11121398856E+02 -0.20716531366E+02  0.25930862165E+02  0.00000000000E+00 0.  1.
</event>
<event>
 8    1  0.1229941E-006  0.9118800E+02  0.7816164E-02  0.1184000E+00
        -11   -1    0    0    0    0  0.00000000000E+00  0.00000000000E+00  0.45593999997E+02  0.45594000000E+02  0.51100000000E-03 0. -1.
         11   -1    0    0    0    0 -0.00000000000E+00 -0.00000000000E+00 -0.45593999997E+02  0.45594000000E+02  0.51100000000E-03 0.  1.
         23    2    1    2    0    0  0.00000000000E+00  0.00000000000E+00 -0.35527136788E-14  0.91188000000E+02  0.91188000000E+02 0.  0.
    9900012    2    3    3    0    0  0.94751969152E+01 -0.32449457236E+02  0.14595630098E+02  0.54367094940E+02  0.40000024535E+02 0.  0.
        -12    1    3    3    0    0 -0.94751969152E+01  0.32449457236E+02 -0.14595630098E+02  0.36820905060E+02  0.00000000000E+00 0.  1.
         11    1    4    4    0    0  0.96602693166E+01 -0.18251188650E+02  0.15389717119E+02  0.25754030436E+02  0.51100000000E-03 0. -1.
        -11    1    4    4    0    0 -0.44474064921E+01  0.21837781884E+01  0.80970247986E+01  0.94926351732E+01  0.51100000000E-03 0.  1.
         12    1    4    4    0    0  0.42623340907E+01 -0.16382046774E+02 -0.88911118200E+01  0.19120429331E+02  0.00000000000E+00 0. -1.
</event>
<event>
 8    1  0.1229941E-006  0.9118800E+02  0.7816164E-02  0.1184000E+00
        -11   -1    0    0    0    0  0.00000000000E+00  0.00000000000E+00  0.45593999997E+02  0.45594000000E+02  0.51100000000E-03 0. -1.
         11   -1    0    0    0    0 -0.00000000000E+00 -0.00000000000E+00 -0.45593999997E+02  0.45594000000E+02  0.51100000000E-03 0.  1.
         23    2    1    2    0    0  0.17763568394E-14 -0.35527136788E-14  0.00000000000E+00  0.91188000000E+02  0.91188000000E+02 0.  0.
    9900012    2    3    3    0    0  0.92884003433E+01 -0.25503884706E+02  0.24880797584E+02  0.54367128141E+02  0.40000100222E+02 0.  0.
        -12    1    3    3    0    0 -0.92884003433E+01  0.25503884706E+02 -0.24880797584E+02  0.36820871859E+02  0.00000000000E+00 0.  1.
         11    1    4    4    0    0 -0.92968228292E+00  0.10698702245E+01  0.70682618442E+00  0.15838355220E+01  0.51100000000E-03 0.  1.
        -11    1    4    4    0    0  0.18214442124E+02 -0.87161783193E+00  0.28792610764E+01  0.18461196173E+02  0.51100000000E-03 0. -1.
        -12    1    4    4    0    0 -0.79963594978E+01 -0.25702137099E+02  0.21294710323E+02  0.34322096446E+02  0.00000000000E+00 0.  1.
</event>
<event>
 8    1  0.1229941E-006  0.9118800E+02  0.7816164E-02  0.1184000E+00
        -11   -1    0    0    0    0  0.00000000000E+00  0.00000000000E+00  0.45593999997E+02  0.45594000000E+02  0.51100000000E-03 0. -1.
         11   -1    0    0    0    0 -0.00000000000E+00 -0.00000000000E+00 -0.45593999997E+02  0.45594000000E+02  0.51100000000E-03 0.  1.
         23    2    1    2    0    0  0.00000000000E+00  0.00000000000E+00  0.00000000000E+00  0.91188000000E+02  0.91188000000E+02 0.  0.
    9900012    2    3    3    0    0  0.29441390164E+02  0.20570062256E+02 -0.81157153302E+01  0.54366976775E+02  0.39999755153E+02 0.  0.
         12    1    3    3    0    0 -0.29441390164E+02 -0.20570062256E+02  0.81157153302E+01  0.36821023225E+02  0.00000000000E+00 0. -1.
         11    1    4    4    0    0  0.75232617959E+01  0.54413558489E+01  0.61274208945E+01  0.11124437451E+02  0.51100000000E-03 0. -1.
        -11    1    4    4    0    0  0.36571803545E+01  0.12788190341E+02 -0.19941658313E+02  0.23970450911E+02  0.51100000000E-03 0.  1.
        -12    1    4    4    0    0  0.18260948013E+02  0.23405160666E+01  0.56985220883E+01  0.19272088413E+02  0.00000000000E+00 0.  1.
</event>
<event>
 8    1  0.1229941E-006  0.9118800E+02  0.7816164E-02  0.1184000E+00
        -11   -1    0    0    0    0  0.00000000000E+00  0.00000000000E+00  0.45593999997E+02  0.45594000000E+02  0.51100000000E-03 0. -1.
         11   -1    0    0    0    0 -0.00000000000E+00 -0.00000000000E+00 -0.45593999997E+02  0.45594000000E+02  0.51100000000E-03 0.  1.
         23    2    1    2    0    0  0.00000000000E+00  0.88817841970E-15  0.00000000000E+00  0.91188000000E+02  0.91188000000E+02 0.  0.
    9900012    2    3    3    0    0 -0.22297051077E+02  0.43475239379E+01 -0.28977929710E+02  0.54367083914E+02  0.39999999400E+02 0.  0.
         12    1    3    3    0    0  0.22297051077E+02 -0.43475239379E+01  0.28977929710E+02  0.36820916086E+02  0.00000000000E+00 0. -1.
         11    1    4    4    0    0 -0.18113868231E+02  0.52794138474E+01  0.20350092989E+01  0.18976978052E+02  0.51100000000E-03 0.  1.
        -11    1    4    4    0    0  0.24989842510E+01 -0.52347169312E+01 -0.35510072324E+01  0.68012378478E+01  0.51100000000E-03 0. -1.
        -12    1    4    4    0    0 -0.66821670969E+01  0.43028270217E+01 -0.27461931776E+02  0.28588868015E+02  0.00000000000E+00 0.  1.
</event>
<event>
 8    1  0.1229941E-006  0.9118800E+02  0.7816164E-02  0.1184000E+00
        -11   -1    0    0    0    0  0.00000000000E+00  0.00000000000E+00  0.45593999997E+02  0.45594000000E+02  0.51100000000E-03 0. -1.
         11   -1    0    0    0    0 -0.00000000000E+00 -0.00000000000E+00 -0.45593999997E+02  0.45594000000E+02  0.51100000000E-03 0.  1.
         23    2    1    2    0    0  0.17763568394E-14 -0.35527136788E-14  0.00000000000E+00  0.91188000000E+02  0.91188000000E+02 0.  0.
    9900012    2    3    3    0    0 -0.14784474843E+02  0.25523915257E+02 -0.22039216617E+02  0.54367108980E+02  0.40000056542E+02 0.  0.
         12    1    3    3    0    0  0.14784474843E+02 -0.25523915257E+02  0.22039216617E+02  0.36820891020E+02  0.00000000000E+00 0. -1.
         11    1    4    4    0    0 -0.62913157679E+01  0.13059219674E+02 -0.11034220630E+02  0.18217516235E+02  0.51100000000E-03 0. -1.
        -11    1    4    4    0    0 -0.23221151714E+01  0.19133860641E+02  0.29485046921E+01  0.19498474866E+02  0.51100000000E-03 0.  1.
         12    1    4    4    0    0 -0.61710439036E+01 -0.66691650589E+01 -0.13953500679E+02  0.16651117880E+02  0.00000000000E+00 0. -1.
</event>
<event>
 8    1  0.1229941E-006  0.9118800E+02  0.7816164E-02  0.1184000E+00
        -11   -1    0    0    0    0  0.00000000000E+00  0.00000000000E+00  0.45593999997E+02  0.45594000000E+02  0.51100000000E-03 0. -1.
         11   -1    0    0    0    0 -0.00000000000E+00 -0.00000000000E+00 -0.45593999997E+02  0.45594000000E+02  0.51100000000E-03 0.  1.
         23    2    1    2    0    0  0.88817841970E-15 -0.71054273576E-14  0.00000000000E+00  0.91188000000E+02  0.91188000000E+02 0.  0.
    9900012    2    3    3    0    0  0.60733548583E+01  0.34876113261E+02  0.10126733312E+02  0.54367086879E+02  0.40000006159E+02 0.  0.
         12    1    3    3    0    0 -0.60733548583E+01 -0.34876113261E+02 -0.10126733312E+02  0.36820913121E+02  0.00000000000E+00 0. -1.
         11    1    4    4    0    0  0.52715160825E+01  0.14616231835E+02  0.10339042358E+02  0.18663303887E+02  0.51100000000E-03 0. -1.
        -11    1    4    4    0    0  0.93014262816E+01  0.16380596611E+02  0.10438278086E+02  0.21535972833E+02  0.51100000000E-03 0.  1.
         12    1    4    4    0    0 -0.84995875058E+01  0.38792848150E+01 -0.10650587131E+02  0.14167810159E+02  0.00000000000E+00 0. -1.
</event>
<event>
 8    1  0.1229941E-006  0.9118800E+02  0.7816164E-02  0.1184000E+00
        -11   -1    0    0    0    0  0.00000000000E+00  0.00000000000E+00  0.45593999997E+02  0.45594000000E+02  0.51100000000E-03 0. -1.
         11   -1    0    0    0    0 -0.00000000000E+00 -0.00000000000E+00 -0.45593999997E+02  0.45594000000E+02  0.51100000000E-03 0.  1.
         23    2    1    2    0    0 -0.15543122345E-14  0.00000000000E+00 -0.35527136788E-14  0.91188000000E+02  0.91188000000E+02 0.  0.
    9900012    2    3    3    0    0 -0.78058536728E+00  0.30741849161E+02 -0.20251147808E+02  0.54367087588E+02  0.40000007774E+02 0.  0.
         12    1    3    3    0    0  0.78058536728E+00 -0.30741849161E+02  0.20251147808E+02  0.36820912412E+02  0.00000000000E+00 0. -1.
         11    1    4    4    0    0 -0.10208010601E+02  0.67626823275E+01 -0.81832543659E+01  0.14727627269E+02  0.51100000000E-03 0. -1.
        -11    1    4    4    0    0  0.11073694408E+02  0.26449821024E+02 -0.15562272602E+01  0.28716573326E+02  0.51100000000E-03 0.  1.
         12    1    4    4    0    0 -0.16462691746E+01 -0.24706541912E+01 -0.10511666182E+02  0.10922886992E+02  0.00000000000E+00 0. -1.
</event>
<event>
 8    1  0.1229941E-006  0.9118800E+02  0.7816164E-02  0.1184000E+00
        -11   -1    0    0    0    0  0.00000000000E+00  0.00000000000E+00  0.45593999997E+02  0.45594000000E+02  0.51100000000E-03 0.  1.
         11   -1    0    0    0    0 -0.00000000000E+00 -0.00000000000E+00 -0.45593999997E+02  0.45594000000E+02  0.51100000000E-03 0. -1.
         23    2    1    2    0    0  0.00000000000E+00  0.17763568394E-14  0.00000000000E+00  0.91188000000E+02  0.91188000000E+02 0.  0.
    9900012    2    3    3    0    0  0.28706742493E+02 -0.80471369863E+01  0.21608952311E+02  0.54367077983E+02  0.39999985877E+02 0.  0.
         12    1    3    3    0    0 -0.28706742493E+02  0.80471369863E+01 -0.21608952311E+02  0.36820922017E+02  0.00000000000E+00 0. -1.
         11    1    4    4    0    0  0.19649277799E+02 -0.26343232123E+01  0.71412771030E+01  0.21072057700E+02  0.51100000000E-03 0. -1.
        -11    1    4    4    0    0  0.11550884072E+02 -0.14132696660E+02  0.15783901047E+02  0.24130635513E+02  0.51100000000E-03 0.  1.
         12    1    4    4    0    0 -0.24934193784E+01  0.87198828862E+01 -0.13162258385E+01  0.91643847695E+01  0.00000000000E+00 0. -1.
</event>
<event>
 8    1  0.1229941E-006  0.9118800E+02  0.7816164E-02  0.1184000E+00
        -11   -1    0    0    0    0  0.00000000000E+00  0.00000000000E+00  0.45593999997E+02  0.45594000000E+02  0.51100000000E-03 0. -1.
         11   -1    0    0    0    0 -0.00000000000E+00 -0.00000000000E+00 -0.45593999997E+02  0.45594000000E+02  0.51100000000E-03 0.  1.
         23    2    1    2    0    0  0.00000000000E+00  0.71054273576E-14  0.88817841970E-15  0.91188000000E+02  0.91188000000E+02 0.  0.
    9900012    2    3    3    0    0  0.11118284367E+02  0.34800671263E+02 -0.45909424358E+01  0.54367085834E+02  0.40000003775E+02 0.  0.
        -12    1    3    3    0    0 -0.11118284367E+02 -0.34800671263E+02  0.45909424358E+01  0.36820914166E+02  0.00000000000E+00 0.  1.
         11    1    4    4    0    0 -0.32282017855E+01  0.94583361506E+00 -0.99847736973E+01  0.10536203967E+02  0.51100000000E-03 0.  1.
        -11    1    4    4    0    0  0.18256216265E+02  0.13520885424E+02  0.15501587890E+01  0.22770743675E+02  0.51100000000E-03 0. -1.
        -12    1    4    4    0    0 -0.39097301123E+01  0.20333952223E+02  0.38436724725E+01  0.21060138191E+02  0.00000000000E+00 0.  1.
</event>
<event>
 8    1  0.1229941E-006  0.9118800E+02  0.7816164E-02  0.1184000E+00
        -11   -1    0    0    0    0  0.00000000000E+00  0.00000000000E+00  0.45593999997E+02  0.45594000000E+02  0.51100000000E-03 0. -1.
         11   -1    0    0    0    0 -0.00000000000E+00 -0.00000000000E+00 -0.45593999997E+02  0.45594000000E+02  0.51100000000E-03 0.  1.
         23    2    1    2    0    0  0.35527136788E-14  0.35527136788E-14  0.00000000000E+00  0.91188000000E+02  0.91188000000E+02 0.  0.
    9900012    2    3    3    0    0  0.17488495315E+02  0.28937629352E+02  0.14578957296E+02  0.54367083978E+02  0.39999999544E+02 0.  0.
         12    1    3    3    0    0 -0.17488495315E+02 -0.28937629352E+02 -0.14578957296E+02  0.36820916022E+02  0.00000000000E+00 0. -1.
         11    1    4    4    0    0 -0.68878289278E+00  0.72873844037E+01  0.25279522404E+01  0.77440903992E+01  0.51100000000E-03 0. -1.
        -11    1    4    4    0    0  0.25564931348E+02  0.25959933917E+02  0.10623593426E+02  0.37951872435E+02  0.51100000000E-03 0.  1.
         12    1    4    4    0    0 -0.73876531398E+01 -0.43096889686E+01  0.14274116290E+01  0.86711211431E+01  0.00000000000E+00 0. -1.
</event>
<event>
 8    1  0.1229941E-006  0.9118800E+02  0.7816164E-02  0.1184000E+00
        -11   -1    0    0    0    0  0.00000000000E+00  0.00000000000E+00  0.45593999997E+02  0.45594000000E+02  0.51100000000E-03 0.  1.
         11   -1    0    0    0    0 -0.00000000000E+00 -0.00000000000E+00 -0.45593999997E+02  0.45594000000E+02  0.51100000000E-03 0. -1.
         23    2    1    2    0    0  0.00000000000E+00  0.00000000000E+00  0.35527136788E-14  0.91188000000E+02  0.91188000000E+02 0.  0.
    9900012    2    3    3    0    0 -0.23143128455E+02 -0.84312086663E+01  0.27369504857E+02  0.54367089224E+02  0.40000011504E+02 0.  0.
         12    1    3    3    0    0  0.23143128455E+02  0.84312086663E+01 -0.27369504857E+02  0.36820910776E+02  0.00000000000E+00 0. -1.
         11    1    4    4    0    0 -0.22129849208E+02 -0.67386167748E+01  0.34641899294E+02  0.41655736327E+02  0.51100000000E-03 0. -1.
        -11    1    4    4    0    0 -0.27914806652E+01  0.31400407696E+01 -0.54089513096E+00  0.42361289101E+01  0.51100000000E-03 0.  1.
         12    1    4    4    0    0  0.17782014187E+01 -0.48326326610E+01 -0.67314993059E+01  0.84752239869E+01  0.00000000000E+00 0. -1.
</event>
<event>
 8    1  0.1229941E-006  0.9118800E+02  0.7816164E-02  0.1184000E+00
        -11   -1    0    0    0    0  0.00000000000E+00  0.00000000000E+00  0.45593999997E+02  0.45594000000E+02  0.51100000000E-03 0.  1.
         11   -1    0    0    0    0 -0.00000000000E+00 -0.00000000000E+00 -0.45593999997E+02  0.45594000000E+02  0.51100000000E-03 0. -1.
         23    2    1    2    0    0  0.00000000000E+00  0.00000000000E+00  0.00000000000E+00  0.91188000000E+02  0.91188000000E+02 0.  0.
    9900012    2    3    3    0    0 -0.17766237489E+02 -0.29876721432E+02  0.12145761821E+02  0.54367119942E+02  0.40000081531E+02 0.  0.
         12    1    3    3    0    0  0.17766237489E+02  0.29876721432E+02 -0.12145761821E+02  0.36820880058E+02  0.00000000000E+00 0. -1.
         11    1    4    4    0    0 -0.10406910438E+02 -0.34955169535E+01  0.12288759919E+02  0.16478350774E+02  0.51100000000E-03 0. -1.
        -11    1    4    4    0    0 -0.85472930908E+01  0.15662703738E+01  0.40787824790E+01  0.95992650154E+01  0.51100000000E-03 0.  1.
         12    1    4    4    0    0  0.11879660393E+01 -0.27947474852E+02 -0.42217805765E+01  0.28289504152E+02  0.00000000000E+00 0. -1.
</event>
<event>
 8    1  0.1229941E-006  0.9118800E+02  0.7816164E-02  0.1184000E+00
        -11   -1    0    0    0    0  0.00000000000E+00  0.00000000000E+00  0.45593999997E+02  0.45594000000E+02  0.51100000000E-03 0.  1.
         11   -1    0    0    0    0 -0.00000000000E+00 -0.00000000000E+00 -0.45593999997E+02  0.45594000000E+02  0.51100000000E-03 0. -1.
         23    2    1    2    0    0  0.35527136788E-14  0.35527136788E-14  0.35527136788E-14  0.91188000000E+02  0.91188000000E+02 0.  0.
    9900012    2    3    3    0    0  0.28830184903E+02 -0.14081444703E+02 -0.18064172583E+02  0.54367068757E+02  0.39999964846E+02 0.  0.
        -12    1    3    3    0    0 -0.28830184903E+02  0.14081444703E+02  0.18064172583E+02  0.36820931243E+02  0.00000000000E+00 0.  1.
         11    1    4    4    0    0  0.18739705528E+02  0.53442142245E+01 -0.91533857427E+01  0.21529553172E+02  0.51100000000E-03 0. -1.
        -11    1    4    4    0    0  0.75385387396E+01 -0.11446715936E+02 -0.16558077862E+02  0.21494809020E+02  0.51100000000E-03 0.  1.
         12    1    4    4    0    0  0.25519406352E+01 -0.79789429914E+01  0.76472910219E+01  0.11342706566E+02  0.00000000000E+00 0. -1.
</event>
<event>
 8    1  0.1229941E-006  0.9118800E+02  0.7816164E-02  0.1184000E+00
        -11   -1    0    0    0    0  0.00000000000E+00  0.00000000000E+00  0.45593999997E+02  0.45594000000E+02  0.51100000000E-03 0.  1.
         11   -1    0    0    0    0 -0.00000000000E+00 -0.00000000000E+00 -0.45593999997E+02  0.45594000000E+02  0.51100000000E-03 0. -1.
         23    2    1    2    0    0 -0.35527136788E-14  0.00000000000E+00  0.00000000000E+00  0.91188000000E+02  0.91188000000E+02 0.  0.
    9900012    2    3    3    0    0 -0.16799602175E+02  0.26027325997E+01  0.32661588390E+02  0.54367079229E+02  0.39999988719E+02 0.  0.
         12    1    3    3    0    0  0.16799602175E+02 -0.26027325997E+01 -0.32661588390E+02  0.36820920771E+02  0.00000000000E+00 0. -1.
         11    1    4    4    0    0  0.67289050437E+01  0.18425889226E+01  0.14115969429E+02  0.15745916620E+02  0.51100000000E-03 0. -1.
        -11    1    4    4    0    0 -0.25601897657E+01 -0.39609792500E+01  0.16349321717E+02  0.17015999798E+02  0.51100000000E-03 0.  1.
         12    1    4    4    0    0 -0.20968317453E+02  0.47211229271E+01  0.21962972443E+01  0.21605162811E+02  0.00000000000E+00 0. -1.
</event>
<event>
 8    1  0.1229941E-006  0.9118800E+02  0.7816164E-02  0.1184000E+00
        -11   -1    0    0    0    0  0.00000000000E+00  0.00000000000E+00  0.45593999997E+02  0.45594000000E+02  0.51100000000E-03 0. -1.
         11   -1    0    0    0    0 -0.00000000000E+00 -0.00000000000E+00 -0.45593999997E+02  0.45594000000E+02  0.51100000000E-03 0.  1.
         23    2    1    2    0    0  0.00000000000E+00 -0.17763568394E-14 -0.44408920985E-15  0.91188000000E+02  0.91188000000E+02 0.  0.
    9900012    2    3    3    0    0  0.35570455338E+02 -0.91883767606E+01  0.24690117584E+01  0.54367087742E+02  0.40000008126E+02 0.  0.
        -12    1    3    3    0    0 -0.35570455338E+02  0.91883767606E+01 -0.24690117584E+01  0.36820912258E+02  0.00000000000E+00 0.  1.
         11    1    4    4    0    0  0.29193391531E+02  0.74753480888E+01  0.96045466427E+01  0.31628820001E+02  0.51100000000E-03 0. -1.
        -11    1    4    4    0    0  0.44562609336E+01 -0.58859809866E+01  0.28568395520E+01  0.79160953866E+01  0.51100000000E-03 0.  1.
        -12    1    4    4    0    0  0.19208028728E+01 -0.10777743863E+02 -0.99923744363E+01  0.14822172355E+02  0.00000000000E+00 0.  1.
</event>
<event>
 8    1  0.1229941E-006  0.9118800E+02  0.7816164E-02  0.1184000E+00
        -11   -1    0    0    0    0  0.00000000000E+00  0.00000000000E+00  0.45593999997E+02  0.45594000000E+02  0.51100000000E-03 0.  1.
         11   -1    0    0    0    0 -0.00000000000E+00 -0.00000000000E+00 -0.45593999997E+02  0.45594000000E+02  0.51100000000E-03 0. -1.
         23    2    1    2    0    0 -0.44408920985E-15  0.22204460493E-15  0.00000000000E+00  0.91188000000E+02  0.91188000000E+02 0.  0.
    9900012    2    3    3    0    0  0.36546318497E+01  0.12584288126E+01 -0.36617486260E+02  0.54367078270E+02  0.39999986532E+02 0.  0.
        -12    1    3    3    0    0 -0.36546318497E+01 -0.12584288126E+01  0.36617486260E+02  0.36820921730E+02  0.00000000000E+00 0.  1.
         11    1    4    4    0    0  0.66434263999E+01 -0.54140420849E+01 -0.27885995360E+02  0.29173201804E+02  0.51100000000E-03 0. -1.
        -11    1    4    4    0    0  0.83451383637E+01 -0.15446464028E+00  0.14846467768E+01  0.84775804300E+01  0.51100000000E-03 0.  1.
         12    1    4    4    0    0 -0.11333932914E+02  0.68269355378E+01 -0.10216137677E+02  0.16716296036E+02  0.00000000000E+00 0. -1.
</event>
<event>
 8    1  0.1229941E-006  0.9118800E+02  0.7816164E-02  0.1184000E+00
        -11   -1    0    0    0    0  0.00000000000E+00  0.00000000000E+00  0.45593999997E+02  0.45594000000E+02  0.51100000000E-03 0.  1.
         11   -1    0    0    0    0 -0.00000000000E+00 -0.00000000000E+00 -0.45593999997E+02  0.45594000000E+02  0.51100000000E-03 0. -1.
         23    2    1    2    0    0 -0.35527136788E-14  0.00000000000E+00  0.00000000000E+00  0.91188000000E+02  0.91188000000E+02 0.  0.
    9900012    2    3    3    0    0  0.24199147517E+02 -0.26604616030E+02 -0.78975702248E+01  0.54367137026E+02  0.40000120479E+02 0.  0.
         12    1    3    3    0    0 -0.24199147517E+02  0.26604616030E+02  0.78975702248E+01  0.36820862974E+02  0.00000000000E+00 0. -1.
         11    1    4    4    0    0 -0.61413561750E+01 -0.56573682119E+01 -0.78551915068E+01  0.11464122497E+02  0.51100000000E-03 0. -1.
        -11    1    4    4    0    0  0.21642613565E+02 -0.15576624314E+02  0.10089533672E+02  0.28510219868E+02  0.51100000000E-03 0.  1.
        -12    1    4    4    0    0  0.86978901277E+01 -0.53706235038E+01 -0.10131912390E+02  0.14392794662E+02  0.00000000000E+00 0.  1.
</event>
<event>
 8    1  0.1229941E-006  0.9118800E+02  0.7816164E-02  0.1184000E+00
        -11   -1    0    0    0    0  0.00000000000E+00  0.00000000000E+00  0.45593999997E+02  0.45594000000E+02  0.51100000000E-03 0.  1.
         11   -1    0    0    0    0 -0.00000000000E+00 -0.00000000000E+00 -0.45593999997E+02  0.45594000000E+02  0.51100000000E-03 0. -1.
         23    2    1    2    0    0  0.00000000000E+00  0.00000000000E+00  0.88817841970E-15  0.91188000000E+02  0.91188000000E+02 0.  0.
    9900012    2    3    3    0    0  0.30775649842E+02  0.19259499311E+02 -0.61404290417E+01  0.54367166145E+02  0.40000186861E+02 0.  0.
        -12    1    3    3    0    0 -0.30775649842E+02 -0.19259499311E+02  0.61404290417E+01  0.36820833855E+02  0.00000000000E+00 0.  1.
         11    1    4    4    0    0  0.30278210842E+01  0.22310276268E+02 -0.81709644599E+01  0.23951634353E+02  0.51100000000E-03 0. -1.
        -11    1    4    4    0    0  0.25664152200E+02 -0.11820098493E+01  0.51733559448E+01  0.26207049956E+02  0.51100000000E-03 0.  1.
         12    1    4    4    0    0  0.20836765584E+01 -0.18687671079E+01 -0.31428205266E+01  0.42084818363E+01  0.00000000000E+00 0. -1.
</event>
<event>
 8    1  0.1229941E-006  0.9118800E+02  0.7816164E-02  0.1184000E+00
        -11   -1    0    0    0    0  0.00000000000E+00  0.00000000000E+00  0.45593999997E+02  0.45594000000E+02  0.51100000000E-03 0. -1.
         11   -1    0    0    0    0 -0.00000000000E+00 -0.00000000000E+00 -0.45593999997E+02  0.45594000000E+02  0.51100000000E-03 0.  1.
         23    2    1    2    0    0  0.35527136788E-14  0.35527136788E-14  0.00000000000E+00  0.91188000000E+02  0.91188000000E+02 0.  0.
    9900012    2    3    3    0    0  0.24284570640E+02  0.15498241016E+02  0.22931281012E+02  0.54367088895E+02  0.40000010754E+02 0.  0.
        -12    1    3    3    0    0 -0.24284570640E+02 -0.15498241016E+02 -0.22931281012E+02  0.36820911105E+02  0.00000000000E+00 0.  1.
         11    1    4    4    0    0  0.24649682874E+02  0.72654428778E+01  0.66489612305E+01  0.26544344251E+02  0.51100000000E-03 0. -1.
        -11    1    4    4    0    0  0.58403752311E+01  0.13310168116E+02  0.10143744403E+02  0.17724731561E+02  0.51100000000E-03 0.  1.
         12    1    4    4    0    0 -0.62054874650E+01 -0.50773699775E+01  0.61385753784E+01  0.10098013084E+02  0.00000000000E+00 0. -1.
</event>
<event>
 8    1  0.1229941E-006  0.9118800E+02  0.7816164E-02  0.1184000E+00
        -11   -1    0    0    0    0  0.00000000000E+00  0.00000000000E+00  0.45593999997E+02  0.45594000000E+02  0.51100000000E-03 0. -1.
         11   -1    0    0    0    0 -0.00000000000E+00 -0.00000000000E+00 -0.45593999997E+02  0.45594000000E+02  0.51100000000E-03 0.  1.
         23    2    1    2    0    0 -0.35527136788E-14 -0.35527136788E-14  0.00000000000E+00  0.91188000000E+02  0.91188000000E+02 0.  0.
    9900012    2    3    3    0    0  0.19706192767E+02 -0.28993088488E+02  0.11262683569E+02  0.54367064996E+02  0.39999956271E+02 0.  0.
        -12    1    3    3    0    0 -0.19706192767E+02  0.28993088488E+02 -0.11262683569E+02  0.36820935004E+02  0.00000000000E+00 0.  1.
         11    1    4    4    0    0 -0.92313207650E-02 -0.47067303043E+01  0.12590733656E+02  0.13441724950E+02  0.51100000000E-03 0. -1.
        -11    1    4    4    0    0  0.14931154000E+01 -0.76062711012E+01  0.10888603636E+02  0.13365868586E+02  0.51100000000E-03 0.  1.
         12    1    4    4    0    0  0.18222308687E+02 -0.16680087082E+02 -0.12216653723E+02  0.27559471460E+02  0.00000000000E+00 0. -1.
</event>
<event>
 8    1  0.1229941E-006  0.9118800E+02  0.7816164E-02  0.1184000E+00
        -11   -1    0    0    0    0  0.00000000000E+00  0.00000000000E+00  0.45593999997E+02  0.45594000000E+02  0.51100000000E-03 0. -1.
         11   -1    0    0    0    0 -0.00000000000E+00 -0.00000000000E+00 -0.45593999997E+02  0.45594000000E+02  0.51100000000E-03 0.  1.
         23    2    1    2    0    0  0.00000000000E+00  0.00000000000E+00  0.00000000000E+00  0.91188000000E+02  0.91188000000E+02 0.  0.
    9900012    2    3    3    0    0 -0.20506198030E+02  0.87407610321E+01 -0.29306550051E+02  0.54367096467E+02  0.40000028017E+02 0.  0.
         12    1    3    3    0    0  0.20506198030E+02 -0.87407610321E+01  0.29306550051E+02  0.36820903533E+02  0.00000000000E+00 0. -1.
         11    1    4    4    0    0  0.18562711161E+01 -0.57962000890E+01 -0.73663466231E+01  0.95553514200E+01  0.51100000000E-03 0.  1.
        -11    1    4    4    0    0 -0.59479809027E+01  0.20756419148E+01  0.69139441112E+01  0.93535763006E+01  0.51100000000E-03 0. -1.
        -12    1    4    4    0    0 -0.16414488243E+02  0.12461319206E+02 -0.28854147539E+02  0.35458168747E+02  0.00000000000E+00 0.  1.
</event>
<event>
 8    1  0.1229941E-006  0.9118800E+02  0.7816164E-02  0.1184000E+00
        -11   -1    0    0    0    0  0.00000000000E+00  0.00000000000E+00  0.45593999997E+02  0.45594000000E+02  0.51100000000E-03 0. -1.
         11   -1    0    0    0    0 -0.00000000000E+00 -0.00000000000E+00 -0.45593999997E+02  0.45594000000E+02  0.51100000000E-03 0.  1.
         23    2    1    2    0    0 -0.35527136788E-14 -0.88817841970E-15  0.00000000000E+00  0.91188000000E+02  0.91188000000E+02 0.  0.
    9900012    2    3    3    0    0  0.30729501022E+02  0.59014845531E+01 -0.19407516571E+02  0.54367062309E+02  0.39999950146E+02 0.  0.
        -12    1    3    3    0    0 -0.30729501022E+02 -0.59014845531E+01  0.19407516571E+02  0.36820937691E+02  0.00000000000E+00 0.  1.
         11    1    4    4    0    0  0.15140935498E+02  0.49883678783E+01  0.92509883005E+01  0.18431292050E+02  0.51100000000E-03 0. -1.
        -11    1    4    4    0    0  0.24535235050E+01 -0.61530960225E+01 -0.10780894227E+02  0.12653380926E+02  0.51100000000E-03 0.  1.
         12    1    4    4    0    0  0.13135042019E+02  0.70662126974E+01 -0.17877610645E+02  0.23282389334E+02  0.00000000000E+00 0. -1.
</event>
<event>
 8    1  0.1229941E-006  0.9118800E+02  0.7816164E-02  0.1184000E+00
        -11   -1    0    0    0    0  0.00000000000E+00  0.00000000000E+00  0.45593999997E+02  0.45594000000E+02  0.51100000000E-03 0. -1.
         11   -1    0    0    0    0 -0.00000000000E+00 -0.00000000000E+00 -0.45593999997E+02  0.45594000000E+02  0.51100000000E-03 0.  1.
         23    2    1    2    0    0  0.00000000000E+00  0.22204460493E-14  0.17763568394E-14  0.91188000000E+02  0.91188000000E+02 0.  0.
    9900012    2    3    3    0    0  0.34966106069E+02 -0.32416950344E+01  0.11073967454E+02  0.54367218972E+02  0.40000307289E+02 0.  0.
         12    1    3    3    0    0 -0.34966106069E+02  0.32416950344E+01 -0.11073967454E+02  0.36820781028E+02  0.00000000000E+00 0. -1.
         11    1    4    4    0    0 -0.41996680024E+01 -0.22874837418E+01  0.68929592210E+01  0.83894386155E+01  0.51100000000E-03 0. -1.
        -11    1    4    4    0    0  0.12393557110E+02  0.10361829019E+02 -0.19527776910E+01  0.16272095730E+02  0.51100000000E-03 0.  1.
        -12    1    4    4    0    0  0.26772216962E+02 -0.11316040312E+02  0.61337859244E+01  0.29705684627E+02  0.00000000000E+00 0.  1.
</event>
<event>
 8    1  0.1229941E-006  0.9118800E+02  0.7816164E-02  0.1184000E+00
        -11   -1    0    0    0    0  0.00000000000E+00  0.00000000000E+00  0.45593999997E+02  0.45594000000E+02  0.51100000000E-03 0.  1.
         11   -1    0    0    0    0 -0.00000000000E+00 -0.00000000000E+00 -0.45593999997E+02  0.45594000000E+02  0.51100000000E-03 0. -1.
         23    2    1    2    0    0 -0.35527136788E-14  0.00000000000E+00  0.00000000000E+00  0.91188000000E+02  0.91188000000E+02 0.  0.
    9900012    2    3    3    0    0 -0.30558691246E+02 -0.20442975904E+02 -0.20065313165E+01  0.54367149353E+02  0.40000148579E+02 0.  0.
        -12    1    3    3    0    0  0.30558691246E+02  0.20442975904E+02  0.20065313165E+01  0.36820850647E+02  0.00000000000E+00 0.  1.
         11    1    4    4    0    0 -0.18600983924E+02 -0.20518995541E+01  0.86965546124E+01  0.20635817335E+02  0.51100000000E-03 0. -1.
        -11    1    4    4    0    0 -0.68016769398E+01 -0.14033828982E+02 -0.17982913099E+02  0.23803283994E+02  0.51100000000E-03 0.  1.
        -12    1    4    4    0    0 -0.51560303824E+01 -0.43572473678E+01  0.72798271702E+01  0.99280480235E+01  0.00000000000E+00 0.  1.
</event>
<event>
 8    1  0.1229941E-006  0.9118800E+02  0.7816164E-02  0.1184000E+00
        -11   -1    0    0    0    0  0.00000000000E+00  0.00000000000E+00  0.45593999997E+02  0.45594000000E+02  0.51100000000E-03 0. -1.
         11   -1    0    0    0    0 -0.00000000000E+00 -0.00000000000E+00 -0.45593999997E+02  0.45594000000E+02  0.51100000000E-03 0.  1.
         23    2    1    2    0    0  0.00000000000E+00  0.00000000000E+00  0.00000000000E+00  0.91188000000E+02  0.91188000000E+02 0.  0.
    9900012    2    3    3    0    0  0.18747033829E+02 -0.12184330013E+02  0.29255264881E+02  0.54367086126E+02  0.40000004441E+02 0.  0.
        -12    1    3    3    0    0 -0.18747033829E+02  0.12184330013E+02 -0.29255264881E+02  0.36820913874E+02  0.00000000000E+00 0.  1.
         11    1    4    4    0    0 -0.76125436828E+01 -0.26510783138E+01  0.17506196392E+02  0.19272933091E+02  0.51100000000E-03 0. -1.
        -11    1    4    4    0    0  0.13411633443E+02 -0.11273729917E+02  0.13218170368E+02  0.21947412740E+02  0.51100000000E-03 0.  1.
        -12    1    4    4    0    0  0.12947944069E+02  0.17404782174E+01 -0.14691018789E+01  0.13146740295E+02  0.00000000000E+00 0.  1.
</event>
<event>
 8    1  0.1229941E-006  0.9118800E+02  0.7816164E-02  0.1184000E+00
        -11   -1    0    0    0    0  0.00000000000E+00  0.00000000000E+00  0.45593999997E+02  0.45594000000E+02  0.51100000000E-03 0. -1.
         11   -1    0    0    0    0 -0.00000000000E+00 -0.00000000000E+00 -0.45593999997E+02  0.45594000000E+02  0.51100000000E-03 0.  1.
         23    2    1    2    0    0  0.00000000000E+00 -0.35527136788E-14  0.17763568394E-14  0.91188000000E+02  0.91188000000E+02 0.  0.
    9900012    2    3    3    0    0  0.27541697815E+02  0.22041847347E+02  0.10554238176E+02  0.54367080722E+02  0.39999992122E+02 0.  0.
        -12    1    3    3    0    0 -0.27541697815E+02 -0.22041847347E+02 -0.10554238176E+02  0.36820919278E+02  0.00000000000E+00 0.  1.
         11    1    4    4    0    0  0.73473517680E+01  0.17394948314E+02  0.15918424777E+02  0.24697450323E+02  0.51100000000E-03 0. -1.
        -11    1    4    4    0    0  0.12579065436E+02 -0.51298537395E+01  0.39721710047E+01  0.14153671940E+02  0.51100000000E-03 0.  1.
         12    1    4    4    0    0  0.76152806108E+01  0.97767527729E+01 -0.93363576053E+01  0.15515958459E+02  0.00000000000E+00 0. -1.
</event>
<event>
 8    1  0.1229941E-006  0.9118800E+02  0.7816164E-02  0.1184000E+00
        -11   -1    0    0    0    0  0.00000000000E+00  0.00000000000E+00  0.45593999997E+02  0.45594000000E+02  0.51100000000E-03 0. -1.
         11   -1    0    0    0    0 -0.00000000000E+00 -0.00000000000E+00 -0.45593999997E+02  0.45594000000E+02  0.51100000000E-03 0.  1.
         23    2    1    2    0    0  0.00000000000E+00 -0.35527136788E-14 -0.17763568394E-14  0.91188000000E+02  0.91188000000E+02 0.  0.
    9900012    2    3    3    0    0  0.26564423093E+02  0.20855850261E+02  0.14667822891E+02  0.54367080773E+02  0.39999992237E+02 0.  0.
        -12    1    3    3    0    0 -0.26564423093E+02 -0.20855850261E+02 -0.14667822891E+02  0.36820919227E+02  0.00000000000E+00 0.  1.
         11    1    4    4    0    0  0.82571753911E+01  0.17547535752E+02  0.12364756811E+02  0.22999655816E+02  0.51100000000E-03 0. -1.
        -11    1    4    4    0    0  0.11790701200E+02 -0.50174976610E+01  0.11602924241E+02  0.17286519857E+02  0.51100000000E-03 0.  1.
        -12    1    4    4    0    0  0.65165465014E+01  0.83258121703E+01 -0.92998581607E+01  0.14080905099E+02  0.00000000000E+00 0.  1.
</event>
<event>
 8    1  0.1229941E-006  0.9118800E+02  0.7816164E-02  0.1184000E+00
        -11   -1    0    0    0    0  0.00000000000E+00  0.00000000000E+00  0.45593999997E+02  0.45594000000E+02  0.51100000000E-03 0. -1.
         11   -1    0    0    0    0 -0.00000000000E+00 -0.00000000000E+00 -0.45593999997E+02  0.45594000000E+02  0.51100000000E-03 0.  1.
         23    2    1    2    0    0 -0.35527136788E-14  0.00000000000E+00  0.35527136788E-14  0.91188000000E+02  0.91188000000E+02 0.  0.
    9900012    2    3    3    0    0 -0.24566370561E+02 -0.16632949247E+02  0.21808715862E+02  0.54367059617E+02  0.39999944008E+02 0.  0.
        -12    1    3    3    0    0  0.24566370561E+02  0.16632949247E+02 -0.21808715862E+02  0.36820940383E+02  0.00000000000E+00 0.  1.
         11    1    4    4    0    0  0.22922150761E+01 -0.11162880198E+02 -0.54011827030E+01  0.12610984066E+02  0.51100000000E-03 0. -1.
        -11    1    4    4    0    0 -0.11359998716E+02  0.53292926565E+01  0.13389413621E+02  0.18350131564E+02  0.51100000000E-03 0.  1.
         12    1    4    4    0    0 -0.15498586921E+02 -0.10799361706E+02  0.13820484943E+02  0.23405943986E+02  0.00000000000E+00 0. -1.
</event>
<event>
 8    1  0.1229941E-006  0.9118800E+02  0.7816164E-02  0.1184000E+00
        -11   -1    0    0    0    0  0.00000000000E+00  0.00000000000E+00  0.45593999997E+02  0.45594000000E+02  0.51100000000E-03 0.  1.
         11   -1    0    0    0    0 -0.00000000000E+00 -0.00000000000E+00 -0.45593999997E+02  0.45594000000E+02  0.51100000000E-03 0. -1.
         23    2    1    2    0    0  0.00000000000E+00  0.44408920985E-15  0.00000000000E+00  0.91188000000E+02  0.91188000000E+02 0.  0.
    9900012    2    3    3    0    0 -0.19408988960E+02  0.15963941696E+01  0.31249363126E+02  0.54367081725E+02  0.39999994409E+02 0.  0.
         12    1    3    3    0    0  0.19408988960E+02 -0.15963941696E+01 -0.31249363126E+02  0.36820918275E+02  0.00000000000E+00 0. -1.
         11    1    4    4    0    0 -0.14209514895E+02  0.70534115343E+01 -0.19163734297E+01  0.15979155647E+02  0.51100000000E-03 0. -1.
        -11    1    4    4    0    0 -0.91486469354E+01 -0.88129674875E+01  0.15844405074E+02  0.20307912475E+02  0.51100000000E-03 0.  1.
         12    1    4    4    0    0  0.39491728695E+01  0.33559501228E+01  0.17321331482E+02  0.18080013603E+02  0.00000000000E+00 0. -1.
</event>
<event>
 8    1  0.1229941E-006  0.9118800E+02  0.7816164E-02  0.1184000E+00
        -11   -1    0    0    0    0  0.00000000000E+00  0.00000000000E+00  0.45593999997E+02  0.45594000000E+02  0.51100000000E-03 0. -1.
         11   -1    0    0    0    0 -0.00000000000E+00 -0.00000000000E+00 -0.45593999997E+02  0.45594000000E+02  0.51100000000E-03 0.  1.
         23    2    1    2    0    0  0.00000000000E+00  0.00000000000E+00 -0.35527136788E-14  0.91188000000E+02  0.91188000000E+02 0.  0.
    9900012    2    3    3    0    0  0.26129637131E+02  0.17874778881E+01 -0.25881090669E+02  0.54367029508E+02  0.39999875368E+02 0.  0.
         12    1    3    3    0    0 -0.26129637131E+02 -0.17874778881E+01  0.25881090669E+02  0.36820970492E+02  0.00000000000E+00 0. -1.
         11    1    4    4    0    0 -0.20270001732E+01 -0.61307160082E+01  0.16776566293E+01  0.66715021174E+01  0.51100000000E-03 0. -1.
        -11    1    4    4    0    0  0.12826487797E+02 -0.82836244033E+01 -0.17507755257E+02  0.23230555673E+02  0.51100000000E-03 0.  1.
         12    1    4    4    0    0  0.15330149507E+02  0.16201818300E+02 -0.10050992041E+02  0.24464971717E+02  0.00000000000E+00 0. -1.
</event>
<event>
 8    1  0.1229941E-006  0.9118800E+02  0.7816164E-02  0.1184000E+00
        -11   -1    0    0    0    0  0.00000000000E+00  0.00000000000E+00  0.45593999997E+02  0.45594000000E+02  0.51100000000E-03 0. -1.
         11   -1    0    0    0    0 -0.00000000000E+00 -0.00000000000E+00 -0.45593999997E+02  0.45594000000E+02  0.51100000000E-03 0.  1.
         23    2    1    2    0    0  0.35527136788E-14 -0.88817841970E-15 -0.35527136788E-14  0.91188000000E+02  0.91188000000E+02 0.  0.
    9900012    2    3    3    0    0 -0.29787146600E+02  0.61371008059E+01  0.20756728771E+02  0.54367083415E+02  0.39999998262E+02 0.  0.
        -12    1    3    3    0    0  0.29787146600E+02 -0.61371008059E+01 -0.20756728771E+02  0.36820916585E+02  0.00000000000E+00 0.  1.
         11    1    4    4    0    0 -0.14589675474E+02  0.14219474063E+02  0.62938217917E+01  0.21322857831E+02  0.51100000000E-03 0. -1.
        -11    1    4    4    0    0 -0.19812729169E+01  0.74725538819E+01 -0.48316103443E+00  0.77458342828E+01  0.51100000000E-03 0.  1.
        -12    1    4    4    0    0 -0.13216198209E+02 -0.15554927139E+02  0.14946068014E+02  0.25298391302E+02  0.00000000000E+00 0.  1.
</event>
<event>
 8    1  0.1229941E-006  0.9118800E+02  0.7816164E-02  0.1184000E+00
        -11   -1    0    0    0    0  0.00000000000E+00  0.00000000000E+00  0.45593999997E+02  0.45594000000E+02  0.51100000000E-03 0. -1.
         11   -1    0    0    0    0 -0.00000000000E+00 -0.00000000000E+00 -0.45593999997E+02  0.45594000000E+02  0.51100000000E-03 0.  1.
         23    2    1    2    0    0  0.00000000000E+00  0.35527136788E-14  0.71054273576E-14  0.91188000000E+02  0.91188000000E+02 0.  0.
    9900012    2    3    3    0    0 -0.41203030340E+01 -0.23006566829E+02 -0.28451726732E+02  0.54367085177E+02  0.40000002279E+02 0.  0.
         12    1    3    3    0    0  0.41203030340E+01  0.23006566829E+02  0.28451726732E+02  0.36820914823E+02  0.00000000000E+00 0. -1.
         11    1    4    4    0    0  0.11385252559E+02 -0.12048484938E+02 -0.14076868119E+02  0.21747371829E+02  0.51100000000E-03 0. -1.
        -11    1    4    4    0    0 -0.52746272586E+01 -0.14762690952E+02 -0.15117321047E+01  0.15749414944E+02  0.51100000000E-03 0.  1.
         12    1    4    4    0    0 -0.10230928335E+02  0.38046090614E+01 -0.12863126508E+02  0.16870298405E+02  0.00000000000E+00 0. -1.
</event>
<event>
 8    1  0.1229941E-006  0.9118800E+02  0.7816164E-02  0.1184000E+00
        -11   -1    0    0    0    0  0.00000000000E+00  0.00000000000E+00  0.45593999997E+02  0.45594000000E+02  0.51100000000E-03 0.  1.
         11   -1    0    0    0    0 -0.00000000000E+00 -0.00000000000E+00 -0.45593999997E+02  0.45594000000E+02  0.51100000000E-03 0. -1.
         23    2    1    2    0    0  0.00000000000E+00  0.35527136788E-14  0.88817841970E-15  0.91188000000E+02  0.91188000000E+02 0.  0.
    9900012    2    3    3    0    0  0.23152376117E+02  0.27926950176E+02 -0.63113119644E+01  0.54367085770E+02  0.40000003631E+02 0.  0.
        -12    1    3    3    0    0 -0.23152376117E+02 -0.27926950176E+02  0.63113119644E+01  0.36820914230E+02  0.00000000000E+00 0.  1.
         11    1    4    4    0    0  0.16018683487E+02  0.23143791709E+02 -0.71357168073E+01  0.29037075782E+02  0.51100000000E-03 0. -1.
        -11    1    4    4    0    0  0.15988264152E+01 -0.86017369838E+01  0.52270004757E+01  0.10191548424E+02  0.51100000000E-03 0.  1.
        -12    1    4    4    0    0  0.55348662145E+01  0.13384895450E+02 -0.44025956328E+01  0.15138461564E+02  0.00000000000E+00 0.  1.
</event>
<event>
 8    1  0.1229941E-006  0.9118800E+02  0.7816164E-02  0.1184000E+00
        -11   -1    0    0    0    0  0.00000000000E+00  0.00000000000E+00  0.45593999997E+02  0.45594000000E+02  0.51100000000E-03 0. -1.
         11   -1    0    0    0    0 -0.00000000000E+00 -0.00000000000E+00 -0.45593999997E+02  0.45594000000E+02  0.51100000000E-03 0.  1.
         23    2    1    2    0    0  0.00000000000E+00  0.00000000000E+00  0.00000000000E+00  0.91188000000E+02  0.91188000000E+02 0.  0.
    9900012    2    3    3    0    0 -0.28210982819E+02 -0.15607006673E+02 -0.17785984373E+02  0.54367089514E+02  0.40000012165E+02 0.  0.
         12    1    3    3    0    0  0.28210982819E+02  0.15607006673E+02  0.17785984373E+02  0.36820910486E+02  0.00000000000E+00 0. -1.
         11    1    4    4    0    0 -0.14691890375E+02 -0.12119861424E+02 -0.29455992748E+01  0.19272240115E+02  0.51100000000E-03 0. -1.
        -11    1    4    4    0    0 -0.15404970759E+02 -0.13966410616E+02 -0.12260876954E+02  0.24139238877E+02  0.51100000000E-03 0.  1.
         12    1    4    4    0    0  0.18858783153E+01  0.10479265367E+02 -0.25795081441E+01  0.10955610522E+02  0.00000000000E+00 0. -1.
</event>
<event>
 8    1  0.1229941E-006  0.9118800E+02  0.7816164E-02  0.1184000E+00
        -11   -1    0    0    0    0  0.00000000000E+00  0.00000000000E+00  0.45593999997E+02  0.45594000000E+02  0.51100000000E-03 0. -1.
         11   -1    0    0    0    0 -0.00000000000E+00 -0.00000000000E+00 -0.45593999997E+02  0.45594000000E+02  0.51100000000E-03 0.  1.
         23    2    1    2    0    0  0.00000000000E+00  0.00000000000E+00  0.00000000000E+00  0.91188000000E+02  0.91188000000E+02 0.  0.
    9900012    2    3    3    0    0  0.14164813223E+02 -0.60841229675E+01  0.33438301611E+02  0.54367102393E+02  0.40000041525E+02 0.  0.
        -12    1    3    3    0    0 -0.14164813223E+02  0.60841229675E+01 -0.33438301611E+02  0.36820897607E+02  0.00000000000E+00 0.  1.
         11    1    4    4    0    0 -0.80228341114E+01  0.11180081059E+01  0.40975887962E+01  0.90777774542E+01  0.51100000000E-03 0. -1.
        -11    1    4    4    0    0  0.10854596800E+02  0.90770781186E+00 -0.19224071700E+01  0.11060825229E+02  0.51100000000E-03 0.  1.
         12    1    4    4    0    0  0.11333050535E+02 -0.81098388853E+01  0.31263119985E+02  0.34228499710E+02  0.00000000000E+00 0. -1.
</event>
<event>
 8    1  0.1229941E-006  0.9118800E+02  0.7816164E-02  0.1184000E+00
        -11   -1    0    0    0    0  0.00000000000E+00  0.00000000000E+00  0.45593999997E+02  0.45594000000E+02  0.51100000000E-03 0.  1.
         11   -1    0    0    0    0 -0.00000000000E+00 -0.00000000000E+00 -0.45593999997E+02  0.45594000000E+02  0.51100000000E-03 0. -1.
         23    2    1    2    0    0  0.35527136788E-14  0.35527136788E-14  0.35527136788E-14  0.91188000000E+02  0.91188000000E+02 0.  0.
    9900012    2    3    3    0    0  0.14595164693E+02  0.22428221750E+02  0.25293010150E+02  0.54367077609E+02  0.39999985024E+02 0.  0.
         12    1    3    3    0    0 -0.14595164693E+02 -0.22428221750E+02 -0.25293010150E+02  0.36820922391E+02  0.00000000000E+00 0. -1.
         11    1    4    4    0    0 -0.99896435143E+00 -0.69004790331E+01  0.42872023211E+01  0.81850256362E+01  0.51100000000E-03 0. -1.
        -11    1    4    4    0    0  0.23029297214E+01  0.14139190849E+02 -0.31866603990E+01  0.14675660391E+02  0.51100000000E-03 0.  1.
        -12    1    4    4    0    0  0.13291199323E+02  0.15189509935E+02  0.24192468228E+02  0.31506391581E+02  0.00000000000E+00 0.  1.
</event>
<event>
 8    1  0.1229941E-006  0.9118800E+02  0.7816164E-02  0.1184000E+00
        -11   -1    0    0    0    0  0.00000000000E+00  0.00000000000E+00  0.45593999997E+02  0.45594000000E+02  0.51100000000E-03 0.  1.
         11   -1    0    0    0    0 -0.00000000000E+00 -0.00000000000E+00 -0.45593999997E+02  0.45594000000E+02  0.51100000000E-03 0. -1.
         23    2    1    2    0    0  0.00000000000E+00  0.00000000000E+00  0.00000000000E+00  0.91188000000E+02  0.91188000000E+02 0.  0.
    9900012    2    3    3    0    0 -0.14150187288E+02 -0.29581147674E+02 -0.16748310369E+02  0.54367109215E+02  0.40000057078E+02 0.  0.
        -12    1    3    3    0    0  0.14150187288E+02  0.29581147674E+02  0.16748310369E+02  0.36820890785E+02  0.00000000000E+00 0.  1.
         11    1    4    4    0    0  0.83944291780E+00 -0.14067229340E+02 -0.15154565188E+02  0.20694261330E+02  0.51100000000E-03 0. -1.
        -11    1    4    4    0    0 -0.13262761732E+02 -0.13669898977E+02 -0.12299824041E+02  0.22672729401E+02  0.51100000000E-03 0.  1.
        -12    1    4    4    0    0 -0.17268684742E+01 -0.18440193568E+01  0.10706078860E+02  0.11000118484E+02  0.00000000000E+00 0.  1.
</event>
<event>
 8    1  0.1229941E-006  0.9118800E+02  0.7816164E-02  0.1184000E+00
        -11   -1    0    0    0    0  0.00000000000E+00  0.00000000000E+00  0.45593999997E+02  0.45594000000E+02  0.51100000000E-03 0. -1.
         11   -1    0    0    0    0 -0.00000000000E+00 -0.00000000000E+00 -0.45593999997E+02  0.45594000000E+02  0.51100000000E-03 0.  1.
         23    2    1    2    0    0  0.00000000000E+00 -0.17763568394E-14  0.17763568394E-14  0.91188000000E+02  0.91188000000E+02 0.  0.
    9900012    2    3    3    0    0 -0.35375347340E+02  0.55127369568E+01  0.86008845926E+01  0.54367072744E+02  0.39999973935E+02 0.  0.
        -12    1    3    3    0    0  0.35375347340E+02 -0.55127369568E+01 -0.86008845926E+01  0.36820927256E+02  0.00000000000E+00 0.  1.
         11    1    4    4    0    0 -0.13340956474E+01  0.99674658925E+01 -0.47079464456E+00  0.10067364867E+02  0.51100000000E-03 0. -1.
        -11    1    4    4    0    0 -0.28309905513E+02  0.32267957725E+00  0.17310451595E+02  0.33184433202E+02  0.51100000000E-03 0.  1.
        -12    1    4    4    0    0 -0.57313461796E+01 -0.47774085129E+01 -0.82387723576E+01  0.11115274675E+02  0.00000000000E+00 0.  1.
</event>
<event>
 8    1  0.1229941E-006  0.9118800E+02  0.7816164E-02  0.1184000E+00
        -11   -1    0    0    0    0  0.00000000000E+00  0.00000000000E+00  0.45593999997E+02  0.45594000000E+02  0.51100000000E-03 0.  1.
         11   -1    0    0    0    0 -0.00000000000E+00 -0.00000000000E+00 -0.45593999997E+02  0.45594000000E+02  0.51100000000E-03 0. -1.
         23    2    1    2    0    0  0.00000000000E+00  0.00000000000E+00 -0.17763568394E-14  0.91188000000E+02  0.91188000000E+02 0.  0.
    9900012    2    3    3    0    0  0.29988264281E+01  0.35266839675E+02  0.10150738328E+02  0.54367076203E+02  0.39999981821E+02 0.  0.
        -12    1    3    3    0    0 -0.29988264281E+01 -0.35266839675E+02 -0.10150738328E+02  0.36820923797E+02  0.00000000000E+00 0.  1.
         11    1    4    4    0    0  0.15711684570E+02  0.18642251814E+02  0.11061209844E+02  0.26772018008E+02  0.51100000000E-03 0. -1.
        -11    1    4    4    0    0 -0.24682058838E+01  0.20451725232E+01  0.73021165879E+01  0.79746898284E+01  0.51100000000E-03 0.  1.
         12    1    4    4    0    0 -0.10244652258E+02  0.14579415338E+02 -0.82125881043E+01  0.19620368367E+02  0.00000000000E+00 0. -1.
</event>
<event>
 8    1  0.1229941E-006  0.9118800E+02  0.7816164E-02  0.1184000E+00
        -11   -1    0    0    0    0  0.00000000000E+00  0.00000000000E+00  0.45593999997E+02  0.45594000000E+02  0.51100000000E-03 0. -1.
         11   -1    0    0    0    0 -0.00000000000E+00 -0.00000000000E+00 -0.45593999997E+02  0.45594000000E+02  0.51100000000E-03 0.  1.
         23    2    1    2    0    0  0.35527136788E-14  0.35527136788E-14  0.00000000000E+00  0.91188000000E+02  0.91188000000E+02 0.  0.
    9900012    2    3    3    0    0 -0.27273245791E+02 -0.13761721597E+02  0.20556413288E+02  0.54367067847E+02  0.39999962771E+02 0.  0.
         12    1    3    3    0    0  0.27273245791E+02  0.13761721597E+02 -0.20556413288E+02  0.36820932153E+02  0.00000000000E+00 0. -1.
         11    1    4    4    0    0 -0.54489591867E+01  0.42748021721E+01  0.15365192154E+02  0.16853908153E+02  0.51100000000E-03 0. -1.
        -11    1    4    4    0    0 -0.16965421466E+02 -0.12627925644E+01 -0.44234818366E+01  0.17578036364E+02  0.51100000000E-03 0.  1.
        -12    1    4    4    0    0 -0.48588651380E+01 -0.16773731205E+02  0.96147029705E+01  0.19935123330E+02  0.00000000000E+00 0.  1.
</event>
<event>
 8    1  0.1229941E-006  0.9118800E+02  0.7816164E-02  0.1184000E+00
        -11   -1    0    0    0    0  0.00000000000E+00  0.00000000000E+00  0.45593999997E+02  0.45594000000E+02  0.51100000000E-03 0. -1.
         11   -1    0    0    0    0 -0.00000000000E+00 -0.00000000000E+00 -0.45593999997E+02  0.45594000000E+02  0.51100000000E-03 0.  1.
         23    2    1    2    0    0 -0.17763568394E-14  0.00000000000E+00 -0.35527136788E-14  0.91188000000E+02  0.91188000000E+02 0.  0.
    9900012    2    3    3    0    0  0.12913642354E+02  0.18601169452E+02  0.29034712221E+02  0.54367079620E+02  0.39999989610E+02 0.  0.
        -12    1    3    3    0    0 -0.12913642354E+02 -0.18601169452E+02 -0.29034712221E+02  0.36820920380E+02  0.00000000000E+00 0.  1.
         11    1    4    4    0    0  0.92564596942E+01 -0.30073829640E+01  0.70902657916E+01  0.12041522645E+02  0.51100000000E-03 0. -1.
        -11    1    4    4    0    0 -0.80036846081E+01  0.79018119344E+00 -0.22423763582E+01  0.83493476163E+01  0.51100000000E-03 0.  1.
        -12    1    4    4    0    0  0.11660867268E+02  0.20818371223E+02  0.24186822788E+02  0.33976209359E+02  0.00000000000E+00 0.  1.
</event>
<event>
 8    1  0.1229941E-006  0.9118800E+02  0.7816164E-02  0.1184000E+00
        -11   -1    0    0    0    0  0.00000000000E+00  0.00000000000E+00  0.45593999997E+02  0.45594000000E+02  0.51100000000E-03 0.  1.
         11   -1    0    0    0    0 -0.00000000000E+00 -0.00000000000E+00 -0.45593999997E+02  0.45594000000E+02  0.51100000000E-03 0. -1.
         23    2    1    2    0    0  0.00000000000E+00  0.00000000000E+00 -0.35527136788E-14  0.91188000000E+02  0.91188000000E+02 0.  0.
    9900012    2    3    3    0    0 -0.90726811277E+01  0.21642064281E+02 -0.28374031019E+02  0.54367107487E+02  0.40000053139E+02 0.  0.
        -12    1    3    3    0    0  0.90726811277E+01 -0.21642064281E+02  0.28374031019E+02  0.36820892513E+02  0.00000000000E+00 0.  1.
         11    1    4    4    0    0  0.72991694410E+01 -0.61125592585E+01  0.11835381362E+01  0.95938531362E+01  0.51100000000E-03 0. -1.
        -11    1    4    4    0    0 -0.59565045604E+01  0.29924085156E+01 -0.73148480487E+01  0.98965376541E+01  0.51100000000E-03 0.  1.
        -12    1    4    4    0    0 -0.10415346008E+02  0.24762215024E+02 -0.22242721106E+02  0.34876716697E+02  0.00000000000E+00 0.  1.
</event>
<event>
 8    1  0.1229941E-006  0.9118800E+02  0.7816164E-02  0.1184000E+00
        -11   -1    0    0    0    0  0.00000000000E+00  0.00000000000E+00  0.45593999997E+02  0.45594000000E+02  0.51100000000E-03 0.  1.
         11   -1    0    0    0    0 -0.00000000000E+00 -0.00000000000E+00 -0.45593999997E+02  0.45594000000E+02  0.51100000000E-03 0. -1.
         23    2    1    2    0    0  0.00000000000E+00  0.17763568394E-14  0.00000000000E+00  0.91188000000E+02  0.91188000000E+02 0.  0.
    9900012    2    3    3    0    0 -0.32066248269E+02 -0.96448200313E+01  0.15313840017E+02  0.54367074868E+02  0.39999978777E+02 0.  0.
         12    1    3    3    0    0  0.32066248269E+02  0.96448200313E+01 -0.15313840017E+02  0.36820925132E+02  0.00000000000E+00 0. -1.
         11    1    4    4    0    0 -0.33491047783E+01  0.70260028953E+00  0.15544219693E+02  0.15916435408E+02  0.51100000000E-03 0. -1.
        -11    1    4    4    0    0 -0.17278461474E+02 -0.12527235244E+02  0.94186640619E+01  0.23327839307E+02  0.51100000000E-03 0.  1.
         12    1    4    4    0    0 -0.11438682017E+02  0.21798149235E+01 -0.96490437381E+01  0.15122800152E+02  0.00000000000E+00 0. -1.
</event>
<event>
 8    1  0.1229941E-006  0.9118800E+02  0.7816164E-02  0.1184000E+00
        -11   -1    0    0    0    0  0.00000000000E+00  0.00000000000E+00  0.45593999997E+02  0.45594000000E+02  0.51100000000E-03 0.  1.
         11   -1    0    0    0    0 -0.00000000000E+00 -0.00000000000E+00 -0.45593999997E+02  0.45594000000E+02  0.51100000000E-03 0. -1.
         23    2    1    2    0    0  0.00000000000E+00  0.17763568394E-14 -0.17763568394E-14  0.91188000000E+02  0.91188000000E+02 0.  0.
    9900012    2    3    3    0    0 -0.32591164388E+02  0.14988706675E+02  0.83026323844E+01  0.54367095224E+02  0.40000025183E+02 0.  0.
         12    1    3    3    0    0  0.32591164388E+02 -0.14988706675E+02 -0.83026323844E+01  0.36820904776E+02  0.00000000000E+00 0. -1.
         11    1    4    4    0    0 -0.29108369738E+02  0.17706129002E+02 -0.38856231619E+01  0.34291431301E+02  0.51100000000E-03 0. -1.
        -11    1    4    4    0    0 -0.82968345946E+01 -0.32030313796E+01  0.24871052088E+01  0.92348560839E+01  0.51100000000E-03 0.  1.
         12    1    4    4    0    0  0.48140399447E+01  0.48560905268E+00  0.97011503374E+01  0.10840807839E+02  0.00000000000E+00 0. -1.
</event>
<event>
 8    1  0.1229941E-006  0.9118800E+02  0.7816164E-02  0.1184000E+00
        -11   -1    0    0    0    0  0.00000000000E+00  0.00000000000E+00  0.45593999997E+02  0.45594000000E+02  0.51100000000E-03 0.  1.
         11   -1    0    0    0    0 -0.00000000000E+00 -0.00000000000E+00 -0.45593999997E+02  0.45594000000E+02  0.51100000000E-03 0. -1.
         23    2    1    2    0    0  0.35527136788E-14  0.35527136788E-14  0.00000000000E+00  0.91188000000E+02  0.91188000000E+02 0.  0.
    9900012    2    3    3    0    0  0.17552852732E+02 -0.30000761100E+02 -0.12150320153E+02  0.54367101241E+02  0.40000038899E+02 0.  0.
        -12    1    3    3    0    0 -0.17552852732E+02  0.30000761100E+02  0.12150320153E+02  0.36820898759E+02  0.00000000000E+00 0.  1.
         11    1    4    4    0    0  0.16409462294E+02 -0.26025074114E+02 -0.72419194060E+01  0.31607282901E+02  0.51100000000E-03 0. -1.
        -11    1    4    4    0    0 -0.99543222415E+01  0.89389879613E+00 -0.33503921527E+01  0.10541001574E+02  0.51100000000E-03 0.  1.
        -12    1    4    4    0    0  0.11097712679E+02 -0.48695857820E+01 -0.15580085946E+01  0.12218816767E+02  0.00000000000E+00 0.  1.
</event>
<event>
 8    1  0.1229941E-006  0.9118800E+02  0.7816164E-02  0.1184000E+00
        -11   -1    0    0    0    0  0.00000000000E+00  0.00000000000E+00  0.45593999997E+02  0.45594000000E+02  0.51100000000E-03 0. -1.
         11   -1    0    0    0    0 -0.00000000000E+00 -0.00000000000E+00 -0.45593999997E+02  0.45594000000E+02  0.51100000000E-03 0.  1.
         23    2    1    2    0    0  0.00000000000E+00  0.17763568394E-14 -0.35527136788E-14  0.91188000000E+02  0.91188000000E+02 0.  0.
    9900012    2    3    3    0    0  0.32440122072E+02 -0.40459841807E+01  0.16942501912E+02  0.54367083674E+02  0.39999998852E+02 0.  0.
         12    1    3    3    0    0 -0.32440122072E+02  0.40459841807E+01 -0.16942501912E+02  0.36820916326E+02  0.00000000000E+00 0. -1.
         11    1    4    4    0    0 -0.57812725673E+01 -0.78594028190E+00  0.36502762714E+01  0.68822475793E+01  0.51100000000E-03 0. -1.
        -11    1    4    4    0    0  0.61951816101E+01  0.44382261333E+01 -0.56511561985E+01  0.94875546393E+01  0.51100000000E-03 0.  1.
        -12    1    4    4    0    0  0.32026213029E+02 -0.76982700322E+01  0.18943381839E+02  0.37997281455E+02  0.00000000000E+00 0.  1.
</event>
<event>
 8    1  0.1229941E-006  0.9118800E+02  0.7816164E-02  0.1184000E+00
        -11   -1    0    0    0    0  0.00000000000E+00  0.00000000000E+00  0.45593999997E+02  0.45594000000E+02  0.51100000000E-03 0. -1.
         11   -1    0    0    0    0 -0.00000000000E+00 -0.00000000000E+00 -0.45593999997E+02  0.45594000000E+02  0.51100000000E-03 0.  1.
         23    2    1    2    0    0  0.00000000000E+00  0.00000000000E+00  0.00000000000E+00  0.91188000000E+02  0.91188000000E+02 0.  0.
    9900012    2    3    3    0    0  0.12449085085E+02  0.31159508917E+02 -0.15161977964E+02  0.54367078078E+02  0.39999986095E+02 0.  0.
         12    1    3    3    0    0 -0.12449085085E+02 -0.31159508917E+02  0.15161977964E+02  0.36820921922E+02  0.00000000000E+00 0. -1.
         11    1    4    4    0    0  0.95750185965E+01 -0.14328535698E+01 -0.15916680728E+02  0.18629942999E+02  0.51100000000E-03 0. -1.
        -11    1    4    4    0    0  0.29599962254E+01  0.26892494096E+02 -0.51378935210E+01  0.27538441613E+02  0.51100000000E-03 0.  1.
         12    1    4    4    0    0 -0.85929736978E-01  0.56998683904E+01  0.58925962851E+01  0.81986934671E+01  0.00000000000E+00 0. -1.
</event>
<event>
 8    1  0.1229941E-006  0.9118800E+02  0.7816164E-02  0.1184000E+00
        -11   -1    0    0    0    0  0.00000000000E+00  0.00000000000E+00  0.45593999997E+02  0.45594000000E+02  0.51100000000E-03 0.  1.
         11   -1    0    0    0    0 -0.00000000000E+00 -0.00000000000E+00 -0.45593999997E+02  0.45594000000E+02  0.51100000000E-03 0. -1.
         23    2    1    2    0    0 -0.35527136788E-14  0.00000000000E+00  0.35527136788E-14  0.91188000000E+02  0.91188000000E+02 0.  0.
    9900012    2    3    3    0    0  0.23858295927E+02  0.12351236074E+02  0.25179801742E+02  0.54366895551E+02  0.39999569985E+02 0.  0.
         12    1    3    3    0    0 -0.23858295927E+02 -0.12351236074E+02 -0.25179801742E+02  0.36821104449E+02  0.00000000000E+00 0. -1.
         11    1    4    4    0    0  0.82357665284E+01  0.73303035110E+01  0.27676339801E+01  0.11367541422E+02  0.51100000000E-03 0. -1.
        -11    1    4    4    0    0  0.25495626934E+02  0.13957074416E+01  0.19373314998E+02  0.32051526114E+02  0.51100000000E-03 0.  1.
         12    1    4    4    0    0 -0.98730975349E+01  0.36252251214E+01  0.30388527635E+01  0.10947828014E+02  0.00000000000E+00 0. -1.
</event>
<event>
 8    1  0.1229941E-006  0.9118800E+02  0.7816164E-02  0.1184000E+00
        -11   -1    0    0    0    0  0.00000000000E+00  0.00000000000E+00  0.45593999997E+02  0.45594000000E+02  0.51100000000E-03 0.  1.
         11   -1    0    0    0    0 -0.00000000000E+00 -0.00000000000E+00 -0.45593999997E+02  0.45594000000E+02  0.51100000000E-03 0. -1.
         23    2    1    2    0    0 -0.88817841970E-15  0.00000000000E+00  0.71054273576E-14  0.91188000000E+02  0.91188000000E+02 0.  0.
    9900012    2    3    3    0    0  0.49760678609E+01 -0.58384043579E+01 -0.36012969512E+02  0.54367052295E+02  0.39999927317E+02 0.  0.
        -12    1    3    3    0    0 -0.49760678609E+01  0.58384043579E+01  0.36012969512E+02  0.36820947705E+02  0.00000000000E+00 0.  1.
         11    1    4    4    0    0  0.82408567730E+01 -0.44372223836E+01 -0.13674581171E+00  0.93605214872E+01  0.51100000000E-03 0. -1.
        -11    1    4    4    0    0 -0.18759588363E+00 -0.89890778735E+01 -0.84449962126E+00  0.90306086785E+01  0.51100000000E-03 0.  1.
         12    1    4    4    0    0 -0.30771930284E+01  0.75878958992E+01 -0.35031724079E+02  0.35975922129E+02  0.00000000000E+00 0. -1.
</event>
<event>
 8    1  0.1229941E-006  0.9118800E+02  0.7816164E-02  0.1184000E+00
        -11   -1    0    0    0    0  0.00000000000E+00  0.00000000000E+00  0.45593999997E+02  0.45594000000E+02  0.51100000000E-03 0.  1.
         11   -1    0    0    0    0 -0.00000000000E+00 -0.00000000000E+00 -0.45593999997E+02  0.45594000000E+02  0.51100000000E-03 0. -1.
         23    2    1    2    0    0  0.00000000000E+00  0.00000000000E+00  0.00000000000E+00  0.91188000000E+02  0.91188000000E+02 0.  0.
    9900012    2    3    3    0    0 -0.28939047508E+02  0.19985426840E+02  0.10903858747E+02  0.54367083496E+02  0.39999998446E+02 0.  0.
         12    1    3    3    0    0  0.28939047508E+02 -0.19985426840E+02 -0.10903858747E+02  0.36820916504E+02  0.00000000000E+00 0. -1.
         11    1    4    4    0    0 -0.62193787300E+01  0.16999252776E+01 -0.37280428414E+01  0.74477326365E+01  0.51100000000E-03 0. -1.
        -11    1    4    4    0    0  0.55969988438E+01  0.38153593520E+01  0.13494713058E+02  0.15099359053E+02  0.51100000000E-03 0.  1.
        -12    1    4    4    0    0 -0.28316667622E+02  0.14470142210E+02  0.11371885299E+01  0.31819991806E+02  0.00000000000E+00 0.  1.
</event>
<event>
 8    1  0.1229941E-006  0.9118800E+02  0.7816164E-02  0.1184000E+00
        -11   -1    0    0    0    0  0.00000000000E+00  0.00000000000E+00  0.45593999997E+02  0.45594000000E+02  0.51100000000E-03 0. -1.
         11   -1    0    0    0    0 -0.00000000000E+00 -0.00000000000E+00 -0.45593999997E+02  0.45594000000E+02  0.51100000000E-03 0.  1.
         23    2    1    2    0    0  0.00000000000E+00  0.00000000000E+00 -0.35527136788E-14  0.91188000000E+02  0.91188000000E+02 0.  0.
    9900012    2    3    3    0    0  0.11268616414E+02 -0.26879925531E+02 -0.22500404353E+02  0.54367077843E+02  0.39999985560E+02 0.  0.
         12    1    3    3    0    0 -0.11268616414E+02  0.26879925531E+02  0.22500404353E+02  0.36820922157E+02  0.00000000000E+00 0. -1.
         11    1    4    4    0    0  0.10534721838E+02 -0.30630478879E+02 -0.73545025495E+01  0.33215889399E+02  0.51100000000E-03 0. -1.
        -11    1    4    4    0    0  0.40298702748E+00  0.83079585322E+01 -0.42600174692E+01  0.93451764357E+01  0.51100000000E-03 0.  1.
         12    1    4    4    0    0  0.33090754831E+00 -0.45574051845E+01 -0.10885884334E+02  0.11806012009E+02  0.00000000000E+00 0. -1.
</event>
<event>
 8    1  0.1229941E-006  0.9118800E+02  0.7816164E-02  0.1184000E+00
        -11   -1    0    0    0    0  0.00000000000E+00  0.00000000000E+00  0.45593999997E+02  0.45594000000E+02  0.51100000000E-03 0.  1.
         11   -1    0    0    0    0 -0.00000000000E+00 -0.00000000000E+00 -0.45593999997E+02  0.45594000000E+02  0.51100000000E-03 0. -1.
         23    2    1    2    0    0 -0.17763568394E-14  0.00000000000E+00 -0.71054273576E-14  0.91188000000E+02  0.91188000000E+02 0.  0.
    9900012    2    3    3    0    0 -0.84862468114E+01  0.23811839348E+01 -0.35750555037E+02  0.54366965151E+02  0.39999728654E+02 0.  0.
        -12    1    3    3    0    0  0.84862468114E+01 -0.23811839348E+01  0.35750555037E+02  0.36821034849E+02  0.00000000000E+00 0.  1.
         11    1    4    4    0    0 -0.35932216723E+01  0.51729694270E+01 -0.32808865526E+02  0.33407970786E+02  0.51100000000E-03 0. -1.
        -11    1    4    4    0    0  0.25344229929E+01 -0.93812589920E+01 -0.48302164787E+01  0.10851834484E+02  0.51100000000E-03 0.  1.
        -12    1    4    4    0    0 -0.74274481320E+01  0.65894734997E+01  0.18885269673E+01  0.10107159881E+02  0.00000000000E+00 0.  1.
</event>
<event>
 8    1  0.1229941E-006  0.9118800E+02  0.7816164E-02  0.1184000E+00
        -11   -1    0    0    0    0  0.00000000000E+00  0.00000000000E+00  0.45593999997E+02  0.45594000000E+02  0.51100000000E-03 0.  1.
         11   -1    0    0    0    0 -0.00000000000E+00 -0.00000000000E+00 -0.45593999997E+02  0.45594000000E+02  0.51100000000E-03 0. -1.
         23    2    1    2    0    0  0.00000000000E+00  0.00000000000E+00  0.00000000000E+00  0.91188000000E+02  0.91188000000E+02 0.  0.
    9900012    2    3    3    0    0 -0.33267476186E+02 -0.64440382290E+01 -0.14406093370E+02  0.54366998836E+02  0.39999805447E+02 0.  0.
        -12    1    3    3    0    0  0.33267476186E+02  0.64440382290E+01  0.14406093370E+02  0.36821001164E+02  0.00000000000E+00 0.  1.
         11    1    4    4    0    0 -0.97744100409E+01 -0.10651312415E+02 -0.31353571546E+00  0.14459870425E+02  0.51100000000E-03 0. -1.
        -11    1    4    4    0    0 -0.67786015352E+01  0.65013487869E+01 -0.19948127281E+02  0.22048690598E+02  0.51100000000E-03 0.  1.
        -12    1    4    4    0    0 -0.16714464610E+02 -0.22940746007E+01  0.58555696259E+01  0.17858437813E+02  0.00000000000E+00 0.  1.
</event>
<event>
 8    1  0.1229941E-006  0.9118800E+02  0.7816164E-02  0.1184000E+00
        -11   -1    0    0    0    0  0.00000000000E+00  0.00000000000E+00  0.45593999997E+02  0.45594000000E+02  0.51100000000E-03 0.  1.
         11   -1    0    0    0    0 -0.00000000000E+00 -0.00000000000E+00 -0.45593999997E+02  0.45594000000E+02  0.51100000000E-03 0. -1.
         23    2    1    2    0    0  0.00000000000E+00  0.11102230246E-14 -0.88817841970E-15  0.91188000000E+02  0.91188000000E+02 0.  0.
    9900012    2    3    3    0    0  0.36508152881E+02 -0.86368137920E+00  0.47105589232E+01  0.54367074731E+02  0.39999978465E+02 0.  0.
        -12    1    3    3    0    0 -0.36508152881E+02  0.86368137920E+00 -0.47105589232E+01  0.36820925269E+02  0.00000000000E+00 0.  1.
         11    1    4    4    0    0  0.14203762715E+02  0.73463803441E+01 -0.35900735446E+01  0.16389167390E+02  0.51100000000E-03 0. -1.
        -11    1    4    4    0    0  0.17154159841E+02  0.58398407432E+01  0.12990333792E+02  0.22296136707E+02  0.51100000000E-03 0.  1.
         12    1    4    4    0    0  0.51502303247E+01 -0.14049902466E+02 -0.46897013243E+01  0.15681770634E+02  0.00000000000E+00 0. -1.
</event>
<event>
 8    1  0.1229941E-006  0.9118800E+02  0.7816164E-02  0.1184000E+00
        -11   -1    0    0    0    0  0.00000000000E+00  0.00000000000E+00  0.45593999997E+02  0.45594000000E+02  0.51100000000E-03 0.  1.
         11   -1    0    0    0    0 -0.00000000000E+00 -0.00000000000E+00 -0.45593999997E+02  0.45594000000E+02  0.51100000000E-03 0. -1.
         23    2    1    2    0    0  0.35527136788E-14  0.00000000000E+00 -0.35527136788E-14  0.91188000000E+02  0.91188000000E+02 0.  0.
    9900012    2    3    3    0    0 -0.24198034404E+02 -0.40548664900E+01  0.27455275266E+02  0.54367096274E+02  0.40000027575E+02 0.  0.
         12    1    3    3    0    0  0.24198034404E+02  0.40548664900E+01 -0.27455275266E+02  0.36820903726E+02  0.00000000000E+00 0. -1.
         11    1    4    4    0    0 -0.15301195339E+02  0.11177909164E+02  0.90598554720E+01  0.21003647624E+02  0.51100000000E-03 0. -1.
        -11    1    4    4    0    0  0.42932346853E+01  0.17343745675E+01  0.85528535354E+01  0.97258019239E+01  0.51100000000E-03 0.  1.
         12    1    4    4    0    0 -0.13190073751E+02 -0.16967150221E+02  0.98425662586E+01  0.23637646726E+02  0.00000000000E+00 0. -1.
</event>
<event>
 8    1  0.1229941E-006  0.9118800E+02  0.7816164E-02  0.1184000E+00
        -11   -1    0    0    0    0  0.00000000000E+00  0.00000000000E+00  0.45593999997E+02  0.45594000000E+02  0.51100000000E-03 0. -1.
         11   -1    0    0    0    0 -0.00000000000E+00 -0.00000000000E+00 -0.45593999997E+02  0.45594000000E+02  0.51100000000E-03 0.  1.
         23    2    1    2    0    0  0.35527136788E-14  0.00000000000E+00  0.88817841970E-15  0.91188000000E+02  0.91188000000E+02 0.  0.
    9900012    2    3    3    0    0  0.17859887845E+02 -0.31736890499E+02  0.54382753666E+01  0.54367073188E+02  0.39999974946E+02 0.  0.
        -12    1    3    3    0    0 -0.17859887845E+02  0.31736890499E+02 -0.54382753666E+01  0.36820926812E+02  0.00000000000E+00 0.  1.
         11    1    4    4    0    0 -0.15258687496E+01  0.21902191816E+01  0.25530489112E+01  0.36936965913E+01  0.51100000000E-03 0. -1.
        -11    1    4    4    0    0  0.16686380220E+02 -0.41144758786E+00  0.34507956481E+01  0.17044429143E+02  0.51100000000E-03 0.  1.
         12    1    4    4    0    0  0.26993763747E+01 -0.33515662092E+02 -0.56556919267E+00  0.33628947453E+02  0.00000000000E+00 0. -1.
</event>
<event>
 8    1  0.1229941E-006  0.9118800E+02  0.7816164E-02  0.1184000E+00
        -11   -1    0    0    0    0  0.00000000000E+00  0.00000000000E+00  0.45593999997E+02  0.45594000000E+02  0.51100000000E-03 0.  1.
         11   -1    0    0    0    0 -0.00000000000E+00 -0.00000000000E+00 -0.45593999997E+02  0.45594000000E+02  0.51100000000E-03 0. -1.
         23    2    1    2    0    0 -0.17763568394E-14 -0.35527136788E-14  0.00000000000E+00  0.91188000000E+02  0.91188000000E+02 0.  0.
    9900012    2    3    3    0    0  0.10876763529E+02  0.31142160135E+02 -0.16359897984E+02  0.54367022490E+02  0.39999859370E+02 0.  0.
        -12    1    3    3    0    0 -0.10876763529E+02 -0.31142160135E+02  0.16359897984E+02  0.36820977510E+02  0.00000000000E+00 0.  1.
         11    1    4    4    0    0  0.95555809293E+01  0.22004221229E+01 -0.10159613219E+02  0.14119799058E+02  0.51100000000E-03 0. -1.
        -11    1    4    4    0    0  0.26264084945E+01  0.43966579300E+00 -0.10997049858E+02  0.11314876642E+02  0.51100000000E-03 0.  1.
        -12    1    4    4    0    0 -0.13052258948E+01  0.28502072219E+02  0.47967650923E+01  0.28932346790E+02  0.00000000000E+00 0.  1.
</event>
<event>
 8    1  0.1229941E-006  0.9118800E+02  0.7816164E-02  0.1184000E+00
        -11   -1    0    0    0    0  0.00000000000E+00  0.00000000000E+00  0.45593999997E+02  0.45594000000E+02  0.51100000000E-03 0.  1.
         11   -1    0    0    0    0 -0.00000000000E+00 -0.00000000000E+00 -0.45593999997E+02  0.45594000000E+02  0.51100000000E-03 0. -1.
         23    2    1    2    0    0  0.88817841970E-15  0.00000000000E+00  0.35527136788E-14  0.91188000000E+02  0.91188000000E+02 0.  0.
    9900012    2    3    3    0    0  0.56954214772E+01  0.19934263628E+02 -0.30429720651E+02  0.54367074006E+02  0.39999976811E+02 0.  0.
        -12    1    3    3    0    0 -0.56954214772E+01 -0.19934263628E+02  0.30429720651E+02  0.36820925994E+02  0.00000000000E+00 0.  1.
         11    1    4    4    0    0 -0.58183336370E+01  0.13662590043E+02 -0.19383356855E+02  0.24417901143E+02  0.51100000000E-03 0. -1.
        -11    1    4    4    0    0  0.15939790322E+02  0.47878520023E+01  0.13549153612E+01  0.16698390287E+02  0.51100000000E-03 0.  1.
        -12    1    4    4    0    0 -0.44260352075E+01  0.14838215828E+01 -0.12401279156E+02  0.13250782575E+02  0.00000000000E+00 0.  1.
</event>
<event>
 8    1  0.1229941E-006  0.9118800E+02  0.7816164E-02  0.1184000E+00
        -11   -1    0    0    0    0  0.00000000000E+00  0.00000000000E+00  0.45593999997E+02  0.45594000000E+02  0.51100000000E-03 0.  1.
         11   -1    0    0    0    0 -0.00000000000E+00 -0.00000000000E+00 -0.45593999997E+02  0.45594000000E+02  0.51100000000E-03 0. -1.
         23    2    1    2    0    0  0.00000000000E+00  0.17763568394E-14  0.00000000000E+00  0.91188000000E+02  0.91188000000E+02 0.  0.
    9900012    2    3    3    0    0  0.10074914131E+02 -0.78272316580E+01  0.34539968081E+02  0.54367097713E+02  0.40000030857E+02 0.  0.
         12    1    3    3    0    0 -0.10074914131E+02  0.78272316580E+01 -0.34539968081E+02  0.36820902287E+02  0.00000000000E+00 0. -1.
         11    1    4    4    0    0  0.35908618365E+01  0.13074442833E+02  0.76512591698E+01  0.15568465283E+02  0.51100000000E-03 0. -1.
        -11    1    4    4    0    0  0.22171725108E+00 -0.15746266815E+02  0.26314766130E+02  0.30666936493E+02  0.51100000000E-03 0.  1.
         12    1    4    4    0    0  0.62623350431E+01 -0.51554076756E+01  0.57394278155E+00  0.81316959369E+01  0.00000000000E+00 0. -1.
</event>
<event>
 8    1  0.1229941E-006  0.9118800E+02  0.7816164E-02  0.1184000E+00
        -11   -1    0    0    0    0  0.00000000000E+00  0.00000000000E+00  0.45593999997E+02  0.45594000000E+02  0.51100000000E-03 0.  1.
         11   -1    0    0    0    0 -0.00000000000E+00 -0.00000000000E+00 -0.45593999997E+02  0.45594000000E+02  0.51100000000E-03 0. -1.
         23    2    1    2    0    0 -0.88817841970E-15  0.00000000000E+00  0.00000000000E+00  0.91188000000E+02  0.91188000000E+02 0.  0.
    9900012    2    3    3    0    0  0.76954289109E+01  0.15795477072E+02 -0.32358346745E+02  0.54367091183E+02  0.40000015970E+02 0.  0.
        -12    1    3    3    0    0 -0.76954289109E+01 -0.15795477072E+02  0.32358346745E+02  0.36820908817E+02  0.00000000000E+00 0.  1.
         11    1    4    4    0    0 -0.49142608761E+01  0.41598800314E+00 -0.24737675280E+01  0.55174751491E+01  0.51100000000E-03 0. -1.
        -11    1    4    4    0    0  0.15341480108E+02  0.15911733804E+02 -0.35714637647E+01  0.22389721710E+02  0.51100000000E-03 0.  1.
        -12    1    4    4    0    0 -0.27317903213E+01 -0.53224473564E+00 -0.26313115452E+02  0.26459894324E+02  0.00000000000E+00 0.  1.
</event>
<event>
 8    1  0.1229941E-006  0.9118800E+02  0.7816164E-02  0.1184000E+00
        -11   -1    0    0    0    0  0.00000000000E+00  0.00000000000E+00  0.45593999997E+02  0.45594000000E+02  0.51100000000E-03 0.  1.
         11   -1    0    0    0    0 -0.00000000000E+00 -0.00000000000E+00 -0.45593999997E+02  0.45594000000E+02  0.51100000000E-03 0. -1.
         23    2    1    2    0    0 -0.35527136788E-14  0.00000000000E+00 -0.35527136788E-14  0.91188000000E+02  0.91188000000E+02 0.  0.
    9900012    2    3    3    0    0 -0.24133490261E+02  0.11197396500E+02  0.25455315106E+02  0.54367080569E+02  0.39999991774E+02 0.  0.
         12    1    3    3    0    0  0.24133490261E+02 -0.11197396500E+02 -0.25455315106E+02  0.36820919431E+02  0.00000000000E+00 0. -1.
         11    1    4    4    0    0  0.31980738338E+01 -0.41915332444E+01 -0.37966116893E+01  0.64969906699E+01  0.51100000000E-03 0. -1.
        -11    1    4    4    0    0 -0.11733059341E+02 -0.34608574322E+01  0.44126202959E+01  0.13004362106E+02  0.51100000000E-03 0.  1.
        -12    1    4    4    0    0 -0.15598504755E+02  0.18849787177E+02  0.24839306499E+02  0.34865727793E+02  0.00000000000E+00 0.  1.
</event>
<event>
 8    1  0.1229941E-006  0.9118800E+02  0.7816164E-02  0.1184000E+00
        -11   -1    0    0    0    0  0.00000000000E+00  0.00000000000E+00  0.45593999997E+02  0.45594000000E+02  0.51100000000E-03 0.  1.
         11   -1    0    0    0    0 -0.00000000000E+00 -0.00000000000E+00 -0.45593999997E+02  0.45594000000E+02  0.51100000000E-03 0. -1.
         23    2    1    2    0    0  0.00000000000E+00  0.00000000000E+00  0.17763568394E-14  0.91188000000E+02  0.91188000000E+02 0.  0.
    9900012    2    3    3    0    0 -0.30255824384E+02  0.17251949319E+02  0.11947188914E+02  0.54367082203E+02  0.39999995498E+02 0.  0.
        -12    1    3    3    0    0  0.30255824384E+02 -0.17251949319E+02 -0.11947188914E+02  0.36820917797E+02  0.00000000000E+00 0.  1.
         11    1    4    4    0    0  0.23130024171E+01  0.93710711176E-01  0.10152729039E+01  0.25277541830E+01  0.51100000000E-03 0.  1.
        -11    1    4    4    0    0 -0.22574496508E+01 -0.85327487370E+01 -0.35984503506E+01  0.95316695873E+01  0.51100000000E-03 0. -1.
         12    1    4    4    0    0 -0.30311377151E+02  0.25690987344E+02  0.14530366361E+02  0.42307658433E+02  0.00000000000E+00 0. -1.
</event>
<event>
 8    1  0.1229941E-006  0.9118800E+02  0.7816164E-02  0.1184000E+00
        -11   -1    0    0    0    0  0.00000000000E+00  0.00000000000E+00  0.45593999997E+02  0.45594000000E+02  0.51100000000E-03 0.  1.
         11   -1    0    0    0    0 -0.00000000000E+00 -0.00000000000E+00 -0.45593999997E+02  0.45594000000E+02  0.51100000000E-03 0. -1.
         23    2    1    2    0    0 -0.44408920985E-15 -0.44408920985E-15  0.00000000000E+00  0.91188000000E+02  0.91188000000E+02 0.  0.
    9900012    2    3    3    0    0  0.87145042717E+00 -0.24210576066E+01 -0.36730783075E+02  0.54367199207E+02  0.40000262231E+02 0.  0.
        -12    1    3    3    0    0 -0.87145042717E+00  0.24210576066E+01  0.36730783075E+02  0.36820800793E+02  0.00000000000E+00 0.  1.
         11    1    4    4    0    0  0.83701227755E+01  0.39475343839E+00 -0.31154118119E+02  0.32261336947E+02  0.51100000000E-03 0. -1.
        -11    1    4    4    0    0 -0.12126449162E+02  0.20407181945E+01  0.14606571255E+01  0.12383409043E+02  0.51100000000E-03 0.  1.
         12    1    4    4    0    0  0.46277768136E+01 -0.48565292396E+01 -0.70373220811E+01  0.97224532174E+01  0.00000000000E+00 0. -1.
</event>
<event>
 8    1  0.1229941E-006  0.9118800E+02  0.7816164E-02  0.1184000E+00
        -11   -1    0    0    0    0  0.00000000000E+00  0.00000000000E+00  0.45593999997E+02  0.45594000000E+02  0.51100000000E-03 0.  1.
         11   -1    0    0    0    0 -0.00000000000E+00 -0.00000000000E+00 -0.45593999997E+02  0.45594000000E+02  0.51100000000E-03 0. -1.
         23    2    1    2    0    0  0.35527136788E-14  0.00000000000E+00  0.00000000000E+00  0.91188000000E+02  0.91188000000E+02 0.  0.
    9900012    2    3    3    0    0  0.23268055366E+02 -0.15778220694E+02  0.23778674755E+02  0.54367081735E+02  0.39999994432E+02 0.  0.
         12    1    3    3    0    0 -0.23268055366E+02  0.15778220694E+02 -0.23778674755E+02  0.36820918265E+02  0.00000000000E+00 0. -1.
         11    1    4    4    0    0 -0.45852547992E+00  0.25189501247E+01  0.11158823168E+02  0.11448785529E+02  0.51100000000E-03 0. -1.
        -11    1    4    4    0    0  0.16643394697E+02 -0.88782287233E+01  0.21172638867E+02  0.28356765844E+02  0.51100000000E-03 0.  1.
         12    1    4    4    0    0  0.70831861488E+01 -0.94189420952E+01 -0.85527872800E+01  0.14561530362E+02  0.00000000000E+00 0. -1.
</event>
<event>
 8    1  0.1229941E-006  0.9118800E+02  0.7816164E-02  0.1184000E+00
        -11   -1    0    0    0    0  0.00000000000E+00  0.00000000000E+00  0.45593999997E+02  0.45594000000E+02  0.51100000000E-03 0.  1.
         11   -1    0    0    0    0 -0.00000000000E+00 -0.00000000000E+00 -0.45593999997E+02  0.45594000000E+02  0.51100000000E-03 0. -1.
         23    2    1    2    0    0  0.00000000000E+00  0.00000000000E+00  0.88817841970E-15  0.91188000000E+02  0.91188000000E+02 0.  0.
    9900012    2    3    3    0    0  0.18963531217E+02  0.30877726117E+02  0.65368227769E+01  0.54367088300E+02  0.40000009398E+02 0.  0.
         12    1    3    3    0    0 -0.18963531217E+02 -0.30877726117E+02 -0.65368227769E+01  0.36820911700E+02  0.00000000000E+00 0. -1.
         11    1    4    4    0    0 -0.21372544345E+01  0.10639296126E+02 -0.55132716298E+01  0.12172043497E+02  0.51100000000E-03 0. -1.
        -11    1    4    4    0    0  0.61859876662E+01 -0.50253954664E+01  0.99972950509E+01  0.12785419492E+02  0.51100000000E-03 0.  1.
        -12    1    4    4    0    0  0.14914797985E+02  0.25263825458E+02  0.20527993557E+01  0.29409625310E+02  0.00000000000E+00 0.  1.
</event>
<event>
 8    1  0.1229941E-006  0.9118800E+02  0.7816164E-02  0.1184000E+00
        -11   -1    0    0    0    0  0.00000000000E+00  0.00000000000E+00  0.45593999997E+02  0.45594000000E+02  0.51100000000E-03 0.  1.
         11   -1    0    0    0    0 -0.00000000000E+00 -0.00000000000E+00 -0.45593999997E+02  0.45594000000E+02  0.51100000000E-03 0. -1.
         23    2    1    2    0    0  0.00000000000E+00 -0.88817841970E-15  0.00000000000E+00  0.91188000000E+02  0.91188000000E+02 0.  0.
    9900012    2    3    3    0    0 -0.15592557867E+02 -0.40681317145E+01 -0.33107472872E+02  0.54367050576E+02  0.39999923399E+02 0.  0.
        -12    1    3    3    0    0  0.15592557867E+02  0.40681317145E+01  0.33107472872E+02  0.36820949424E+02  0.00000000000E+00 0.  1.
         11    1    4    4    0    0 -0.17706841513E+02  0.27802731175E+01 -0.28244611467E+02  0.33451759776E+02  0.51100000000E-03 0. -1.
        -11    1    4    4    0    0 -0.34538704620E+01 -0.36081531620E+01  0.62921369284E+01  0.80336154872E+01  0.51100000000E-03 0.  1.
        -12    1    4    4    0    0  0.55681541070E+01 -0.32402516699E+01 -0.11154998334E+02  0.12881675313E+02  0.00000000000E+00 0.  1.
</event>
<event>
 8    1  0.1229941E-006  0.9118800E+02  0.7816164E-02  0.1184000E+00
        -11   -1    0    0    0    0  0.00000000000E+00  0.00000000000E+00  0.45593999997E+02  0.45594000000E+02  0.51100000000E-03 0.  1.
         11   -1    0    0    0    0 -0.00000000000E+00 -0.00000000000E+00 -0.45593999997E+02  0.45594000000E+02  0.51100000000E-03 0. -1.
         23    2    1    2    0    0 -0.35527136788E-14  0.00000000000E+00  0.00000000000E+00  0.91188000000E+02  0.91188000000E+02 0.  0.
    9900012    2    3    3    0    0  0.28400001142E+02  0.16043808281E+02  0.17082630216E+02  0.54367080618E+02  0.39999991885E+02 0.  0.
         12    1    3    3    0    0 -0.28400001142E+02 -0.16043808281E+02 -0.17082630216E+02  0.36820919382E+02  0.00000000000E+00 0. -1.
         11    1    4    4    0    0  0.11237112291E+02 -0.42215552940E+01 -0.56652104151E+01  0.13273614092E+02  0.51100000000E-03 0. -1.
        -11    1    4    4    0    0  0.19800452783E+02  0.10677520943E+02  0.21417502274E+02  0.31060856199E+02  0.51100000000E-03 0.  1.
         12    1    4    4    0    0 -0.26375639322E+01  0.95878426326E+01  0.13303383572E+01  0.10032610328E+02  0.00000000000E+00 0. -1.
</event>
<event>
 8    1  0.1229941E-006  0.9118800E+02  0.7816164E-02  0.1184000E+00
        -11   -1    0    0    0    0  0.00000000000E+00  0.00000000000E+00  0.45593999997E+02  0.45594000000E+02  0.51100000000E-03 0.  1.
         11   -1    0    0    0    0 -0.00000000000E+00 -0.00000000000E+00 -0.45593999997E+02  0.45594000000E+02  0.51100000000E-03 0. -1.
         23    2    1    2    0    0 -0.55511151231E-15 -0.71054273576E-14  0.00000000000E+00  0.91188000000E+02  0.91188000000E+02 0.  0.
    9900012    2    3    3    0    0 -0.94595009536E+00 -0.34558400521E+02  0.12672786846E+02  0.54367117411E+02  0.40000075762E+02 0.  0.
        -12    1    3    3    0    0  0.94595009536E+00  0.34558400521E+02 -0.12672786846E+02  0.36820882589E+02  0.00000000000E+00 0.  1.
         11    1    4    4    0    0  0.14005646654E+02 -0.23000403610E+02  0.68655987043E+01  0.27790522670E+02  0.51100000000E-03 0. -1.
        -11    1    4    4    0    0 -0.17775659318E+02 -0.13554501925E+02  0.58906867098E+01  0.23117066786E+02  0.51100000000E-03 0.  1.
        -12    1    4    4    0    0  0.28240625687E+01  0.19965050141E+01 -0.83498568486E-01  0.34595279554E+01  0.00000000000E+00 0.  1.
</event>
<event>
 8    1  0.1229941E-006  0.9118800E+02  0.7816164E-02  0.1184000E+00
        -11   -1    0    0    0    0  0.00000000000E+00  0.00000000000E+00  0.45593999997E+02  0.45594000000E+02  0.51100000000E-03 0.  1.
         11   -1    0    0    0    0 -0.00000000000E+00 -0.00000000000E+00 -0.45593999997E+02  0.45594000000E+02  0.51100000000E-03 0. -1.
         23    2    1    2    0    0  0.17763568394E-14 -0.35527136788E-14  0.00000000000E+00  0.91188000000E+02  0.91188000000E+02 0.  0.
    9900012    2    3    3    0    0  0.77121547666E+01 -0.30421977763E+02  0.19256241982E+02  0.54367123891E+02  0.40000090534E+02 0.  0.
        -12    1    3    3    0    0 -0.77121547666E+01  0.30421977763E+02 -0.19256241982E+02  0.36820876109E+02  0.00000000000E+00 0.  1.
         11    1    4    4    0    0  0.34621376698E+00  0.89626832969E+00  0.29056717002E+01  0.30604067020E+01  0.51100000000E-03 0. -1.
        -11    1    4    4    0    0  0.80795298577E+01  0.15072641041E+01  0.16543783199E+02  0.18472883115E+02  0.51100000000E-03 0.  1.
         12    1    4    4    0    0 -0.71358885808E+00 -0.32825510197E+02 -0.19321291699E+00  0.32833834074E+02  0.00000000000E+00 0. -1.
</event>
<event>
 8    1  0.1229941E-006  0.9118800E+02  0.7816164E-02  0.1184000E+00
        -11   -1    0    0    0    0  0.00000000000E+00  0.00000000000E+00  0.45593999997E+02  0.45594000000E+02  0.51100000000E-03 0. -1.
         11   -1    0    0    0    0 -0.00000000000E+00 -0.00000000000E+00 -0.45593999997E+02  0.45594000000E+02  0.51100000000E-03 0.  1.
         23    2    1    2    0    0  0.00000000000E+00 -0.35527136788E-14  0.35527136788E-14  0.91188000000E+02  0.91188000000E+02 0.  0.
    9900012    2    3    3    0    0  0.11259301947E+02 -0.28161000802E+02  0.20879794567E+02  0.54367086545E+02  0.40000005397E+02 0.  0.
        -12    1    3    3    0    0 -0.11259301947E+02  0.28161000802E+02 -0.20879794567E+02  0.36820913455E+02  0.00000000000E+00 0.  1.
         11    1    4    4    0    0  0.15663216842E+00 -0.10443161579E+02  0.13155233853E+02  0.16797152598E+02  0.51100000000E-03 0. -1.
        -11    1    4    4    0    0  0.42827607643E+01  0.30049952920E+01 -0.87754886803E+01  0.10216713675E+02  0.51100000000E-03 0.  1.
        -12    1    4    4    0    0  0.68199090140E+01 -0.20722834515E+02  0.16500049394E+02  0.27353220273E+02  0.00000000000E+00 0.  1.
</event>
<event>
 8    1  0.1229941E-006  0.9118800E+02  0.7816164E-02  0.1184000E+00
        -11   -1    0    0    0    0  0.00000000000E+00  0.00000000000E+00  0.45593999997E+02  0.45594000000E+02  0.51100000000E-03 0.  1.
         11   -1    0    0    0    0 -0.00000000000E+00 -0.00000000000E+00 -0.45593999997E+02  0.45594000000E+02  0.51100000000E-03 0. -1.
         23    2    1    2    0    0  0.00000000000E+00  0.88817841970E-15 -0.17763568394E-14  0.91188000000E+02  0.91188000000E+02 0.  0.
    9900012    2    3    3    0    0 -0.32513232939E+02  0.69492973164E+01  0.15823304604E+02  0.54367081788E+02  0.39999994553E+02 0.  0.
         12    1    3    3    0    0  0.32513232939E+02 -0.69492973164E+01 -0.15823304604E+02  0.36820918212E+02  0.00000000000E+00 0. -1.
         11    1    4    4    0    0 -0.42918556611E+01 -0.46592497083E+00  0.38686307371E+01  0.57968452744E+01  0.51100000000E-03 0. -1.
        -11    1    4    4    0    0 -0.25448112300E+02  0.91848974727E+01  0.23949554677E+02  0.36132394477E+02  0.51100000000E-03 0.  1.
         12    1    4    4    0    0 -0.27732649784E+01 -0.17696751855E+01 -0.11994880809E+02  0.12437842037E+02  0.00000000000E+00 0. -1.
</event>
<event>
 8    1  0.1229941E-006  0.9118800E+02  0.7816164E-02  0.1184000E+00
        -11   -1    0    0    0    0  0.00000000000E+00  0.00000000000E+00  0.45593999997E+02  0.45594000000E+02  0.51100000000E-03 0.  1.
         11   -1    0    0    0    0 -0.00000000000E+00 -0.00000000000E+00 -0.45593999997E+02  0.45594000000E+02  0.51100000000E-03 0. -1.
         23    2    1    2    0    0  0.17763568394E-14 -0.35527136788E-14  0.00000000000E+00  0.91188000000E+02  0.91188000000E+02 0.  0.
    9900012    2    3    3    0    0  0.93827816430E+01  0.23991233058E+02  0.26309022438E+02  0.54367075017E+02  0.39999979115E+02 0.  0.
         12    1    3    3    0    0 -0.93827816430E+01 -0.23991233058E+02 -0.26309022438E+02  0.36820924983E+02  0.00000000000E+00 0. -1.
         11    1    4    4    0    0  0.13977716050E+01 -0.13650633764E+01  0.20048874741E+02  0.20143846259E+02  0.51100000000E-03 0. -1.
        -11    1    4    4    0    0  0.11834085650E+02  0.15050377310E+02  0.11181122046E+02  0.22171534246E+02  0.51100000000E-03 0.  1.
         12    1    4    4    0    0 -0.38490756122E+01  0.10305919124E+02 -0.49209743487E+01  0.12051694511E+02  0.00000000000E+00 0. -1.
</event>
<event>
 8    1  0.1229941E-006  0.9118800E+02  0.7816164E-02  0.1184000E+00
        -11   -1    0    0    0    0  0.00000000000E+00  0.00000000000E+00  0.45593999997E+02  0.45594000000E+02  0.51100000000E-03 0.  1.
         11   -1    0    0    0    0 -0.00000000000E+00 -0.00000000000E+00 -0.45593999997E+02  0.45594000000E+02  0.51100000000E-03 0. -1.
         23    2    1    2    0    0  0.00000000000E+00 -0.88817841970E-15  0.00000000000E+00  0.91188000000E+02  0.91188000000E+02 0.  0.
    9900012    2    3    3    0    0 -0.29016571314E+02 -0.77477716352E+01  0.21302003406E+02  0.54367289452E+02  0.40000467962E+02 0.  0.
         12    1    3    3    0    0  0.29016571314E+02  0.77477716352E+01 -0.21302003406E+02  0.36820710548E+02  0.00000000000E+00 0. -1.
         11    1    4    4    0    0 -0.10015658887E+02 -0.16762088079E+02 -0.52534788831E+01  0.20220782882E+02  0.51100000000E-03 0. -1.
        -11    1    4    4    0    0 -0.77397462446E+01  0.37933408802E+01  0.14341285251E+02  0.16732171702E+02  0.51100000000E-03 0.  1.
         12    1    4    4    0    0 -0.11261166182E+02  0.52209755635E+01  0.12214197039E+02  0.17414334869E+02  0.00000000000E+00 0. -1.
</event>
<event>
 8    1  0.1229941E-006  0.9118800E+02  0.7816164E-02  0.1184000E+00
        -11   -1    0    0    0    0  0.00000000000E+00  0.00000000000E+00  0.45593999997E+02  0.45594000000E+02  0.51100000000E-03 0.  1.
         11   -1    0    0    0    0 -0.00000000000E+00 -0.00000000000E+00 -0.45593999997E+02  0.45594000000E+02  0.51100000000E-03 0. -1.
         23    2    1    2    0    0  0.00000000000E+00  0.00000000000E+00  0.16653345369E-14  0.91188000000E+02  0.91188000000E+02 0.  0.
    9900012    2    3    3    0    0  0.13659182419E+02 -0.34184428574E+02  0.79474324318E+00  0.54367081514E+02  0.39999993929E+02 0.  0.
        -12    1    3    3    0    0 -0.13659182419E+02  0.34184428574E+02 -0.79474324318E+00  0.36820918486E+02  0.00000000000E+00 0.  1.
         11    1    4    4    0    0  0.16632587561E+01 -0.25208247414E+01 -0.35219378070E+01  0.46395078666E+01  0.51100000000E-03 0. -1.
        -11    1    4    4    0    0  0.99501580178E+01 -0.34819052715E+02  0.14396101542E+02  0.38969472878E+02  0.51100000000E-03 0.  1.
        -12    1    4    4    0    0  0.20457656447E+01  0.31554488817E+01 -0.10079420492E+02  0.10758100770E+02  0.00000000000E+00 0.  1.
</event>
<event>
 8    1  0.1229941E-006  0.9118800E+02  0.7816164E-02  0.1184000E+00
        -11   -1    0    0    0    0  0.00000000000E+00  0.00000000000E+00  0.45593999997E+02  0.45594000000E+02  0.51100000000E-03 0. -1.
         11   -1    0    0    0    0 -0.00000000000E+00 -0.00000000000E+00 -0.45593999997E+02  0.45594000000E+02  0.51100000000E-03 0.  1.
         23    2    1    2    0    0  0.00000000000E+00  0.00000000000E+00  0.00000000000E+00  0.91188000000E+02  0.91188000000E+02 0.  0.
    9900012    2    3    3    0    0  0.23228114162E+02  0.19793473055E+02 -0.20602243311E+02  0.54367091638E+02  0.40000017008E+02 0.  0.
         12    1    3    3    0    0 -0.23228114162E+02 -0.19793473055E+02  0.20602243311E+02  0.36820908362E+02  0.00000000000E+00 0. -1.
         11    1    4    4    0    0  0.26869698643E+01  0.18743055450E+02 -0.11429337545E+02  0.22116773988E+02  0.51100000000E-03 0. -1.
        -11    1    4    4    0    0  0.78027180920E+01  0.84624013105E+01 -0.12654836547E+02  0.17106710199E+02  0.51100000000E-03 0.  1.
        -12    1    4    4    0    0  0.12738426206E+02 -0.74119837061E+01  0.34819307801E+01  0.15143607451E+02  0.00000000000E+00 0.  1.
</event>
<event>
 8    1  0.1229941E-006  0.9118800E+02  0.7816164E-02  0.1184000E+00
        -11   -1    0    0    0    0  0.00000000000E+00  0.00000000000E+00  0.45593999997E+02  0.45594000000E+02  0.51100000000E-03 0. -1.
         11   -1    0    0    0    0 -0.00000000000E+00 -0.00000000000E+00 -0.45593999997E+02  0.45594000000E+02  0.51100000000E-03 0.  1.
         23    2    1    2    0    0  0.35527136788E-14  0.35527136788E-14  0.35527136788E-14  0.91188000000E+02  0.91188000000E+02 0.  0.
    9900012    2    3    3    0    0 -0.16519105451E+02 -0.27715528916E+02  0.17741148587E+02  0.54367085547E+02  0.40000003121E+02 0.  0.
        -12    1    3    3    0    0  0.16519105451E+02  0.27715528916E+02 -0.17741148587E+02  0.36820914453E+02  0.00000000000E+00 0.  1.
         11    1    4    4    0    0 -0.87194952133E+01 -0.11873780906E+02 -0.10467743497E+02  0.18071799135E+02  0.51100000000E-03 0.  1.
        -11    1    4    4    0    0 -0.23672970664E+01 -0.46204062914E+01 -0.27879384501E+00  0.51990360614E+01  0.51100000000E-03 0. -1.
         12    1    4    4    0    0 -0.54323131717E+01 -0.11221341718E+02  0.28487685928E+02  0.31096250351E+02  0.00000000000E+00 0. -1.
</event>
<event>
 8    1  0.1229941E-006  0.9118800E+02  0.7816164E-02  0.1184000E+00
        -11   -1    0    0    0    0  0.00000000000E+00  0.00000000000E+00  0.45593999997E+02  0.45594000000E+02  0.51100000000E-03 0. -1.
         11   -1    0    0    0    0 -0.00000000000E+00 -0.00000000000E+00 -0.45593999997E+02  0.45594000000E+02  0.51100000000E-03 0.  1.
         23    2    1    2    0    0 -0.88817841970E-15  0.22204460493E-14  0.00000000000E+00  0.91188000000E+02  0.91188000000E+02 0.  0.
    9900012    2    3    3    0    0 -0.15265741328E+00 -0.15032897433E+01  0.36789911437E+02  0.54367071605E+02  0.39999971338E+02 0.  0.
        -12    1    3    3    0    0  0.15265741328E+00  0.15032897433E+01 -0.36789911437E+02  0.36820928395E+02  0.00000000000E+00 0.  1.
         11    1    4    4    0    0  0.82737856039E+01 -0.11266327696E+02  0.18245902862E+02  0.22984747975E+02  0.51100000000E-03 0. -1.
        -11    1    4    4    0    0 -0.12488283068E+02  0.11713884000E+02  0.61477608516E+01  0.18192505492E+02  0.51100000000E-03 0.  1.
        -12    1    4    4    0    0  0.40618400507E+01 -0.19508460471E+01  0.12396247723E+02  0.13189818138E+02  0.00000000000E+00 0.  1.
</event>
<event>
 8    1  0.1229941E-006  0.9118800E+02  0.7816164E-02  0.1184000E+00
        -11   -1    0    0    0    0  0.00000000000E+00  0.00000000000E+00  0.45593999997E+02  0.45594000000E+02  0.51100000000E-03 0.  1.
         11   -1    0    0    0    0 -0.00000000000E+00 -0.00000000000E+00 -0.45593999997E+02  0.45594000000E+02  0.51100000000E-03 0. -1.
         23    2    1    2    0    0  0.00000000000E+00  0.00000000000E+00  0.35527136788E-14  0.91188000000E+02  0.91188000000E+02 0.  0.
    9900012    2    3    3    0    0  0.12361003795E+02 -0.17146735549E+02 -0.30149198552E+02  0.54367093871E+02  0.40000022098E+02 0.  0.
        -12    1    3    3    0    0 -0.12361003795E+02  0.17146735549E+02  0.30149198552E+02  0.36820906129E+02  0.00000000000E+00 0.  1.
         11    1    4    4    0    0  0.31295671236E+01 -0.41930761651E+01 -0.12333148495E+02  0.13397112755E+02  0.51100000000E-03 0. -1.
        -11    1    4    4    0    0 -0.19453580027E+01  0.77618662183E+01  0.39381104191E+01  0.89185031751E+01  0.51100000000E-03 0.  1.
        -12    1    4    4    0    0  0.11176794675E+02 -0.20715525602E+02 -0.21754160476E+02  0.32051477941E+02  0.00000000000E+00 0.  1.
</event>
<event>
 8    1  0.1229941E-006  0.9118800E+02  0.7816164E-02  0.1184000E+00
        -11   -1    0    0    0    0  0.00000000000E+00  0.00000000000E+00  0.45593999997E+02  0.45594000000E+02  0.51100000000E-03 0.  1.
         11   -1    0    0    0    0 -0.00000000000E+00 -0.00000000000E+00 -0.45593999997E+02  0.45594000000E+02  0.51100000000E-03 0. -1.
         23    2    1    2    0    0  0.00000000000E+00  0.17763568394E-14 -0.88817841970E-15  0.91188000000E+02  0.91188000000E+02 0.  0.
    9900012    2    3    3    0    0 -0.35662353665E+02  0.50553198585E+01 -0.76433384363E+01  0.54367077276E+02  0.39999984266E+02 0.  0.
        -12    1    3    3    0    0  0.35662353665E+02 -0.50553198585E+01  0.76433384363E+01  0.36820922724E+02  0.00000000000E+00 0.  1.
         11    1    4    4    0    0 -0.23430937662E+02 -0.22956420865E+01  0.62289767928E+01  0.24353212610E+02  0.51100000000E-03 0. -1.
        -11    1    4    4    0    0 -0.10622758235E+02 -0.57619000360E+01 -0.11319760307E+02  0.16558365203E+02  0.51100000000E-03 0.  1.
        -12    1    4    4    0    0 -0.16086577684E+01  0.13112861981E+02 -0.25525549225E+01  0.13455499462E+02  0.00000000000E+00 0.  1.
</event>
<event>
 8    1  0.1229941E-006  0.9118800E+02  0.7816164E-02  0.1184000E+00
        -11   -1    0    0    0    0  0.00000000000E+00  0.00000000000E+00  0.45593999997E+02  0.45594000000E+02  0.51100000000E-03 0.  1.
         11   -1    0    0    0    0 -0.00000000000E+00 -0.00000000000E+00 -0.45593999997E+02  0.45594000000E+02  0.51100000000E-03 0. -1.
         23    2    1    2    0    0  0.00000000000E+00  0.35527136788E-14  0.00000000000E+00  0.91188000000E+02  0.91188000000E+02 0.  0.
    9900012    2    3    3    0    0  0.45994036754E+01  0.23604604095E+02  0.27882731065E+02  0.54367101854E+02  0.40000040296E+02 0.  0.
         12    1    3    3    0    0 -0.45994036754E+01 -0.23604604095E+02 -0.27882731065E+02  0.36820898146E+02  0.00000000000E+00 0. -1.
         11    1    4    4    0    0 -0.57289128513E+01 -0.75747031974E+01  0.11792253328E+02  0.15141129740E+02  0.51100000000E-03 0. -1.
        -11    1    4    4    0    0  0.20367533890E+01  0.16799422584E+02  0.14962415619E+02  0.22588555619E+02  0.51100000000E-03 0.  1.
        -12    1    4    4    0    0  0.82915631377E+01  0.14379884709E+02  0.11280621179E+01  0.16637416495E+02  0.00000000000E+00 0.  1.
</event>
<event>
 8    1  0.1229941E-006  0.9118800E+02  0.7816164E-02  0.1184000E+00
        -11   -1    0    0    0    0  0.00000000000E+00  0.00000000000E+00  0.45593999997E+02  0.45594000000E+02  0.51100000000E-03 0.  1.
         11   -1    0    0    0    0 -0.00000000000E+00 -0.00000000000E+00 -0.45593999997E+02  0.45594000000E+02  0.51100000000E-03 0. -1.
         23    2    1    2    0    0  0.00000000000E+00  0.00000000000E+00  0.00000000000E+00  0.91188000000E+02  0.91188000000E+02 0.  0.
    9900012    2    3    3    0    0 -0.18504512780E+02 -0.11486986037E+02 -0.29688595023E+02  0.54367075027E+02  0.39999979139E+02 0.  0.
        -12    1    3    3    0    0  0.18504512780E+02  0.11486986037E+02  0.29688595023E+02  0.36820924973E+02  0.00000000000E+00 0.  1.
         11    1    4    4    0    0 -0.64344084980E+01  0.28920060259E+01  0.22017078613E+01  0.73900493463E+01  0.51100000000E-03 0.  1.
        -11    1    4    4    0    0  0.40714463566E+00  0.74449967856E+01 -0.14820567829E+02  0.16590448304E+02  0.51100000000E-03 0. -1.
         12    1    4    4    0    0 -0.12477248918E+02 -0.21823988848E+02 -0.17069735055E+02  0.30386577377E+02  0.00000000000E+00 0. -1.
</event>
<event>
 8    1  0.1229941E-006  0.9118800E+02  0.7816164E-02  0.1184000E+00
        -11   -1    0    0    0    0  0.00000000000E+00  0.00000000000E+00  0.45593999997E+02  0.45594000000E+02  0.51100000000E-03 0.  1.
         11   -1    0    0    0    0 -0.00000000000E+00 -0.00000000000E+00 -0.45593999997E+02  0.45594000000E+02  0.51100000000E-03 0. -1.
         23    2    1    2    0    0  0.71054273576E-14 -0.88817841970E-15 -0.71054273576E-14  0.91188000000E+02  0.91188000000E+02 0.  0.
    9900012    2    3    3    0    0 -0.19277479811E+02  0.72682859486E+01  0.30517711222E+02  0.54367083299E+02  0.39999997996E+02 0.  0.
         12    1    3    3    0    0  0.19277479811E+02 -0.72682859486E+01 -0.30517711222E+02  0.36820916701E+02  0.00000000000E+00 0. -1.
         11    1    4    4    0    0 -0.18514152269E+02  0.13687234244E+01  0.53618529699E+00  0.18572418609E+02  0.51100000000E-03 0. -1.
        -11    1    4    4    0    0  0.73159251884E+01 -0.26523246941E+01  0.12426057981E+02  0.14661667875E+02  0.51100000000E-03 0.  1.
        -12    1    4    4    0    0 -0.80792527312E+01  0.85518872183E+01  0.17555467944E+02  0.21132996815E+02  0.00000000000E+00 0.  1.
</event>
