<event>
 8    1  0.3137106E-007  0.9118800E+02  0.7816164E-02  0.1184000E+00
        -11   -1    0    0    0    0  0.00000000000E+00  0.00000000000E+00  0.45593999997E+02  0.45594000000E+02  0.51100000000E-03 0. -1.
         11   -1    0    0    0    0 -0.00000000000E+00 -0.00000000000E+00 -0.45593999997E+02  0.45594000000E+02  0.51100000000E-03 0.  1.
         23    2    1    2    0    0  0.71054273576E-14 -0.88817841970E-15 -0.17763568394E-14  0.91188000000E+02  0.91188000000E+02 0.  0.
    9900012    2    3    3    0    0  0.34152395725E+02  0.64726777859E+01  0.12144865262E+02  0.54367089586E+02  0.40000012330E+02 0.  0.
        -12    1    3    3    0    0 -0.34152395725E+02 -0.64726777859E+01 -0.12144865262E+02  0.36820910414E+02  0.00000000000E+00 0.  1.
         11    1    4    4    0    0  0.18076266564E+02 -0.23744442418E+01 -0.60182069732E+01  0.19199172216E+02  0.51100000000E-03 0. -1.
        -11    1    4    4    0    0  0.96068456804E+01  0.11749713862E+02 -0.51842848806E+00  0.15186047153E+02  0.51100000000E-03 0.  1.
         12    1    4    4    0    0  0.64692834800E+01 -0.29025918346E+01  0.18681500723E+02  0.19981870217E+02  0.00000000000E+00 0. -1.
</event>
<event>
 8    1  0.3137106E-007  0.9118800E+02  0.7816164E-02  0.1184000E+00
        -11   -1    0    0    0    0  0.00000000000E+00  0.00000000000E+00  0.45593999997E+02  0.45594000000E+02  0.51100000000E-03 0.  1.
         11   -1    0    0    0    0 -0.00000000000E+00 -0.00000000000E+00 -0.45593999997E+02  0.45594000000E+02  0.51100000000E-03 0. -1.
         23    2    1    2    0    0  0.11102230246E-14  0.00000000000E+00  0.00000000000E+00  0.91188000000E+02  0.91188000000E+02 0.  0.
    9900012    2    3    3    0    0  0.14863535972E+01  0.23319185938E+02 -0.28456741466E+02  0.54367084549E+02  0.40000000845E+02 0.  0.
        -12    1    3    3    0    0 -0.14863535972E+01 -0.23319185938E+02  0.28456741466E+02  0.36820915451E+02  0.00000000000E+00 0.  1.
         11    1    4    4    0    0 -0.11956627559E+02 -0.46117568757E+00 -0.13244183581E+02  0.17848866198E+02  0.51100000000E-03 0. -1.
        -11    1    4    4    0    0 -0.64157563970E+00  0.30014921336E+01  0.39035390276E+01  0.49657015145E+01  0.51100000000E-03 0.  1.
        -12    1    4    4    0    0  0.14084556795E+02  0.20778869492E+02 -0.19116096913E+02  0.31552516836E+02  0.00000000000E+00 0.  1.
</event>
<event>
 8    1  0.3137106E-007  0.9118800E+02  0.7816164E-02  0.1184000E+00
        -11   -1    0    0    0    0  0.00000000000E+00  0.00000000000E+00  0.45593999997E+02  0.45594000000E+02  0.51100000000E-03 0.  1.
         11   -1    0    0    0    0 -0.00000000000E+00 -0.00000000000E+00 -0.45593999997E+02  0.45594000000E+02  0.51100000000E-03 0. -1.
         23    2    1    2    0    0 -0.44408920985E-15  0.00000000000E+00 -0.33306690739E-15  0.91188000000E+02  0.91188000000E+02 0.  0.
    9900012    2    3    3    0    0  0.37213490101E+01  0.36624717516E+02  0.74908794477E+00  0.54367088763E+02  0.40000010453E+02 0.  0.
        -12    1    3    3    0    0 -0.37213490101E+01 -0.36624717516E+02 -0.74908794477E+00  0.36820911237E+02  0.00000000000E+00 0.  1.
         11    1    4    4    0    0  0.54536866300E+01  0.18806211576E+02 -0.10471021924E+02  0.22204922700E+02  0.51100000000E-03 0. -1.
        -11    1    4    4    0    0 -0.92762243923E+01  0.19752360347E+02  0.55149011472E+01  0.22508181028E+02  0.51100000000E-03 0.  1.
         12    1    4    4    0    0  0.75438867724E+01 -0.19338544074E+01  0.57052087216E+01  0.96539850353E+01  0.00000000000E+00 0. -1.
</event>
<event>
 8    1  0.3137106E-007  0.9118800E+02  0.7816164E-02  0.1184000E+00
        -11   -1    0    0    0    0  0.00000000000E+00  0.00000000000E+00  0.45593999997E+02  0.45594000000E+02  0.51100000000E-03 0.  1.
         11   -1    0    0    0    0 -0.00000000000E+00 -0.00000000000E+00 -0.45593999997E+02  0.45594000000E+02  0.51100000000E-03 0. -1.
         23    2    1    2    0    0  0.00000000000E+00  0.35527136788E-14  0.00000000000E+00  0.91188000000E+02  0.91188000000E+02 0.  0.
    9900012    2    3    3    0    0  0.27355520469E+02 -0.20678554993E+02  0.13410905071E+02  0.54367088665E+02  0.40000010229E+02 0.  0.
         12    1    3    3    0    0 -0.27355520469E+02  0.20678554993E+02 -0.13410905071E+02  0.36820911335E+02  0.00000000000E+00 0. -1.
         11    1    4    4    0    0  0.55484663838E+01 -0.18257615479E+02 -0.47863319319E+01  0.19673204513E+02  0.51100000000E-03 0. -1.
        -11    1    4    4    0    0  0.76503043232E+01 -0.69342388539E+01 -0.10499583658E+01  0.10378498810E+02  0.51100000000E-03 0.  1.
        -12    1    4    4    0    0  0.14156749762E+02  0.45132993402E+01  0.19247195368E+02  0.24315385342E+02  0.00000000000E+00 0.  1.
</event>
<event>
 8    1  0.3137106E-007  0.9118800E+02  0.7816164E-02  0.1184000E+00
        -11   -1    0    0    0    0  0.00000000000E+00  0.00000000000E+00  0.45593999997E+02  0.45594000000E+02  0.51100000000E-03 0.  1.
         11   -1    0    0    0    0 -0.00000000000E+00 -0.00000000000E+00 -0.45593999997E+02  0.45594000000E+02  0.51100000000E-03 0. -1.
         23    2    1    2    0    0  0.00000000000E+00  0.00000000000E+00  0.35527136788E-14  0.91188000000E+02  0.91188000000E+02 0.  0.
    9900012    2    3    3    0    0  0.13626196015E+02  0.13885978598E+02  0.31261565132E+02  0.54367094607E+02  0.40000023775E+02 0.  0.
         12    1    3    3    0    0 -0.13626196015E+02 -0.13885978598E+02 -0.31261565132E+02  0.36820905393E+02  0.00000000000E+00 0. -1.
         11    1    4    4    0    0  0.21376732053E+02  0.55146500482E+01  0.20584395070E+02  0.30184323068E+02  0.51100000000E-03 0.  1.
        -11    1    4    4    0    0 -0.87774637785E+00  0.11174834208E+02  0.12240316562E+02  0.16597370517E+02  0.51100000000E-03 0. -1.
        -12    1    4    4    0    0 -0.68727896602E+01 -0.28035056583E+01 -0.15631464992E+01  0.75854010222E+01  0.00000000000E+00 0.  1.
</event>
<event>
 8    1  0.3137106E-007  0.9118800E+02  0.7816164E-02  0.1184000E+00
        -11   -1    0    0    0    0  0.00000000000E+00  0.00000000000E+00  0.45593999997E+02  0.45594000000E+02  0.51100000000E-03 0.  1.
         11   -1    0    0    0    0 -0.00000000000E+00 -0.00000000000E+00 -0.45593999997E+02  0.45594000000E+02  0.51100000000E-03 0. -1.
         23    2    1    2    0    0  0.35527136788E-14 -0.35527136788E-14  0.88817841970E-15  0.91188000000E+02  0.91188000000E+02 0.  0.
    9900012    2    3    3    0    0  0.27500673735E+02  0.24026744124E+02  0.47125832437E+01  0.54367082984E+02  0.39999997279E+02 0.  0.
        -12    1    3    3    0    0 -0.27500673735E+02 -0.24026744124E+02 -0.47125832437E+01  0.36820917016E+02  0.00000000000E+00 0.  1.
         11    1    4    4    0    0  0.30490061864E+02  0.19409656914E+02 -0.20236737457E+00  0.36144427051E+02  0.51100000000E-03 0. -1.
        -11    1    4    4    0    0 -0.28996619306E+01 -0.10872957357E+01 -0.55203492316E+01  0.63296530102E+01  0.51100000000E-03 0.  1.
         12    1    4    4    0    0 -0.89726198889E-01  0.57043829452E+01  0.10435299850E+02  0.11893002923E+02  0.00000000000E+00 0. -1.
</event>
<event>
 8    1  0.3137106E-007  0.9118800E+02  0.7816164E-02  0.1184000E+00
        -11   -1    0    0    0    0  0.00000000000E+00  0.00000000000E+00  0.45593999997E+02  0.45594000000E+02  0.51100000000E-03 0.  1.
         11   -1    0    0    0    0 -0.00000000000E+00 -0.00000000000E+00 -0.45593999997E+02  0.45594000000E+02  0.51100000000E-03 0. -1.
         23    2    1    2    0    0  0.00000000000E+00  0.00000000000E+00  0.35527136788E-14  0.91188000000E+02  0.91188000000E+02 0.  0.
    9900012    2    3    3    0    0 -0.20169548925E+02  0.16147086375E+02 -0.26234352757E+02  0.54367077051E+02  0.39999983753E+02 0.  0.
        -12    1    3    3    0    0  0.20169548925E+02 -0.16147086375E+02  0.26234352757E+02  0.36820922949E+02  0.00000000000E+00 0.  1.
         11    1    4    4    0    0 -0.23318589054E+02  0.74146682716E+01 -0.92635691941E+01  0.26163860868E+02  0.51100000000E-03 0. -1.
        -11    1    4    4    0    0 -0.21696255594E+01  0.91894371392E+01 -0.19963135924E+02  0.22083474052E+02  0.51100000000E-03 0.  1.
        -12    1    4    4    0    0  0.53186656884E+01 -0.45701903604E+00  0.29923523608E+01  0.61197421315E+01  0.00000000000E+00 0.  1.
</event>
<event>
 8    1  0.3137106E-007  0.9118800E+02  0.7816164E-02  0.1184000E+00
        -11   -1    0    0    0    0  0.00000000000E+00  0.00000000000E+00  0.45593999997E+02  0.45594000000E+02  0.51100000000E-03 0.  1.
         11   -1    0    0    0    0 -0.00000000000E+00 -0.00000000000E+00 -0.45593999997E+02  0.45594000000E+02  0.51100000000E-03 0. -1.
         23    2    1    2    0    0  0.35527136788E-14  0.35527136788E-14  0.00000000000E+00  0.91188000000E+02  0.91188000000E+02 0.  0.
    9900012    2    3    3    0    0 -0.19520445762E+02 -0.25558368018E+02  0.17930441875E+02  0.54367099355E+02  0.40000034599E+02 0.  0.
         12    1    3    3    0    0  0.19520445762E+02  0.25558368018E+02 -0.17930441875E+02  0.36820900645E+02  0.00000000000E+00 0. -1.
         11    1    4    4    0    0  0.78803730358E+01  0.14068993202E+01 -0.40548208464E+01  0.89733615350E+01  0.51100000000E-03 0. -1.
        -11    1    4    4    0    0 -0.26846304473E+02 -0.22798224079E+02  0.21225575399E+02  0.41121869319E+02  0.51100000000E-03 0.  1.
        -12    1    4    4    0    0 -0.55451432573E+00 -0.41670432592E+01  0.75968732209E+00  0.42718685009E+01  0.00000000000E+00 0.  1.
</event>
<event>
 8    1  0.3137106E-007  0.9118800E+02  0.7816164E-02  0.1184000E+00
        -11   -1    0    0    0    0  0.00000000000E+00  0.00000000000E+00  0.45593999997E+02  0.45594000000E+02  0.51100000000E-03 0.  1.
         11   -1    0    0    0    0 -0.00000000000E+00 -0.00000000000E+00 -0.45593999997E+02  0.45594000000E+02  0.51100000000E-03 0. -1.
         23    2    1    2    0    0 -0.35527136788E-14 -0.35527136788E-14  0.88817841970E-15  0.91188000000E+02  0.91188000000E+02 0.  0.
    9900012    2    3    3    0    0  0.27840359643E+02 -0.23392637675E+02  0.57859575063E+01  0.54367103396E+02  0.40000043811E+02 0.  0.
         12    1    3    3    0    0 -0.27840359643E+02  0.23392637675E+02 -0.57859575063E+01  0.36820896604E+02  0.00000000000E+00 0. -1.
         11    1    4    4    0    0  0.35311833795E+01 -0.21371045649E+01 -0.11982013149E+02  0.12673007194E+02  0.51100000000E-03 0. -1.
        -11    1    4    4    0    0  0.18318175758E+02 -0.17826856652E+02  0.34414966384E+01  0.25791399352E+02  0.51100000000E-03 0.  1.
         12    1    4    4    0    0  0.59910005060E+01 -0.34286764584E+01  0.14326474017E+02  0.15902696849E+02  0.00000000000E+00 0. -1.
</event>
<event>
 8    1  0.3137106E-007  0.9118800E+02  0.7816164E-02  0.1184000E+00
        -11   -1    0    0    0    0  0.00000000000E+00  0.00000000000E+00  0.45593999997E+02  0.45594000000E+02  0.51100000000E-03 0.  1.
         11   -1    0    0    0    0 -0.00000000000E+00 -0.00000000000E+00 -0.45593999997E+02  0.45594000000E+02  0.51100000000E-03 0. -1.
         23    2    1    2    0    0  0.00000000000E+00 -0.17763568394E-14  0.00000000000E+00  0.91188000000E+02  0.91188000000E+02 0.  0.
    9900012    2    3    3    0    0 -0.32606212061E+02  0.93177781611E+01  0.14345418008E+02  0.54367121783E+02  0.40000085729E+02 0.  0.
         12    1    3    3    0    0  0.32606212061E+02 -0.93177781611E+01 -0.14345418008E+02  0.36820878217E+02  0.00000000000E+00 0. -1.
         11    1    4    4    0    0 -0.28647661042E+02 -0.55649331481E+01  0.14875530459E+02  0.32755737983E+02  0.51100000000E-03 0. -1.
        -11    1    4    4    0    0  0.10816721945E+01  0.47990439253E+01 -0.70438550657E+01  0.85916664146E+01  0.51100000000E-03 0.  1.
        -12    1    4    4    0    0 -0.50402232139E+01  0.10083667384E+02  0.65137426147E+01  0.13019717386E+02  0.00000000000E+00 0.  1.
</event>
<event>
 8    1  0.3137106E-007  0.9118800E+02  0.7816164E-02  0.1184000E+00
        -11   -1    0    0    0    0  0.00000000000E+00  0.00000000000E+00  0.45593999997E+02  0.45594000000E+02  0.51100000000E-03 0.  1.
         11   -1    0    0    0    0 -0.00000000000E+00 -0.00000000000E+00 -0.45593999997E+02  0.45594000000E+02  0.51100000000E-03 0. -1.
         23    2    1    2    0    0 -0.88817841970E-15  0.00000000000E+00 -0.35527136788E-14  0.91188000000E+02  0.91188000000E+02 0.  0.
    9900012    2    3    3    0    0 -0.61598518851E+01 -0.26904472144E+02 -0.24371820101E+02  0.54367081874E+02  0.39999994748E+02 0.  0.
         12    1    3    3    0    0  0.61598518851E+01  0.26904472144E+02  0.24371820101E+02  0.36820918126E+02  0.00000000000E+00 0. -1.
         11    1    4    4    0    0 -0.54305172053E+01 -0.66246928459E+01 -0.26377902595E+02  0.27733929004E+02  0.51100000000E-03 0. -1.
        -11    1    4    4    0    0  0.35470860004E+01  0.67619835470E+00  0.37104328072E+01  0.51774873430E+01  0.51100000000E-03 0.  1.
        -12    1    4    4    0    0 -0.42764206802E+01 -0.20955977653E+02 -0.17043503135E+01  0.21455665527E+02  0.00000000000E+00 0.  1.
</event>
<event>
 8    1  0.3137106E-007  0.9118800E+02  0.7816164E-02  0.1184000E+00
        -11   -1    0    0    0    0  0.00000000000E+00  0.00000000000E+00  0.45593999997E+02  0.45594000000E+02  0.51100000000E-03 0.  1.
         11   -1    0    0    0    0 -0.00000000000E+00 -0.00000000000E+00 -0.45593999997E+02  0.45594000000E+02  0.51100000000E-03 0. -1.
         23    2    1    2    0    0 -0.35527136788E-14  0.00000000000E+00  0.00000000000E+00  0.91188000000E+02  0.91188000000E+02 0.  0.
    9900012    2    3    3    0    0  0.30571463545E+02 -0.13245982375E+02  0.15675039489E+02  0.54367118759E+02  0.40000078835E+02 0.  0.
         12    1    3    3    0    0 -0.30571463545E+02  0.13245982375E+02 -0.15675039489E+02  0.36820881241E+02  0.00000000000E+00 0. -1.
         11    1    4    4    0    0  0.12318445281E+02  0.22489286565E+01  0.12079446290E+02  0.17398701019E+02  0.51100000000E-03 0. -1.
        -11    1    4    4    0    0  0.20639779983E+02 -0.16808322460E+01  0.81117254934E+01  0.22240184476E+02  0.51100000000E-03 0.  1.
         12    1    4    4    0    0 -0.23867617183E+01 -0.13814078785E+02 -0.45161322941E+01  0.14728233264E+02  0.00000000000E+00 0. -1.
</event>
<event>
 8    1  0.3137106E-007  0.9118800E+02  0.7816164E-02  0.1184000E+00
        -11   -1    0    0    0    0  0.00000000000E+00  0.00000000000E+00  0.45593999997E+02  0.45594000000E+02  0.51100000000E-03 0.  1.
         11   -1    0    0    0    0 -0.00000000000E+00 -0.00000000000E+00 -0.45593999997E+02  0.45594000000E+02  0.51100000000E-03 0. -1.
         23    2    1    2    0    0  0.17763568394E-14  0.35527136788E-14 -0.17763568394E-14  0.91188000000E+02  0.91188000000E+02 0.  0.
    9900012    2    3    3    0    0  0.11185475751E+02  0.31262293956E+02  0.15916478750E+02  0.54367079493E+02  0.39999989321E+02 0.  0.
         12    1    3    3    0    0 -0.11185475751E+02 -0.31262293956E+02 -0.15916478750E+02  0.36820920507E+02  0.00000000000E+00 0. -1.
         11    1    4    4    0    0  0.30175404915E+01  0.70633168684E+01  0.90145473230E+01  0.11843059550E+02  0.51100000000E-03 0. -1.
        -11    1    4    4    0    0  0.10422330110E+02  0.16796225552E+02  0.19482246016E+02  0.27754208110E+02  0.51100000000E-03 0.  1.
         12    1    4    4    0    0 -0.22543948497E+01  0.74027515357E+01 -0.12580314589E+02  0.14769811834E+02  0.00000000000E+00 0. -1.
</event>
<event>
 8    1  0.3137106E-007  0.9118800E+02  0.7816164E-02  0.1184000E+00
        -11   -1    0    0    0    0  0.00000000000E+00  0.00000000000E+00  0.45593999997E+02  0.45594000000E+02  0.51100000000E-03 0.  1.
         11   -1    0    0    0    0 -0.00000000000E+00 -0.00000000000E+00 -0.45593999997E+02  0.45594000000E+02  0.51100000000E-03 0. -1.
         23    2    1    2    0    0 -0.35527136788E-14  0.00000000000E+00  0.35527136788E-14  0.91188000000E+02  0.91188000000E+02 0.  0.
    9900012    2    3    3    0    0  0.22378570548E+02 -0.15025744861E+02 -0.25083985165E+02  0.54367085561E+02  0.40000003153E+02 0.  0.
        -12    1    3    3    0    0 -0.22378570548E+02  0.15025744861E+02  0.25083985165E+02  0.36820914439E+02  0.00000000000E+00 0.  1.
         11    1    4    4    0    0  0.47169849128E-01 -0.76299206009E+01 -0.11209582402E-01  0.76300746580E+01  0.51100000000E-03 0. -1.
        -11    1    4    4    0    0  0.21206967213E+02  0.53266097411E+01 -0.41980905379E+01  0.22265044221E+02  0.51100000000E-03 0.  1.
         12    1    4    4    0    0  0.11244334851E+01 -0.12722434001E+02 -0.20874685045E+02  0.24471966682E+02  0.00000000000E+00 0. -1.
</event>
<event>
 8    1  0.3137106E-007  0.9118800E+02  0.7816164E-02  0.1184000E+00
        -11   -1    0    0    0    0  0.00000000000E+00  0.00000000000E+00  0.45593999997E+02  0.45594000000E+02  0.51100000000E-03 0.  1.
         11   -1    0    0    0    0 -0.00000000000E+00 -0.00000000000E+00 -0.45593999997E+02  0.45594000000E+02  0.51100000000E-03 0. -1.
         23    2    1    2    0    0 -0.88817841970E-15  0.17763568394E-14  0.71054273576E-14  0.91188000000E+02  0.91188000000E+02 0.  0.
    9900012    2    3    3    0    0  0.52963796052E+01 -0.12199400452E+02 -0.34335124003E+02  0.54367112604E+02  0.40000064803E+02 0.  0.
        -12    1    3    3    0    0 -0.52963796052E+01  0.12199400452E+02  0.34335124003E+02  0.36820887396E+02  0.00000000000E+00 0.  1.
         11    1    4    4    0    0 -0.50408968162E+01 -0.12856820252E+02 -0.24370198813E+02  0.28010981028E+02  0.51100000000E-03 0. -1.
        -11    1    4    4    0    0  0.71252497673E+01  0.10798085312E+02 -0.88197596290E+01  0.15657457994E+02  0.51100000000E-03 0.  1.
        -12    1    4    4    0    0  0.32120266542E+01 -0.10140665512E+02 -0.11451655618E+01  0.10698673582E+02  0.00000000000E+00 0.  1.
</event>
<event>
 8    1  0.3137106E-007  0.9118800E+02  0.7816164E-02  0.1184000E+00
        -11   -1    0    0    0    0  0.00000000000E+00  0.00000000000E+00  0.45593999997E+02  0.45594000000E+02  0.51100000000E-03 0. -1.
         11   -1    0    0    0    0 -0.00000000000E+00 -0.00000000000E+00 -0.45593999997E+02  0.45594000000E+02  0.51100000000E-03 0.  1.
         23    2    1    2    0    0  0.00000000000E+00  0.88817841970E-15  0.00000000000E+00  0.91188000000E+02  0.91188000000E+02 0.  0.
    9900012    2    3    3    0    0 -0.29278364869E+02  0.21843482053E+01  0.22221280244E+02  0.54367091236E+02  0.40000016091E+02 0.  0.
        -12    1    3    3    0    0  0.29278364869E+02 -0.21843482053E+01 -0.22221280244E+02  0.36820908764E+02  0.00000000000E+00 0.  1.
         11    1    4    4    0    0 -0.73931534321E+01  0.80968317739E+01  0.21564726400E+02  0.24192040580E+02  0.51100000000E-03 0. -1.
        -11    1    4    4    0    0 -0.29091972058E+01 -0.21913747859E+01 -0.81499343964E+01  0.89267565645E+01  0.51100000000E-03 0.  1.
        -12    1    4    4    0    0 -0.18976014231E+02 -0.37211087827E+01  0.88064882400E+01  0.21248294092E+02  0.00000000000E+00 0.  1.
</event>
<event>
 8    1  0.3137106E-007  0.9118800E+02  0.7816164E-02  0.1184000E+00
        -11   -1    0    0    0    0  0.00000000000E+00  0.00000000000E+00  0.45593999997E+02  0.45594000000E+02  0.51100000000E-03 0. -1.
         11   -1    0    0    0    0 -0.00000000000E+00 -0.00000000000E+00 -0.45593999997E+02  0.45594000000E+02  0.51100000000E-03 0.  1.
         23    2    1    2    0    0  0.00000000000E+00  0.35527136788E-14  0.00000000000E+00  0.91188000000E+02  0.91188000000E+02 0.  0.
    9900012    2    3    3    0    0 -0.15488005829E+02 -0.23935243073E+02  0.23302305670E+02  0.54367195621E+02  0.40000254057E+02 0.  0.
        -12    1    3    3    0    0  0.15488005829E+02  0.23935243073E+02 -0.23302305670E+02  0.36820804379E+02  0.00000000000E+00 0.  1.
         11    1    4    4    0    0  0.25221972655E+01  0.36944994896E+01  0.16961699588E+02  0.17541666361E+02  0.51100000000E-03 0. -1.
        -11    1    4    4    0    0 -0.62732940532E+01 -0.43037224283E+01  0.75058917391E+01  0.10687125716E+02  0.51100000000E-03 0.  1.
        -12    1    4    4    0    0 -0.11736909041E+02 -0.23326020135E+02 -0.11652856573E+01  0.26138403544E+02  0.00000000000E+00 0.  1.
</event>
<event>
 8    1  0.3137106E-007  0.9118800E+02  0.7816164E-02  0.1184000E+00
        -11   -1    0    0    0    0  0.00000000000E+00  0.00000000000E+00  0.45593999997E+02  0.45594000000E+02  0.51100000000E-03 0. -1.
         11   -1    0    0    0    0 -0.00000000000E+00 -0.00000000000E+00 -0.45593999997E+02  0.45594000000E+02  0.51100000000E-03 0.  1.
         23    2    1    2    0    0 -0.88817841970E-15 -0.35527136788E-14  0.35527136788E-14  0.91188000000E+02  0.91188000000E+02 0.  0.
    9900012    2    3    3    0    0  0.17183174435E+01 -0.22578505964E+02  0.29035123621E+02  0.54367082710E+02  0.39999996655E+02 0.  0.
        -12    1    3    3    0    0 -0.17183174435E+01  0.22578505964E+02 -0.29035123621E+02  0.36820917290E+02  0.00000000000E+00 0.  1.
         11    1    4    4    0    0 -0.12655417921E+02 -0.15436271115E+02  0.13861230875E+02  0.24301682870E+02  0.51100000000E-03 0. -1.
        -11    1    4    4    0    0  0.59598610611E+01  0.11935127103E+01  0.17025221289E+02  0.18077681728E+02  0.51100000000E-03 0.  1.
         12    1    4    4    0    0  0.84138743030E+01 -0.83357475591E+01 -0.18513285436E+01  0.11987718112E+02  0.00000000000E+00 0. -1.
</event>
<event>
 8    1  0.3137106E-007  0.9118800E+02  0.7816164E-02  0.1184000E+00
        -11   -1    0    0    0    0  0.00000000000E+00  0.00000000000E+00  0.45593999997E+02  0.45594000000E+02  0.51100000000E-03 0.  1.
         11   -1    0    0    0    0 -0.00000000000E+00 -0.00000000000E+00 -0.45593999997E+02  0.45594000000E+02  0.51100000000E-03 0. -1.
         23    2    1    2    0    0  0.00000000000E+00  0.88817841970E-15  0.00000000000E+00  0.91188000000E+02  0.91188000000E+02 0.  0.
    9900012    2    3    3    0    0 -0.40206152611E+01  0.53182972097E+01  0.36212175721E+02  0.54367200134E+02  0.40000264346E+02 0.  0.
         12    1    3    3    0    0  0.40206152611E+01 -0.53182972097E+01 -0.36212175721E+02  0.36820799866E+02  0.00000000000E+00 0. -1.
         11    1    4    4    0    0  0.73403229923E+01  0.26891656776E+01  0.92959049391E+01  0.12146020030E+02  0.51100000000E-03 0. -1.
        -11    1    4    4    0    0  0.49422807195E+01  0.91902803931E+01  0.44117557702E+00  0.10444234226E+02  0.51100000000E-03 0.  1.
        -12    1    4    4    0    0 -0.16303218973E+02 -0.65611488610E+01  0.26475095205E+02  0.31776945878E+02  0.00000000000E+00 0.  1.
</event>
<event>
 8    1  0.3137106E-007  0.9118800E+02  0.7816164E-02  0.1184000E+00
        -11   -1    0    0    0    0  0.00000000000E+00  0.00000000000E+00  0.45593999997E+02  0.45594000000E+02  0.51100000000E-03 0. -1.
         11   -1    0    0    0    0 -0.00000000000E+00 -0.00000000000E+00 -0.45593999997E+02  0.45594000000E+02  0.51100000000E-03 0.  1.
         23    2    1    2    0    0  0.00000000000E+00  0.44408920985E-15  0.00000000000E+00  0.91188000000E+02  0.91188000000E+02 0.  0.
    9900012    2    3    3    0    0  0.22422254951E+02  0.29683238619E+01 -0.29055316998E+02  0.54367083261E+02  0.39999997909E+02 0.  0.
         12    1    3    3    0    0 -0.22422254951E+02 -0.29683238619E+01  0.29055316998E+02  0.36820916739E+02  0.00000000000E+00 0. -1.
         11    1    4    4    0    0  0.74836482022E+01  0.85051253537E+01  0.52594376068E+01  0.12490149395E+02  0.51100000000E-03 0. -1.
        -11    1    4    4    0    0  0.15453136196E+02 -0.81750836565E+01 -0.17104499634E+02  0.24458031790E+02  0.51100000000E-03 0.  1.
        -12    1    4    4    0    0 -0.51452944681E+00  0.26382821647E+01 -0.17210254972E+02  0.17418902076E+02  0.00000000000E+00 0.  1.
</event>
<event>
 8    1  0.3137106E-007  0.9118800E+02  0.7816164E-02  0.1184000E+00
        -11   -1    0    0    0    0  0.00000000000E+00  0.00000000000E+00  0.45593999997E+02  0.45594000000E+02  0.51100000000E-03 0. -1.
         11   -1    0    0    0    0 -0.00000000000E+00 -0.00000000000E+00 -0.45593999997E+02  0.45594000000E+02  0.51100000000E-03 0.  1.
         23    2    1    2    0    0 -0.35527136788E-14  0.71054273576E-14  0.35527136788E-14  0.91188000000E+02  0.91188000000E+02 0.  0.
    9900012    2    3    3    0    0 -0.16108170378E+02  0.28021793845E+02 -0.17637619383E+02  0.54367086096E+02  0.40000004373E+02 0.  0.
         12    1    3    3    0    0  0.16108170378E+02 -0.28021793845E+02  0.17637619383E+02  0.36820913904E+02  0.00000000000E+00 0. -1.
         11    1    4    4    0    0 -0.21504124768E+02  0.20868654497E+02 -0.18823109735E+02  0.35386969112E+02  0.51100000000E-03 0. -1.
        -11    1    4    4    0    0 -0.37592419769E+01  0.37748324103E+01 -0.50978955334E+01  0.73735879393E+01  0.51100000000E-03 0.  1.
         12    1    4    4    0    0  0.91551963670E+01  0.33783069379E+01  0.62833858859E+01  0.11606529045E+02  0.00000000000E+00 0. -1.
</event>
<event>
 8    1  0.3137106E-007  0.9118800E+02  0.7816164E-02  0.1184000E+00
        -11   -1    0    0    0    0  0.00000000000E+00  0.00000000000E+00  0.45593999997E+02  0.45594000000E+02  0.51100000000E-03 0.  1.
         11   -1    0    0    0    0 -0.00000000000E+00 -0.00000000000E+00 -0.45593999997E+02  0.45594000000E+02  0.51100000000E-03 0. -1.
         23    2    1    2    0    0 -0.44408920985E-15 -0.88817841970E-15  0.00000000000E+00  0.91188000000E+02  0.91188000000E+02 0.  0.
    9900012    2    3    3    0    0  0.35901380710E+01 -0.47407954827E+01  0.36337587475E+02  0.54367020971E+02  0.39999855907E+02 0.  0.
         12    1    3    3    0    0 -0.35901380710E+01  0.47407954827E+01 -0.36337587475E+02  0.36820979029E+02  0.00000000000E+00 0. -1.
         11    1    4    4    0    0  0.13075381034E+02 -0.15802049527E+02  0.30469133092E+02  0.36729258502E+02  0.51100000000E-03 0. -1.
        -11    1    4    4    0    0 -0.49792875785E+01  0.82330349298E+01  0.73585823901E+01  0.12113005572E+02  0.51100000000E-03 0.  1.
        -12    1    4    4    0    0 -0.45059553846E+01  0.28282191144E+01 -0.14901280079E+01  0.55247568966E+01  0.00000000000E+00 0.  1.
</event>
<event>
 8    1  0.3137106E-007  0.9118800E+02  0.7816164E-02  0.1184000E+00
        -11   -1    0    0    0    0  0.00000000000E+00  0.00000000000E+00  0.45593999997E+02  0.45594000000E+02  0.51100000000E-03 0.  1.
         11   -1    0    0    0    0 -0.00000000000E+00 -0.00000000000E+00 -0.45593999997E+02  0.45594000000E+02  0.51100000000E-03 0. -1.
         23    2    1    2    0    0  0.00000000000E+00  0.00000000000E+00 -0.71054273576E-14  0.91188000000E+02  0.91188000000E+02 0.  0.
    9900012    2    3    3    0    0 -0.91287994156E+01  0.98278476406E+01  0.34290779081E+02  0.54367094281E+02  0.40000023032E+02 0.  0.
         12    1    3    3    0    0  0.91287994156E+01 -0.98278476406E+01 -0.34290779081E+02  0.36820905719E+02  0.00000000000E+00 0. -1.
         11    1    4    4    0    0 -0.25879447764E+00  0.15349043089E-01  0.16464707138E+02  0.16466748057E+02  0.51100000000E-03 0.  1.
        -11    1    4    4    0    0 -0.11079404782E+02  0.10564187137E+01 -0.58407575891E+01  0.12569155911E+02  0.51100000000E-03 0. -1.
         12    1    4    4    0    0  0.22093998445E+01  0.87560798838E+01  0.23666829532E+02  0.25331190313E+02  0.00000000000E+00 0. -1.
</event>
<event>
 8    1  0.3137106E-007  0.9118800E+02  0.7816164E-02  0.1184000E+00
        -11   -1    0    0    0    0  0.00000000000E+00  0.00000000000E+00  0.45593999997E+02  0.45594000000E+02  0.51100000000E-03 0.  1.
         11   -1    0    0    0    0 -0.00000000000E+00 -0.00000000000E+00 -0.45593999997E+02  0.45594000000E+02  0.51100000000E-03 0. -1.
         23    2    1    2    0    0  0.35527136788E-14  0.35527136788E-14  0.35527136788E-14  0.91188000000E+02  0.91188000000E+02 0.  0.
    9900012    2    3    3    0    0 -0.20016964691E+02 -0.23008687063E+02 -0.20632533611E+02  0.54367082046E+02  0.39999995140E+02 0.  0.
        -12    1    3    3    0    0  0.20016964691E+02  0.23008687063E+02  0.20632533611E+02  0.36820917954E+02  0.00000000000E+00 0.  1.
         11    1    4    4    0    0 -0.12721033516E+02 -0.12390517252E+02 -0.12619573822E+02  0.21785390866E+02  0.51100000000E-03 0. -1.
        -11    1    4    4    0    0 -0.60655575976E+01 -0.14473593897E+01 -0.17950809307E+02  0.19003089044E+02  0.51100000000E-03 0.  1.
        -12    1    4    4    0    0 -0.12303735768E+01 -0.91708104216E+01  0.99378495179E+01  0.13578602136E+02  0.00000000000E+00 0.  1.
</event>
<event>
 8    1  0.3137106E-007  0.9118800E+02  0.7816164E-02  0.1184000E+00
        -11   -1    0    0    0    0  0.00000000000E+00  0.00000000000E+00  0.45593999997E+02  0.45594000000E+02  0.51100000000E-03 0. -1.
         11   -1    0    0    0    0 -0.00000000000E+00 -0.00000000000E+00 -0.45593999997E+02  0.45594000000E+02  0.51100000000E-03 0.  1.
         23    2    1    2    0    0 -0.88817841970E-15  0.35527136788E-14 -0.35527136788E-14  0.91188000000E+02  0.91188000000E+02 0.  0.
    9900012    2    3    3    0    0  0.50846176834E+01 -0.21273763064E+02  0.29620150513E+02  0.54367086808E+02  0.40000005996E+02 0.  0.
         12    1    3    3    0    0 -0.50846176834E+01  0.21273763064E+02 -0.29620150513E+02  0.36820913192E+02  0.00000000000E+00 0. -1.
         11    1    4    4    0    0  0.49869073610E+01 -0.77318912136E+01  0.17024878682E+02  0.19351947736E+02  0.51100000000E-03 0. -1.
        -11    1    4    4    0    0 -0.77009371790E+01 -0.18258009978E+02  0.15811204007E+02  0.25350612107E+02  0.51100000000E-03 0.  1.
         12    1    4    4    0    0  0.77986475015E+01  0.47161381271E+01 -0.32159321770E+01  0.96645269648E+01  0.00000000000E+00 0. -1.
</event>
<event>
 8    1  0.3137106E-007  0.9118800E+02  0.7816164E-02  0.1184000E+00
        -11   -1    0    0    0    0  0.00000000000E+00  0.00000000000E+00  0.45593999997E+02  0.45594000000E+02  0.51100000000E-03 0.  1.
         11   -1    0    0    0    0 -0.00000000000E+00 -0.00000000000E+00 -0.45593999997E+02  0.45594000000E+02  0.51100000000E-03 0. -1.
         23    2    1    2    0    0 -0.17763568394E-14 -0.66613381478E-15 -0.71054273576E-14  0.91188000000E+02  0.91188000000E+02 0.  0.
    9900012    2    3    3    0    0  0.84196462063E+01  0.11105215613E+01  0.35828092051E+02  0.54367137973E+02  0.40000122637E+02 0.  0.
         12    1    3    3    0    0 -0.84196462063E+01 -0.11105215613E+01 -0.35828092051E+02  0.36820862027E+02  0.00000000000E+00 0. -1.
         11    1    4    4    0    0  0.21390332368E+01 -0.10056009511E+02  0.20267411322E+02  0.22725904876E+02  0.51100000000E-03 0. -1.
        -11    1    4    4    0    0 -0.76052629602E+01  0.40565300999E+01 -0.12472374431E+01  0.87092515548E+01  0.51100000000E-03 0.  1.
         12    1    4    4    0    0  0.13885875930E+02  0.71100009722E+01  0.16807918172E+02  0.22931981542E+02  0.00000000000E+00 0. -1.
</event>
<event>
 8    1  0.3137106E-007  0.9118800E+02  0.7816164E-02  0.1184000E+00
        -11   -1    0    0    0    0  0.00000000000E+00  0.00000000000E+00  0.45593999997E+02  0.45594000000E+02  0.51100000000E-03 0. -1.
         11   -1    0    0    0    0 -0.00000000000E+00 -0.00000000000E+00 -0.45593999997E+02  0.45594000000E+02  0.51100000000E-03 0.  1.
         23    2    1    2    0    0  0.00000000000E+00  0.00000000000E+00  0.44408920985E-15  0.91188000000E+02  0.91188000000E+02 0.  0.
    9900012    2    3    3    0    0  0.24619352653E+02  0.27141789671E+02  0.36040119499E+01  0.54367106831E+02  0.40000051643E+02 0.  0.
        -12    1    3    3    0    0 -0.24619352653E+02 -0.27141789671E+02 -0.36040119499E+01  0.36820893169E+02  0.00000000000E+00 0.  1.
         11    1    4    4    0    0  0.95279793226E+01  0.59184168333E+01 -0.96823225090E+01  0.14817470000E+02  0.51100000000E-03 0. -1.
        -11    1    4    4    0    0  0.16964852029E+02  0.13825793671E+01  0.86298454246E+01  0.19083814147E+02  0.51100000000E-03 0.  1.
         12    1    4    4    0    0 -0.18734786990E+01  0.19840793471E+02  0.46564890343E+01  0.20465822684E+02  0.00000000000E+00 0. -1.
</event>
<event>
 8    1  0.3137106E-007  0.9118800E+02  0.7816164E-02  0.1184000E+00
        -11   -1    0    0    0    0  0.00000000000E+00  0.00000000000E+00  0.45593999997E+02  0.45594000000E+02  0.51100000000E-03 0. -1.
         11   -1    0    0    0    0 -0.00000000000E+00 -0.00000000000E+00 -0.45593999997E+02  0.45594000000E+02  0.51100000000E-03 0.  1.
         23    2    1    2    0    0  0.71054273576E-14  0.00000000000E+00  0.88817841970E-15  0.91188000000E+02  0.91188000000E+02 0.  0.
    9900012    2    3    3    0    0  0.32826747937E+02  0.15486860737E+02 -0.61915241379E+01  0.54367174280E+02  0.40000205405E+02 0.  0.
         12    1    3    3    0    0 -0.32826747937E+02 -0.15486860737E+02  0.61915241379E+01  0.36820825720E+02  0.00000000000E+00 0. -1.
         11    1    4    4    0    0  0.12893229315E+02 -0.49144724594E+01  0.33501292749E+01  0.14198970672E+02  0.51100000000E-03 0. -1.
        -11    1    4    4    0    0  0.39033548366E+01  0.71281836769E+01  0.91193232129E+01  0.12215123316E+02  0.51100000000E-03 0.  1.
        -12    1    4    4    0    0  0.16030163785E+02  0.13273149520E+02 -0.18660976626E+02  0.27953080291E+02  0.00000000000E+00 0.  1.
</event>
<event>
 8    1  0.3137106E-007  0.9118800E+02  0.7816164E-02  0.1184000E+00
        -11   -1    0    0    0    0  0.00000000000E+00  0.00000000000E+00  0.45593999997E+02  0.45594000000E+02  0.51100000000E-03 0. -1.
         11   -1    0    0    0    0 -0.00000000000E+00 -0.00000000000E+00 -0.45593999997E+02  0.45594000000E+02  0.51100000000E-03 0.  1.
         23    2    1    2    0    0 -0.27755575616E-15  0.00000000000E+00  0.88817841970E-15  0.91188000000E+02  0.91188000000E+02 0.  0.
    9900012    2    3    3    0    0  0.10361463054E+00 -0.36362710666E+02  0.57898120711E+01  0.54367090359E+02  0.40000014092E+02 0.  0.
        -12    1    3    3    0    0 -0.10361463054E+00  0.36362710666E+02 -0.57898120711E+01  0.36820909641E+02  0.00000000000E+00 0.  1.
         11    1    4    4    0    0 -0.19071290868E+02 -0.15832908921E+02  0.31860561836E+01  0.24990920242E+02  0.51100000000E-03 0. -1.
        -11    1    4    4    0    0  0.37901213781E+01 -0.47134411133E+01 -0.27916319045E+01  0.66614379935E+01  0.51100000000E-03 0.  1.
         12    1    4    4    0    0  0.15384784120E+02 -0.15816360632E+02  0.53953877919E+01  0.22714732124E+02  0.00000000000E+00 0. -1.
</event>
<event>
 8    1  0.3137106E-007  0.9118800E+02  0.7816164E-02  0.1184000E+00
        -11   -1    0    0    0    0  0.00000000000E+00  0.00000000000E+00  0.45593999997E+02  0.45594000000E+02  0.51100000000E-03 0.  1.
         11   -1    0    0    0    0 -0.00000000000E+00 -0.00000000000E+00 -0.45593999997E+02  0.45594000000E+02  0.51100000000E-03 0. -1.
         23    2    1    2    0    0 -0.17763568394E-14  0.00000000000E+00  0.17763568394E-14  0.91188000000E+02  0.91188000000E+02 0.  0.
    9900012    2    3    3    0    0 -0.11700887598E+02  0.33256146110E+02  0.10625383088E+02  0.54367071298E+02  0.39999970639E+02 0.  0.
         12    1    3    3    0    0  0.11700887598E+02 -0.33256146110E+02 -0.10625383088E+02  0.36820928702E+02  0.00000000000E+00 0. -1.
         11    1    4    4    0    0 -0.10814065185E+02 -0.31462775087E+01  0.63125589904E+01  0.12910905052E+02  0.51100000000E-03 0. -1.
        -11    1    4    4    0    0 -0.87267756710E+01  0.89950750528E+01 -0.51674501156E+00  0.12543325495E+02  0.51100000000E-03 0.  1.
        -12    1    4    4    0    0  0.78399532578E+01  0.27407348566E+02  0.48295691088E+01  0.28912840751E+02  0.00000000000E+00 0.  1.
</event>
<event>
 8    1  0.3137106E-007  0.9118800E+02  0.7816164E-02  0.1184000E+00
        -11   -1    0    0    0    0  0.00000000000E+00  0.00000000000E+00  0.45593999997E+02  0.45594000000E+02  0.51100000000E-03 0. -1.
         11   -1    0    0    0    0 -0.00000000000E+00 -0.00000000000E+00 -0.45593999997E+02  0.45594000000E+02  0.51100000000E-03 0.  1.
         23    2    1    2    0    0  0.00000000000E+00  0.00000000000E+00  0.00000000000E+00  0.91188000000E+02  0.91188000000E+02 0.  0.
    9900012    2    3    3    0    0  0.30484810038E+02  0.86777324261E+01  0.18739222785E+02  0.54367012049E+02  0.39999835567E+02 0.  0.
        -12    1    3    3    0    0 -0.30484810038E+02 -0.86777324261E+01 -0.18739222785E+02  0.36820987951E+02  0.00000000000E+00 0.  1.
         11    1    4    4    0    0  0.25544405398E+02  0.18765054067E+02  0.54971874363E+01  0.32169286148E+02  0.51100000000E-03 0. -1.
        -11    1    4    4    0    0  0.17118085272E+01 -0.86657672360E+01  0.15619124084E+02  0.17943880506E+02  0.51100000000E-03 0.  1.
         12    1    4    4    0    0  0.32285961128E+01 -0.14215544052E+01 -0.23770887349E+01  0.42538453945E+01  0.00000000000E+00 0. -1.
</event>
<event>
 8    1  0.3137106E-007  0.9118800E+02  0.7816164E-02  0.1184000E+00
        -11   -1    0    0    0    0  0.00000000000E+00  0.00000000000E+00  0.45593999997E+02  0.45594000000E+02  0.51100000000E-03 0.  1.
         11   -1    0    0    0    0 -0.00000000000E+00 -0.00000000000E+00 -0.45593999997E+02  0.45594000000E+02  0.51100000000E-03 0. -1.
         23    2    1    2    0    0  0.00000000000E+00  0.00000000000E+00 -0.35527136788E-14  0.91188000000E+02  0.91188000000E+02 0.  0.
    9900012    2    3    3    0    0 -0.22521830391E+02 -0.24053242740E+02  0.16431308099E+02  0.54367092674E+02  0.40000019370E+02 0.  0.
         12    1    3    3    0    0  0.22521830391E+02  0.24053242740E+02 -0.16431308099E+02  0.36820907326E+02  0.00000000000E+00 0. -1.
         11    1    4    4    0    0 -0.22089224244E+01  0.25149034514E+01 -0.82971128451E+01  0.89468519309E+01  0.51100000000E-03 0. -1.
        -11    1    4    4    0    0 -0.79010765278E+01 -0.39775885386E+01  0.15862732491E+02  0.18162447611E+02  0.51100000000E-03 0.  1.
         12    1    4    4    0    0 -0.12411831439E+02 -0.22590557652E+02  0.88656884531E+01  0.27257793133E+02  0.00000000000E+00 0. -1.
</event>
<event>
 8    1  0.3137106E-007  0.9118800E+02  0.7816164E-02  0.1184000E+00
        -11   -1    0    0    0    0  0.00000000000E+00  0.00000000000E+00  0.45593999997E+02  0.45594000000E+02  0.51100000000E-03 0. -1.
         11   -1    0    0    0    0 -0.00000000000E+00 -0.00000000000E+00 -0.45593999997E+02  0.45594000000E+02  0.51100000000E-03 0.  1.
         23    2    1    2    0    0  0.26645352591E-14  0.35527136788E-14  0.00000000000E+00  0.91188000000E+02  0.91188000000E+02 0.  0.
    9900012    2    3    3    0    0  0.66566743385E+01  0.23789479832E+02 -0.27304389732E+02  0.54367077109E+02  0.39999983886E+02 0.  0.
         12    1    3    3    0    0 -0.66566743385E+01 -0.23789479832E+02  0.27304389732E+02  0.36820922891E+02  0.00000000000E+00 0. -1.
         11    1    4    4    0    0  0.11972746493E+02  0.86086633276E+01 -0.71598053025E+01  0.16392637223E+02  0.51100000000E-03 0.  1.
        -11    1    4    4    0    0  0.31026251677E+01  0.20396655425E+02 -0.75882222745E+01  0.21982514711E+02  0.51100000000E-03 0. -1.
         12    1    4    4    0    0 -0.84186973225E+01 -0.52158389214E+01 -0.12556362155E+02  0.15991925175E+02  0.00000000000E+00 0. -1.
</event>
<event>
 8    1  0.3137106E-007  0.9118800E+02  0.7816164E-02  0.1184000E+00
        -11   -1    0    0    0    0  0.00000000000E+00  0.00000000000E+00  0.45593999997E+02  0.45594000000E+02  0.51100000000E-03 0.  1.
         11   -1    0    0    0    0 -0.00000000000E+00 -0.00000000000E+00 -0.45593999997E+02  0.45594000000E+02  0.51100000000E-03 0. -1.
         23    2    1    2    0    0  0.00000000000E+00  0.00000000000E+00 -0.35527136788E-14  0.91188000000E+02  0.91188000000E+02 0.  0.
    9900012    2    3    3    0    0 -0.13723627640E+02 -0.26539757982E+02  0.21519357203E+02  0.54367089585E+02  0.40000012328E+02 0.  0.
        -12    1    3    3    0    0  0.13723627640E+02  0.26539757982E+02 -0.21519357203E+02  0.36820910415E+02  0.00000000000E+00 0.  1.
         11    1    4    4    0    0 -0.13791613055E+01 -0.13805283199E+02  0.22557963114E+01  0.14056192492E+02  0.51100000000E-03 0. -1.
        -11    1    4    4    0    0 -0.10978149961E+02  0.80189749004E+01  0.12423888045E+02  0.18416751327E+02  0.51100000000E-03 0.  1.
        -12    1    4    4    0    0 -0.13663163733E+01 -0.20753449684E+02  0.68396728463E+01  0.21894145767E+02  0.00000000000E+00 0.  1.
</event>
<event>
 8    1  0.3137106E-007  0.9118800E+02  0.7816164E-02  0.1184000E+00
        -11   -1    0    0    0    0  0.00000000000E+00  0.00000000000E+00  0.45593999997E+02  0.45594000000E+02  0.51100000000E-03 0.  1.
         11   -1    0    0    0    0 -0.00000000000E+00 -0.00000000000E+00 -0.45593999997E+02  0.45594000000E+02  0.51100000000E-03 0. -1.
         23    2    1    2    0    0 -0.88817841970E-15 -0.71054273576E-14  0.88817841970E-15  0.91188000000E+02  0.91188000000E+02 0.  0.
    9900012    2    3    3    0    0  0.27869885824E+00  0.36345433049E+02 -0.58916957574E+01  0.54367078563E+02  0.39999987200E+02 0.  0.
        -12    1    3    3    0    0 -0.27869885824E+00 -0.36345433049E+02  0.58916957574E+01  0.36820921437E+02  0.00000000000E+00 0.  1.
         11    1    4    4    0    0  0.61890068786E+01  0.38892721739E+02 -0.95424492337E+00  0.39393631389E+02  0.51100000000E-03 0. -1.
        -11    1    4    4    0    0 -0.69265712274E+01  0.29678123141E+01 -0.51781718249E-01  0.75357800198E+01  0.51100000000E-03 0.  1.
         12    1    4    4    0    0  0.10162632070E+01 -0.55151010036E+01 -0.48856691158E+01  0.74376671541E+01  0.00000000000E+00 0. -1.
</event>
<event>
 8    1  0.3137106E-007  0.9118800E+02  0.7816164E-02  0.1184000E+00
        -11   -1    0    0    0    0  0.00000000000E+00  0.00000000000E+00  0.45593999997E+02  0.45594000000E+02  0.51100000000E-03 0.  1.
         11   -1    0    0    0    0 -0.00000000000E+00 -0.00000000000E+00 -0.45593999997E+02  0.45594000000E+02  0.51100000000E-03 0. -1.
         23    2    1    2    0    0  0.88817841970E-15  0.00000000000E+00  0.00000000000E+00  0.91188000000E+02  0.91188000000E+02 0.  0.
    9900012    2    3    3    0    0 -0.30048111134E+01  0.50458801885E+01 -0.36349585649E+02  0.54367052517E+02  0.39999927822E+02 0.  0.
        -12    1    3    3    0    0  0.30048111134E+01 -0.50458801885E+01  0.36349585649E+02  0.36820947483E+02  0.00000000000E+00 0.  1.
         11    1    4    4    0    0  0.83298200694E+01  0.15626682154E+02 -0.18033639167E+02  0.25274319762E+02  0.51100000000E-03 0. -1.
        -11    1    4    4    0    0  0.24644329769E+01 -0.56801810140E+01 -0.11232519368E+02  0.12826042954E+02  0.51100000000E-03 0.  1.
         12    1    4    4    0    0 -0.13799064160E+02 -0.49006209519E+01 -0.70834271139E+01  0.16266689801E+02  0.00000000000E+00 0. -1.
</event>
<event>
 8    1  0.3137106E-007  0.9118800E+02  0.7816164E-02  0.1184000E+00
        -11   -1    0    0    0    0  0.00000000000E+00  0.00000000000E+00  0.45593999997E+02  0.45594000000E+02  0.51100000000E-03 0. -1.
         11   -1    0    0    0    0 -0.00000000000E+00 -0.00000000000E+00 -0.45593999997E+02  0.45594000000E+02  0.51100000000E-03 0.  1.
         23    2    1    2    0    0 -0.22204460493E-15  0.00000000000E+00  0.00000000000E+00  0.91188000000E+02  0.91188000000E+02 0.  0.
    9900012    2    3    3    0    0  0.13059505900E+01  0.16942133522E+02 -0.32665552945E+02  0.54367085503E+02  0.40000003020E+02 0.  0.
         12    1    3    3    0    0 -0.13059505900E+01 -0.16942133522E+02  0.32665552945E+02  0.36820914497E+02  0.00000000000E+00 0. -1.
         11    1    4    4    0    0  0.50327641830E+01  0.54405412050E+00 -0.15945271407E+02  0.16729506589E+02  0.51100000000E-03 0. -1.
        -11    1    4    4    0    0 -0.79793738453E+01 -0.61427195329E+01 -0.87910220136E+01  0.13367328773E+02  0.51100000000E-03 0.  1.
         12    1    4    4    0    0  0.42525602524E+01  0.22540798934E+02 -0.79292595247E+01  0.24270250141E+02  0.00000000000E+00 0. -1.
</event>
<event>
 8    1  0.3137106E-007  0.9118800E+02  0.7816164E-02  0.1184000E+00
        -11   -1    0    0    0    0  0.00000000000E+00  0.00000000000E+00  0.45593999997E+02  0.45594000000E+02  0.51100000000E-03 0.  1.
         11   -1    0    0    0    0 -0.00000000000E+00 -0.00000000000E+00 -0.45593999997E+02  0.45594000000E+02  0.51100000000E-03 0. -1.
         23    2    1    2    0    0  0.71054273576E-14 -0.88817841970E-15  0.00000000000E+00  0.91188000000E+02  0.91188000000E+02 0.  0.
    9900012    2    3    3    0    0  0.34604385529E+02 -0.63686785893E+01 -0.10851567401E+02  0.54367080947E+02  0.39999992636E+02 0.  0.
        -12    1    3    3    0    0 -0.34604385529E+02  0.63686785893E+01  0.10851567401E+02  0.36820919053E+02  0.00000000000E+00 0.  1.
         11    1    4    4    0    0  0.18101179136E+02 -0.12179523017E+02 -0.41612611248E+01  0.22210573190E+02  0.51100000000E-03 0. -1.
        -11    1    4    4    0    0  0.14153251485E+02 -0.53216915151E+01 -0.12280649898E+02  0.19479458164E+02  0.51100000000E-03 0.  1.
        -12    1    4    4    0    0  0.23499549081E+01  0.11132535943E+02  0.55903436216E+01  0.12677049593E+02  0.00000000000E+00 0.  1.
</event>
<event>
 8    1  0.3137106E-007  0.9118800E+02  0.7816164E-02  0.1184000E+00
        -11   -1    0    0    0    0  0.00000000000E+00  0.00000000000E+00  0.45593999997E+02  0.45594000000E+02  0.51100000000E-03 0.  1.
         11   -1    0    0    0    0 -0.00000000000E+00 -0.00000000000E+00 -0.45593999997E+02  0.45594000000E+02  0.51100000000E-03 0. -1.
         23    2    1    2    0    0  0.00000000000E+00  0.35527136788E-14 -0.35527136788E-14  0.91188000000E+02  0.91188000000E+02 0.  0.
    9900012    2    3    3    0    0  0.21867590325E+02  0.18230198017E+02 -0.23350497715E+02  0.54367117747E+02  0.40000076527E+02 0.  0.
        -12    1    3    3    0    0 -0.21867590325E+02 -0.18230198017E+02  0.23350497715E+02  0.36820882253E+02  0.00000000000E+00 0.  1.
         11    1    4    4    0    0  0.71998453162E+01  0.10173254605E+02 -0.15680514870E+02  0.20030262821E+02  0.51100000000E-03 0.  1.
        -11    1    4    4    0    0  0.13445246826E+02  0.17227952250E+02 -0.11047861493E+02  0.24487389505E+02  0.51100000000E-03 0. -1.
        -12    1    4    4    0    0  0.12224981829E+01 -0.91710088376E+01  0.33778786480E+01  0.98494654204E+01  0.00000000000E+00 0.  1.
</event>
<event>
 8    1  0.3137106E-007  0.9118800E+02  0.7816164E-02  0.1184000E+00
        -11   -1    0    0    0    0  0.00000000000E+00  0.00000000000E+00  0.45593999997E+02  0.45594000000E+02  0.51100000000E-03 0.  1.
         11   -1    0    0    0    0 -0.00000000000E+00 -0.00000000000E+00 -0.45593999997E+02  0.45594000000E+02  0.51100000000E-03 0. -1.
         23    2    1    2    0    0  0.35527136788E-14  0.00000000000E+00 -0.17763568394E-14  0.91188000000E+02  0.91188000000E+02 0.  0.
    9900012    2    3    3    0    0  0.27676237330E+02 -0.23550004927E+02 -0.59332486755E+01  0.54367078167E+02  0.39999986297E+02 0.  0.
        -12    1    3    3    0    0 -0.27676237330E+02  0.23550004927E+02  0.59332486755E+01  0.36820921833E+02  0.00000000000E+00 0.  1.
         11    1    4    4    0    0  0.82857854413E+01 -0.15627141065E+02 -0.18412703905E+02  0.25532125717E+02  0.51100000000E-03 0. -1.
        -11    1    4    4    0    0  0.93891815164E+01  0.41020718681E+01  0.62341791854E+01  0.11993694741E+02  0.51100000000E-03 0.  1.
        -12    1    4    4    0    0  0.10001270372E+02 -0.12024935730E+02  0.62452760444E+01  0.16841257710E+02  0.00000000000E+00 0.  1.
</event>
<event>
 8    1  0.3137106E-007  0.9118800E+02  0.7816164E-02  0.1184000E+00
        -11   -1    0    0    0    0  0.00000000000E+00  0.00000000000E+00  0.45593999997E+02  0.45594000000E+02  0.51100000000E-03 0. -1.
         11   -1    0    0    0    0 -0.00000000000E+00 -0.00000000000E+00 -0.45593999997E+02  0.45594000000E+02  0.51100000000E-03 0.  1.
         23    2    1    2    0    0  0.00000000000E+00  0.00000000000E+00  0.00000000000E+00  0.91188000000E+02  0.91188000000E+02 0.  0.
    9900012    2    3    3    0    0  0.30579836036E+02 -0.51856509793E+01 -0.19843449945E+02  0.54367084017E+02  0.39999999634E+02 0.  0.
         12    1    3    3    0    0 -0.30579836036E+02  0.51856509793E+01  0.19843449945E+02  0.36820915983E+02  0.00000000000E+00 0. -1.
         11    1    4    4    0    0  0.99310834668E+01 -0.32182912244E+01  0.74109752888E+01  0.12802592402E+02  0.51100000000E-03 0. -1.
        -11    1    4    4    0    0  0.10330221385E+02  0.10699201776E+02 -0.10825571478E+02  0.18395091481E+02  0.51100000000E-03 0.  1.
         12    1    4    4    0    0  0.10318531184E+02 -0.12666561531E+02 -0.16428853756E+02  0.23169400134E+02  0.00000000000E+00 0. -1.
</event>
<event>
 8    1  0.3137106E-007  0.9118800E+02  0.7816164E-02  0.1184000E+00
        -11   -1    0    0    0    0  0.00000000000E+00  0.00000000000E+00  0.45593999997E+02  0.45594000000E+02  0.51100000000E-03 0.  1.
         11   -1    0    0    0    0 -0.00000000000E+00 -0.00000000000E+00 -0.45593999997E+02  0.45594000000E+02  0.51100000000E-03 0. -1.
         23    2    1    2    0    0  0.00000000000E+00  0.00000000000E+00  0.00000000000E+00  0.91188000000E+02  0.91188000000E+02 0.  0.
    9900012    2    3    3    0    0  0.31050422777E+02 -0.17666898351E+02 -0.89178020289E+01  0.54367146601E+02  0.40000142307E+02 0.  0.
        -12    1    3    3    0    0 -0.31050422777E+02  0.17666898351E+02  0.89178020289E+01  0.36820853399E+02  0.00000000000E+00 0.  1.
         11    1    4    4    0    0  0.84488162691E+01 -0.13164254958E+02 -0.14515466245E+02  0.21339607905E+02  0.51100000000E-03 0. -1.
        -11    1    4    4    0    0  0.21535264500E+02 -0.92842749684E+01  0.10854685430E+02  0.25841624848E+02  0.51100000000E-03 0.  1.
        -12    1    4    4    0    0  0.10663420082E+01  0.47816315751E+01 -0.52570212136E+01  0.71859138485E+01  0.00000000000E+00 0.  1.
</event>
<event>
 8    1  0.3137106E-007  0.9118800E+02  0.7816164E-02  0.1184000E+00
        -11   -1    0    0    0    0  0.00000000000E+00  0.00000000000E+00  0.45593999997E+02  0.45594000000E+02  0.51100000000E-03 0.  1.
         11   -1    0    0    0    0 -0.00000000000E+00 -0.00000000000E+00 -0.45593999997E+02  0.45594000000E+02  0.51100000000E-03 0. -1.
         23    2    1    2    0    0  0.00000000000E+00  0.00000000000E+00  0.00000000000E+00  0.91188000000E+02  0.91188000000E+02 0.  0.
    9900012    2    3    3    0    0  0.32542867686E+02 -0.16610776419E+02 -0.45636560804E+01  0.54367040109E+02  0.39999899537E+02 0.  0.
        -12    1    3    3    0    0 -0.32542867686E+02  0.16610776419E+02  0.45636560804E+01  0.36820959891E+02  0.00000000000E+00 0.  1.
         11    1    4    4    0    0  0.16426901933E+01 -0.17575392271E+02 -0.35692226379E+01  0.18009225277E+02  0.51100000000E-03 0. -1.
        -11    1    4    4    0    0  0.13973712906E+01  0.11050798127E+01  0.58126853626E+01  0.60795690063E+01  0.51100000000E-03 0.  1.
         12    1    4    4    0    0  0.29502806202E+02 -0.14046396051E+00 -0.68071188051E+01  0.30278245826E+02  0.00000000000E+00 0. -1.
</event>
<event>
 8    1  0.3137106E-007  0.9118800E+02  0.7816164E-02  0.1184000E+00
        -11   -1    0    0    0    0  0.00000000000E+00  0.00000000000E+00  0.45593999997E+02  0.45594000000E+02  0.51100000000E-03 0.  1.
         11   -1    0    0    0    0 -0.00000000000E+00 -0.00000000000E+00 -0.45593999997E+02  0.45594000000E+02  0.51100000000E-03 0. -1.
         23    2    1    2    0    0  0.00000000000E+00  0.00000000000E+00  0.00000000000E+00  0.91188000000E+02  0.91188000000E+02 0.  0.
    9900012    2    3    3    0    0 -0.21559373507E+02 -0.19086602756E+02 -0.22949402755E+02  0.54367080978E+02  0.39999992706E+02 0.  0.
        -12    1    3    3    0    0  0.21559373507E+02  0.19086602756E+02  0.22949402755E+02  0.36820919022E+02  0.00000000000E+00 0.  1.
         11    1    4    4    0    0  0.51141972820E+01 -0.77430693353E+01 -0.39482958934E+01  0.10084600998E+02  0.51100000000E-03 0. -1.
        -11    1    4    4    0    0 -0.22978783742E+02 -0.10394302540E+02 -0.26055740983E+02  0.36262482899E+02  0.51100000000E-03 0.  1.
        -12    1    4    4    0    0 -0.36947870472E+01 -0.94923088063E+00  0.70546341214E+01  0.80199970808E+01  0.00000000000E+00 0.  1.
</event>
<event>
 8    1  0.3137106E-007  0.9118800E+02  0.7816164E-02  0.1184000E+00
        -11   -1    0    0    0    0  0.00000000000E+00  0.00000000000E+00  0.45593999997E+02  0.45594000000E+02  0.51100000000E-03 0.  1.
         11   -1    0    0    0    0 -0.00000000000E+00 -0.00000000000E+00 -0.45593999997E+02  0.45594000000E+02  0.51100000000E-03 0. -1.
         23    2    1    2    0    0  0.00000000000E+00 -0.35527136788E-14  0.00000000000E+00  0.91188000000E+02  0.91188000000E+02 0.  0.
    9900012    2    3    3    0    0 -0.11098762901E+02  0.26990813508E+02 -0.22452023901E+02  0.54367082996E+02  0.39999997305E+02 0.  0.
        -12    1    3    3    0    0  0.11098762901E+02 -0.26990813508E+02  0.22452023901E+02  0.36820917004E+02  0.00000000000E+00 0.  1.
         11    1    4    4    0    0 -0.59928281781E+00  0.29287518771E+02 -0.24878331306E+02  0.38432398630E+02  0.51100000000E-03 0.  1.
        -11    1    4    4    0    0 -0.88188747744E+01 -0.19999820705E+01  0.67513693835E+01  0.11285099441E+02  0.51100000000E-03 0. -1.
        -12    1    4    4    0    0 -0.16806053091E+01 -0.29672319170E+00 -0.43250619788E+01  0.46495849253E+01  0.00000000000E+00 0.  1.
</event>
<event>
 8    1  0.3137106E-007  0.9118800E+02  0.7816164E-02  0.1184000E+00
        -11   -1    0    0    0    0  0.00000000000E+00  0.00000000000E+00  0.45593999997E+02  0.45594000000E+02  0.51100000000E-03 0.  1.
         11   -1    0    0    0    0 -0.00000000000E+00 -0.00000000000E+00 -0.45593999997E+02  0.45594000000E+02  0.51100000000E-03 0. -1.
         23    2    1    2    0    0  0.17763568394E-14  0.35527136788E-14  0.00000000000E+00  0.91188000000E+02  0.91188000000E+02 0.  0.
    9900012    2    3    3    0    0 -0.14107550795E+02 -0.25424499525E+02 -0.22590699880E+02  0.54367246523E+02  0.40000370098E+02 0.  0.
        -12    1    3    3    0    0  0.14107550795E+02  0.25424499525E+02  0.22590699880E+02  0.36820753477E+02  0.00000000000E+00 0.  1.
         11    1    4    4    0    0 -0.17135541498E+02 -0.18291075293E+02 -0.18819313279E+02  0.31342571214E+02  0.51100000000E-03 0. -1.
        -11    1    4    4    0    0  0.42190018506E+01  0.72318908424E+00  0.78529621441E+01  0.89438243367E+01  0.51100000000E-03 0.  1.
        -12    1    4    4    0    0 -0.11910111477E+01 -0.78566133169E+01 -0.11624348745E+02  0.14080850972E+02  0.00000000000E+00 0.  1.
</event>
<event>
 8    1  0.3137106E-007  0.9118800E+02  0.7816164E-02  0.1184000E+00
        -11   -1    0    0    0    0  0.00000000000E+00  0.00000000000E+00  0.45593999997E+02  0.45594000000E+02  0.51100000000E-03 0. -1.
         11   -1    0    0    0    0 -0.00000000000E+00 -0.00000000000E+00 -0.45593999997E+02  0.45594000000E+02  0.51100000000E-03 0.  1.
         23    2    1    2    0    0  0.35527136788E-14  0.00000000000E+00  0.35527136788E-14  0.91188000000E+02  0.91188000000E+02 0.  0.
    9900012    2    3    3    0    0 -0.18130432678E+02 -0.14052704514E+02 -0.28802569898E+02  0.54367093900E+02  0.40000022164E+02 0.  0.
         12    1    3    3    0    0  0.18130432678E+02  0.14052704514E+02  0.28802569898E+02  0.36820906100E+02  0.00000000000E+00 0. -1.
         11    1    4    4    0    0 -0.23836724664E+02 -0.73996633843E+01 -0.19731191751E+01  0.25036726233E+02  0.51100000000E-03 0. -1.
        -11    1    4    4    0    0  0.66017826087E+00 -0.61383789779E+01 -0.19204117363E+02  0.20172100926E+02  0.51100000000E-03 0.  1.
         12    1    4    4    0    0  0.50461137247E+01 -0.51466215176E+00 -0.76253333600E+01  0.91582667413E+01  0.00000000000E+00 0. -1.
</event>
<event>
 8    1  0.3137106E-007  0.9118800E+02  0.7816164E-02  0.1184000E+00
        -11   -1    0    0    0    0  0.00000000000E+00  0.00000000000E+00  0.45593999997E+02  0.45594000000E+02  0.51100000000E-03 0. -1.
         11   -1    0    0    0    0 -0.00000000000E+00 -0.00000000000E+00 -0.45593999997E+02  0.45594000000E+02  0.51100000000E-03 0.  1.
         23    2    1    2    0    0 -0.88817841970E-15  0.00000000000E+00 -0.71054273576E-14  0.91188000000E+02  0.91188000000E+02 0.  0.
    9900012    2    3    3    0    0 -0.79941287463E+01 -0.30154244457E+01 -0.35815933069E+02  0.54367082839E+02  0.39999996947E+02 0.  0.
         12    1    3    3    0    0  0.79941287463E+01  0.30154244457E+01  0.35815933069E+02  0.36820917161E+02  0.00000000000E+00 0. -1.
         11    1    4    4    0    0  0.18959655539E+01  0.66982229883E+01 -0.18198507618E+02  0.19484520943E+02  0.51100000000E-03 0.  1.
        -11    1    4    4    0    0 -0.15254532301E+02 -0.72855151964E+01 -0.64457375146E+00  0.16917297744E+02  0.51100000000E-03 0. -1.
         12    1    4    4    0    0  0.53644380006E+01 -0.24281322377E+01 -0.16972851700E+02  0.17965264152E+02  0.00000000000E+00 0. -1.
</event>
<event>
 8    1  0.3137106E-007  0.9118800E+02  0.7816164E-02  0.1184000E+00
        -11   -1    0    0    0    0  0.00000000000E+00  0.00000000000E+00  0.45593999997E+02  0.45594000000E+02  0.51100000000E-03 0.  1.
         11   -1    0    0    0    0 -0.00000000000E+00 -0.00000000000E+00 -0.45593999997E+02  0.45594000000E+02  0.51100000000E-03 0. -1.
         23    2    1    2    0    0 -0.35527136788E-14  0.17763568394E-14  0.00000000000E+00  0.91188000000E+02  0.91188000000E+02 0.  0.
    9900012    2    3    3    0    0  0.26357011939E+02 -0.41098380468E+01 -0.25381040210E+02  0.54367081363E+02  0.39999993584E+02 0.  0.
        -12    1    3    3    0    0 -0.26357011939E+02  0.41098380468E+01  0.25381040210E+02  0.36820918637E+02  0.00000000000E+00 0.  1.
         11    1    4    4    0    0  0.56996172343E+01 -0.59988475053E+01  0.65128582958E+01  0.10530390850E+02  0.51100000000E-03 0.  1.
        -11    1    4    4    0    0  0.19859364546E+02  0.39928747917E+01 -0.34736398072E+02  0.40211376009E+02  0.51100000000E-03 0. -1.
         12    1    4    4    0    0  0.79803015870E+00 -0.21038653332E+01  0.28424995658E+01  0.36253145045E+01  0.00000000000E+00 0. -1.
</event>
<event>
 8    1  0.3137106E-007  0.9118800E+02  0.7816164E-02  0.1184000E+00
        -11   -1    0    0    0    0  0.00000000000E+00  0.00000000000E+00  0.45593999997E+02  0.45594000000E+02  0.51100000000E-03 0.  1.
         11   -1    0    0    0    0 -0.00000000000E+00 -0.00000000000E+00 -0.45593999997E+02  0.45594000000E+02  0.51100000000E-03 0. -1.
         23    2    1    2    0    0 -0.66613381478E-15  0.00000000000E+00  0.27755575616E-15  0.91188000000E+02  0.91188000000E+02 0.  0.
    9900012    2    3    3    0    0  0.89344279343E+00  0.36808908785E+02 -0.29326010776E+00  0.54367081931E+02  0.39999994877E+02 0.  0.
         12    1    3    3    0    0 -0.89344279343E+00 -0.36808908785E+02  0.29326010776E+00  0.36820918069E+02  0.00000000000E+00 0. -1.
         11    1    4    4    0    0  0.93224533570E+01  0.13711687254E+01 -0.54155354798E+01  0.10868130707E+02  0.51100000000E-03 0. -1.
        -11    1    4    4    0    0 -0.50978036401E+01  0.20586687281E+02 -0.87148082958E+01  0.22929177461E+02  0.51100000000E-03 0.  1.
        -12    1    4    4    0    0 -0.33312069234E+01  0.14851052779E+02  0.13837083668E+02  0.20569773762E+02  0.00000000000E+00 0.  1.
</event>
<event>
 8    1  0.3137106E-007  0.9118800E+02  0.7816164E-02  0.1184000E+00
        -11   -1    0    0    0    0  0.00000000000E+00  0.00000000000E+00  0.45593999997E+02  0.45594000000E+02  0.51100000000E-03 0. -1.
         11   -1    0    0    0    0 -0.00000000000E+00 -0.00000000000E+00 -0.45593999997E+02  0.45594000000E+02  0.51100000000E-03 0.  1.
         23    2    1    2    0    0  0.53290705182E-14 -0.35527136788E-14 -0.71054273576E-14  0.91188000000E+02  0.91188000000E+02 0.  0.
    9900012    2    3    3    0    0 -0.12110808007E+02  0.16969280889E+02  0.30350476629E+02  0.54367087517E+02  0.40000007612E+02 0.  0.
        -12    1    3    3    0    0  0.12110808007E+02 -0.16969280889E+02 -0.30350476629E+02  0.36820912483E+02  0.00000000000E+00 0.  1.
         11    1    4    4    0    0 -0.23775679939E+01 -0.51311014896E+00 -0.29204423105E+01  0.38006703541E+01  0.51100000000E-03 0.  1.
        -11    1    4    4    0    0 -0.15649990233E+02  0.18976165648E+02  0.36224989619E+02  0.43786606744E+02  0.51100000000E-03 0. -1.
         12    1    4    4    0    0  0.59167502190E+01 -0.14937746097E+01 -0.29540706795E+01  0.67798104190E+01  0.00000000000E+00 0. -1.
</event>
<event>
 8    1  0.3137106E-007  0.9118800E+02  0.7816164E-02  0.1184000E+00
        -11   -1    0    0    0    0  0.00000000000E+00  0.00000000000E+00  0.45593999997E+02  0.45594000000E+02  0.51100000000E-03 0. -1.
         11   -1    0    0    0    0 -0.00000000000E+00 -0.00000000000E+00 -0.45593999997E+02  0.45594000000E+02  0.51100000000E-03 0.  1.
         23    2    1    2    0    0  0.00000000000E+00  0.00000000000E+00  0.00000000000E+00  0.91188000000E+02  0.91188000000E+02 0.  0.
    9900012    2    3    3    0    0  0.12085339396E+02  0.79044013643E+01  0.33871027557E+02  0.54367061704E+02  0.39999948767E+02 0.  0.
        -12    1    3    3    0    0 -0.12085339396E+02 -0.79044013643E+01 -0.33871027557E+02  0.36820938296E+02  0.00000000000E+00 0.  1.
         11    1    4    4    0    0  0.72366927897E+01 -0.11418293074E+02  0.30203175516E+01  0.13851695118E+02  0.51100000000E-03 0. -1.
        -11    1    4    4    0    0 -0.32459576837E+01  0.18198127777E+01  0.15289501353E+02  0.15735844805E+02  0.51100000000E-03 0.  1.
        -12    1    4    4    0    0  0.80946042896E+01  0.17502881660E+02  0.15561208652E+02  0.24779521782E+02  0.00000000000E+00 0.  1.
</event>
<event>
 8    1  0.3137106E-007  0.9118800E+02  0.7816164E-02  0.1184000E+00
        -11   -1    0    0    0    0  0.00000000000E+00  0.00000000000E+00  0.45593999997E+02  0.45594000000E+02  0.51100000000E-03 0. -1.
         11   -1    0    0    0    0 -0.00000000000E+00 -0.00000000000E+00 -0.45593999997E+02  0.45594000000E+02  0.51100000000E-03 0.  1.
         23    2    1    2    0    0 -0.88817841970E-15 -0.35527136788E-14  0.00000000000E+00  0.91188000000E+02  0.91188000000E+02 0.  0.
    9900012    2    3    3    0    0  0.29742761005E+01 -0.21393977680E+02  0.29819963980E+02  0.54367097634E+02  0.40000030675E+02 0.  0.
        -12    1    3    3    0    0 -0.29742761005E+01  0.21393977680E+02 -0.29819963980E+02  0.36820902366E+02  0.00000000000E+00 0.  1.
         11    1    4    4    0    0  0.14109847472E+02 -0.63476190927E+01  0.13155880483E+02  0.20309043684E+02  0.51100000000E-03 0. -1.
        -11    1    4    4    0    0 -0.72845607786E+01 -0.19141870220E+02  0.19031285902E+02  0.27958287942E+02  0.51100000000E-03 0.  1.
        -12    1    4    4    0    0 -0.38510105928E+01  0.40955116332E+01 -0.23672024050E+01  0.60997660078E+01  0.00000000000E+00 0.  1.
</event>
<event>
 8    1  0.3137106E-007  0.9118800E+02  0.7816164E-02  0.1184000E+00
        -11   -1    0    0    0    0  0.00000000000E+00  0.00000000000E+00  0.45593999997E+02  0.45594000000E+02  0.51100000000E-03 0.  1.
         11   -1    0    0    0    0 -0.00000000000E+00 -0.00000000000E+00 -0.45593999997E+02  0.45594000000E+02  0.51100000000E-03 0. -1.
         23    2    1    2    0    0  0.00000000000E+00  0.35527136788E-14  0.00000000000E+00  0.91188000000E+02  0.91188000000E+02 0.  0.
    9900012    2    3    3    0    0 -0.10595373731E+02 -0.31175842468E+02  0.16479597352E+02  0.54367187584E+02  0.40000235735E+02 0.  0.
         12    1    3    3    0    0  0.10595373731E+02  0.31175842468E+02 -0.16479597352E+02  0.36820812416E+02  0.00000000000E+00 0. -1.
         11    1    4    4    0    0 -0.32351688757E+01 -0.11802736649E+02  0.53336037833E+01  0.13349840435E+02  0.51100000000E-03 0. -1.
        -11    1    4    4    0    0 -0.10176923994E+02  0.25727766359E+01  0.15250495584E+02  0.18513956288E+02  0.51100000000E-03 0.  1.
         12    1    4    4    0    0  0.28167191392E+01 -0.21945882455E+02 -0.41045020162E+01  0.22503390861E+02  0.00000000000E+00 0. -1.
</event>
<event>
 8    1  0.3137106E-007  0.9118800E+02  0.7816164E-02  0.1184000E+00
        -11   -1    0    0    0    0  0.00000000000E+00  0.00000000000E+00  0.45593999997E+02  0.45594000000E+02  0.51100000000E-03 0. -1.
         11   -1    0    0    0    0 -0.00000000000E+00 -0.00000000000E+00 -0.45593999997E+02  0.45594000000E+02  0.51100000000E-03 0.  1.
         23    2    1    2    0    0  0.00000000000E+00  0.00000000000E+00  0.35527136788E-14  0.91188000000E+02  0.91188000000E+02 0.  0.
    9900012    2    3    3    0    0 -0.11255617528E+02 -0.18540337554E+02  0.29754775444E+02  0.54367086047E+02  0.40000004262E+02 0.  0.
        -12    1    3    3    0    0  0.11255617528E+02  0.18540337554E+02 -0.29754775444E+02  0.36820913953E+02  0.00000000000E+00 0.  1.
         11    1    4    4    0    0  0.12907167238E+02 -0.10818329759E+02  0.17220899805E+02  0.24087146266E+02  0.51100000000E-03 0. -1.
        -11    1    4    4    0    0 -0.23461940260E+01 -0.46524840355E+01  0.43151586033E+01  0.67654141145E+01  0.51100000000E-03 0.  1.
        -12    1    4    4    0    0 -0.21816590740E+02 -0.30695237604E+01  0.82187170358E+01  0.23514525667E+02  0.00000000000E+00 0.  1.
</event>
<event>
 8    1  0.3137106E-007  0.9118800E+02  0.7816164E-02  0.1184000E+00
        -11   -1    0    0    0    0  0.00000000000E+00  0.00000000000E+00  0.45593999997E+02  0.45594000000E+02  0.51100000000E-03 0. -1.
         11   -1    0    0    0    0 -0.00000000000E+00 -0.00000000000E+00 -0.45593999997E+02  0.45594000000E+02  0.51100000000E-03 0.  1.
         23    2    1    2    0    0  0.00000000000E+00 -0.35527136788E-14  0.00000000000E+00  0.91188000000E+02  0.91188000000E+02 0.  0.
    9900012    2    3    3    0    0  0.62329012960E+01 -0.17115984299E+02 -0.31999746057E+02  0.54366949977E+02  0.39999694061E+02 0.  0.
         12    1    3    3    0    0 -0.62329012960E+01  0.17115984299E+02  0.31999746057E+02  0.36821050023E+02  0.00000000000E+00 0. -1.
         11    1    4    4    0    0  0.14215691560E+02  0.17484864515E+01 -0.24672307459E+01  0.14533764799E+02  0.51100000000E-03 0. -1.
        -11    1    4    4    0    0 -0.51897275534E+01  0.72501318707E+00 -0.13109920376E+02  0.14118389735E+02  0.51100000000E-03 0.  1.
        -12    1    4    4    0    0 -0.27930627111E+01 -0.19589483937E+02 -0.16422594936E+02  0.25714795443E+02  0.00000000000E+00 0.  1.
</event>
<event>
 8    1  0.3137106E-007  0.9118800E+02  0.7816164E-02  0.1184000E+00
        -11   -1    0    0    0    0  0.00000000000E+00  0.00000000000E+00  0.45593999997E+02  0.45594000000E+02  0.51100000000E-03 0.  1.
         11   -1    0    0    0    0 -0.00000000000E+00 -0.00000000000E+00 -0.45593999997E+02  0.45594000000E+02  0.51100000000E-03 0. -1.
         23    2    1    2    0    0  0.35527136788E-14 -0.35527136788E-14 -0.17763568394E-14  0.91188000000E+02  0.91188000000E+02 0.  0.
    9900012    2    3    3    0    0  0.24240579209E+02  0.26393365654E+02  0.84594867427E+01  0.54367104480E+02  0.40000046284E+02 0.  0.
         12    1    3    3    0    0 -0.24240579209E+02 -0.26393365654E+02 -0.84594867427E+01  0.36820895520E+02  0.00000000000E+00 0. -1.
         11    1    4    4    0    0  0.20659521347E+02  0.18707671414E+02  0.20052657878E+02  0.34335140604E+02  0.51100000000E-03 0. -1.
        -11    1    4    4    0    0 -0.17917315458E+01  0.10231084129E+02 -0.71491846103E+01  0.12609370533E+02  0.51100000000E-03 0.  1.
         12    1    4    4    0    0  0.53727894077E+01 -0.25453898891E+01 -0.44439865253E+01  0.74225933436E+01  0.00000000000E+00 0. -1.
</event>
<event>
 8    1  0.3137106E-007  0.9118800E+02  0.7816164E-02  0.1184000E+00
        -11   -1    0    0    0    0  0.00000000000E+00  0.00000000000E+00  0.45593999997E+02  0.45594000000E+02  0.51100000000E-03 0. -1.
         11   -1    0    0    0    0 -0.00000000000E+00 -0.00000000000E+00 -0.45593999997E+02  0.45594000000E+02  0.51100000000E-03 0.  1.
         23    2    1    2    0    0 -0.88817841970E-15 -0.88817841970E-15  0.00000000000E+00  0.91188000000E+02  0.91188000000E+02 0.  0.
    9900012    2    3    3    0    0 -0.76133016422E+01 -0.41026054047E+01 -0.35790826448E+02  0.54367122895E+02  0.40000088263E+02 0.  0.
         12    1    3    3    0    0  0.76133016422E+01  0.41026054047E+01  0.35790826448E+02  0.36820877105E+02  0.00000000000E+00 0. -1.
         11    1    4    4    0    0  0.99908721359E+00 -0.24313511910E+01  0.26441298512E+01  0.37284134434E+01  0.51100000000E-03 0. -1.
        -11    1    4    4    0    0  0.50595283107E+01  0.11804903205E+01 -0.36108195915E+02  0.36480052037E+02  0.51100000000E-03 0.  1.
        -12    1    4    4    0    0 -0.13671917166E+02 -0.28517445341E+01 -0.23267603844E+01  0.14158657415E+02  0.00000000000E+00 0.  1.
</event>
<event>
 8    1  0.3137106E-007  0.9118800E+02  0.7816164E-02  0.1184000E+00
        -11   -1    0    0    0    0  0.00000000000E+00  0.00000000000E+00  0.45593999997E+02  0.45594000000E+02  0.51100000000E-03 0. -1.
         11   -1    0    0    0    0 -0.00000000000E+00 -0.00000000000E+00 -0.45593999997E+02  0.45594000000E+02  0.51100000000E-03 0.  1.
         23    2    1    2    0    0 -0.35527136788E-14 -0.17763568394E-14  0.00000000000E+00  0.91188000000E+02  0.91188000000E+02 0.  0.
    9900012    2    3    3    0    0 -0.26356955051E+02  0.11832391329E+02  0.22827296182E+02  0.54367081827E+02  0.39999994642E+02 0.  0.
        -12    1    3    3    0    0  0.26356955051E+02 -0.11832391329E+02 -0.22827296182E+02  0.36820918173E+02  0.00000000000E+00 0.  1.
         11    1    4    4    0    0 -0.10718004656E+01  0.45283915468E+00 -0.17216738007E+01  0.20779750901E+01  0.51100000000E-03 0.  1.
        -11    1    4    4    0    0 -0.15067848872E+02  0.29545867293E+01  0.33125757790E+02  0.36511443162E+02  0.51100000000E-03 0. -1.
         12    1    4    4    0    0 -0.10217305713E+02  0.84249654449E+01 -0.85767878075E+01  0.15777663575E+02  0.00000000000E+00 0. -1.
</event>
<event>
 8    1  0.3137106E-007  0.9118800E+02  0.7816164E-02  0.1184000E+00
        -11   -1    0    0    0    0  0.00000000000E+00  0.00000000000E+00  0.45593999997E+02  0.45594000000E+02  0.51100000000E-03 0.  1.
         11   -1    0    0    0    0 -0.00000000000E+00 -0.00000000000E+00 -0.45593999997E+02  0.45594000000E+02  0.51100000000E-03 0. -1.
         23    2    1    2    0    0  0.00000000000E+00 -0.35527136788E-14  0.35527136788E-14  0.91188000000E+02  0.91188000000E+02 0.  0.
    9900012    2    3    3    0    0  0.15850212632E+02 -0.29809223350E+02 -0.14695600051E+02  0.54367086132E+02  0.40000004456E+02 0.  0.
        -12    1    3    3    0    0 -0.15850212632E+02  0.29809223350E+02  0.14695600051E+02  0.36820913868E+02  0.00000000000E+00 0.  1.
         11    1    4    4    0    0  0.24713412855E+02 -0.20388567769E+02 -0.18740223896E+02  0.37116606291E+02  0.51100000000E-03 0. -1.
        -11    1    4    4    0    0 -0.76762350322E+01 -0.10150673277E+02  0.66028808978E+01  0.14337321530E+02  0.51100000000E-03 0.  1.
         12    1    4    4    0    0 -0.11869651912E+01  0.73001769574E+00 -0.25582570528E+01  0.29131583118E+01  0.00000000000E+00 0. -1.
</event>
<event>
 8    1  0.3137106E-007  0.9118800E+02  0.7816164E-02  0.1184000E+00
        -11   -1    0    0    0    0  0.00000000000E+00  0.00000000000E+00  0.45593999997E+02  0.45594000000E+02  0.51100000000E-03 0. -1.
         11   -1    0    0    0    0 -0.00000000000E+00 -0.00000000000E+00 -0.45593999997E+02  0.45594000000E+02  0.51100000000E-03 0.  1.
         23    2    1    2    0    0  0.00000000000E+00  0.00000000000E+00  0.00000000000E+00  0.91188000000E+02  0.91188000000E+02 0.  0.
    9900012    2    3    3    0    0  0.13867091156E+02  0.26629185017E+02 -0.21315969891E+02  0.54367078173E+02  0.39999986310E+02 0.  0.
         12    1    3    3    0    0 -0.13867091156E+02 -0.26629185017E+02  0.21315969891E+02  0.36820921827E+02  0.00000000000E+00 0. -1.
         11    1    4    4    0    0  0.27279875994E+00  0.31523124650E+01  0.98960612034E+01  0.10389587126E+02  0.51100000000E-03 0. -1.
        -11    1    4    4    0    0 -0.17680137712E+01  0.91297669076E+01 -0.14012570008E+02  0.16817569235E+02  0.51100000000E-03 0.  1.
         12    1    4    4    0    0  0.15362306168E+02  0.14347105644E+02 -0.17199461087E+02  0.27159921812E+02  0.00000000000E+00 0. -1.
</event>
<event>
 8    1  0.3137106E-007  0.9118800E+02  0.7816164E-02  0.1184000E+00
        -11   -1    0    0    0    0  0.00000000000E+00  0.00000000000E+00  0.45593999997E+02  0.45594000000E+02  0.51100000000E-03 0.  1.
         11   -1    0    0    0    0 -0.00000000000E+00 -0.00000000000E+00 -0.45593999997E+02  0.45594000000E+02  0.51100000000E-03 0. -1.
         23    2    1    2    0    0  0.00000000000E+00  0.00000000000E+00  0.00000000000E+00  0.91188000000E+02  0.91188000000E+02 0.  0.
    9900012    2    3    3    0    0 -0.19052497685E+02  0.29692433964E+02 -0.10542250111E+02  0.54367118150E+02  0.40000077448E+02 0.  0.
         12    1    3    3    0    0  0.19052497685E+02 -0.29692433964E+02  0.10542250111E+02  0.36820881850E+02  0.00000000000E+00 0. -1.
         11    1    4    4    0    0 -0.66019649127E+01  0.13436986643E+02 -0.12509525686E+02  0.19509658734E+02  0.51100000000E-03 0. -1.
        -11    1    4    4    0    0  0.51046191955E-01  0.26885137501E+01  0.13057849418E+02  0.13331846968E+02  0.51100000000E-03 0.  1.
        -12    1    4    4    0    0 -0.12501578964E+02  0.13566933572E+02 -0.11090573843E+02  0.21525612449E+02  0.00000000000E+00 0.  1.
</event>
<event>
 8    1  0.3137106E-007  0.9118800E+02  0.7816164E-02  0.1184000E+00
        -11   -1    0    0    0    0  0.00000000000E+00  0.00000000000E+00  0.45593999997E+02  0.45594000000E+02  0.51100000000E-03 0.  1.
         11   -1    0    0    0    0 -0.00000000000E+00 -0.00000000000E+00 -0.45593999997E+02  0.45594000000E+02  0.51100000000E-03 0. -1.
         23    2    1    2    0    0 -0.17763568394E-14  0.00000000000E+00  0.35527136788E-14  0.91188000000E+02  0.91188000000E+02 0.  0.
    9900012    2    3    3    0    0  0.13910647458E+02  0.31623961049E+02  0.12735903437E+02  0.54367024164E+02  0.39999863187E+02 0.  0.
         12    1    3    3    0    0 -0.13910647458E+02 -0.31623961049E+02 -0.12735903437E+02  0.36820975836E+02  0.00000000000E+00 0. -1.
         11    1    4    4    0    0  0.98148025801E+01  0.20786747815E+02 -0.40103823379E+01  0.23334575230E+02  0.51100000000E-03 0. -1.
        -11    1    4    4    0    0  0.26730786163E+01  0.14204434119E+02  0.20956005581E+02  0.25457130005E+02  0.51100000000E-03 0.  1.
        -12    1    4    4    0    0  0.14227662613E+01 -0.33672208837E+01 -0.42097198061E+01  0.55753189290E+01  0.00000000000E+00 0.  1.
</event>
<event>
 8    1  0.3137106E-007  0.9118800E+02  0.7816164E-02  0.1184000E+00
        -11   -1    0    0    0    0  0.00000000000E+00  0.00000000000E+00  0.45593999997E+02  0.45594000000E+02  0.51100000000E-03 0.  1.
         11   -1    0    0    0    0 -0.00000000000E+00 -0.00000000000E+00 -0.45593999997E+02  0.45594000000E+02  0.51100000000E-03 0. -1.
         23    2    1    2    0    0  0.35527136788E-14  0.00000000000E+00  0.00000000000E+00  0.91188000000E+02  0.91188000000E+02 0.  0.
    9900012    2    3    3    0    0 -0.26825814271E+02 -0.14434773305E+02  0.20683144304E+02  0.54367089501E+02  0.40000012135E+02 0.  0.
         12    1    3    3    0    0  0.26825814271E+02  0.14434773305E+02 -0.20683144304E+02  0.36820910499E+02  0.00000000000E+00 0. -1.
         11    1    4    4    0    0 -0.35932987203E+01 -0.25001755689E+01  0.13457343634E+02  0.14151422951E+02  0.51100000000E-03 0. -1.
        -11    1    4    4    0    0 -0.84798984390E+01  0.73883618143E+01  0.10860292210E+02  0.15634657495E+02  0.51100000000E-03 0.  1.
         12    1    4    4    0    0 -0.14752617112E+02 -0.19322959551E+02 -0.36344915400E+01  0.24581009056E+02  0.00000000000E+00 0. -1.
</event>
<event>
 8    1  0.3137106E-007  0.9118800E+02  0.7816164E-02  0.1184000E+00
        -11   -1    0    0    0    0  0.00000000000E+00  0.00000000000E+00  0.45593999997E+02  0.45594000000E+02  0.51100000000E-03 0. -1.
         11   -1    0    0    0    0 -0.00000000000E+00 -0.00000000000E+00 -0.45593999997E+02  0.45594000000E+02  0.51100000000E-03 0.  1.
         23    2    1    2    0    0  0.00000000000E+00  0.17763568394E-14  0.71054273576E-14  0.91188000000E+02  0.91188000000E+02 0.  0.
    9900012    2    3    3    0    0  0.12316850174E+02  0.94183974540E+01  0.33397126818E+02  0.54367094409E+02  0.40000023324E+02 0.  0.
        -12    1    3    3    0    0 -0.12316850174E+02 -0.94183974540E+01 -0.33397126818E+02  0.36820905591E+02  0.00000000000E+00 0.  1.
         11    1    4    4    0    0 -0.85878220220E+01  0.65845416296E+00  0.70191677859E+01  0.11110939008E+02  0.51100000000E-03 0. -1.
        -11    1    4    4    0    0 -0.79764561241E+00  0.10557402712E+02  0.23822135722E+01  0.10852185601E+02  0.51100000000E-03 0.  1.
        -12    1    4    4    0    0  0.21702317808E+02 -0.17974594213E+01  0.23995745460E+02  0.32403969800E+02  0.00000000000E+00 0.  1.
</event>
<event>
 8    1  0.3137106E-007  0.9118800E+02  0.7816164E-02  0.1184000E+00
        -11   -1    0    0    0    0  0.00000000000E+00  0.00000000000E+00  0.45593999997E+02  0.45594000000E+02  0.51100000000E-03 0.  1.
         11   -1    0    0    0    0 -0.00000000000E+00 -0.00000000000E+00 -0.45593999997E+02  0.45594000000E+02  0.51100000000E-03 0. -1.
         23    2    1    2    0    0 -0.35527136788E-14  0.17763568394E-14  0.00000000000E+00  0.91188000000E+02  0.91188000000E+02 0.  0.
    9900012    2    3    3    0    0  0.28328621777E+02 -0.12581167025E+02 -0.19874298031E+02  0.54367023673E+02  0.39999862066E+02 0.  0.
        -12    1    3    3    0    0 -0.28328621777E+02  0.12581167025E+02  0.19874298031E+02  0.36820976327E+02  0.00000000000E+00 0.  1.
         11    1    4    4    0    0  0.27839145164E+02 -0.11094472569E+01 -0.15225618464E+02  0.31750091883E+02  0.51100000000E-03 0. -1.
        -11    1    4    4    0    0 -0.85422151573E+01 -0.45749834188E+01 -0.56364870040E+01  0.11210258654E+02  0.51100000000E-03 0.  1.
        -12    1    4    4    0    0  0.90316917697E+01 -0.68967363497E+01  0.98780743751E+00  0.11406673136E+02  0.00000000000E+00 0.  1.
</event>
<event>
 8    1  0.3137106E-007  0.9118800E+02  0.7816164E-02  0.1184000E+00
        -11   -1    0    0    0    0  0.00000000000E+00  0.00000000000E+00  0.45593999997E+02  0.45594000000E+02  0.51100000000E-03 0.  1.
         11   -1    0    0    0    0 -0.00000000000E+00 -0.00000000000E+00 -0.45593999997E+02  0.45594000000E+02  0.51100000000E-03 0. -1.
         23    2    1    2    0    0  0.00000000000E+00  0.22204460493E-15 -0.88817841970E-15  0.91188000000E+02  0.91188000000E+02 0.  0.
    9900012    2    3    3    0    0 -0.35980916004E+02  0.13722316350E+01  0.76986598180E+01  0.54367099697E+02  0.40000035379E+02 0.  0.
         12    1    3    3    0    0  0.35980916004E+02 -0.13722316350E+01 -0.76986598180E+01  0.36820900303E+02  0.00000000000E+00 0. -1.
         11    1    4    4    0    0 -0.20393974238E+02 -0.67715640543E+01  0.24560910261E+00  0.21490197511E+02  0.51100000000E-03 0. -1.
        -11    1    4    4    0    0 -0.28714436839E+00  0.11512406142E+02 -0.52990996523E+01  0.12676687440E+02  0.51100000000E-03 0.  1.
        -12    1    4    4    0    0 -0.15299797398E+02 -0.33686104529E+01  0.12752150368E+02  0.20200214746E+02  0.00000000000E+00 0.  1.
</event>
<event>
 8    1  0.3137106E-007  0.9118800E+02  0.7816164E-02  0.1184000E+00
        -11   -1    0    0    0    0  0.00000000000E+00  0.00000000000E+00  0.45593999997E+02  0.45594000000E+02  0.51100000000E-03 0.  1.
         11   -1    0    0    0    0 -0.00000000000E+00 -0.00000000000E+00 -0.45593999997E+02  0.45594000000E+02  0.51100000000E-03 0. -1.
         23    2    1    2    0    0 -0.13322676296E-14  0.44408920985E-15  0.00000000000E+00  0.91188000000E+02  0.91188000000E+02 0.  0.
    9900012    2    3    3    0    0  0.24212331907E+01 -0.33481671473E+01 -0.36588350741E+02  0.54367081986E+02  0.39999995004E+02 0.  0.
        -12    1    3    3    0    0 -0.24212331907E+01  0.33481671473E+01  0.36588350741E+02  0.36820918014E+02  0.00000000000E+00 0.  1.
         11    1    4    4    0    0  0.29746609439E+01  0.16999892044E+01 -0.31286486294E+01  0.46397212776E+01  0.51100000000E-03 0.  1.
        -11    1    4    4    0    0 -0.16391595561E+02 -0.89644573082E+01 -0.25397169693E+02  0.31528750825E+02  0.51100000000E-03 0. -1.
         12    1    4    4    0    0  0.15838167808E+02  0.39163009564E+01 -0.80625324190E+01  0.18198609884E+02  0.00000000000E+00 0. -1.
</event>
<event>
 8    1  0.3137106E-007  0.9118800E+02  0.7816164E-02  0.1184000E+00
        -11   -1    0    0    0    0  0.00000000000E+00  0.00000000000E+00  0.45593999997E+02  0.45594000000E+02  0.51100000000E-03 0. -1.
         11   -1    0    0    0    0 -0.00000000000E+00 -0.00000000000E+00 -0.45593999997E+02  0.45594000000E+02  0.51100000000E-03 0.  1.
         23    2    1    2    0    0 -0.88817841970E-15  0.00000000000E+00  0.71054273576E-14  0.91188000000E+02  0.91188000000E+02 0.  0.
    9900012    2    3    3    0    0  0.64728074280E+01  0.14057746332E+02 -0.33410520533E+02  0.54367077276E+02  0.39999984266E+02 0.  0.
         12    1    3    3    0    0 -0.64728074280E+01 -0.14057746332E+02  0.33410520533E+02  0.36820922724E+02  0.00000000000E+00 0. -1.
         11    1    4    4    0    0  0.91416317299E+01 -0.82508240712E+01 -0.16624113263E+02  0.20688322083E+02  0.51100000000E-03 0. -1.
        -11    1    4    4    0    0  0.13422057309E+01  0.10914683787E+02  0.21622172095E+01  0.11207453856E+02  0.51100000000E-03 0.  1.
        -12    1    4    4    0    0 -0.40110300328E+01  0.11393886616E+02 -0.18948624479E+02  0.22471301338E+02  0.00000000000E+00 0.  1.
</event>
<event>
 8    1  0.3137106E-007  0.9118800E+02  0.7816164E-02  0.1184000E+00
        -11   -1    0    0    0    0  0.00000000000E+00  0.00000000000E+00  0.45593999997E+02  0.45594000000E+02  0.51100000000E-03 0. -1.
         11   -1    0    0    0    0 -0.00000000000E+00 -0.00000000000E+00 -0.45593999997E+02  0.45594000000E+02  0.51100000000E-03 0.  1.
         23    2    1    2    0    0 -0.17763568394E-14  0.17763568394E-14  0.00000000000E+00  0.91188000000E+02  0.91188000000E+02 0.  0.
    9900012    2    3    3    0    0 -0.14102585979E+02  0.67067082448E+01  0.33345382728E+02  0.54367117120E+02  0.40000075098E+02 0.  0.
        -12    1    3    3    0    0  0.14102585979E+02 -0.67067082448E+01 -0.33345382728E+02  0.36820882880E+02  0.00000000000E+00 0.  1.
         11    1    4    4    0    0 -0.22572437948E+01  0.97748883334E+01  0.16437740805E+02  0.19257282117E+02  0.51100000000E-03 0. -1.
        -11    1    4    4    0    0 -0.36778413124E+01  0.85231699600E+01 -0.37850779221E+01  0.10024857008E+02  0.51100000000E-03 0.  1.
         12    1    4    4    0    0 -0.81675008723E+01 -0.11591350049E+02  0.20692719845E+02  0.25084977996E+02  0.00000000000E+00 0. -1.
</event>
<event>
 8    1  0.3137106E-007  0.9118800E+02  0.7816164E-02  0.1184000E+00
        -11   -1    0    0    0    0  0.00000000000E+00  0.00000000000E+00  0.45593999997E+02  0.45594000000E+02  0.51100000000E-03 0. -1.
         11   -1    0    0    0    0 -0.00000000000E+00 -0.00000000000E+00 -0.45593999997E+02  0.45594000000E+02  0.51100000000E-03 0.  1.
         23    2    1    2    0    0 -0.35527136788E-14  0.00000000000E+00  0.00000000000E+00  0.91188000000E+02  0.91188000000E+02 0.  0.
    9900012    2    3    3    0    0  0.16493242923E+02 -0.32826510723E+02  0.24844682910E+01  0.54367089486E+02  0.40000012102E+02 0.  0.
         12    1    3    3    0    0 -0.16493242923E+02  0.32826510723E+02 -0.24844682910E+01  0.36820910514E+02  0.00000000000E+00 0. -1.
         11    1    4    4    0    0  0.54054760784E+00 -0.22682194518E+02  0.22377426876E+01  0.22798719974E+02  0.51100000000E-03 0. -1.
        -11    1    4    4    0    0 -0.29050328431E+01 -0.91631038016E+01 -0.64014149753E+01  0.11549017319E+02  0.51100000000E-03 0.  1.
         12    1    4    4    0    0  0.18857728158E+02 -0.98121240364E+00  0.66481405787E+01  0.20019352193E+02  0.00000000000E+00 0. -1.
</event>
<event>
 8    1  0.3137106E-007  0.9118800E+02  0.7816164E-02  0.1184000E+00
        -11   -1    0    0    0    0  0.00000000000E+00  0.00000000000E+00  0.45593999997E+02  0.45594000000E+02  0.51100000000E-03 0.  1.
         11   -1    0    0    0    0 -0.00000000000E+00 -0.00000000000E+00 -0.45593999997E+02  0.45594000000E+02  0.51100000000E-03 0. -1.
         23    2    1    2    0    0  0.44408920985E-15  0.00000000000E+00  0.00000000000E+00  0.91188000000E+02  0.91188000000E+02 0.  0.
    9900012    2    3    3    0    0  0.37247396572E+01 -0.13287753412E+02  0.34137111066E+02  0.54367076218E+02  0.39999981853E+02 0.  0.
         12    1    3    3    0    0 -0.37247396572E+01  0.13287753412E+02 -0.34137111066E+02  0.36820923782E+02  0.00000000000E+00 0. -1.
         11    1    4    4    0    0 -0.44081451083E+01  0.91750353237E+01  0.12497799282E+02  0.16118560842E+02  0.51100000000E-03 0. -1.
        -11    1    4    4    0    0 -0.34190121950E+00  0.35249789272E+01  0.53880123273E+01  0.64477166487E+01  0.51100000000E-03 0.  1.
         12    1    4    4    0    0  0.84747859850E+01 -0.25987767663E+02  0.16251299457E+02  0.31800798727E+02  0.00000000000E+00 0. -1.
</event>
<event>
 8    1  0.3137106E-007  0.9118800E+02  0.7816164E-02  0.1184000E+00
        -11   -1    0    0    0    0  0.00000000000E+00  0.00000000000E+00  0.45593999997E+02  0.45594000000E+02  0.51100000000E-03 0.  1.
         11   -1    0    0    0    0 -0.00000000000E+00 -0.00000000000E+00 -0.45593999997E+02  0.45594000000E+02  0.51100000000E-03 0. -1.
         23    2    1    2    0    0  0.35527136788E-14 -0.35527136788E-14  0.00000000000E+00  0.91188000000E+02  0.91188000000E+02 0.  0.
    9900012    2    3    3    0    0  0.22844841771E+02 -0.20849992885E+02 -0.19979241497E+02  0.54367094394E+02  0.40000023290E+02 0.  0.
         12    1    3    3    0    0 -0.22844841771E+02  0.20849992885E+02  0.19979241497E+02  0.36820905606E+02  0.00000000000E+00 0. -1.
         11    1    4    4    0    0  0.91869613788E+01 -0.14065546913E+01 -0.21466599660E+02  0.23392168704E+02  0.51100000000E-03 0. -1.
        -11    1    4    4    0    0  0.10148827166E+02 -0.79193929494E+00  0.55090442482E+01  0.11574775569E+02  0.51100000000E-03 0.  1.
        -12    1    4    4    0    0  0.35090532267E+01 -0.18651498899E+02 -0.40216860853E+01  0.19400150120E+02  0.00000000000E+00 0.  1.
</event>
<event>
 8    1  0.3137106E-007  0.9118800E+02  0.7816164E-02  0.1184000E+00
        -11   -1    0    0    0    0  0.00000000000E+00  0.00000000000E+00  0.45593999997E+02  0.45594000000E+02  0.51100000000E-03 0.  1.
         11   -1    0    0    0    0 -0.00000000000E+00 -0.00000000000E+00 -0.45593999997E+02  0.45594000000E+02  0.51100000000E-03 0. -1.
         23    2    1    2    0    0 -0.35527136788E-14  0.00000000000E+00  0.00000000000E+00  0.91188000000E+02  0.91188000000E+02 0.  0.
    9900012    2    3    3    0    0 -0.23805719441E+02  0.23187524179E+01 -0.27994466122E+02  0.54367095281E+02  0.40000025312E+02 0.  0.
        -12    1    3    3    0    0  0.23805719441E+02 -0.23187524179E+01  0.27994466122E+02  0.36820904719E+02  0.00000000000E+00 0.  1.
         11    1    4    4    0    0 -0.25156326789E+02 -0.33309611636E-01 -0.10764828678E+02  0.27362810963E+02  0.51100000000E-03 0. -1.
        -11    1    4    4    0    0  0.62765467635E+01 -0.62056055048E+01 -0.23281552508E+01  0.91282466054E+01  0.51100000000E-03 0.  1.
        -12    1    4    4    0    0 -0.49259394155E+01  0.85576675344E+01 -0.14901482193E+02  0.17876037713E+02  0.00000000000E+00 0.  1.
</event>
<event>
 8    1  0.3137106E-007  0.9118800E+02  0.7816164E-02  0.1184000E+00
        -11   -1    0    0    0    0  0.00000000000E+00  0.00000000000E+00  0.45593999997E+02  0.45594000000E+02  0.51100000000E-03 0. -1.
         11   -1    0    0    0    0 -0.00000000000E+00 -0.00000000000E+00 -0.45593999997E+02  0.45594000000E+02  0.51100000000E-03 0.  1.
         23    2    1    2    0    0 -0.17763568394E-14 -0.35527136788E-14  0.35527136788E-14  0.91188000000E+02  0.91188000000E+02 0.  0.
    9900012    2    3    3    0    0 -0.61584067054E+01 -0.20601510019E+02  0.29890344986E+02  0.54367069654E+02  0.39999966889E+02 0.  0.
        -12    1    3    3    0    0  0.61584067054E+01  0.20601510019E+02 -0.29890344986E+02  0.36820930346E+02  0.00000000000E+00 0.  1.
         11    1    4    4    0    0 -0.17810091608E+02 -0.42356423966E+01  0.24199937835E+02  0.30344307886E+02  0.51100000000E-03 0. -1.
        -11    1    4    4    0    0  0.13887587485E+02 -0.14752455914E+02  0.62629428152E+01  0.21206708717E+02  0.51100000000E-03 0.  1.
        -12    1    4    4    0    0 -0.22359025820E+01 -0.16134117081E+01 -0.57253566450E+00  0.28160530505E+01  0.00000000000E+00 0.  1.
</event>
<event>
 8    1  0.3137106E-007  0.9118800E+02  0.7816164E-02  0.1184000E+00
        -11   -1    0    0    0    0  0.00000000000E+00  0.00000000000E+00  0.45593999997E+02  0.45594000000E+02  0.51100000000E-03 0. -1.
         11   -1    0    0    0    0 -0.00000000000E+00 -0.00000000000E+00 -0.45593999997E+02  0.45594000000E+02  0.51100000000E-03 0.  1.
         23    2    1    2    0    0  0.00000000000E+00  0.00000000000E+00 -0.88817841970E-15  0.91188000000E+02  0.91188000000E+02 0.  0.
    9900012    2    3    3    0    0  0.14777503371E+02  0.33576692193E+02  0.31643138936E+01  0.54367058311E+02  0.39999941031E+02 0.  0.
         12    1    3    3    0    0 -0.14777503371E+02 -0.33576692193E+02 -0.31643138936E+01  0.36820941689E+02  0.00000000000E+00 0. -1.
         11    1    4    4    0    0  0.13055641568E+02  0.31556287519E+02  0.79820431114E+01  0.35070815092E+02  0.51100000000E-03 0. -1.
        -11    1    4    4    0    0  0.91644271353E+01  0.51808066200E+01 -0.18841431609E+01  0.10694740654E+02  0.51100000000E-03 0.  1.
         12    1    4    4    0    0 -0.74425653333E+01 -0.31604019465E+01 -0.29335860570E+01  0.86015025639E+01  0.00000000000E+00 0. -1.
</event>
<event>
 8    1  0.3137106E-007  0.9118800E+02  0.7816164E-02  0.1184000E+00
        -11   -1    0    0    0    0  0.00000000000E+00  0.00000000000E+00  0.45593999997E+02  0.45594000000E+02  0.51100000000E-03 0. -1.
         11   -1    0    0    0    0 -0.00000000000E+00 -0.00000000000E+00 -0.45593999997E+02  0.45594000000E+02  0.51100000000E-03 0.  1.
         23    2    1    2    0    0 -0.88817841970E-15 -0.71054273576E-14  0.00000000000E+00  0.91188000000E+02  0.91188000000E+02 0.  0.
    9900012    2    3    3    0    0 -0.24145519133E+01 -0.31734494503E+02 -0.18516800928E+02  0.54367080417E+02  0.39999991427E+02 0.  0.
         12    1    3    3    0    0  0.24145519133E+01  0.31734494503E+02  0.18516800928E+02  0.36820919583E+02  0.00000000000E+00 0. -1.
         11    1    4    4    0    0  0.18825084282E+01 -0.14383424110E+02 -0.13733163606E+02  0.19975647924E+02  0.51100000000E-03 0. -1.
        -11    1    4    4    0    0 -0.61961790575E+01 -0.19726619438E+02  0.73025106301E+01  0.21928493134E+02  0.51100000000E-03 0.  1.
         12    1    4    4    0    0  0.18991187159E+01  0.23755490443E+01 -0.12086147952E+02  0.12462939359E+02  0.00000000000E+00 0. -1.
</event>
<event>
 8    1  0.3137106E-007  0.9118800E+02  0.7816164E-02  0.1184000E+00
        -11   -1    0    0    0    0  0.00000000000E+00  0.00000000000E+00  0.45593999997E+02  0.45594000000E+02  0.51100000000E-03 0.  1.
         11   -1    0    0    0    0 -0.00000000000E+00 -0.00000000000E+00 -0.45593999997E+02  0.45594000000E+02  0.51100000000E-03 0. -1.
         23    2    1    2    0    0  0.66613381478E-15 -0.35527136788E-14  0.71054273576E-14  0.91188000000E+02  0.91188000000E+02 0.  0.
    9900012    2    3    3    0    0  0.16310894453E+01 -0.29245383589E+02  0.22312049386E+02  0.54367075760E+02  0.39999980810E+02 0.  0.
         12    1    3    3    0    0 -0.16310894453E+01  0.29245383589E+02 -0.22312049386E+02  0.36820924240E+02  0.00000000000E+00 0. -1.
         11    1    4    4    0    0  0.75643130950E+00 -0.14434716619E+02 -0.38578409451E+01  0.14960486931E+02  0.51100000000E-03 0. -1.
        -11    1    4    4    0    0  0.40952863638E+01  0.50016534499E+00  0.23095991363E+02  0.23461593149E+02  0.51100000000E-03 0.  1.
        -12    1    4    4    0    0 -0.32206282279E+01 -0.15310832316E+02  0.30738989679E+01  0.15944995680E+02  0.00000000000E+00 0.  1.
</event>
<event>
 8    1  0.3137106E-007  0.9118800E+02  0.7816164E-02  0.1184000E+00
        -11   -1    0    0    0    0  0.00000000000E+00  0.00000000000E+00  0.45593999997E+02  0.45594000000E+02  0.51100000000E-03 0.  1.
         11   -1    0    0    0    0 -0.00000000000E+00 -0.00000000000E+00 -0.45593999997E+02  0.45594000000E+02  0.51100000000E-03 0. -1.
         23    2    1    2    0    0  0.00000000000E+00 -0.66613381478E-15  0.00000000000E+00  0.91188000000E+02  0.91188000000E+02 0.  0.
    9900012    2    3    3    0    0 -0.98726907803E+01  0.10757806178E+01  0.35456390900E+02  0.54367041527E+02  0.39999902770E+02 0.  0.
         12    1    3    3    0    0  0.98726907803E+01 -0.10757806178E+01 -0.35456390900E+02  0.36820958473E+02  0.00000000000E+00 0. -1.
         11    1    4    4    0    0 -0.12271656935E+02 -0.79857850573E+01  0.15468757962E+02  0.21299032843E+02  0.51100000000E-03 0. -1.
        -11    1    4    4    0    0  0.11739692530E+02  0.85527165858E+01  0.49252110669E+01  0.15337113353E+02  0.51100000000E-03 0.  1.
        -12    1    4    4    0    0 -0.93407263750E+01  0.50884908930E+00  0.15062421871E+02  0.17730895331E+02  0.00000000000E+00 0.  1.
</event>
<event>
 8    1  0.3137106E-007  0.9118800E+02  0.7816164E-02  0.1184000E+00
        -11   -1    0    0    0    0  0.00000000000E+00  0.00000000000E+00  0.45593999997E+02  0.45594000000E+02  0.51100000000E-03 0. -1.
         11   -1    0    0    0    0 -0.00000000000E+00 -0.00000000000E+00 -0.45593999997E+02  0.45594000000E+02  0.51100000000E-03 0.  1.
         23    2    1    2    0    0  0.00000000000E+00  0.17763568394E-14  0.00000000000E+00  0.91188000000E+02  0.91188000000E+02 0.  0.
    9900012    2    3    3    0    0  0.18512152006E+02 -0.52692479992E+01 -0.31389791417E+02  0.54367031088E+02  0.39999878971E+02 0.  0.
         12    1    3    3    0    0 -0.18512152006E+02  0.52692479992E+01  0.31389791417E+02  0.36820968912E+02  0.00000000000E+00 0. -1.
         11    1    4    4    0    0  0.12896158736E+02 -0.14980736662E+02 -0.31838498800E+02  0.37475637248E+02  0.51100000000E-03 0. -1.
        -11    1    4    4    0    0 -0.25860314896E+01  0.78977740384E+01 -0.98921737036E+00  0.83690468330E+01  0.51100000000E-03 0.  1.
        -12    1    4    4    0    0  0.82020247605E+01  0.18137146244E+01  0.14379247527E+01  0.85223470068E+01  0.00000000000E+00 0.  1.
</event>
<event>
 8    1  0.3137106E-007  0.9118800E+02  0.7816164E-02  0.1184000E+00
        -11   -1    0    0    0    0  0.00000000000E+00  0.00000000000E+00  0.45593999997E+02  0.45594000000E+02  0.51100000000E-03 0.  1.
         11   -1    0    0    0    0 -0.00000000000E+00 -0.00000000000E+00 -0.45593999997E+02  0.45594000000E+02  0.51100000000E-03 0. -1.
         23    2    1    2    0    0 -0.35527136788E-14  0.35527136788E-14  0.00000000000E+00  0.91188000000E+02  0.91188000000E+02 0.  0.
    9900012    2    3    3    0    0 -0.27462199344E+02  0.24408786405E+02 -0.24116744718E+01  0.54367117062E+02  0.40000074965E+02 0.  0.
         12    1    3    3    0    0  0.27462199344E+02 -0.24408786405E+02  0.24116744718E+01  0.36820882938E+02  0.00000000000E+00 0. -1.
         11    1    4    4    0    0  0.67069284528E+01  0.76417467581E+01 -0.19106500347E+01  0.10345519156E+02  0.51100000000E-03 0. -1.
        -11    1    4    4    0    0 -0.50367345306E+01 -0.49182333424E+01  0.27528018621E+01  0.75588115663E+01  0.51100000000E-03 0.  1.
        -12    1    4    4    0    0 -0.29132393266E+02  0.21685272990E+02 -0.32538262992E+01  0.36462786340E+02  0.00000000000E+00 0.  1.
</event>
<event>
 8    1  0.3137106E-007  0.9118800E+02  0.7816164E-02  0.1184000E+00
        -11   -1    0    0    0    0  0.00000000000E+00  0.00000000000E+00  0.45593999997E+02  0.45594000000E+02  0.51100000000E-03 0.  1.
         11   -1    0    0    0    0 -0.00000000000E+00 -0.00000000000E+00 -0.45593999997E+02  0.45594000000E+02  0.51100000000E-03 0. -1.
         23    2    1    2    0    0  0.88817841970E-15  0.00000000000E+00  0.35527136788E-14  0.91188000000E+02  0.91188000000E+02 0.  0.
    9900012    2    3    3    0    0  0.67762836010E+01  0.28601488596E+02 -0.22176939255E+02  0.54367084692E+02  0.40000001173E+02 0.  0.
        -12    1    3    3    0    0 -0.67762836010E+01 -0.28601488596E+02  0.22176939255E+02  0.36820915308E+02  0.00000000000E+00 0.  1.
         11    1    4    4    0    0  0.89276014888E+01  0.76838279382E+01  0.82440942992E+00  0.11807748782E+02  0.51100000000E-03 0.  1.
        -11    1    4    4    0    0 -0.11413382734E+02  0.17251567566E+02 -0.39472870212E+01  0.21058560350E+02  0.51100000000E-03 0. -1.
         12    1    4    4    0    0  0.92620648467E+01  0.36660930921E+01 -0.19054061664E+02  0.21500775560E+02  0.00000000000E+00 0. -1.
</event>
<event>
 8    1  0.3137106E-007  0.9118800E+02  0.7816164E-02  0.1184000E+00
        -11   -1    0    0    0    0  0.00000000000E+00  0.00000000000E+00  0.45593999997E+02  0.45594000000E+02  0.51100000000E-03 0. -1.
         11   -1    0    0    0    0 -0.00000000000E+00 -0.00000000000E+00 -0.45593999997E+02  0.45594000000E+02  0.51100000000E-03 0.  1.
         23    2    1    2    0    0  0.71054273576E-14 -0.22204460493E-15 -0.71054273576E-14  0.91188000000E+02  0.91188000000E+02 0.  0.
    9900012    2    3    3    0    0  0.29678107566E+02  0.15286255576E+01 -0.21740558021E+02  0.54367100665E+02  0.40000037585E+02 0.  0.
         12    1    3    3    0    0 -0.29678107566E+02 -0.15286255576E+01  0.21740558021E+02  0.36820899335E+02  0.00000000000E+00 0. -1.
         11    1    4    4    0    0  0.31576249031E+01 -0.43206947276E+01 -0.27178620021E+00  0.53584387612E+01  0.51100000000E-03 0. -1.
        -11    1    4    4    0    0  0.25001970458E+02  0.18221311675E+02 -0.18987364895E+02  0.36299238998E+02  0.51100000000E-03 0.  1.
        -12    1    4    4    0    0  0.15185122050E+01 -0.12371991389E+02 -0.24814069257E+01  0.12709422905E+02  0.00000000000E+00 0.  1.
</event>
<event>
 8    1  0.3137106E-007  0.9118800E+02  0.7816164E-02  0.1184000E+00
        -11   -1    0    0    0    0  0.00000000000E+00  0.00000000000E+00  0.45593999997E+02  0.45594000000E+02  0.51100000000E-03 0. -1.
         11   -1    0    0    0    0 -0.00000000000E+00 -0.00000000000E+00 -0.45593999997E+02  0.45594000000E+02  0.51100000000E-03 0.  1.
         23    2    1    2    0    0 -0.88817841970E-15  0.00000000000E+00 -0.35527136788E-14  0.91188000000E+02  0.91188000000E+02 0.  0.
    9900012    2    3    3    0    0 -0.27222065877E+01  0.19980528512E+02  0.30808241437E+02  0.54367086530E+02  0.40000005362E+02 0.  0.
        -12    1    3    3    0    0  0.27222065877E+01 -0.19980528512E+02 -0.30808241437E+02  0.36820913470E+02  0.00000000000E+00 0.  1.
         11    1    4    4    0    0  0.75823866975E+01 -0.52608723656E+01  0.23834757715E+01  0.95315435839E+01  0.51100000000E-03 0. -1.
        -11    1    4    4    0    0  0.34679958442E+01  0.16456339948E+01  0.12797612399E+02  0.13360912760E+02  0.51100000000E-03 0.  1.
         12    1    4    4    0    0 -0.13772589129E+02  0.23595766883E+02  0.15627153267E+02  0.31474630186E+02  0.00000000000E+00 0. -1.
</event>
<event>
 8    1  0.3137106E-007  0.9118800E+02  0.7816164E-02  0.1184000E+00
        -11   -1    0    0    0    0  0.00000000000E+00  0.00000000000E+00  0.45593999997E+02  0.45594000000E+02  0.51100000000E-03 0. -1.
         11   -1    0    0    0    0 -0.00000000000E+00 -0.00000000000E+00 -0.45593999997E+02  0.45594000000E+02  0.51100000000E-03 0.  1.
         23    2    1    2    0    0  0.00000000000E+00  0.71054273576E-14  0.00000000000E+00  0.91188000000E+02  0.91188000000E+02 0.  0.
    9900012    2    3    3    0    0 -0.13417917880E+02 -0.31978731041E+02  0.12373303504E+02  0.54367103775E+02  0.40000044675E+02 0.  0.
        -12    1    3    3    0    0  0.13417917880E+02  0.31978731041E+02 -0.12373303504E+02  0.36820896225E+02  0.00000000000E+00 0.  1.
         11    1    4    4    0    0 -0.10216763554E+02 -0.43548933244E+01  0.11849366036E+02  0.16240530444E+02  0.51100000000E-03 0. -1.
        -11    1    4    4    0    0  0.24208023249E+01 -0.28607274993E+02  0.69430429177E+01  0.29537134452E+02  0.51100000000E-03 0.  1.
         12    1    4    4    0    0 -0.56219566517E+01  0.98343727574E+00 -0.64191054505E+01  0.85894388788E+01  0.00000000000E+00 0. -1.
</event>
<event>
 8    1  0.3137106E-007  0.9118800E+02  0.7816164E-02  0.1184000E+00
        -11   -1    0    0    0    0  0.00000000000E+00  0.00000000000E+00  0.45593999997E+02  0.45594000000E+02  0.51100000000E-03 0. -1.
         11   -1    0    0    0    0 -0.00000000000E+00 -0.00000000000E+00 -0.45593999997E+02  0.45594000000E+02  0.51100000000E-03 0.  1.
         23    2    1    2    0    0  0.00000000000E+00 -0.17763568394E-14 -0.14432899320E-14  0.91188000000E+02  0.91188000000E+02 0.  0.
    9900012    2    3    3    0    0  0.33743649113E+02  0.14714070999E+02  0.80201603674E+00  0.54367068853E+02  0.39999965064E+02 0.  0.
        -12    1    3    3    0    0 -0.33743649113E+02 -0.14714070999E+02 -0.80201603674E+00  0.36820931147E+02  0.00000000000E+00 0.  1.
         11    1    4    4    0    0  0.17267330470E+01  0.93800447488E+01 -0.41131203681E+01  0.10386751462E+02  0.51100000000E-03 0. -1.
        -11    1    4    4    0    0  0.18512228935E+02  0.11848894316E+02 -0.87847603031E+01  0.23670042892E+02  0.51100000000E-03 0.  1.
        -12    1    4    4    0    0  0.13504687130E+02 -0.65148680659E+01  0.13699896708E+02  0.20310274499E+02  0.00000000000E+00 0.  1.
</event>
<event>
 8    1  0.3137106E-007  0.9118800E+02  0.7816164E-02  0.1184000E+00
        -11   -1    0    0    0    0  0.00000000000E+00  0.00000000000E+00  0.45593999997E+02  0.45594000000E+02  0.51100000000E-03 0. -1.
         11   -1    0    0    0    0 -0.00000000000E+00 -0.00000000000E+00 -0.45593999997E+02  0.45594000000E+02  0.51100000000E-03 0.  1.
         23    2    1    2    0    0 -0.17763568394E-14  0.35527136788E-14  0.00000000000E+00  0.91188000000E+02  0.91188000000E+02 0.  0.
    9900012    2    3    3    0    0  0.13685548796E+02  0.28842909522E+02 -0.18345903864E+02  0.54367083877E+02  0.39999999315E+02 0.  0.
        -12    1    3    3    0    0 -0.13685548796E+02 -0.28842909522E+02  0.18345903864E+02  0.36820916123E+02  0.00000000000E+00 0.  1.
         11    1    4    4    0    0  0.11563749670E+02  0.10182197059E+02 -0.29755727709E+01  0.15692401886E+02  0.51100000000E-03 0. -1.
        -11    1    4    4    0    0  0.12439302297E+02  0.18902229069E+02 -0.16898758585E+02  0.28241787255E+02  0.51100000000E-03 0.  1.
        -12    1    4    4    0    0 -0.10317503171E+02 -0.24151660589E+00  0.15284274917E+01  0.10432894735E+02  0.00000000000E+00 0.  1.
</event>
<event>
 8    1  0.3137106E-007  0.9118800E+02  0.7816164E-02  0.1184000E+00
        -11   -1    0    0    0    0  0.00000000000E+00  0.00000000000E+00  0.45593999997E+02  0.45594000000E+02  0.51100000000E-03 0.  1.
         11   -1    0    0    0    0 -0.00000000000E+00 -0.00000000000E+00 -0.45593999997E+02  0.45594000000E+02  0.51100000000E-03 0. -1.
         23    2    1    2    0    0  0.00000000000E+00 -0.35527136788E-14  0.55511151231E-16  0.91188000000E+02  0.91188000000E+02 0.  0.
    9900012    2    3    3    0    0 -0.33011357605E+02  0.16308033241E+02 -0.27986100460E+00  0.54367082015E+02  0.39999995069E+02 0.  0.
         12    1    3    3    0    0  0.33011357605E+02 -0.16308033241E+02  0.27986100460E+00  0.36820917985E+02  0.00000000000E+00 0. -1.
         11    1    4    4    0    0 -0.10709916028E+02  0.79479138410E+01  0.10747533172E+02  0.17128371355E+02  0.51100000000E-03 0. -1.
        -11    1    4    4    0    0 -0.86948568712E+01  0.16942046443E+02 -0.30611894480E+01  0.19287414414E+02  0.51100000000E-03 0.  1.
         12    1    4    4    0    0 -0.13606584706E+02 -0.85819270428E+01 -0.79662047281E+01  0.17951296246E+02  0.00000000000E+00 0. -1.
</event>
<event>
 8    1  0.3137106E-007  0.9118800E+02  0.7816164E-02  0.1184000E+00
        -11   -1    0    0    0    0  0.00000000000E+00  0.00000000000E+00  0.45593999997E+02  0.45594000000E+02  0.51100000000E-03 0.  1.
         11   -1    0    0    0    0 -0.00000000000E+00 -0.00000000000E+00 -0.45593999997E+02  0.45594000000E+02  0.51100000000E-03 0. -1.
         23    2    1    2    0    0  0.00000000000E+00  0.00000000000E+00  0.00000000000E+00  0.91188000000E+02  0.91188000000E+02 0.  0.
    9900012    2    3    3    0    0 -0.16215296641E+02 -0.31875468454E+02  0.87635955512E+01  0.54367055671E+02  0.39999935014E+02 0.  0.
         12    1    3    3    0    0  0.16215296641E+02  0.31875468454E+02 -0.87635955512E+01  0.36820944329E+02  0.00000000000E+00 0. -1.
         11    1    4    4    0    0 -0.10627390804E+02 -0.30113059064E+02  0.45148395406E+01  0.32250915302E+02  0.51100000000E-03 0.  1.
        -11    1    4    4    0    0 -0.51667508006E+01 -0.92207012054E+01 -0.37090118672E+01  0.11201491590E+02  0.51100000000E-03 0. -1.
         12    1    4    4    0    0 -0.42115503607E+00  0.74582918156E+01  0.79577678778E+01  0.10914648779E+02  0.00000000000E+00 0. -1.
</event>
<event>
 8    1  0.3137106E-007  0.9118800E+02  0.7816164E-02  0.1184000E+00
        -11   -1    0    0    0    0  0.00000000000E+00  0.00000000000E+00  0.45593999997E+02  0.45594000000E+02  0.51100000000E-03 0.  1.
         11   -1    0    0    0    0 -0.00000000000E+00 -0.00000000000E+00 -0.45593999997E+02  0.45594000000E+02  0.51100000000E-03 0. -1.
         23    2    1    2    0    0 -0.35527136788E-14  0.00000000000E+00  0.17763568394E-14  0.91188000000E+02  0.91188000000E+02 0.  0.
    9900012    2    3    3    0    0 -0.13580056131E+02 -0.33627622143E+02  0.63672832152E+01  0.54367120176E+02  0.40000082065E+02 0.  0.
        -12    1    3    3    0    0  0.13580056131E+02  0.33627622143E+02 -0.63672832152E+01  0.36820879824E+02  0.00000000000E+00 0.  1.
         11    1    4    4    0    0 -0.14384040792E+02 -0.17309018638E+02  0.90734698568E+01  0.24265832177E+02  0.51100000000E-03 0. -1.
        -11    1    4    4    0    0  0.25245100339E+01 -0.20372222753E+02  0.50879309853E+01  0.21149176173E+02  0.51100000000E-03 0.  1.
         12    1    4    4    0    0 -0.17205253724E+01  0.40536192487E+01 -0.77941176270E+01  0.89521118265E+01  0.00000000000E+00 0. -1.
</event>
<event>
 8    1  0.3137106E-007  0.9118800E+02  0.7816164E-02  0.1184000E+00
        -11   -1    0    0    0    0  0.00000000000E+00  0.00000000000E+00  0.45593999997E+02  0.45594000000E+02  0.51100000000E-03 0. -1.
         11   -1    0    0    0    0 -0.00000000000E+00 -0.00000000000E+00 -0.45593999997E+02  0.45594000000E+02  0.51100000000E-03 0.  1.
         23    2    1    2    0    0 -0.35527136788E-14  0.00000000000E+00  0.00000000000E+00  0.91188000000E+02  0.91188000000E+02 0.  0.
    9900012    2    3    3    0    0  0.25600799348E+02  0.21755346305E+02  0.15069283041E+02  0.54367091381E+02  0.40000016422E+02 0.  0.
         12    1    3    3    0    0 -0.25600799348E+02 -0.21755346305E+02 -0.15069283041E+02  0.36820908619E+02  0.00000000000E+00 0. -1.
         11    1    4    4    0    0  0.26341320888E+02  0.20849479014E+02  0.15278951553E+02  0.36905451116E+02  0.51100000000E-03 0. -1.
        -11    1    4    4    0    0  0.31846030036E+01 -0.53555833312E+01 -0.55497957180E+01  0.83441118090E+01  0.51100000000E-03 0.  1.
        -12    1    4    4    0    0 -0.39251245430E+01  0.62614506224E+01  0.53401272055E+01  0.91175284560E+01  0.00000000000E+00 0.  1.
</event>
<event>
 8    1  0.3137106E-007  0.9118800E+02  0.7816164E-02  0.1184000E+00
        -11   -1    0    0    0    0  0.00000000000E+00  0.00000000000E+00  0.45593999997E+02  0.45594000000E+02  0.51100000000E-03 0.  1.
         11   -1    0    0    0    0 -0.00000000000E+00 -0.00000000000E+00 -0.45593999997E+02  0.45594000000E+02  0.51100000000E-03 0. -1.
         23    2    1    2    0    0  0.00000000000E+00 -0.17763568394E-14  0.00000000000E+00  0.91188000000E+02  0.91188000000E+02 0.  0.
    9900012    2    3    3    0    0  0.32404306647E+02  0.13734466732E+02 -0.10821534467E+02  0.54367078313E+02  0.39999986629E+02 0.  0.
        -12    1    3    3    0    0 -0.32404306647E+02 -0.13734466732E+02  0.10821534467E+02  0.36820921687E+02  0.00000000000E+00 0.  1.
         11    1    4    4    0    0  0.43951006198E+01 -0.22401325575E+01  0.41977094610E+01  0.64773349700E+01  0.51100000000E-03 0. -1.
        -11    1    4    4    0    0 -0.10113806995E+01  0.12341950240E+02  0.39872523551E+01  0.13009412294E+02  0.51100000000E-03 0.  1.
        -12    1    4    4    0    0  0.29020586727E+02  0.36326490497E+01 -0.19006496283E+02  0.34880331048E+02  0.00000000000E+00 0.  1.
</event>
<event>
 8    1  0.3137106E-007  0.9118800E+02  0.7816164E-02  0.1184000E+00
        -11   -1    0    0    0    0  0.00000000000E+00  0.00000000000E+00  0.45593999997E+02  0.45594000000E+02  0.51100000000E-03 0. -1.
         11   -1    0    0    0    0 -0.00000000000E+00 -0.00000000000E+00 -0.45593999997E+02  0.45594000000E+02  0.51100000000E-03 0.  1.
         23    2    1    2    0    0  0.00000000000E+00 -0.17763568394E-14  0.00000000000E+00  0.91188000000E+02  0.91188000000E+02 0.  0.
    9900012    2    3    3    0    0 -0.14373603608E+01  0.14705599709E+02  0.33726227234E+02  0.54367094647E+02  0.40000023866E+02 0.  0.
        -12    1    3    3    0    0  0.14373603608E+01 -0.14705599709E+02 -0.33726227234E+02  0.36820905353E+02  0.00000000000E+00 0.  1.
         11    1    4    4    0    0  0.72603926698E+01  0.45012818124E+00  0.14168128670E+01  0.74110239549E+01  0.51100000000E-03 0.  1.
        -11    1    4    4    0    0 -0.27902077342E+01  0.20939075494E+02  0.10916971344E+02  0.23778360022E+02  0.51100000000E-03 0. -1.
         12    1    4    4    0    0 -0.59075452964E+01 -0.66836039663E+01  0.21392443022E+02  0.23177710669E+02  0.00000000000E+00 0. -1.
</event>
<event>
 8    1  0.3137106E-007  0.9118800E+02  0.7816164E-02  0.1184000E+00
        -11   -1    0    0    0    0  0.00000000000E+00  0.00000000000E+00  0.45593999997E+02  0.45594000000E+02  0.51100000000E-03 0. -1.
         11   -1    0    0    0    0 -0.00000000000E+00 -0.00000000000E+00 -0.45593999997E+02  0.45594000000E+02  0.51100000000E-03 0.  1.
         23    2    1    2    0    0  0.00000000000E+00 -0.35527136788E-14  0.00000000000E+00  0.91188000000E+02  0.91188000000E+02 0.  0.
    9900012    2    3    3    0    0  0.14144909461E+02  0.25916767283E+02 -0.22000542823E+02  0.54367066082E+02  0.39999958747E+02 0.  0.
        -12    1    3    3    0    0 -0.14144909461E+02 -0.25916767283E+02  0.22000542823E+02  0.36820933918E+02  0.00000000000E+00 0.  1.
         11    1    4    4    0    0  0.17988434999E+01  0.72600512015E+01  0.97411489356E+01  0.12281456112E+02  0.51100000000E-03 0. -1.
        -11    1    4    4    0    0  0.13656790487E+01  0.16083528186E+02 -0.16062230887E+02  0.22771478202E+02  0.51100000000E-03 0.  1.
         12    1    4    4    0    0  0.10980386913E+02  0.25731878952E+01 -0.15679460872E+02  0.19314131768E+02  0.00000000000E+00 0. -1.
</event>
<event>
 8    1  0.3137106E-007  0.9118800E+02  0.7816164E-02  0.1184000E+00
        -11   -1    0    0    0    0  0.00000000000E+00  0.00000000000E+00  0.45593999997E+02  0.45594000000E+02  0.51100000000E-03 0. -1.
         11   -1    0    0    0    0 -0.00000000000E+00 -0.00000000000E+00 -0.45593999997E+02  0.45594000000E+02  0.51100000000E-03 0.  1.
         23    2    1    2    0    0  0.00000000000E+00  0.00000000000E+00  0.00000000000E+00  0.91188000000E+02  0.91188000000E+02 0.  0.
    9900012    2    3    3    0    0  0.35727041216E+02  0.40847749797E+01  0.79166437633E+01  0.54367080550E+02  0.39999991730E+02 0.  0.
         12    1    3    3    0    0 -0.35727041216E+02 -0.40847749797E+01 -0.79166437633E+01  0.36820919450E+02  0.00000000000E+00 0. -1.
         11    1    4    4    0    0  0.36324409263E+02  0.10838828932E+02  0.11733219020E+02  0.39681372831E+02  0.51100000000E-03 0. -1.
        -11    1    4    4    0    0 -0.28423510949E-01  0.16464616482E+01 -0.58052481420E+01  0.60342812419E+01  0.51100000000E-03 0.  1.
         12    1    4    4    0    0 -0.56894453669E+00 -0.84005156006E+01  0.19886728851E+01  0.86514264769E+01  0.00000000000E+00 0. -1.
</event>
<event>
 8    1  0.3137106E-007  0.9118800E+02  0.7816164E-02  0.1184000E+00
        -11   -1    0    0    0    0  0.00000000000E+00  0.00000000000E+00  0.45593999997E+02  0.45594000000E+02  0.51100000000E-03 0.  1.
         11   -1    0    0    0    0 -0.00000000000E+00 -0.00000000000E+00 -0.45593999997E+02  0.45594000000E+02  0.51100000000E-03 0. -1.
         23    2    1    2    0    0  0.00000000000E+00 -0.35527136788E-14 -0.35527136788E-14  0.91188000000E+02  0.91188000000E+02 0.  0.
    9900012    2    3    3    0    0  0.24972547460E+02 -0.23075029285E+02 -0.14131342232E+02  0.54367082895E+02  0.39999997076E+02 0.  0.
        -12    1    3    3    0    0 -0.24972547460E+02  0.23075029285E+02  0.14131342232E+02  0.36820917105E+02  0.00000000000E+00 0.  1.
         11    1    4    4    0    0  0.13835538579E+02 -0.22011809533E+02 -0.41015917133E+01  0.26320428217E+02  0.51100000000E-03 0. -1.
        -11    1    4    4    0    0  0.19562036214E+01 -0.49711803402E+01 -0.15690350695E+02  0.16574874714E+02  0.51100000000E-03 0.  1.
        -12    1    4    4    0    0  0.91808052599E+01  0.39079605882E+01  0.56606001769E+01  0.11471779964E+02  0.00000000000E+00 0.  1.
</event>
<event>
 8    1  0.3137106E-007  0.9118800E+02  0.7816164E-02  0.1184000E+00
        -11   -1    0    0    0    0  0.00000000000E+00  0.00000000000E+00  0.45593999997E+02  0.45594000000E+02  0.51100000000E-03 0.  1.
         11   -1    0    0    0    0 -0.00000000000E+00 -0.00000000000E+00 -0.45593999997E+02  0.45594000000E+02  0.51100000000E-03 0. -1.
         23    2    1    2    0    0  0.00000000000E+00 -0.35527136788E-14  0.17763568394E-14  0.91188000000E+02  0.91188000000E+02 0.  0.
    9900012    2    3    3    0    0  0.20121688018E+02  0.29884037295E+02 -0.76053833958E+01  0.54367083793E+02  0.39999999123E+02 0.  0.
        -12    1    3    3    0    0 -0.20121688018E+02 -0.29884037295E+02  0.76053833958E+01  0.36820916207E+02  0.00000000000E+00 0.  1.
         11    1    4    4    0    0  0.13397524813E+02  0.12710169067E+02  0.17637212824E+01  0.18551355257E+02  0.51100000000E-03 0. -1.
        -11    1    4    4    0    0  0.28310798869E+01  0.33052569642E+01  0.10447050337E+02  0.11317269897E+02  0.51100000000E-03 0.  1.
        -12    1    4    4    0    0  0.38930833175E+01  0.13868611263E+02 -0.19816155015E+02  0.24498458639E+02  0.00000000000E+00 0.  1.
</event>
<event>
 8    1  0.3137106E-007  0.9118800E+02  0.7816164E-02  0.1184000E+00
        -11   -1    0    0    0    0  0.00000000000E+00  0.00000000000E+00  0.45593999997E+02  0.45594000000E+02  0.51100000000E-03 0. -1.
         11   -1    0    0    0    0 -0.00000000000E+00 -0.00000000000E+00 -0.45593999997E+02  0.45594000000E+02  0.51100000000E-03 0.  1.
         23    2    1    2    0    0 -0.35527136788E-14 -0.35527136788E-14  0.00000000000E+00  0.91188000000E+02  0.91188000000E+02 0.  0.
    9900012    2    3    3    0    0  0.16929099731E+02  0.26784798797E+02  0.18755247485E+02  0.54367093268E+02  0.40000020724E+02 0.  0.
        -12    1    3    3    0    0 -0.16929099731E+02 -0.26784798797E+02 -0.18755247485E+02  0.36820906732E+02  0.00000000000E+00 0.  1.
         11    1    4    4    0    0  0.87078713393E+01  0.15870848967E+02  0.18509255755E+01  0.18197164503E+02  0.51100000000E-03 0. -1.
        -11    1    4    4    0    0 -0.53383288235E+01  0.64348231763E+00  0.18327886429E+02  0.19100346734E+02  0.51100000000E-03 0.  1.
        -12    1    4    4    0    0  0.13559557216E+02  0.10270467512E+02 -0.14235645192E+01  0.17069582032E+02  0.00000000000E+00 0.  1.
</event>
<event>
 8    1  0.3137106E-007  0.9118800E+02  0.7816164E-02  0.1184000E+00
        -11   -1    0    0    0    0  0.00000000000E+00  0.00000000000E+00  0.45593999997E+02  0.45594000000E+02  0.51100000000E-03 0. -1.
         11   -1    0    0    0    0 -0.00000000000E+00 -0.00000000000E+00 -0.45593999997E+02  0.45594000000E+02  0.51100000000E-03 0.  1.
         23    2    1    2    0    0  0.00000000000E+00  0.00000000000E+00 -0.44408920985E-15  0.91188000000E+02  0.91188000000E+02 0.  0.
    9900012    2    3    3    0    0 -0.36350861224E+02  0.54641096099E+01  0.21303104365E+01  0.54367084367E+02  0.40000000431E+02 0.  0.
        -12    1    3    3    0    0  0.36350861224E+02 -0.54641096099E+01 -0.21303104365E+01  0.36820915633E+02  0.00000000000E+00 0.  1.
         11    1    4    4    0    0  0.97379968823E+00  0.19687232054E+01  0.76693708479E+01  0.79776817658E+01  0.51100000000E-03 0. -1.
        -11    1    4    4    0    0 -0.22387755007E+01  0.54035868406E+01 -0.93676301012E+01  0.11043702299E+02  0.51100000000E-03 0.  1.
         12    1    4    4    0    0 -0.35085885411E+02 -0.19082004361E+01  0.38285696897E+01  0.35345700302E+02  0.00000000000E+00 0. -1.
</event>
<event>
 8    1  0.3137106E-007  0.9118800E+02  0.7816164E-02  0.1184000E+00
        -11   -1    0    0    0    0  0.00000000000E+00  0.00000000000E+00  0.45593999997E+02  0.45594000000E+02  0.51100000000E-03 0. -1.
         11   -1    0    0    0    0 -0.00000000000E+00 -0.00000000000E+00 -0.45593999997E+02  0.45594000000E+02  0.51100000000E-03 0.  1.
         23    2    1    2    0    0 -0.35527136788E-14  0.00000000000E+00  0.00000000000E+00  0.91188000000E+02  0.91188000000E+02 0.  0.
    9900012    2    3    3    0    0 -0.27785294094E+02 -0.23219195270E+02 -0.66803414078E+01  0.54367074452E+02  0.39999977829E+02 0.  0.
         12    1    3    3    0    0  0.27785294094E+02  0.23219195270E+02  0.66803414078E+01  0.36820925548E+02  0.00000000000E+00 0. -1.
         11    1    4    4    0    0 -0.51681370202E+00 -0.80929414050E+01  0.80905889500E+01  0.11455148485E+02  0.51100000000E-03 0. -1.
        -11    1    4    4    0    0 -0.13288886308E+02 -0.64981354235E+01 -0.20703989782E+02  0.25445539028E+02  0.51100000000E-03 0.  1.
        -12    1    4    4    0    0 -0.13979594084E+02 -0.86281184410E+01  0.59330594242E+01  0.17466386940E+02  0.00000000000E+00 0.  1.
</event>
<event>
 8    1  0.3137106E-007  0.9118800E+02  0.7816164E-02  0.1184000E+00
        -11   -1    0    0    0    0  0.00000000000E+00  0.00000000000E+00  0.45593999997E+02  0.45594000000E+02  0.51100000000E-03 0. -1.
         11   -1    0    0    0    0 -0.00000000000E+00 -0.00000000000E+00 -0.45593999997E+02  0.45594000000E+02  0.51100000000E-03 0.  1.
         23    2    1    2    0    0  0.00000000000E+00  0.00000000000E+00  0.00000000000E+00  0.91188000000E+02  0.91188000000E+02 0.  0.
    9900012    2    3    3    0    0  0.43221866037E+01 -0.31214132322E+02 -0.19046686827E+02  0.54367087020E+02  0.40000006479E+02 0.  0.
         12    1    3    3    0    0 -0.43221866037E+01  0.31214132322E+02  0.19046686827E+02  0.36820912980E+02  0.00000000000E+00 0. -1.
         11    1    4    4    0    0  0.65045497106E+01 -0.99001976503E+01  0.42120795513E+01  0.12572378250E+02  0.51100000000E-03 0. -1.
        -11    1    4    4    0    0  0.45903060668E+01 -0.26021063576E+02 -0.18702875226E+02  0.32372275196E+02  0.51100000000E-03 0.  1.
        -12    1    4    4    0    0 -0.67726691737E+01  0.47071289044E+01 -0.45558911525E+01  0.94224335738E+01  0.00000000000E+00 0.  1.
</event>
<event>
 8    1  0.3137106E-007  0.9118800E+02  0.7816164E-02  0.1184000E+00
        -11   -1    0    0    0    0  0.00000000000E+00  0.00000000000E+00  0.45593999997E+02  0.45594000000E+02  0.51100000000E-03 0.  1.
         11   -1    0    0    0    0 -0.00000000000E+00 -0.00000000000E+00 -0.45593999997E+02  0.45594000000E+02  0.51100000000E-03 0. -1.
         23    2    1    2    0    0  0.11102230246E-14  0.00000000000E+00 -0.17763568394E-14  0.91188000000E+02  0.91188000000E+02 0.  0.
    9900012    2    3    3    0    0 -0.13832831809E+01 -0.35553152525E+02 -0.94783430755E+01  0.54367094060E+02  0.40000022527E+02 0.  0.
        -12    1    3    3    0    0  0.13832831809E+01  0.35553152525E+02  0.94783430755E+01  0.36820905940E+02  0.00000000000E+00 0.  1.
         11    1    4    4    0    0 -0.12003363753E+02 -0.97808955096E+01 -0.45627342108E+00  0.15490475914E+02  0.51100000000E-03 0. -1.
        -11    1    4    4    0    0  0.43037637767E+01 -0.29267034909E+02 -0.35001874491E+01  0.29788135683E+02  0.51100000000E-03 0.  1.
        -12    1    4    4    0    0  0.63163167954E+01  0.34947778936E+01 -0.55218822054E+01  0.90884824627E+01  0.00000000000E+00 0.  1.
</event>
<event>
 8    1  0.3137106E-007  0.9118800E+02  0.7816164E-02  0.1184000E+00
        -11   -1    0    0    0    0  0.00000000000E+00  0.00000000000E+00  0.45593999997E+02  0.45594000000E+02  0.51100000000E-03 0. -1.
         11   -1    0    0    0    0 -0.00000000000E+00 -0.00000000000E+00 -0.45593999997E+02  0.45594000000E+02  0.51100000000E-03 0.  1.
         23    2    1    2    0    0 -0.88817841970E-15  0.00000000000E+00  0.00000000000E+00  0.91188000000E+02  0.91188000000E+02 0.  0.
    9900012    2    3    3    0    0  0.56627159690E+01  0.34004403568E+02 -0.12938823145E+02  0.54367096174E+02  0.40000027348E+02 0.  0.
         12    1    3    3    0    0 -0.56627159690E+01 -0.34004403568E+02  0.12938823145E+02  0.36820903826E+02  0.00000000000E+00 0. -1.
         11    1    4    4    0    0  0.14560381330E+02  0.16094020306E+02 -0.12056155351E+02  0.24826861989E+02  0.51100000000E-03 0. -1.
        -11    1    4    4    0    0 -0.59441995969E+01  0.20776171999E+02  0.51713425124E+01  0.22219937341E+02  0.51100000000E-03 0.  1.
        -12    1    4    4    0    0 -0.29534657638E+01 -0.28657887373E+01 -0.60540103060E+01  0.73202968444E+01  0.00000000000E+00 0.  1.
</event>
<event>
 8    1  0.3137106E-007  0.9118800E+02  0.7816164E-02  0.1184000E+00
        -11   -1    0    0    0    0  0.00000000000E+00  0.00000000000E+00  0.45593999997E+02  0.45594000000E+02  0.51100000000E-03 0. -1.
         11   -1    0    0    0    0 -0.00000000000E+00 -0.00000000000E+00 -0.45593999997E+02  0.45594000000E+02  0.51100000000E-03 0.  1.
         23    2    1    2    0    0  0.71054273576E-14 -0.49960036108E-15 -0.44408920985E-15  0.91188000000E+02  0.91188000000E+02 0.  0.
    9900012    2    3    3    0    0  0.36673256253E+02  0.30901765694E+00  0.32797469748E+01  0.54367082625E+02  0.39999996461E+02 0.  0.
         12    1    3    3    0    0 -0.36673256253E+02 -0.30901765694E+00 -0.32797469748E+01  0.36820917375E+02  0.00000000000E+00 0. -1.
         11    1    4    4    0    0 -0.36692144363E+00  0.60318652548E+01  0.76030066325E+01  0.97120409757E+01  0.51100000000E-03 0. -1.
        -11    1    4    4    0    0  0.36948814796E+02  0.51414695414E+00 -0.74215258095E+01  0.37690294607E+02  0.51100000000E-03 0.  1.
        -12    1    4    4    0    0  0.91362900054E-01 -0.62369945520E+01  0.30982661517E+01  0.69647470427E+01  0.00000000000E+00 0.  1.
</event>
<event>
 8    1  0.3137106E-007  0.9118800E+02  0.7816164E-02  0.1184000E+00
        -11   -1    0    0    0    0  0.00000000000E+00  0.00000000000E+00  0.45593999997E+02  0.45594000000E+02  0.51100000000E-03 0.  1.
         11   -1    0    0    0    0 -0.00000000000E+00 -0.00000000000E+00 -0.45593999997E+02  0.45594000000E+02  0.51100000000E-03 0. -1.
         23    2    1    2    0    0  0.00000000000E+00  0.00000000000E+00 -0.35527136788E-14  0.91188000000E+02  0.91188000000E+02 0.  0.
    9900012    2    3    3    0    0  0.16436062010E+02  0.81308337560E+01  0.31929988701E+02  0.54367098729E+02  0.40000033172E+02 0.  0.
         12    1    3    3    0    0 -0.16436062010E+02 -0.81308337560E+01 -0.31929988701E+02  0.36820901271E+02  0.00000000000E+00 0. -1.
         11    1    4    4    0    0  0.61393418044E+00 -0.18748462294E+01 -0.56723457883E+01  0.60056199151E+01  0.51100000000E-03 0. -1.
        -11    1    4    4    0    0  0.14921755982E+02  0.14632679552E+02  0.38266043366E+02  0.43601194796E+02  0.51100000000E-03 0.  1.
        -12    1    4    4    0    0  0.90037184808E+00 -0.46269995670E+01 -0.66370887666E+00  0.47602840179E+01  0.00000000000E+00 0.  1.
</event>
<event>
 8    1  0.3137106E-007  0.9118800E+02  0.7816164E-02  0.1184000E+00
        -11   -1    0    0    0    0  0.00000000000E+00  0.00000000000E+00  0.45593999997E+02  0.45594000000E+02  0.51100000000E-03 0.  1.
         11   -1    0    0    0    0 -0.00000000000E+00 -0.00000000000E+00 -0.45593999997E+02  0.45594000000E+02  0.51100000000E-03 0. -1.
         23    2    1    2    0    0  0.00000000000E+00  0.35527136788E-14  0.00000000000E+00  0.91188000000E+02  0.91188000000E+02 0.  0.
    9900012    2    3    3    0    0  0.22583397688E+02  0.19133637623E+02  0.21901449227E+02  0.54367089934E+02  0.40000013123E+02 0.  0.
         12    1    3    3    0    0 -0.22583397688E+02 -0.19133637623E+02 -0.21901449227E+02  0.36820910066E+02  0.00000000000E+00 0. -1.
         11    1    4    4    0    0  0.11648817113E+01  0.13612863895E+02 -0.71464068545E+01  0.15418759484E+02  0.51100000000E-03 0. -1.
        -11    1    4    4    0    0  0.98991544996E+01  0.95376695583E+01  0.15345096249E+02  0.20601756710E+02  0.51100000000E-03 0.  1.
         12    1    4    4    0    0  0.11519361478E+02 -0.40168958308E+01  0.13702759833E+02  0.18346573740E+02  0.00000000000E+00 0. -1.
</event>
<event>
 8    1  0.3137106E-007  0.9118800E+02  0.7816164E-02  0.1184000E+00
        -11   -1    0    0    0    0  0.00000000000E+00  0.00000000000E+00  0.45593999997E+02  0.45594000000E+02  0.51100000000E-03 0.  1.
         11   -1    0    0    0    0 -0.00000000000E+00 -0.00000000000E+00 -0.45593999997E+02  0.45594000000E+02  0.51100000000E-03 0. -1.
         23    2    1    2    0    0  0.00000000000E+00  0.00000000000E+00  0.00000000000E+00  0.91188000000E+02  0.91188000000E+02 0.  0.
    9900012    2    3    3    0    0  0.27569066422E+02  0.60818885358E+01 -0.23637619020E+02  0.54367084415E+02  0.40000000541E+02 0.  0.
        -12    1    3    3    0    0 -0.27569066422E+02 -0.60818885358E+01  0.23637619020E+02  0.36820915585E+02  0.00000000000E+00 0.  1.
         11    1    4    4    0    0  0.34279887705E+02 -0.21316339712E+01 -0.26020143225E+02  0.43089469922E+02  0.51100000000E-03 0. -1.
        -11    1    4    4    0    0 -0.25367872451E+01  0.45241346557E+01 -0.78456856197E-01  0.51874116522E+01  0.51100000000E-03 0.  1.
         12    1    4    4    0    0 -0.41740340375E+01  0.36893878513E+01  0.24609810608E+01  0.60902028411E+01  0.00000000000E+00 0. -1.
</event>
<event>
 8    1  0.3137106E-007  0.9118800E+02  0.7816164E-02  0.1184000E+00
        -11   -1    0    0    0    0  0.00000000000E+00  0.00000000000E+00  0.45593999997E+02  0.45594000000E+02  0.51100000000E-03 0.  1.
         11   -1    0    0    0    0 -0.00000000000E+00 -0.00000000000E+00 -0.45593999997E+02  0.45594000000E+02  0.51100000000E-03 0. -1.
         23    2    1    2    0    0 -0.14432899320E-14  0.00000000000E+00  0.00000000000E+00  0.91188000000E+02  0.91188000000E+02 0.  0.
    9900012    2    3    3    0    0  0.27622158057E+00  0.37308581324E+01 -0.36630378090E+02  0.54367079320E+02  0.39999988925E+02 0.  0.
        -12    1    3    3    0    0 -0.27622158057E+00 -0.37308581324E+01  0.36630378090E+02  0.36820920680E+02  0.00000000000E+00 0.  1.
         11    1    4    4    0    0  0.10720410427E+02  0.70560939192E+01 -0.13018176460E+02  0.18280825466E+02  0.51100000000E-03 0. -1.
        -11    1    4    4    0    0 -0.12816406576E+02  0.83286986635E+01 -0.11654064180E+02  0.19220944595E+02  0.51100000000E-03 0.  1.
        -12    1    4    4    0    0  0.23722177289E+01 -0.11653934450E+02 -0.11958137450E+02  0.16865309259E+02  0.00000000000E+00 0.  1.
</event>
<event>
 8    1  0.3137106E-007  0.9118800E+02  0.7816164E-02  0.1184000E+00
        -11   -1    0    0    0    0  0.00000000000E+00  0.00000000000E+00  0.45593999997E+02  0.45594000000E+02  0.51100000000E-03 0. -1.
         11   -1    0    0    0    0 -0.00000000000E+00 -0.00000000000E+00 -0.45593999997E+02  0.45594000000E+02  0.51100000000E-03 0.  1.
         23    2    1    2    0    0  0.00000000000E+00  0.00000000000E+00 -0.17763568394E-14  0.91188000000E+02  0.91188000000E+02 0.  0.
    9900012    2    3    3    0    0  0.35462134589E+02 -0.86194304671E+01  0.48910057903E+01  0.54367088702E+02  0.40000010314E+02 0.  0.
        -12    1    3    3    0    0 -0.35462134589E+02  0.86194304671E+01 -0.48910057903E+01  0.36820911298E+02  0.00000000000E+00 0.  1.
         11    1    4    4    0    0  0.11090852595E+02 -0.16498992542E+02  0.11779580595E+02  0.23108056722E+02  0.51100000000E-03 0.  1.
        -11    1    4    4    0    0  0.18470397233E+02  0.12493763085E+02 -0.21664158799E+01  0.22404085520E+02  0.51100000000E-03 0. -1.
         12    1    4    4    0    0  0.59008847610E+01 -0.46142010095E+01 -0.47221589244E+01  0.88549464610E+01  0.00000000000E+00 0. -1.
</event>
<event>
 8    1  0.3137106E-007  0.9118800E+02  0.7816164E-02  0.1184000E+00
        -11   -1    0    0    0    0  0.00000000000E+00  0.00000000000E+00  0.45593999997E+02  0.45594000000E+02  0.51100000000E-03 0. -1.
         11   -1    0    0    0    0 -0.00000000000E+00 -0.00000000000E+00 -0.45593999997E+02  0.45594000000E+02  0.51100000000E-03 0.  1.
         23    2    1    2    0    0  0.94368957093E-15 -0.71054273576E-14  0.00000000000E+00  0.91188000000E+02  0.91188000000E+02 0.  0.
    9900012    2    3    3    0    0  0.26308059389E+00 -0.33056293286E+02  0.16217043173E+02  0.54367078957E+02  0.39999988097E+02 0.  0.
        -12    1    3    3    0    0 -0.26308059389E+00  0.33056293286E+02 -0.16217043173E+02  0.36820921043E+02  0.00000000000E+00 0.  1.
         11    1    4    4    0    0  0.15122752523E+01 -0.18430419632E+02  0.68408580889E+01  0.19717116521E+02  0.51100000000E-03 0. -1.
        -11    1    4    4    0    0  0.95401514516E+01 -0.16172013739E+02 -0.20151220292E+01  0.18884100062E+02  0.51100000000E-03 0.  1.
        -12    1    4    4    0    0 -0.10789346110E+02  0.15461400847E+01  0.11391307113E+02  0.15765862374E+02  0.00000000000E+00 0.  1.
</event>
<event>
 8    1  0.3137106E-007  0.9118800E+02  0.7816164E-02  0.1184000E+00
        -11   -1    0    0    0    0  0.00000000000E+00  0.00000000000E+00  0.45593999997E+02  0.45594000000E+02  0.51100000000E-03 0.  1.
         11   -1    0    0    0    0 -0.00000000000E+00 -0.00000000000E+00 -0.45593999997E+02  0.45594000000E+02  0.51100000000E-03 0. -1.
         23    2    1    2    0    0  0.17763568394E-14 -0.22204460493E-14 -0.71054273576E-14  0.91188000000E+02  0.91188000000E+02 0.  0.
    9900012    2    3    3    0    0 -0.67433855663E+01  0.12134328271E+01  0.36177804489E+02  0.54367092817E+02  0.40000019695E+02 0.  0.
         12    1    3    3    0    0  0.67433855663E+01 -0.12134328271E+01 -0.36177804489E+02  0.36820907183E+02  0.00000000000E+00 0. -1.
         11    1    4    4    0    0  0.32780760083E+00  0.11452115527E+02  0.13326267465E+02  0.17574066481E+02  0.51100000000E-03 0. -1.
        -11    1    4    4    0    0  0.77632830314E+01 -0.22598020004E+00  0.15707111440E+02  0.17522356592E+02  0.51100000000E-03 0.  1.
         12    1    4    4    0    0 -0.14834476199E+02 -0.10012702500E+02  0.71444255845E+01  0.19270669744E+02  0.00000000000E+00 0. -1.
</event>
<event>
 8    1  0.3137106E-007  0.9118800E+02  0.7816164E-02  0.1184000E+00
        -11   -1    0    0    0    0  0.00000000000E+00  0.00000000000E+00  0.45593999997E+02  0.45594000000E+02  0.51100000000E-03 0.  1.
         11   -1    0    0    0    0 -0.00000000000E+00 -0.00000000000E+00 -0.45593999997E+02  0.45594000000E+02  0.51100000000E-03 0. -1.
         23    2    1    2    0    0 -0.88817841970E-15  0.00000000000E+00  0.00000000000E+00  0.91188000000E+02  0.91188000000E+02 0.  0.
    9900012    2    3    3    0    0  0.65770978899E+01 -0.13981138284E+02 -0.33422289294E+02  0.54367083851E+02  0.39999999255E+02 0.  0.
        -12    1    3    3    0    0 -0.65770978899E+01  0.13981138284E+02  0.33422289294E+02  0.36820916149E+02  0.00000000000E+00 0.  1.
         11    1    4    4    0    0  0.43542390016E+01  0.96203213088E+01 -0.12607448525E+02  0.16445599349E+02  0.51100000000E-03 0. -1.
        -11    1    4    4    0    0 -0.91959716311E+01 -0.11560697158E+02 -0.70833254296E+01  0.16382585645E+02  0.51100000000E-03 0.  1.
        -12    1    4    4    0    0  0.11418830519E+02 -0.12040762435E+02 -0.13731515339E+02  0.21538898857E+02  0.00000000000E+00 0.  1.
</event>
<event>
 8    1  0.3137106E-007  0.9118800E+02  0.7816164E-02  0.1184000E+00
        -11   -1    0    0    0    0  0.00000000000E+00  0.00000000000E+00  0.45593999997E+02  0.45594000000E+02  0.51100000000E-03 0. -1.
         11   -1    0    0    0    0 -0.00000000000E+00 -0.00000000000E+00 -0.45593999997E+02  0.45594000000E+02  0.51100000000E-03 0.  1.
         23    2    1    2    0    0  0.17763568394E-14  0.17763568394E-14 -0.71054273576E-14  0.91188000000E+02  0.91188000000E+02 0.  0.
    9900012    2    3    3    0    0 -0.83275255421E+01 -0.11609644310E+02  0.33935933613E+02  0.54367094079E+02  0.40000022571E+02 0.  0.
        -12    1    3    3    0    0  0.83275255421E+01  0.11609644310E+02 -0.33935933613E+02  0.36820905921E+02  0.00000000000E+00 0.  1.
         11    1    4    4    0    0 -0.55303718280E+01 -0.20889190337E+02  0.57910778894E+01  0.22371407396E+02  0.51100000000E-03 0. -1.
        -11    1    4    4    0    0 -0.68171459701E+01  0.68358769438E+01  0.13378863223E+02  0.16498383987E+02  0.51100000000E-03 0.  1.
        -12    1    4    4    0    0  0.40199922560E+01  0.24436690827E+01  0.14765992501E+02  0.15497302696E+02  0.00000000000E+00 0.  1.
</event>
<event>
 8    1  0.3137106E-007  0.9118800E+02  0.7816164E-02  0.1184000E+00
        -11   -1    0    0    0    0  0.00000000000E+00  0.00000000000E+00  0.45593999997E+02  0.45594000000E+02  0.51100000000E-03 0. -1.
         11   -1    0    0    0    0 -0.00000000000E+00 -0.00000000000E+00 -0.45593999997E+02  0.45594000000E+02  0.51100000000E-03 0.  1.
         23    2    1    2    0    0 -0.35527136788E-14  0.17763568394E-14 -0.35527136788E-14  0.91188000000E+02  0.91188000000E+02 0.  0.
    9900012    2    3    3    0    0  0.27479499604E+02 -0.77441711903E+01  0.23252597780E+02  0.54367103903E+02  0.40000044967E+02 0.  0.
        -12    1    3    3    0    0 -0.27479499604E+02  0.77441711903E+01 -0.23252597780E+02  0.36820896097E+02  0.00000000000E+00 0.  1.
         11    1    4    4    0    0  0.15515067643E+01 -0.10873824457E+02  0.16405011404E+02  0.19742634854E+02  0.51100000000E-03 0. -1.
        -11    1    4    4    0    0  0.28763609272E+02  0.33022709046E+01  0.20198756235E+01  0.29022923859E+02  0.51100000000E-03 0.  1.
         12    1    4    4    0    0 -0.28356164329E+01 -0.17261763767E+00  0.48277107527E+01  0.56015451900E+01  0.00000000000E+00 0. -1.
</event>
<event>
 8    1  0.3137106E-007  0.9118800E+02  0.7816164E-02  0.1184000E+00
        -11   -1    0    0    0    0  0.00000000000E+00  0.00000000000E+00  0.45593999997E+02  0.45594000000E+02  0.51100000000E-03 0.  1.
         11   -1    0    0    0    0 -0.00000000000E+00 -0.00000000000E+00 -0.45593999997E+02  0.45594000000E+02  0.51100000000E-03 0. -1.
         23    2    1    2    0    0  0.35527136788E-14 -0.35527136788E-14 -0.35527136788E-14  0.91188000000E+02  0.91188000000E+02 0.  0.
    9900012    2    3    3    0    0 -0.21775075684E+02  0.19103671723E+02  0.22730700528E+02  0.54366960622E+02  0.39999718330E+02 0.  0.
        -12    1    3    3    0    0  0.21775075684E+02 -0.19103671723E+02 -0.22730700528E+02  0.36821039378E+02  0.00000000000E+00 0.  1.
         11    1    4    4    0    0 -0.11182772431E+01 -0.98306273695E+00 -0.29244244445E+01  0.32816482032E+01  0.51100000000E-03 0. -1.
        -11    1    4    4    0    0 -0.10700758587E+02  0.20641354629E+02  0.31784575257E+02  0.39380591410E+02  0.51100000000E-03 0.  1.
        -12    1    4    4    0    0 -0.99560398547E+01 -0.55462016891E+00 -0.61294502846E+01  0.11704721010E+02  0.00000000000E+00 0.  1.
</event>
<event>
 8    1  0.3137106E-007  0.9118800E+02  0.7816164E-02  0.1184000E+00
        -11   -1    0    0    0    0  0.00000000000E+00  0.00000000000E+00  0.45593999997E+02  0.45594000000E+02  0.51100000000E-03 0. -1.
         11   -1    0    0    0    0 -0.00000000000E+00 -0.00000000000E+00 -0.45593999997E+02  0.45594000000E+02  0.51100000000E-03 0.  1.
         23    2    1    2    0    0 -0.17763568394E-14  0.35527136788E-14  0.35527136788E-14  0.91188000000E+02  0.91188000000E+02 0.  0.
    9900012    2    3    3    0    0 -0.12018649188E+02 -0.25537138832E+02  0.23647147132E+02  0.54367069057E+02  0.39999965529E+02 0.  0.
        -12    1    3    3    0    0  0.12018649188E+02  0.25537138832E+02 -0.23647147132E+02  0.36820930943E+02  0.00000000000E+00 0.  1.
         11    1    4    4    0    0 -0.38771654075E+00 -0.39656279221E+01 -0.31203745379E+01  0.50609550927E+01  0.51100000000E-03 0. -1.
        -11    1    4    4    0    0  0.54242225926E+01 -0.34525108563E+01 -0.55673420278E+01  0.85051348880E+01  0.51100000000E-03 0.  1.
        -12    1    4    4    0    0 -0.17055155240E+02 -0.18119000054E+02  0.32334863698E+02  0.40800979076E+02  0.00000000000E+00 0.  1.
</event>
<event>
 8    1  0.3137106E-007  0.9118800E+02  0.7816164E-02  0.1184000E+00
        -11   -1    0    0    0    0  0.00000000000E+00  0.00000000000E+00  0.45593999997E+02  0.45594000000E+02  0.51100000000E-03 0. -1.
         11   -1    0    0    0    0 -0.00000000000E+00 -0.00000000000E+00 -0.45593999997E+02  0.45594000000E+02  0.51100000000E-03 0.  1.
         23    2    1    2    0    0  0.00000000000E+00 -0.44408920985E-14 -0.35527136788E-14  0.91188000000E+02  0.91188000000E+02 0.  0.
    9900012    2    3    3    0    0  0.32261958190E+02 -0.43572692491E+01 -0.17203499810E+02  0.54367080032E+02  0.39999990550E+02 0.  0.
         12    1    3    3    0    0 -0.32261958190E+02  0.43572692491E+01  0.17203499810E+02  0.36820919968E+02  0.00000000000E+00 0. -1.
         11    1    4    4    0    0  0.22211365243E+02 -0.92724279665E+01 -0.14899068212E+02  0.28307329443E+02  0.51100000000E-03 0. -1.
        -11    1    4    4    0    0  0.22488171304E+00 -0.85914026704E+01 -0.35767416911E+01  0.93089125582E+01  0.51100000000E-03 0.  1.
         12    1    4    4    0    0  0.98257112335E+01  0.13506561388E+02  0.12723100933E+01  0.16750838031E+02  0.00000000000E+00 0. -1.
</event>
<event>
 8    1  0.3137106E-007  0.9118800E+02  0.7816164E-02  0.1184000E+00
        -11   -1    0    0    0    0  0.00000000000E+00  0.00000000000E+00  0.45593999997E+02  0.45594000000E+02  0.51100000000E-03 0.  1.
         11   -1    0    0    0    0 -0.00000000000E+00 -0.00000000000E+00 -0.45593999997E+02  0.45594000000E+02  0.51100000000E-03 0. -1.
         23    2    1    2    0    0  0.17763568394E-14  0.00000000000E+00  0.71054273576E-14  0.91188000000E+02  0.91188000000E+02 0.  0.
    9900012    2    3    3    0    0 -0.15580275887E+02 -0.89056658137E+01 -0.32151580020E+02  0.54367082330E+02  0.39999995788E+02 0.  0.
        -12    1    3    3    0    0  0.15580275887E+02  0.89056658137E+01  0.32151580020E+02  0.36820917670E+02  0.00000000000E+00 0.  1.
         11    1    4    4    0    0 -0.15500613527E+02 -0.31173319158E+01 -0.92219741979E+01  0.18303868071E+02  0.51100000000E-03 0. -1.
        -11    1    4    4    0    0 -0.61636887841E+01 -0.85947846589E+01 -0.26455984505E+02  0.28491761953E+02  0.51100000000E-03 0.  1.
        -12    1    4    4    0    0  0.60840264246E+01  0.28064507610E+01  0.35263786837E+01  0.75714523065E+01  0.00000000000E+00 0.  1.
</event>
<event>
 8    1  0.3137106E-007  0.9118800E+02  0.7816164E-02  0.1184000E+00
        -11   -1    0    0    0    0  0.00000000000E+00  0.00000000000E+00  0.45593999997E+02  0.45594000000E+02  0.51100000000E-03 0.  1.
         11   -1    0    0    0    0 -0.00000000000E+00 -0.00000000000E+00 -0.45593999997E+02  0.45594000000E+02  0.51100000000E-03 0. -1.
         23    2    1    2    0    0  0.71054273576E-14  0.35527136788E-14  0.00000000000E+00  0.91188000000E+02  0.91188000000E+02 0.  0.
    9900012    2    3    3    0    0 -0.20743589456E+02 -0.25287825986E+02 -0.16911913992E+02  0.54367034757E+02  0.39999887335E+02 0.  0.
        -12    1    3    3    0    0  0.20743589456E+02  0.25287825986E+02  0.16911913992E+02  0.36820965243E+02  0.00000000000E+00 0.  1.
         11    1    4    4    0    0 -0.25846399766E+02 -0.22035573075E+02 -0.72697063681E+01  0.34734010602E+02  0.51100000000E-03 0. -1.
        -11    1    4    4    0    0  0.35536867519E+01  0.53830228422E+01 -0.86699511690E+01  0.10806187023E+02  0.51100000000E-03 0.  1.
        -12    1    4    4    0    0  0.15491235580E+01 -0.86352757529E+01 -0.97225645452E+00  0.88268371312E+01  0.00000000000E+00 0.  1.
</event>
<event>
 8    1  0.3137106E-007  0.9118800E+02  0.7816164E-02  0.1184000E+00
        -11   -1    0    0    0    0  0.00000000000E+00  0.00000000000E+00  0.45593999997E+02  0.45594000000E+02  0.51100000000E-03 0.  1.
         11   -1    0    0    0    0 -0.00000000000E+00 -0.00000000000E+00 -0.45593999997E+02  0.45594000000E+02  0.51100000000E-03 0. -1.
         23    2    1    2    0    0 -0.35527136788E-14  0.35527136788E-14 -0.44408920985E-15  0.91188000000E+02  0.91188000000E+02 0.  0.
    9900012    2    3    3    0    0  0.29078272548E+02  0.22503774760E+02  0.19529700756E+01  0.54367083323E+02  0.39999998051E+02 0.  0.
         12    1    3    3    0    0 -0.29078272548E+02 -0.22503774760E+02 -0.19529700756E+01  0.36820916677E+02  0.00000000000E+00 0. -1.
         11    1    4    4    0    0  0.15023520778E+02  0.24876644260E+02 -0.37228022432E+01  0.29298683640E+02  0.51100000000E-03 0. -1.
        -11    1    4    4    0    0  0.23439000557E+01  0.67154586787E+01  0.72559680289E+01  0.10160724631E+02  0.51100000000E-03 0.  1.
         12    1    4    4    0    0  0.11710851714E+02 -0.90883281790E+01 -0.15801957101E+01  0.14907675052E+02  0.00000000000E+00 0. -1.
</event>
<event>
 8    1  0.3137106E-007  0.9118800E+02  0.7816164E-02  0.1184000E+00
        -11   -1    0    0    0    0  0.00000000000E+00  0.00000000000E+00  0.45593999997E+02  0.45594000000E+02  0.51100000000E-03 0. -1.
         11   -1    0    0    0    0 -0.00000000000E+00 -0.00000000000E+00 -0.45593999997E+02  0.45594000000E+02  0.51100000000E-03 0.  1.
         23    2    1    2    0    0  0.00000000000E+00  0.00000000000E+00  0.00000000000E+00  0.91188000000E+02  0.91188000000E+02 0.  0.
    9900012    2    3    3    0    0  0.20577903803E+02 -0.15087557294E+01  0.30496973502E+02  0.54366920961E+02  0.39999627914E+02 0.  0.
        -12    1    3    3    0    0 -0.20577903803E+02  0.15087557294E+01 -0.30496973502E+02  0.36821079039E+02  0.00000000000E+00 0.  1.
         11    1    4    4    0    0  0.15104691432E+02 -0.32790739079E+01 -0.81620388558E+00  0.15478056015E+02  0.51100000000E-03 0. -1.
        -11    1    4    4    0    0  0.37701926048E+01  0.10239791395E+02  0.67023568176E+01  0.12805829425E+02  0.51100000000E-03 0.  1.
         12    1    4    4    0    0  0.17030197664E+01 -0.84694732166E+01  0.24610820570E+02  0.26083035521E+02  0.00000000000E+00 0. -1.
</event>
<event>
 8    1  0.3137106E-007  0.9118800E+02  0.7816164E-02  0.1184000E+00
        -11   -1    0    0    0    0  0.00000000000E+00  0.00000000000E+00  0.45593999997E+02  0.45594000000E+02  0.51100000000E-03 0.  1.
         11   -1    0    0    0    0 -0.00000000000E+00 -0.00000000000E+00 -0.45593999997E+02  0.45594000000E+02  0.51100000000E-03 0. -1.
         23    2    1    2    0    0  0.00000000000E+00  0.00000000000E+00  0.49960036108E-15  0.91188000000E+02  0.91188000000E+02 0.  0.
    9900012    2    3    3    0    0 -0.43677302858E+01 -0.36557641114E+02 -0.48896199987E+00  0.54367119029E+02  0.40000079449E+02 0.  0.
         12    1    3    3    0    0  0.43677302858E+01  0.36557641114E+02  0.48896199987E+00  0.36820880971E+02  0.00000000000E+00 0. -1.
         11    1    4    4    0    0 -0.19718507487E+02 -0.19550952668E+02 -0.25468763957E+01  0.27884509452E+02  0.51100000000E-03 0. -1.
        -11    1    4    4    0    0  0.10508575060E+02 -0.44242634226E+01  0.53647513047E+01  0.12600984622E+02  0.51100000000E-03 0.  1.
        -12    1    4    4    0    0  0.48422021412E+01 -0.12582425023E+02 -0.33068369089E+01  0.13881624955E+02  0.00000000000E+00 0.  1.
</event>
<event>
 8    1  0.3137106E-007  0.9118800E+02  0.7816164E-02  0.1184000E+00
        -11   -1    0    0    0    0  0.00000000000E+00  0.00000000000E+00  0.45593999997E+02  0.45594000000E+02  0.51100000000E-03 0.  1.
         11   -1    0    0    0    0 -0.00000000000E+00 -0.00000000000E+00 -0.45593999997E+02  0.45594000000E+02  0.51100000000E-03 0. -1.
         23    2    1    2    0    0 -0.17763568394E-14  0.00000000000E+00  0.35527136788E-14  0.91188000000E+02  0.91188000000E+02 0.  0.
    9900012    2    3    3    0    0 -0.87565219524E+01 -0.20647863879E+02  0.29202191280E+02  0.54367096494E+02  0.40000028077E+02 0.  0.
         12    1    3    3    0    0  0.87565219524E+01  0.20647863879E+02 -0.29202191280E+02  0.36820903506E+02  0.00000000000E+00 0. -1.
         11    1    4    4    0    0  0.45058314295E+01 -0.11307844620E+02  0.12168351800E+02  0.17211584837E+02  0.51100000000E-03 0. -1.
        -11    1    4    4    0    0 -0.20100563608E+02 -0.11769453437E+02  0.18507684214E+02  0.29750412885E+02  0.51100000000E-03 0.  1.
        -12    1    4    4    0    0  0.68382102264E+01  0.24294341778E+01 -0.14738447340E+01  0.74050987721E+01  0.00000000000E+00 0.  1.
</event>
<event>
 8    1  0.3137106E-007  0.9118800E+02  0.7816164E-02  0.1184000E+00
        -11   -1    0    0    0    0  0.00000000000E+00  0.00000000000E+00  0.45593999997E+02  0.45594000000E+02  0.51100000000E-03 0.  1.
         11   -1    0    0    0    0 -0.00000000000E+00 -0.00000000000E+00 -0.45593999997E+02  0.45594000000E+02  0.51100000000E-03 0. -1.
         23    2    1    2    0    0  0.00000000000E+00 -0.35527136788E-14 -0.77715611724E-15  0.91188000000E+02  0.91188000000E+02 0.  0.
    9900012    2    3    3    0    0 -0.23432797296E+02 -0.28397454828E+02 -0.51798282081E+00  0.54367085617E+02  0.40000003280E+02 0.  0.
        -12    1    3    3    0    0  0.23432797296E+02  0.28397454828E+02  0.51798282081E+00  0.36820914383E+02  0.00000000000E+00 0.  1.
         11    1    4    4    0    0  0.80684364694E+01 -0.21651054895E+01 -0.70154847551E+00  0.83832880999E+01  0.51100000000E-03 0. -1.
        -11    1    4    4    0    0 -0.10300743615E+02 -0.72600169993E+01 -0.96603405227E+01  0.15878770265E+02  0.51100000000E-03 0.  1.
        -12    1    4    4    0    0 -0.21200490150E+02 -0.18972332339E+02  0.98439061774E+01  0.30105027252E+02  0.00000000000E+00 0.  1.
</event>
<event>
 8    1  0.3137106E-007  0.9118800E+02  0.7816164E-02  0.1184000E+00
        -11   -1    0    0    0    0  0.00000000000E+00  0.00000000000E+00  0.45593999997E+02  0.45594000000E+02  0.51100000000E-03 0. -1.
         11   -1    0    0    0    0 -0.00000000000E+00 -0.00000000000E+00 -0.45593999997E+02  0.45594000000E+02  0.51100000000E-03 0.  1.
         23    2    1    2    0    0 -0.35527136788E-14  0.17763568394E-14 -0.35527136788E-14  0.91188000000E+02  0.91188000000E+02 0.  0.
    9900012    2    3    3    0    0  0.29463157479E+02 -0.28790056509E+01 -0.21895431000E+02  0.54367133350E+02  0.40000112099E+02 0.  0.
         12    1    3    3    0    0 -0.29463157479E+02  0.28790056509E+01  0.21895431000E+02  0.36820866650E+02  0.00000000000E+00 0. -1.
         11    1    4    4    0    0  0.11277100516E+02 -0.13537441668E+01 -0.33724102537E+01  0.11848154730E+02  0.51100000000E-03 0. -1.
        -11    1    4    4    0    0  0.16912591984E+02  0.14301163801E+02 -0.13143561415E+02  0.25754849264E+02  0.51100000000E-03 0.  1.
         12    1    4    4    0    0  0.12734649781E+01 -0.15826425286E+02 -0.53794593317E+01  0.16764129356E+02  0.00000000000E+00 0. -1.
</event>
<event>
 8    1  0.3137106E-007  0.9118800E+02  0.7816164E-02  0.1184000E+00
        -11   -1    0    0    0    0  0.00000000000E+00  0.00000000000E+00  0.45593999997E+02  0.45594000000E+02  0.51100000000E-03 0. -1.
         11   -1    0    0    0    0 -0.00000000000E+00 -0.00000000000E+00 -0.45593999997E+02  0.45594000000E+02  0.51100000000E-03 0.  1.
         23    2    1    2    0    0  0.17763568394E-14  0.00000000000E+00  0.00000000000E+00  0.91188000000E+02  0.91188000000E+02 0.  0.
    9900012    2    3    3    0    0 -0.15510942548E+02 -0.18465737410E+02 -0.27824555323E+02  0.54367100014E+02  0.40000036102E+02 0.  0.
         12    1    3    3    0    0  0.15510942548E+02  0.18465737410E+02  0.27824555323E+02  0.36820899986E+02  0.00000000000E+00 0. -1.
         11    1    4    4    0    0 -0.15886393526E+01  0.11321487196E+01 -0.52852644056E+01  0.56337869870E+01  0.51100000000E-03 0. -1.
        -11    1    4    4    0    0 -0.83866128294E+00  0.10297548309E+02 -0.76963147920E+01  0.12883171797E+02  0.51100000000E-03 0.  1.
         12    1    4    4    0    0 -0.13083641913E+02 -0.29895434438E+02 -0.14842976126E+02  0.35850141230E+02  0.00000000000E+00 0. -1.
</event>
<event>
 8    1  0.3137106E-007  0.9118800E+02  0.7816164E-02  0.1184000E+00
        -11   -1    0    0    0    0  0.00000000000E+00  0.00000000000E+00  0.45593999997E+02  0.45594000000E+02  0.51100000000E-03 0.  1.
         11   -1    0    0    0    0 -0.00000000000E+00 -0.00000000000E+00 -0.45593999997E+02  0.45594000000E+02  0.51100000000E-03 0. -1.
         23    2    1    2    0    0  0.00000000000E+00  0.35527136788E-14  0.35527136788E-14  0.91188000000E+02  0.91188000000E+02 0.  0.
    9900012    2    3    3    0    0  0.47991598579E+01 -0.22867412300E+02  0.28457519531E+02  0.54367069831E+02  0.39999967294E+02 0.  0.
         12    1    3    3    0    0 -0.47991598579E+01  0.22867412300E+02 -0.28457519531E+02  0.36820930169E+02  0.00000000000E+00 0. -1.
         11    1    4    4    0    0 -0.33853877152E+01 -0.17855027647E+02  0.11734319203E+02  0.21632316327E+02  0.51100000000E-03 0.  1.
        -11    1    4    4    0    0 -0.28156857671E+01 -0.99554022460E+01 -0.19282245465E+01  0.10524075750E+02  0.51100000000E-03 0. -1.
         12    1    4    4    0    0  0.11000233340E+02  0.49430175928E+01  0.18651424875E+02  0.22210677755E+02  0.00000000000E+00 0. -1.
</event>
<event>
 8    1  0.3137106E-007  0.9118800E+02  0.7816164E-02  0.1184000E+00
        -11   -1    0    0    0    0  0.00000000000E+00  0.00000000000E+00  0.45593999997E+02  0.45594000000E+02  0.51100000000E-03 0. -1.
         11   -1    0    0    0    0 -0.00000000000E+00 -0.00000000000E+00 -0.45593999997E+02  0.45594000000E+02  0.51100000000E-03 0.  1.
         23    2    1    2    0    0  0.00000000000E+00  0.17763568394E-14  0.00000000000E+00  0.91188000000E+02  0.91188000000E+02 0.  0.
    9900012    2    3    3    0    0 -0.29522516644E+02  0.80129229828E+01 -0.20493730117E+02  0.54367096999E+02  0.40000029228E+02 0.  0.
         12    1    3    3    0    0  0.29522516644E+02 -0.80129229828E+01  0.20493730117E+02  0.36820903001E+02  0.00000000000E+00 0. -1.
         11    1    4    4    0    0 -0.99103790578E+01  0.13428655982E+02 -0.12096742531E+02  0.20612510635E+02  0.51100000000E-03 0. -1.
        -11    1    4    4    0    0 -0.97111498707E+01 -0.12727269275E+02  0.37709293159E+01  0.16447179794E+02  0.51100000000E-03 0.  1.
        -12    1    4    4    0    0 -0.99009877150E+01  0.73115362751E+01 -0.12167916902E+02  0.17307406570E+02  0.00000000000E+00 0.  1.
</event>
<event>
 8    1  0.3137106E-007  0.9118800E+02  0.7816164E-02  0.1184000E+00
        -11   -1    0    0    0    0  0.00000000000E+00  0.00000000000E+00  0.45593999997E+02  0.45594000000E+02  0.51100000000E-03 0.  1.
         11   -1    0    0    0    0 -0.00000000000E+00 -0.00000000000E+00 -0.45593999997E+02  0.45594000000E+02  0.51100000000E-03 0. -1.
         23    2    1    2    0    0 -0.35527136788E-14 -0.71054273576E-14 -0.17763568394E-14  0.91188000000E+02  0.91188000000E+02 0.  0.
    9900012    2    3    3    0    0 -0.23877204951E+02 -0.23577669841E+02  0.15157614923E+02  0.54367072234E+02  0.39999972772E+02 0.  0.
         12    1    3    3    0    0  0.23877204951E+02  0.23577669841E+02 -0.15157614923E+02  0.36820927766E+02  0.00000000000E+00 0. -1.
         11    1    4    4    0    0 -0.29589603886E+00 -0.20308897507E+02  0.18195079906E+02  0.27269026485E+02  0.51100000000E-03 0. -1.
        -11    1    4    4    0    0 -0.83170033510E+01 -0.73105239775E+01 -0.33625297260E+00  0.11078328930E+02  0.51100000000E-03 0.  1.
         12    1    4    4    0    0 -0.15264305561E+02  0.40417516431E+01 -0.27012120109E+01  0.16019716818E+02  0.00000000000E+00 0. -1.
</event>
<event>
 8    1  0.3137106E-007  0.9118800E+02  0.7816164E-02  0.1184000E+00
        -11   -1    0    0    0    0  0.00000000000E+00  0.00000000000E+00  0.45593999997E+02  0.45594000000E+02  0.51100000000E-03 0.  1.
         11   -1    0    0    0    0 -0.00000000000E+00 -0.00000000000E+00 -0.45593999997E+02  0.45594000000E+02  0.51100000000E-03 0. -1.
         23    2    1    2    0    0  0.00000000000E+00  0.00000000000E+00  0.17763568394E-14  0.91188000000E+02  0.91188000000E+02 0.  0.
    9900012    2    3    3    0    0 -0.21642609258E+02 -0.26890872622E+02 -0.12816215014E+02  0.54367123678E+02  0.40000090048E+02 0.  0.
         12    1    3    3    0    0  0.21642609258E+02  0.26890872622E+02  0.12816215014E+02  0.36820876322E+02  0.00000000000E+00 0. -1.
         11    1    4    4    0    0 -0.18778871096E+02 -0.19854967450E+02 -0.21918054037E+02  0.35032368249E+02  0.51100000000E-03 0. -1.
        -11    1    4    4    0    0 -0.61402737282E+01 -0.30483269895E+00  0.10057646813E+02  0.11787796406E+02  0.51100000000E-03 0.  1.
        -12    1    4    4    0    0  0.32765355669E+01 -0.67310724733E+01 -0.95580779026E+00  0.75469590229E+01  0.00000000000E+00 0.  1.
</event>
<event>
 8    1  0.3137106E-007  0.9118800E+02  0.7816164E-02  0.1184000E+00
        -11   -1    0    0    0    0  0.00000000000E+00  0.00000000000E+00  0.45593999997E+02  0.45594000000E+02  0.51100000000E-03 0.  1.
         11   -1    0    0    0    0 -0.00000000000E+00 -0.00000000000E+00 -0.45593999997E+02  0.45594000000E+02  0.51100000000E-03 0. -1.
         23    2    1    2    0    0  0.00000000000E+00  0.00000000000E+00 -0.35527136788E-14  0.91188000000E+02  0.91188000000E+02 0.  0.
    9900012    2    3    3    0    0  0.12069179152E+01  0.18929413795E+02 -0.31559463056E+02  0.54367094717E+02  0.40000024027E+02 0.  0.
        -12    1    3    3    0    0 -0.12069179152E+01 -0.18929413795E+02  0.31559463056E+02  0.36820905283E+02  0.00000000000E+00 0.  1.
         11    1    4    4    0    0 -0.40149732695E+01 -0.16736522740E+01  0.16740469259E+01  0.46608535334E+01  0.51100000000E-03 0. -1.
        -11    1    4    4    0    0  0.20570588535E+00 -0.79579259269E+01 -0.68591640361E+01  0.10508046036E+02  0.51100000000E-03 0.  1.
         12    1    4    4    0    0  0.50161852993E+01  0.28560991996E+02 -0.26374345946E+02  0.39198195147E+02  0.00000000000E+00 0. -1.
</event>
<event>
 8    1  0.3137106E-007  0.9118800E+02  0.7816164E-02  0.1184000E+00
        -11   -1    0    0    0    0  0.00000000000E+00  0.00000000000E+00  0.45593999997E+02  0.45594000000E+02  0.51100000000E-03 0. -1.
         11   -1    0    0    0    0 -0.00000000000E+00 -0.00000000000E+00 -0.45593999997E+02  0.45594000000E+02  0.51100000000E-03 0.  1.
         23    2    1    2    0    0  0.35527136788E-14  0.00000000000E+00  0.00000000000E+00  0.91188000000E+02  0.91188000000E+02 0.  0.
    9900012    2    3    3    0    0  0.20106079859E+02 -0.71424227577E+01  0.30008582308E+02  0.54367032301E+02  0.39999881736E+02 0.  0.
        -12    1    3    3    0    0 -0.20106079859E+02  0.71424227577E+01 -0.30008582308E+02  0.36820967699E+02  0.00000000000E+00 0.  1.
         11    1    4    4    0    0 -0.36011039854E+01 -0.11218594140E+02  0.10422722787E+02  0.15730796386E+02  0.51100000000E-03 0. -1.
        -11    1    4    4    0    0  0.20785798976E+02  0.11308014550E+01  0.24536573744E+02  0.32177190716E+02  0.51100000000E-03 0.  1.
        -12    1    4    4    0    0  0.29213848692E+01  0.29453699272E+01 -0.49507142230E+01  0.64590451987E+01  0.00000000000E+00 0.  1.
</event>
<event>
 8    1  0.3137106E-007  0.9118800E+02  0.7816164E-02  0.1184000E+00
        -11   -1    0    0    0    0  0.00000000000E+00  0.00000000000E+00  0.45593999997E+02  0.45594000000E+02  0.51100000000E-03 0. -1.
         11   -1    0    0    0    0 -0.00000000000E+00 -0.00000000000E+00 -0.45593999997E+02  0.45594000000E+02  0.51100000000E-03 0.  1.
         23    2    1    2    0    0  0.88817841970E-15  0.00000000000E+00  0.00000000000E+00  0.91188000000E+02  0.91188000000E+02 0.  0.
    9900012    2    3    3    0    0 -0.39636291100E+01  0.19670374022E+02  0.30873063680E+02  0.54367081613E+02  0.39999994153E+02 0.  0.
        -12    1    3    3    0    0  0.39636291100E+01 -0.19670374022E+02 -0.30873063680E+02  0.36820918387E+02  0.00000000000E+00 0.  1.
         11    1    4    4    0    0  0.11879559274E+01  0.73285257820E+01  0.28280889813E+02  0.29239139152E+02  0.51100000000E-03 0. -1.
        -11    1    4    4    0    0 -0.98091301257E+01 -0.35122995996E+00  0.55665805897E+01  0.11284024815E+02  0.51100000000E-03 0.  1.
        -12    1    4    4    0    0  0.46575450883E+01  0.12693078200E+02 -0.29744067235E+01  0.13843917646E+02  0.00000000000E+00 0.  1.
</event>
<event>
 8    1  0.3137106E-007  0.9118800E+02  0.7816164E-02  0.1184000E+00
        -11   -1    0    0    0    0  0.00000000000E+00  0.00000000000E+00  0.45593999997E+02  0.45594000000E+02  0.51100000000E-03 0.  1.
         11   -1    0    0    0    0 -0.00000000000E+00 -0.00000000000E+00 -0.45593999997E+02  0.45594000000E+02  0.51100000000E-03 0. -1.
         23    2    1    2    0    0  0.00000000000E+00  0.00000000000E+00  0.00000000000E+00  0.91188000000E+02  0.91188000000E+02 0.  0.
    9900012    2    3    3    0    0 -0.16668017045E+02 -0.20665323390E+02 -0.25512596845E+02  0.54367204506E+02  0.40000274311E+02 0.  0.
        -12    1    3    3    0    0  0.16668017045E+02  0.20665323390E+02  0.25512596845E+02  0.36820795494E+02  0.00000000000E+00 0.  1.
         11    1    4    4    0    0 -0.48537741855E+01  0.10436816536E+01 -0.17041672919E+02  0.17750127081E+02  0.51100000000E-03 0. -1.
        -11    1    4    4    0    0 -0.17098581027E+02 -0.52151629397E+01 -0.14720464713E+01  0.17936730993E+02  0.51100000000E-03 0.  1.
        -12    1    4    4    0    0  0.52843381672E+01 -0.16493842104E+02 -0.69988774547E+01  0.18680346432E+02  0.00000000000E+00 0.  1.
</event>
<event>
 8    1  0.3137106E-007  0.9118800E+02  0.7816164E-02  0.1184000E+00
        -11   -1    0    0    0    0  0.00000000000E+00  0.00000000000E+00  0.45593999997E+02  0.45594000000E+02  0.51100000000E-03 0. -1.
         11   -1    0    0    0    0 -0.00000000000E+00 -0.00000000000E+00 -0.45593999997E+02  0.45594000000E+02  0.51100000000E-03 0.  1.
         23    2    1    2    0    0  0.35527136788E-14  0.00000000000E+00  0.35527136788E-14  0.91188000000E+02  0.91188000000E+02 0.  0.
    9900012    2    3    3    0    0 -0.19300105468E+02  0.16453670368E+02 -0.26693848004E+02  0.54367097500E+02  0.40000030371E+02 0.  0.
         12    1    3    3    0    0  0.19300105468E+02 -0.16453670368E+02  0.26693848004E+02  0.36820902500E+02  0.00000000000E+00 0. -1.
         11    1    4    4    0    0  0.41990690847E+01  0.64403693813E+01 -0.41175173900E+01  0.87214957814E+01  0.51100000000E-03 0. -1.
        -11    1    4    4    0    0 -0.10418550423E+02 -0.10744838462E+02 -0.65333563308E+01  0.16330416152E+02  0.51100000000E-03 0.  1.
         12    1    4    4    0    0 -0.13080624130E+02  0.20758139449E+02 -0.16042974283E+02  0.29315185567E+02  0.00000000000E+00 0. -1.
</event>
<event>
 8    1  0.3137106E-007  0.9118800E+02  0.7816164E-02  0.1184000E+00
        -11   -1    0    0    0    0  0.00000000000E+00  0.00000000000E+00  0.45593999997E+02  0.45594000000E+02  0.51100000000E-03 0. -1.
         11   -1    0    0    0    0 -0.00000000000E+00 -0.00000000000E+00 -0.45593999997E+02  0.45594000000E+02  0.51100000000E-03 0.  1.
         23    2    1    2    0    0  0.00000000000E+00 -0.44408920985E-15 -0.35527136788E-14  0.91188000000E+02  0.91188000000E+02 0.  0.
    9900012    2    3    3    0    0 -0.24978701002E+02 -0.34770249858E+01 -0.26828244190E+02  0.54367083488E+02  0.39999998427E+02 0.  0.
        -12    1    3    3    0    0  0.24978701002E+02  0.34770249858E+01  0.26828244190E+02  0.36820916512E+02  0.00000000000E+00 0.  1.
         11    1    4    4    0    0  0.26532102949E+01 -0.83950701841E+00 -0.11739032083E+01  0.30203221527E+01  0.51100000000E-03 0. -1.
        -11    1    4    4    0    0 -0.44442467320E+01  0.77804856203E+01 -0.24289631135E+02  0.25889640137E+02  0.51100000000E-03 0.  1.
         12    1    4    4    0    0 -0.23187664564E+02 -0.10418003588E+02 -0.13647098471E+01  0.25457121198E+02  0.00000000000E+00 0. -1.
</event>
<event>
 8    1  0.3137106E-007  0.9118800E+02  0.7816164E-02  0.1184000E+00
        -11   -1    0    0    0    0  0.00000000000E+00  0.00000000000E+00  0.45593999997E+02  0.45594000000E+02  0.51100000000E-03 0.  1.
         11   -1    0    0    0    0 -0.00000000000E+00 -0.00000000000E+00 -0.45593999997E+02  0.45594000000E+02  0.51100000000E-03 0. -1.
         23    2    1    2    0    0 -0.22204460493E-15  0.00000000000E+00  0.00000000000E+00  0.91188000000E+02  0.91188000000E+02 0.  0.
    9900012    2    3    3    0    0  0.93580082819E+00 -0.10790045612E+02  0.35192039918E+02  0.54367075499E+02  0.39999980216E+02 0.  0.
         12    1    3    3    0    0 -0.93580082819E+00  0.10790045612E+02 -0.35192039918E+02  0.36820924501E+02  0.00000000000E+00 0. -1.
         11    1    4    4    0    0 -0.71520372395E+01  0.87017051776E-01  0.19245526156E+02  0.20531670315E+02  0.51100000000E-03 0. -1.
        -11    1    4    4    0    0  0.10943719965E+02 -0.38821512291E+01  0.21515732742E+02  0.24449189363E+02  0.51100000000E-03 0.  1.
         12    1    4    4    0    0 -0.28558818976E+01 -0.69949114345E+01 -0.55692189798E+01  0.93862158208E+01  0.00000000000E+00 0. -1.
</event>
<event>
 8    1  0.3137106E-007  0.9118800E+02  0.7816164E-02  0.1184000E+00
        -11   -1    0    0    0    0  0.00000000000E+00  0.00000000000E+00  0.45593999997E+02  0.45594000000E+02  0.51100000000E-03 0.  1.
         11   -1    0    0    0    0 -0.00000000000E+00 -0.00000000000E+00 -0.45593999997E+02  0.45594000000E+02  0.51100000000E-03 0. -1.
         23    2    1    2    0    0  0.00000000000E+00  0.00000000000E+00  0.00000000000E+00  0.91188000000E+02  0.91188000000E+02 0.  0.
    9900012    2    3    3    0    0 -0.13844761289E+02  0.78835053289E+01 -0.33195662822E+02  0.54367094232E+02  0.40000022920E+02 0.  0.
        -12    1    3    3    0    0  0.13844761289E+02 -0.78835053289E+01  0.33195662822E+02  0.36820905768E+02  0.00000000000E+00 0.  1.
         11    1    4    4    0    0  0.25662685727E-02  0.77964410215E+01  0.58407250161E+01  0.97415896116E+01  0.51100000000E-03 0.  1.
        -11    1    4    4    0    0 -0.11348384002E+02 -0.69904019113E+01 -0.18827973328E+02  0.23068249137E+02  0.51100000000E-03 0. -1.
        -12    1    4    4    0    0 -0.24989435563E+01  0.70774662187E+01 -0.20208414509E+02  0.21557255483E+02  0.00000000000E+00 0.  1.
</event>
<event>
 8    1  0.3137106E-007  0.9118800E+02  0.7816164E-02  0.1184000E+00
        -11   -1    0    0    0    0  0.00000000000E+00  0.00000000000E+00  0.45593999997E+02  0.45594000000E+02  0.51100000000E-03 0. -1.
         11   -1    0    0    0    0 -0.00000000000E+00 -0.00000000000E+00 -0.45593999997E+02  0.45594000000E+02  0.51100000000E-03 0.  1.
         23    2    1    2    0    0  0.88817841970E-15  0.00000000000E+00  0.35527136788E-14  0.91188000000E+02  0.91188000000E+02 0.  0.
    9900012    2    3    3    0    0  0.74212598986E+01 -0.26031082393E+02 -0.24961824152E+02  0.54367013946E+02  0.39999839892E+02 0.  0.
         12    1    3    3    0    0 -0.74212598986E+01  0.26031082393E+02  0.24961824152E+02  0.36820986054E+02  0.00000000000E+00 0. -1.
         11    1    4    4    0    0  0.31994135277E+00  0.81036587580E+01 -0.12844134466E+02  0.15190241544E+02  0.51100000000E-03 0. -1.
        -11    1    4    4    0    0  0.87151563349E+01 -0.23286189475E+02 -0.32553773622E+01  0.25075845992E+02  0.51100000000E-03 0.  1.
        -12    1    4    4    0    0 -0.16138377891E+01 -0.10848551676E+02 -0.88623123237E+01  0.14100926409E+02  0.00000000000E+00 0.  1.
</event>
<event>
 8    1  0.3137106E-007  0.9118800E+02  0.7816164E-02  0.1184000E+00
        -11   -1    0    0    0    0  0.00000000000E+00  0.00000000000E+00  0.45593999997E+02  0.45594000000E+02  0.51100000000E-03 0.  1.
         11   -1    0    0    0    0 -0.00000000000E+00 -0.00000000000E+00 -0.45593999997E+02  0.45594000000E+02  0.51100000000E-03 0. -1.
         23    2    1    2    0    0  0.00000000000E+00  0.71054273576E-14 -0.35527136788E-14  0.91188000000E+02  0.91188000000E+02 0.  0.
    9900012    2    3    3    0    0  0.65858088754E+01  0.28169529957E+02 -0.22779043179E+02  0.54367080610E+02  0.39999991867E+02 0.  0.
        -12    1    3    3    0    0 -0.65858088754E+01 -0.28169529957E+02  0.22779043179E+02  0.36820919390E+02  0.00000000000E+00 0.  1.
         11    1    4    4    0    0  0.91799420467E+01  0.60207340718E+01 -0.67893336812E+01  0.12907967572E+02  0.51100000000E-03 0. -1.
        -11    1    4    4    0    0 -0.73755232949E+01 -0.61097433818E+01 -0.44938946434E+01  0.10579338230E+02  0.51100000000E-03 0.  1.
         12    1    4    4    0    0  0.47813901236E+01  0.28258539267E+02 -0.11495814855E+02  0.30879774808E+02  0.00000000000E+00 0. -1.
</event>
<event>
 8    1  0.3137106E-007  0.9118800E+02  0.7816164E-02  0.1184000E+00
        -11   -1    0    0    0    0  0.00000000000E+00  0.00000000000E+00  0.45593999997E+02  0.45594000000E+02  0.51100000000E-03 0. -1.
         11   -1    0    0    0    0 -0.00000000000E+00 -0.00000000000E+00 -0.45593999997E+02  0.45594000000E+02  0.51100000000E-03 0.  1.
         23    2    1    2    0    0  0.88817841970E-15  0.00000000000E+00 -0.11102230246E-14  0.91188000000E+02  0.91188000000E+02 0.  0.
    9900012    2    3    3    0    0 -0.45152163242E+01  0.36539422933E+02  0.51228530353E+00  0.54367095028E+02  0.40000024736E+02 0.  0.
         12    1    3    3    0    0  0.45152163242E+01 -0.36539422933E+02 -0.51228530353E+00  0.36820904972E+02  0.00000000000E+00 0. -1.
         11    1    4    4    0    0 -0.34707797390E+01  0.44088941379E+01  0.89881452270E+01  0.10595820610E+02  0.51100000000E-03 0. -1.
        -11    1    4    4    0    0 -0.84548952745E+01  0.20040328055E+02  0.69342645771E+01  0.22829455275E+02  0.51100000000E-03 0.  1.
        -12    1    4    4    0    0  0.74104586893E+01  0.12090200739E+02 -0.15410124501E+02  0.20941819143E+02  0.00000000000E+00 0.  1.
</event>
<event>
 8    1  0.3137106E-007  0.9118800E+02  0.7816164E-02  0.1184000E+00
        -11   -1    0    0    0    0  0.00000000000E+00  0.00000000000E+00  0.45593999997E+02  0.45594000000E+02  0.51100000000E-03 0. -1.
         11   -1    0    0    0    0 -0.00000000000E+00 -0.00000000000E+00 -0.45593999997E+02  0.45594000000E+02  0.51100000000E-03 0.  1.
         23    2    1    2    0    0  0.00000000000E+00  0.00000000000E+00  0.35527136788E-14  0.91188000000E+02  0.91188000000E+02 0.  0.
    9900012    2    3    3    0    0 -0.23710765770E+02  0.15368686168E+02 -0.23609078255E+02  0.54367007292E+02  0.39999824724E+02 0.  0.
        -12    1    3    3    0    0  0.23710765770E+02 -0.15368686168E+02  0.23609078255E+02  0.36820992708E+02  0.00000000000E+00 0.  1.
         11    1    4    4    0    0 -0.62966487779E+01 -0.14809230591E+01  0.49164166825E+01  0.81247813630E+01  0.51100000000E-03 0. -1.
        -11    1    4    4    0    0 -0.23854082803E+02  0.16974518705E+02 -0.19588183312E+02  0.35225679232E+02  0.51100000000E-03 0.  1.
        -12    1    4    4    0    0  0.64399658115E+01 -0.12490947794E+00 -0.89373116261E+01  0.11016546697E+02  0.00000000000E+00 0.  1.
</event>
<event>
 8    1  0.3137106E-007  0.9118800E+02  0.7816164E-02  0.1184000E+00
        -11   -1    0    0    0    0  0.00000000000E+00  0.00000000000E+00  0.45593999997E+02  0.45594000000E+02  0.51100000000E-03 0.  1.
         11   -1    0    0    0    0 -0.00000000000E+00 -0.00000000000E+00 -0.45593999997E+02  0.45594000000E+02  0.51100000000E-03 0. -1.
         23    2    1    2    0    0  0.35527136788E-14  0.00000000000E+00  0.88817841970E-15  0.91188000000E+02  0.91188000000E+02 0.  0.
    9900012    2    3    3    0    0  0.12602641932E+02 -0.34010939091E+02  0.63410192189E+01  0.54367094440E+02  0.40000023395E+02 0.  0.
         12    1    3    3    0    0 -0.12602641932E+02  0.34010939091E+02 -0.63410192189E+01  0.36820905560E+02  0.00000000000E+00 0. -1.
         11    1    4    4    0    0 -0.79098430632E+01 -0.42956578494E+01 -0.46052133855E+01  0.10110701471E+02  0.51100000000E-03 0. -1.
        -11    1    4    4    0    0  0.16792005522E+02 -0.13526392424E+02  0.16048923199E+02  0.26879409918E+02  0.51100000000E-03 0.  1.
        -12    1    4    4    0    0  0.37204794736E+01 -0.16188888818E+02 -0.51026905942E+01  0.17376983051E+02  0.00000000000E+00 0.  1.
</event>
<event>
 8    1  0.3137106E-007  0.9118800E+02  0.7816164E-02  0.1184000E+00
        -11   -1    0    0    0    0  0.00000000000E+00  0.00000000000E+00  0.45593999997E+02  0.45594000000E+02  0.51100000000E-03 0. -1.
         11   -1    0    0    0    0 -0.00000000000E+00 -0.00000000000E+00 -0.45593999997E+02  0.45594000000E+02  0.51100000000E-03 0.  1.
         23    2    1    2    0    0  0.35527136788E-14  0.35527136788E-14 -0.17763568394E-14  0.91188000000E+02  0.91188000000E+02 0.  0.
    9900012    2    3    3    0    0 -0.20014314456E+02 -0.29870272200E+02  0.79356535397E+01  0.54367074678E+02  0.39999978344E+02 0.  0.
         12    1    3    3    0    0  0.20014314456E+02  0.29870272200E+02 -0.79356535397E+01  0.36820925322E+02  0.00000000000E+00 0. -1.
         11    1    4    4    0    0 -0.20219140647E+02 -0.27079763204E+02  0.56129037878E+01  0.34258311588E+02  0.51100000000E-03 0. -1.
        -11    1    4    4    0    0 -0.77665873367E+01 -0.19690869082E+01  0.71625339794E+01  0.10747049613E+02  0.51100000000E-03 0.  1.
        -12    1    4    4    0    0  0.79714135269E+01 -0.82142208687E+00 -0.48397842275E+01  0.93617134773E+01  0.00000000000E+00 0.  1.
</event>
<event>
 8    1  0.3137106E-007  0.9118800E+02  0.7816164E-02  0.1184000E+00
        -11   -1    0    0    0    0  0.00000000000E+00  0.00000000000E+00  0.45593999997E+02  0.45594000000E+02  0.51100000000E-03 0.  1.
         11   -1    0    0    0    0 -0.00000000000E+00 -0.00000000000E+00 -0.45593999997E+02  0.45594000000E+02  0.51100000000E-03 0. -1.
         23    2    1    2    0    0  0.35527136788E-14  0.00000000000E+00  0.00000000000E+00  0.91188000000E+02  0.91188000000E+02 0.  0.
    9900012    2    3    3    0    0 -0.18674760489E+02  0.15297781431E+02  0.27803075318E+02  0.54367084841E+02  0.40000001511E+02 0.  0.
        -12    1    3    3    0    0  0.18674760489E+02 -0.15297781431E+02 -0.27803075318E+02  0.36820915159E+02  0.00000000000E+00 0.  1.
         11    1    4    4    0    0 -0.34579363675E+01  0.23144729757E+01  0.16452196007E+02  0.16970234612E+02  0.51100000000E-03 0. -1.
        -11    1    4    4    0    0 -0.67677219323E+01  0.12008058813E+02  0.20628979390E+02  0.24810286729E+02  0.51100000000E-03 0.  1.
         12    1    4    4    0    0 -0.84491021895E+01  0.97524964165E+00 -0.92781000787E+01  0.12586563500E+02  0.00000000000E+00 0. -1.
</event>
<event>
 8    1  0.3137106E-007  0.9118800E+02  0.7816164E-02  0.1184000E+00
        -11   -1    0    0    0    0  0.00000000000E+00  0.00000000000E+00  0.45593999997E+02  0.45594000000E+02  0.51100000000E-03 0.  1.
         11   -1    0    0    0    0 -0.00000000000E+00 -0.00000000000E+00 -0.45593999997E+02  0.45594000000E+02  0.51100000000E-03 0. -1.
         23    2    1    2    0    0  0.17763568394E-14  0.35527136788E-14  0.00000000000E+00  0.91188000000E+02  0.91188000000E+02 0.  0.
    9900012    2    3    3    0    0  0.42701659890E+01  0.29574441831E+02  0.21515050672E+02  0.54367091095E+02  0.40000015769E+02 0.  0.
         12    1    3    3    0    0 -0.42701659890E+01 -0.29574441831E+02 -0.21515050672E+02  0.36820908905E+02  0.00000000000E+00 0. -1.
         11    1    4    4    0    0  0.94281348409E+01 -0.35851439255E+01  0.65722645845E+01  0.12039005174E+02  0.51100000000E-03 0. -1.
        -11    1    4    4    0    0  0.24503303870E+01  0.28691547625E+02  0.16761973703E+02  0.33319255496E+02  0.51100000000E-03 0.  1.
        -12    1    4    4    0    0 -0.76082992389E+01  0.44680381309E+01 -0.18191876154E+01  0.90088304251E+01  0.00000000000E+00 0.  1.
</event>
<event>
 8    1  0.3137106E-007  0.9118800E+02  0.7816164E-02  0.1184000E+00
        -11   -1    0    0    0    0  0.00000000000E+00  0.00000000000E+00  0.45593999997E+02  0.45594000000E+02  0.51100000000E-03 0.  1.
         11   -1    0    0    0    0 -0.00000000000E+00 -0.00000000000E+00 -0.45593999997E+02  0.45594000000E+02  0.51100000000E-03 0. -1.
         23    2    1    2    0    0 -0.35527136788E-14  0.17763568394E-14 -0.17763568394E-14  0.91188000000E+02  0.91188000000E+02 0.  0.
    9900012    2    3    3    0    0 -0.31919737295E+02 -0.10902212547E+02 -0.14766433899E+02  0.54367143987E+02  0.40000136348E+02 0.  0.
        -12    1    3    3    0    0  0.31919737295E+02  0.10902212547E+02  0.14766433899E+02  0.36820856013E+02  0.00000000000E+00 0.  1.
         11    1    4    4    0    0 -0.19707854383E+02 -0.71910592931E+01 -0.19488965753E+02  0.28634431101E+02  0.51100000000E-03 0. -1.
        -11    1    4    4    0    0 -0.78177080252E+01 -0.82576370626E+01  0.11700720500E+02  0.16316004079E+02  0.51100000000E-03 0.  1.
         12    1    4    4    0    0 -0.43941748870E+01  0.45464838084E+01 -0.69781886467E+01  0.94167088065E+01  0.00000000000E+00 0. -1.
</event>
<event>
 8    1  0.3137106E-007  0.9118800E+02  0.7816164E-02  0.1184000E+00
        -11   -1    0    0    0    0  0.00000000000E+00  0.00000000000E+00  0.45593999997E+02  0.45594000000E+02  0.51100000000E-03 0. -1.
         11   -1    0    0    0    0 -0.00000000000E+00 -0.00000000000E+00 -0.45593999997E+02  0.45594000000E+02  0.51100000000E-03 0.  1.
         23    2    1    2    0    0  0.35527136788E-14  0.00000000000E+00  0.00000000000E+00  0.91188000000E+02  0.91188000000E+02 0.  0.
    9900012    2    3    3    0    0 -0.31663585516E+02  0.17841292756E+02  0.59064385443E+01  0.54367076720E+02  0.39999982998E+02 0.  0.
        -12    1    3    3    0    0  0.31663585516E+02 -0.17841292756E+02 -0.59064385443E+01  0.36820923280E+02  0.00000000000E+00 0.  1.
         11    1    4    4    0    0 -0.53569843180E+01 -0.74829136321E+01  0.33377904509E+00  0.92088373924E+01  0.51100000000E-03 0. -1.
        -11    1    4    4    0    0  0.17066270197E+01  0.73342974070E+01  0.89483952630E+01  0.11695224337E+02  0.51100000000E-03 0.  1.
         12    1    4    4    0    0 -0.28013228218E+02  0.17989908981E+02 -0.33757357638E+01  0.33463014991E+02  0.00000000000E+00 0. -1.
</event>
<event>
 8    1  0.3137106E-007  0.9118800E+02  0.7816164E-02  0.1184000E+00
        -11   -1    0    0    0    0  0.00000000000E+00  0.00000000000E+00  0.45593999997E+02  0.45594000000E+02  0.51100000000E-03 0.  1.
         11   -1    0    0    0    0 -0.00000000000E+00 -0.00000000000E+00 -0.45593999997E+02  0.45594000000E+02  0.51100000000E-03 0. -1.
         23    2    1    2    0    0  0.71054273576E-14  0.17763568394E-14  0.00000000000E+00  0.91188000000E+02  0.91188000000E+02 0.  0.
    9900012    2    3    3    0    0  0.30716905226E+02  0.11115589848E+02  0.16991042516E+02  0.54367080265E+02  0.39999991081E+02 0.  0.
         12    1    3    3    0    0 -0.30716905226E+02 -0.11115589848E+02 -0.16991042516E+02  0.36820919735E+02  0.00000000000E+00 0. -1.
         11    1    4    4    0    0  0.20212867491E+02  0.10991905405E+02  0.59808437726E+01  0.23772936065E+02  0.51100000000E-03 0. -1.
        -11    1    4    4    0    0  0.12321152448E+02 -0.11150006507E+02  0.93144240977E+01  0.19049722814E+02  0.51100000000E-03 0.  1.
         12    1    4    4    0    0 -0.18171147136E+01  0.11273690950E+02  0.16957746456E+01  0.11544421387E+02  0.00000000000E+00 0. -1.
</event>
<event>
 8    1  0.3137106E-007  0.9118800E+02  0.7816164E-02  0.1184000E+00
        -11   -1    0    0    0    0  0.00000000000E+00  0.00000000000E+00  0.45593999997E+02  0.45594000000E+02  0.51100000000E-03 0.  1.
         11   -1    0    0    0    0 -0.00000000000E+00 -0.00000000000E+00 -0.45593999997E+02  0.45594000000E+02  0.51100000000E-03 0. -1.
         23    2    1    2    0    0 -0.10824674490E-14  0.00000000000E+00  0.35527136788E-14  0.91188000000E+02  0.91188000000E+02 0.  0.
    9900012    2    3    3    0    0 -0.15677197149E+00 -0.19693125499E+02 -0.31111666200E+02  0.54367088236E+02  0.40000009252E+02 0.  0.
        -12    1    3    3    0    0  0.15677197149E+00  0.19693125499E+02  0.31111666200E+02  0.36820911764E+02  0.00000000000E+00 0.  1.
         11    1    4    4    0    0  0.54600245798E+01  0.23463889009E+01 -0.72107572315E+01  0.93441120177E+01  0.51100000000E-03 0.  1.
        -11    1    4    4    0    0  0.59490916882E+01 -0.25174037641E+02 -0.13620194886E+02  0.29234116577E+02  0.51100000000E-03 0. -1.
        -12    1    4    4    0    0 -0.11565888240E+02  0.31345232409E+01 -0.10280714083E+02  0.15788859641E+02  0.00000000000E+00 0.  1.
</event>
<event>
 8    1  0.3137106E-007  0.9118800E+02  0.7816164E-02  0.1184000E+00
        -11   -1    0    0    0    0  0.00000000000E+00  0.00000000000E+00  0.45593999997E+02  0.45594000000E+02  0.51100000000E-03 0. -1.
         11   -1    0    0    0    0 -0.00000000000E+00 -0.00000000000E+00 -0.45593999997E+02  0.45594000000E+02  0.51100000000E-03 0.  1.
         23    2    1    2    0    0  0.00000000000E+00  0.00000000000E+00  0.00000000000E+00  0.91188000000E+02  0.91188000000E+02 0.  0.
    9900012    2    3    3    0    0 -0.19886105097E+02  0.13884822111E+02 -0.27704255034E+02  0.54367201422E+02  0.40000267280E+02 0.  0.
         12    1    3    3    0    0  0.19886105097E+02 -0.13884822111E+02  0.27704255034E+02  0.36820798578E+02  0.00000000000E+00 0. -1.
         11    1    4    4    0    0 -0.86461158022E+01  0.14563011084E+02 -0.18199621070E+02  0.24860869205E+02  0.51100000000E-03 0.  1.
        -11    1    4    4    0    0 -0.15306909124E+02 -0.93517698630E+01 -0.37317523948E+01  0.18321655021E+02  0.51100000000E-03 0. -1.
         12    1    4    4    0    0  0.40669198293E+01  0.86735808904E+01 -0.57728815688E+01  0.11184677196E+02  0.00000000000E+00 0. -1.
</event>
<event>
 8    1  0.3137106E-007  0.9118800E+02  0.7816164E-02  0.1184000E+00
        -11   -1    0    0    0    0  0.00000000000E+00  0.00000000000E+00  0.45593999997E+02  0.45594000000E+02  0.51100000000E-03 0. -1.
         11   -1    0    0    0    0 -0.00000000000E+00 -0.00000000000E+00 -0.45593999997E+02  0.45594000000E+02  0.51100000000E-03 0.  1.
         23    2    1    2    0    0  0.00000000000E+00 -0.35527136788E-14  0.35527136788E-14  0.91188000000E+02  0.91188000000E+02 0.  0.
    9900012    2    3    3    0    0  0.61910550150E+01 -0.18050269832E+02  0.31490293840E+02  0.54367081905E+02  0.39999994820E+02 0.  0.
        -12    1    3    3    0    0 -0.61910550150E+01  0.18050269832E+02 -0.31490293840E+02  0.36820918095E+02  0.00000000000E+00 0.  1.
         11    1    4    4    0    0  0.68884611118E+01 -0.57429066805E+00  0.77415347947E+01  0.10378442441E+02  0.51100000000E-03 0. -1.
        -11    1    4    4    0    0  0.29380004853E+01  0.21349547938E+01  0.23767709445E+02  0.24043583164E+02  0.51100000000E-03 0.  1.
        -12    1    4    4    0    0 -0.36354065821E+01 -0.19610933958E+02 -0.18950400221E-01  0.19945056300E+02  0.00000000000E+00 0.  1.
</event>
<event>
 8    1  0.3137106E-007  0.9118800E+02  0.7816164E-02  0.1184000E+00
        -11   -1    0    0    0    0  0.00000000000E+00  0.00000000000E+00  0.45593999997E+02  0.45594000000E+02  0.51100000000E-03 0.  1.
         11   -1    0    0    0    0 -0.00000000000E+00 -0.00000000000E+00 -0.45593999997E+02  0.45594000000E+02  0.51100000000E-03 0. -1.
         23    2    1    2    0    0 -0.17763568394E-14  0.44408920985E-15  0.00000000000E+00  0.91188000000E+02  0.91188000000E+02 0.  0.
    9900012    2    3    3    0    0  0.15415777863E+02 -0.31391942173E+01  0.33290838093E+02  0.54367073228E+02  0.39999975037E+02 0.  0.
         12    1    3    3    0    0 -0.15415777863E+02  0.31391942173E+01 -0.33290838093E+02  0.36820926772E+02  0.00000000000E+00 0. -1.
         11    1    4    4    0    0 -0.51714679526E+01  0.41349320885E+01 -0.46705386057E+01  0.81028189718E+01  0.51100000000E-03 0. -1.
        -11    1    4    4    0    0  0.18866753204E+02 -0.12018889388E+01  0.21472879121E+02  0.28609149786E+02  0.51100000000E-03 0.  1.
         12    1    4    4    0    0  0.17204926113E+01 -0.60722373671E+01  0.16488497578E+02  0.17655104470E+02  0.00000000000E+00 0. -1.
</event>
<event>
 8    1  0.3137106E-007  0.9118800E+02  0.7816164E-02  0.1184000E+00
        -11   -1    0    0    0    0  0.00000000000E+00  0.00000000000E+00  0.45593999997E+02  0.45594000000E+02  0.51100000000E-03 0.  1.
         11   -1    0    0    0    0 -0.00000000000E+00 -0.00000000000E+00 -0.45593999997E+02  0.45594000000E+02  0.51100000000E-03 0. -1.
         23    2    1    2    0    0  0.71054273576E-14 -0.88817841970E-15  0.35527136788E-14  0.91188000000E+02  0.91188000000E+02 0.  0.
    9900012    2    3    3    0    0  0.35417096617E+02 -0.50535890800E+01  0.87103173038E+01  0.54367093942E+02  0.40000022260E+02 0.  0.
        -12    1    3    3    0    0 -0.35417096617E+02  0.50535890800E+01 -0.87103173038E+01  0.36820906058E+02  0.00000000000E+00 0.  1.
         11    1    4    4    0    0  0.13003498530E+02  0.63820376295E+01  0.87398740393E+01  0.16917646905E+02  0.51100000000E-03 0. -1.
        -11    1    4    4    0    0  0.23740382260E+02 -0.17431726717E+02  0.45320351902E+01  0.29799499818E+02  0.51100000000E-03 0.  1.
        -12    1    4    4    0    0 -0.13267841734E+01  0.59961000078E+01 -0.45615919257E+01  0.76499472183E+01  0.00000000000E+00 0.  1.
</event>
<event>
 8    1  0.3137106E-007  0.9118800E+02  0.7816164E-02  0.1184000E+00
        -11   -1    0    0    0    0  0.00000000000E+00  0.00000000000E+00  0.45593999997E+02  0.45594000000E+02  0.51100000000E-03 0.  1.
         11   -1    0    0    0    0 -0.00000000000E+00 -0.00000000000E+00 -0.45593999997E+02  0.45594000000E+02  0.51100000000E-03 0. -1.
         23    2    1    2    0    0 -0.35527136788E-14 -0.88817841970E-15  0.35527136788E-14  0.91188000000E+02  0.91188000000E+02 0.  0.
    9900012    2    3    3    0    0  0.31006624950E+02  0.11607465395E+01 -0.19824784843E+02  0.54367079080E+02  0.39999988379E+02 0.  0.
        -12    1    3    3    0    0 -0.31006624950E+02 -0.11607465395E+01  0.19824784843E+02  0.36820920920E+02  0.00000000000E+00 0.  1.
         11    1    4    4    0    0  0.99837273889E+01  0.13651584860E+02 -0.28357462939E+01  0.17148820341E+02  0.51100000000E-03 0.  1.
        -11    1    4    4    0    0 -0.40580900807E+01 -0.29522630815E+01  0.71722179038E+00  0.50693549652E+01  0.51100000000E-03 0. -1.
         12    1    4    4    0    0  0.25080987642E+02 -0.95385752390E+01 -0.17706260340E+02  0.32148903774E+02  0.00000000000E+00 0. -1.
</event>
<event>
 8    1  0.3137106E-007  0.9118800E+02  0.7816164E-02  0.1184000E+00
        -11   -1    0    0    0    0  0.00000000000E+00  0.00000000000E+00  0.45593999997E+02  0.45594000000E+02  0.51100000000E-03 0. -1.
         11   -1    0    0    0    0 -0.00000000000E+00 -0.00000000000E+00 -0.45593999997E+02  0.45594000000E+02  0.51100000000E-03 0.  1.
         23    2    1    2    0    0  0.00000000000E+00  0.00000000000E+00  0.00000000000E+00  0.91188000000E+02  0.91188000000E+02 0.  0.
    9900012    2    3    3    0    0  0.16967459316E+02 -0.60339700689E+01  0.32116575331E+02  0.54367110800E+02  0.40000060691E+02 0.  0.
        -12    1    3    3    0    0 -0.16967459316E+02  0.60339700689E+01 -0.32116575331E+02  0.36820889200E+02  0.00000000000E+00 0.  1.
         11    1    4    4    0    0 -0.77367366963E+01 -0.10868109593E+02  0.11181896807E+02  0.17407116858E+02  0.51100000000E-03 0.  1.
        -11    1    4    4    0    0  0.75953202633E+01  0.74690882381E+01  0.15516617685E+02  0.18821306906E+02  0.51100000000E-03 0. -1.
        -12    1    4    4    0    0  0.17108875750E+02 -0.26349487140E+01  0.54180608393E+01  0.18138687036E+02  0.00000000000E+00 0.  1.
</event>
<event>
 8    1  0.3137106E-007  0.9118800E+02  0.7816164E-02  0.1184000E+00
        -11   -1    0    0    0    0  0.00000000000E+00  0.00000000000E+00  0.45593999997E+02  0.45594000000E+02  0.51100000000E-03 0. -1.
         11   -1    0    0    0    0 -0.00000000000E+00 -0.00000000000E+00 -0.45593999997E+02  0.45594000000E+02  0.51100000000E-03 0.  1.
         23    2    1    2    0    0  0.00000000000E+00  0.88817841970E-15 -0.35527136788E-14  0.91188000000E+02  0.91188000000E+02 0.  0.
    9900012    2    3    3    0    0  0.23271540433E+02 -0.25719540065E+01  0.28418358115E+02  0.54367046461E+02  0.39999914018E+02 0.  0.
        -12    1    3    3    0    0 -0.23271540433E+02  0.25719540065E+01 -0.28418358115E+02  0.36820953539E+02  0.00000000000E+00 0.  1.
         11    1    4    4    0    0  0.14165334341E+02 -0.15040591019E+02  0.12111142026E+02  0.23949025797E+02  0.51100000000E-03 0. -1.
        -11    1    4    4    0    0  0.96008937087E+01  0.37048083803E+01 -0.16574774014E+01  0.10423530915E+02  0.51100000000E-03 0.  1.
        -12    1    4    4    0    0 -0.49468761676E+00  0.87638286319E+01  0.17964693491E+02  0.19994489750E+02  0.00000000000E+00 0.  1.
</event>
<event>
 8    1  0.3137106E-007  0.9118800E+02  0.7816164E-02  0.1184000E+00
        -11   -1    0    0    0    0  0.00000000000E+00  0.00000000000E+00  0.45593999997E+02  0.45594000000E+02  0.51100000000E-03 0.  1.
         11   -1    0    0    0    0 -0.00000000000E+00 -0.00000000000E+00 -0.45593999997E+02  0.45594000000E+02  0.51100000000E-03 0. -1.
         23    2    1    2    0    0  0.26645352591E-14  0.00000000000E+00  0.71054273576E-14  0.91188000000E+02  0.91188000000E+02 0.  0.
    9900012    2    3    3    0    0 -0.79510300831E+01  0.19893992994E+02  0.29946462669E+02  0.54367075745E+02  0.39999980775E+02 0.  0.
         12    1    3    3    0    0  0.79510300831E+01 -0.19893992994E+02 -0.29946462669E+02  0.36820924255E+02  0.00000000000E+00 0. -1.
         11    1    4    4    0    0 -0.12159330225E+02  0.12849080775E+02  0.36551554856E+02  0.40607442064E+02  0.51100000000E-03 0.  1.
        -11    1    4    4    0    0  0.20059298855E+01 -0.19431012178E+01 -0.11720871482E+01  0.30287267279E+01  0.51100000000E-03 0. -1.
        -12    1    4    4    0    0  0.22023702564E+01  0.89880134368E+01 -0.54330050388E+01  0.10730906953E+02  0.00000000000E+00 0.  1.
</event>
<event>
 8    1  0.3137106E-007  0.9118800E+02  0.7816164E-02  0.1184000E+00
        -11   -1    0    0    0    0  0.00000000000E+00  0.00000000000E+00  0.45593999997E+02  0.45594000000E+02  0.51100000000E-03 0. -1.
         11   -1    0    0    0    0 -0.00000000000E+00 -0.00000000000E+00 -0.45593999997E+02  0.45594000000E+02  0.51100000000E-03 0.  1.
         23    2    1    2    0    0  0.00000000000E+00  0.00000000000E+00  0.71054273576E-14  0.91188000000E+02  0.91188000000E+02 0.  0.
    9900012    2    3    3    0    0 -0.92400007999E+01  0.10364286952E+02  0.34102492182E+02  0.54367135917E+02  0.40000117949E+02 0.  0.
        -12    1    3    3    0    0  0.92400007999E+01 -0.10364286952E+02 -0.34102492182E+02  0.36820864083E+02  0.00000000000E+00 0.  1.
         11    1    4    4    0    0 -0.45364609300E+01  0.39547334133E+01  0.11838458576E+02  0.13280380110E+02  0.51100000000E-03 0. -1.
        -11    1    4    4    0    0  0.62623819946E+01 -0.11719469805E+02  0.74473569066E+01  0.15232416942E+02  0.51100000000E-03 0.  1.
        -12    1    4    4    0    0 -0.10965921865E+02  0.18129023343E+02  0.14816676699E+02  0.25854338865E+02  0.00000000000E+00 0.  1.
</event>
<event>
 8    1  0.3137106E-007  0.9118800E+02  0.7816164E-02  0.1184000E+00
        -11   -1    0    0    0    0  0.00000000000E+00  0.00000000000E+00  0.45593999997E+02  0.45594000000E+02  0.51100000000E-03 0. -1.
         11   -1    0    0    0    0 -0.00000000000E+00 -0.00000000000E+00 -0.45593999997E+02  0.45594000000E+02  0.51100000000E-03 0.  1.
         23    2    1    2    0    0 -0.71054273576E-14 -0.88817841970E-15  0.00000000000E+00  0.91188000000E+02  0.91188000000E+02 0.  0.
    9900012    2    3    3    0    0 -0.22444565687E+02  0.64642098809E+01  0.28464648309E+02  0.54367071961E+02  0.39999972150E+02 0.  0.
        -12    1    3    3    0    0  0.22444565687E+02 -0.64642098809E+01 -0.28464648309E+02  0.36820928039E+02  0.00000000000E+00 0.  1.
         11    1    4    4    0    0 -0.28252430248E+02  0.52322102285E+01  0.18781741030E+02  0.34326806364E+02  0.51100000000E-03 0. -1.
        -11    1    4    4    0    0  0.43882172903E+01  0.84283378906E+01  0.26183517855E+01  0.98564241447E+01  0.51100000000E-03 0.  1.
        -12    1    4    4    0    0  0.14196472706E+01 -0.71963382382E+01  0.70645554932E+01  0.10183841452E+02  0.00000000000E+00 0.  1.
</event>
<event>
 8    1  0.3137106E-007  0.9118800E+02  0.7816164E-02  0.1184000E+00
        -11   -1    0    0    0    0  0.00000000000E+00  0.00000000000E+00  0.45593999997E+02  0.45594000000E+02  0.51100000000E-03 0. -1.
         11   -1    0    0    0    0 -0.00000000000E+00 -0.00000000000E+00 -0.45593999997E+02  0.45594000000E+02  0.51100000000E-03 0.  1.
         23    2    1    2    0    0  0.00000000000E+00 -0.71054273576E-14 -0.17763568394E-14  0.91188000000E+02  0.91188000000E+02 0.  0.
    9900012    2    3    3    0    0  0.26926467543E+01 -0.33550284265E+02 -0.14930096146E+02  0.54367086218E+02  0.40000004651E+02 0.  0.
         12    1    3    3    0    0 -0.26926467543E+01  0.33550284265E+02  0.14930096146E+02  0.36820913782E+02  0.00000000000E+00 0. -1.
         11    1    4    4    0    0  0.56998860802E+01 -0.25005192493E+00 -0.17859937350E+02  0.18749095703E+02  0.51100000000E-03 0. -1.
        -11    1    4    4    0    0 -0.29971098368E+01 -0.10442450457E+02  0.62293890861E+01  0.12523287410E+02  0.51100000000E-03 0.  1.
        -12    1    4    4    0    0 -0.10129489130E-01 -0.22857781884E+02 -0.32995478817E+01  0.23094703104E+02  0.00000000000E+00 0.  1.
</event>
<event>
 8    1  0.3137106E-007  0.9118800E+02  0.7816164E-02  0.1184000E+00
        -11   -1    0    0    0    0  0.00000000000E+00  0.00000000000E+00  0.45593999997E+02  0.45594000000E+02  0.51100000000E-03 0. -1.
         11   -1    0    0    0    0 -0.00000000000E+00 -0.00000000000E+00 -0.45593999997E+02  0.45594000000E+02  0.51100000000E-03 0.  1.
         23    2    1    2    0    0  0.00000000000E+00  0.17763568394E-14  0.00000000000E+00  0.91188000000E+02  0.91188000000E+02 0.  0.
    9900012    2    3    3    0    0 -0.33950083400E+02  0.92066209464E+01 -0.10881571431E+02  0.54367100650E+02  0.40000037553E+02 0.  0.
        -12    1    3    3    0    0  0.33950083400E+02 -0.92066209464E+01  0.10881571431E+02  0.36820899350E+02  0.00000000000E+00 0.  1.
         11    1    4    4    0    0 -0.81803492934E+01  0.35640143589E+00  0.10328569757E+01  0.82529952344E+01  0.51100000000E-03 0. -1.
        -11    1    4    4    0    0 -0.23487838180E+02 -0.99233695106E+01 -0.50382510660E+01  0.25991071138E+02  0.51100000000E-03 0.  1.
        -12    1    4    4    0    0 -0.22818959265E+01  0.18773589021E+02 -0.68761773404E+01  0.20123034278E+02  0.00000000000E+00 0.  1.
</event>
<event>
 8    1  0.3137106E-007  0.9118800E+02  0.7816164E-02  0.1184000E+00
        -11   -1    0    0    0    0  0.00000000000E+00  0.00000000000E+00  0.45593999997E+02  0.45594000000E+02  0.51100000000E-03 0.  1.
         11   -1    0    0    0    0 -0.00000000000E+00 -0.00000000000E+00 -0.45593999997E+02  0.45594000000E+02  0.51100000000E-03 0. -1.
         23    2    1    2    0    0  0.35527136788E-14  0.00000000000E+00  0.11102230246E-14  0.91188000000E+02  0.91188000000E+02 0.  0.
    9900012    2    3    3    0    0  0.28684142022E+02 -0.23042323689E+02 -0.14326022692E+01  0.54367067994E+02  0.39999963105E+02 0.  0.
         12    1    3    3    0    0 -0.28684142022E+02  0.23042323689E+02  0.14326022692E+01  0.36820932006E+02  0.00000000000E+00 0. -1.
         11    1    4    4    0    0  0.62175015164E+01  0.56656877322E+01 -0.27521644151E+00  0.84162394771E+01  0.51100000000E-03 0. -1.
        -11    1    4    4    0    0  0.26674529744E+02 -0.19056836519E+02 -0.75402981572E+01  0.33638514411E+02  0.51100000000E-03 0.  1.
         12    1    4    4    0    0 -0.42078892386E+01 -0.96511749019E+01  0.63829123295E+01  0.12312314106E+02  0.00000000000E+00 0. -1.
</event>
<event>
 8    1  0.3137106E-007  0.9118800E+02  0.7816164E-02  0.1184000E+00
        -11   -1    0    0    0    0  0.00000000000E+00  0.00000000000E+00  0.45593999997E+02  0.45594000000E+02  0.51100000000E-03 0. -1.
         11   -1    0    0    0    0 -0.00000000000E+00 -0.00000000000E+00 -0.45593999997E+02  0.45594000000E+02  0.51100000000E-03 0.  1.
         23    2    1    2    0    0 -0.88817841970E-15  0.88817841970E-15  0.00000000000E+00  0.91188000000E+02  0.91188000000E+02 0.  0.
    9900012    2    3    3    0    0 -0.42010490714E+01  0.54361354376E+01 -0.36174310273E+02  0.54367067020E+02  0.39999960885E+02 0.  0.
         12    1    3    3    0    0  0.42010490714E+01 -0.54361354376E+01  0.36174310273E+02  0.36820932980E+02  0.00000000000E+00 0. -1.
         11    1    4    4    0    0 -0.35549652558E+01 -0.13170974873E+01 -0.11315682427E+02  0.11933867471E+02  0.51100000000E-03 0. -1.
        -11    1    4    4    0    0 -0.39595595534E+01  0.45914966420E+01 -0.32909192020E+02  0.33463037414E+02  0.51100000000E-03 0.  1.
         12    1    4    4    0    0  0.33134757377E+01  0.21617362830E+01  0.80505641736E+01  0.89701621354E+01  0.00000000000E+00 0. -1.
</event>
<event>
 8    1  0.3137106E-007  0.9118800E+02  0.7816164E-02  0.1184000E+00
        -11   -1    0    0    0    0  0.00000000000E+00  0.00000000000E+00  0.45593999997E+02  0.45594000000E+02  0.51100000000E-03 0.  1.
         11   -1    0    0    0    0 -0.00000000000E+00 -0.00000000000E+00 -0.45593999997E+02  0.45594000000E+02  0.51100000000E-03 0. -1.
         23    2    1    2    0    0  0.35527136788E-14 -0.17763568394E-14  0.00000000000E+00  0.91188000000E+02  0.91188000000E+02 0.  0.
    9900012    2    3    3    0    0 -0.11309484651E+02  0.12448509307E+02 -0.32755289301E+02  0.54367098270E+02  0.40000032126E+02 0.  0.
        -12    1    3    3    0    0  0.11309484651E+02 -0.12448509307E+02  0.32755289301E+02  0.36820901730E+02  0.00000000000E+00 0.  1.
         11    1    4    4    0    0 -0.10457815063E+02  0.18078032384E+02 -0.74902757366E+01  0.22187505079E+02  0.51100000000E-03 0. -1.
        -11    1    4    4    0    0 -0.34785513193E+01 -0.81565777473E+01 -0.26796725067E+02  0.28225778189E+02  0.51100000000E-03 0.  1.
        -12    1    4    4    0    0  0.26268817317E+01  0.25270546705E+01  0.15317115027E+01  0.39538150017E+01  0.00000000000E+00 0.  1.
</event>
<event>
 8    1  0.3137106E-007  0.9118800E+02  0.7816164E-02  0.1184000E+00
        -11   -1    0    0    0    0  0.00000000000E+00  0.00000000000E+00  0.45593999997E+02  0.45594000000E+02  0.51100000000E-03 0. -1.
         11   -1    0    0    0    0 -0.00000000000E+00 -0.00000000000E+00 -0.45593999997E+02  0.45594000000E+02  0.51100000000E-03 0.  1.
         23    2    1    2    0    0  0.00000000000E+00  0.00000000000E+00  0.17763568394E-14  0.91188000000E+02  0.91188000000E+02 0.  0.
    9900012    2    3    3    0    0 -0.34817729577E+02 -0.28671626068E+01 -0.11631217366E+02  0.54367080243E+02  0.39999991031E+02 0.  0.
         12    1    3    3    0    0  0.34817729577E+02  0.28671626068E+01  0.11631217366E+02  0.36820919757E+02  0.00000000000E+00 0. -1.
         11    1    4    4    0    0  0.27323843072E+01  0.57213836318E+01  0.35956201107E+01  0.72889394912E+01  0.51100000000E-03 0. -1.
        -11    1    4    4    0    0  0.29042552712E+01 -0.18307511183E+00 -0.25214145393E+01  0.38504216284E+01  0.51100000000E-03 0.  1.
         12    1    4    4    0    0 -0.40454369155E+02 -0.84054711268E+01 -0.12705422937E+02  0.43227719124E+02  0.00000000000E+00 0. -1.
</event>
<event>
 8    1  0.3137106E-007  0.9118800E+02  0.7816164E-02  0.1184000E+00
        -11   -1    0    0    0    0  0.00000000000E+00  0.00000000000E+00  0.45593999997E+02  0.45594000000E+02  0.51100000000E-03 0. -1.
         11   -1    0    0    0    0 -0.00000000000E+00 -0.00000000000E+00 -0.45593999997E+02  0.45594000000E+02  0.51100000000E-03 0.  1.
         23    2    1    2    0    0  0.00000000000E+00  0.13322676296E-14 -0.35527136788E-14  0.91188000000E+02  0.91188000000E+02 0.  0.
    9900012    2    3    3    0    0  0.29027835693E+02  0.24595799586E+01  0.22519192913E+02  0.54367097946E+02  0.40000031388E+02 0.  0.
        -12    1    3    3    0    0 -0.29027835693E+02 -0.24595799586E+01 -0.22519192913E+02  0.36820902054E+02  0.00000000000E+00 0.  1.
         11    1    4    4    0    0 -0.25600538109E+01 -0.77463510362E+01  0.27420515471E+01  0.86068970505E+01  0.51100000000E-03 0.  1.
        -11    1    4    4    0    0  0.51478310249E+01  0.13402692108E+02  0.94880671968E+01  0.17209176024E+02  0.51100000000E-03 0. -1.
         12    1    4    4    0    0  0.26440058479E+02 -0.31967611137E+01  0.10289074169E+02  0.28551024872E+02  0.00000000000E+00 0. -1.
</event>
<event>
 8    1  0.3137106E-007  0.9118800E+02  0.7816164E-02  0.1184000E+00
        -11   -1    0    0    0    0  0.00000000000E+00  0.00000000000E+00  0.45593999997E+02  0.45594000000E+02  0.51100000000E-03 0. -1.
         11   -1    0    0    0    0 -0.00000000000E+00 -0.00000000000E+00 -0.45593999997E+02  0.45594000000E+02  0.51100000000E-03 0.  1.
         23    2    1    2    0    0  0.00000000000E+00  0.00000000000E+00  0.00000000000E+00  0.91188000000E+02  0.91188000000E+02 0.  0.
    9900012    2    3    3    0    0 -0.12087632275E+02 -0.23409618270E+02 -0.25722723071E+02  0.54367087956E+02  0.40000008613E+02 0.  0.
         12    1    3    3    0    0  0.12087632275E+02  0.23409618270E+02  0.25722723071E+02  0.36820912044E+02  0.00000000000E+00 0. -1.
         11    1    4    4    0    0 -0.11969073458E+02 -0.12155990413E+02 -0.18479463193E+02  0.25149898261E+02  0.51100000000E-03 0. -1.
        -11    1    4    4    0    0 -0.10882686341E+02 -0.12306925940E+02 -0.81966831269E+01  0.18359708675E+02  0.51100000000E-03 0.  1.
        -12    1    4    4    0    0  0.10764127524E+02  0.10532980828E+01  0.95342324857E+00  0.10857481020E+02  0.00000000000E+00 0.  1.
</event>
<event>
 8    1  0.3137106E-007  0.9118800E+02  0.7816164E-02  0.1184000E+00
        -11   -1    0    0    0    0  0.00000000000E+00  0.00000000000E+00  0.45593999997E+02  0.45594000000E+02  0.51100000000E-03 0.  1.
         11   -1    0    0    0    0 -0.00000000000E+00 -0.00000000000E+00 -0.45593999997E+02  0.45594000000E+02  0.51100000000E-03 0. -1.
         23    2    1    2    0    0  0.35527136788E-14 -0.88817841970E-15  0.35527136788E-14  0.91188000000E+02  0.91188000000E+02 0.  0.
    9900012    2    3    3    0    0 -0.17665814698E+02  0.57114196573E+01  0.31797451953E+02  0.54367091889E+02  0.40000017578E+02 0.  0.
         12    1    3    3    0    0  0.17665814698E+02 -0.57114196573E+01 -0.31797451953E+02  0.36820908111E+02  0.00000000000E+00 0. -1.
         11    1    4    4    0    0 -0.93197869942E+01 -0.83606663684E+00  0.37617067024E+02  0.38763399861E+02  0.51100000000E-03 0.  1.
        -11    1    4    4    0    0 -0.57763662611E+01 -0.41958128788E+00 -0.57734181848E+01  0.81777022101E+01  0.51100000000E-03 0. -1.
        -12    1    4    4    0    0 -0.25696614427E+01  0.69670675820E+01 -0.46196885654E-01  0.74259898179E+01  0.00000000000E+00 0.  1.
</event>
<event>
 8    1  0.3137106E-007  0.9118800E+02  0.7816164E-02  0.1184000E+00
        -11   -1    0    0    0    0  0.00000000000E+00  0.00000000000E+00  0.45593999997E+02  0.45594000000E+02  0.51100000000E-03 0. -1.
         11   -1    0    0    0    0 -0.00000000000E+00 -0.00000000000E+00 -0.45593999997E+02  0.45594000000E+02  0.51100000000E-03 0.  1.
         23    2    1    2    0    0  0.00000000000E+00  0.00000000000E+00  0.00000000000E+00  0.91188000000E+02  0.91188000000E+02 0.  0.
    9900012    2    3    3    0    0  0.27783229251E+02 -0.23931806737E+02  0.33376606185E+01  0.54367093171E+02  0.40000020502E+02 0.  0.
        -12    1    3    3    0    0 -0.27783229251E+02  0.23931806737E+02 -0.33376606185E+01  0.36820906829E+02  0.00000000000E+00 0.  1.
         11    1    4    4    0    0  0.26819908783E+02 -0.34749044889E+01 -0.12025527943E+01  0.27070807188E+02  0.51100000000E-03 0. -1.
        -11    1    4    4    0    0  0.74646700159E+01 -0.17402514991E+02  0.26613676761E+00  0.18937783806E+02  0.51100000000E-03 0.  1.
         12    1    4    4    0    0 -0.65013495481E+01 -0.30543872573E+01  0.42740766452E+01  0.83585021764E+01  0.00000000000E+00 0. -1.
</event>
<event>
 8    1  0.3137106E-007  0.9118800E+02  0.7816164E-02  0.1184000E+00
        -11   -1    0    0    0    0  0.00000000000E+00  0.00000000000E+00  0.45593999997E+02  0.45594000000E+02  0.51100000000E-03 0.  1.
         11   -1    0    0    0    0 -0.00000000000E+00 -0.00000000000E+00 -0.45593999997E+02  0.45594000000E+02  0.51100000000E-03 0. -1.
         23    2    1    2    0    0  0.00000000000E+00 -0.17763568394E-14  0.00000000000E+00  0.91188000000E+02  0.91188000000E+02 0.  0.
    9900012    2    3    3    0    0  0.11895512055E+02  0.83369712254E+01  0.33834498660E+02  0.54367060362E+02  0.39999945708E+02 0.  0.
         12    1    3    3    0    0 -0.11895512055E+02 -0.83369712254E+01 -0.33834498660E+02  0.36820939638E+02  0.00000000000E+00 0. -1.
         11    1    4    4    0    0  0.24829539199E+02  0.20317873417E+01  0.11485168739E+02  0.27432522266E+02  0.51100000000E-03 0. -1.
        -11    1    4    4    0    0 -0.73289633831E+01  0.16679437564E+01  0.89474982339E+01  0.11685609336E+02  0.51100000000E-03 0.  1.
         12    1    4    4    0    0 -0.56050637614E+01  0.46372401272E+01  0.13401831687E+02  0.15248928760E+02  0.00000000000E+00 0. -1.
</event>
<event>
 8    1  0.3137106E-007  0.9118800E+02  0.7816164E-02  0.1184000E+00
        -11   -1    0    0    0    0  0.00000000000E+00  0.00000000000E+00  0.45593999997E+02  0.45594000000E+02  0.51100000000E-03 0.  1.
         11   -1    0    0    0    0 -0.00000000000E+00 -0.00000000000E+00 -0.45593999997E+02  0.45594000000E+02  0.51100000000E-03 0. -1.
         23    2    1    2    0    0  0.17763568394E-14  0.00000000000E+00  0.44408920985E-15  0.91188000000E+02  0.91188000000E+02 0.  0.
    9900012    2    3    3    0    0 -0.11655968634E+02 -0.34896523344E+02 -0.14662681585E+01  0.54367097124E+02  0.40000029513E+02 0.  0.
        -12    1    3    3    0    0  0.11655968634E+02  0.34896523344E+02  0.14662681585E+01  0.36820902876E+02  0.00000000000E+00 0.  1.
         11    1    4    4    0    0 -0.90416579739E+01 -0.11228893009E+00  0.73223152326E+01  0.11635312129E+02  0.51100000000E-03 0. -1.
        -11    1    4    4    0    0 -0.83933790608E+01 -0.25362748550E+01  0.16102497314E+00  0.87696882215E+01  0.51100000000E-03 0.  1.
         12    1    4    4    0    0  0.57790684011E+01 -0.32247959559E+02 -0.89496083643E+01  0.33962096773E+02  0.00000000000E+00 0. -1.
</event>
<event>
 8    1  0.3137106E-007  0.9118800E+02  0.7816164E-02  0.1184000E+00
        -11   -1    0    0    0    0  0.00000000000E+00  0.00000000000E+00  0.45593999997E+02  0.45594000000E+02  0.51100000000E-03 0.  1.
         11   -1    0    0    0    0 -0.00000000000E+00 -0.00000000000E+00 -0.45593999997E+02  0.45594000000E+02  0.51100000000E-03 0. -1.
         23    2    1    2    0    0  0.00000000000E+00  0.35527136788E-14  0.17763568394E-14  0.91188000000E+02  0.91188000000E+02 0.  0.
    9900012    2    3    3    0    0 -0.20962990566E+02  0.26074338190E+02 -0.15377325407E+02  0.54367079015E+02  0.39999988230E+02 0.  0.
        -12    1    3    3    0    0  0.20962990566E+02 -0.26074338190E+02  0.15377325407E+02  0.36820920985E+02  0.00000000000E+00 0.  1.
         11    1    4    4    0    0 -0.49328500295E+01 -0.78971240350E+01 -0.51408905594E+01  0.10636086378E+02  0.51100000000E-03 0. -1.
        -11    1    4    4    0    0 -0.65343337262E+01  0.11454673022E+02 -0.13739287791E+02  0.19044030051E+02  0.51100000000E-03 0.  1.
        -12    1    4    4    0    0 -0.94958068105E+01  0.22516789203E+02  0.35028529440E+01  0.24686962586E+02  0.00000000000E+00 0.  1.
</event>
<event>
 8    1  0.3137106E-007  0.9118800E+02  0.7816164E-02  0.1184000E+00
        -11   -1    0    0    0    0  0.00000000000E+00  0.00000000000E+00  0.45593999997E+02  0.45594000000E+02  0.51100000000E-03 0. -1.
         11   -1    0    0    0    0 -0.00000000000E+00 -0.00000000000E+00 -0.45593999997E+02  0.45594000000E+02  0.51100000000E-03 0.  1.
         23    2    1    2    0    0 -0.88817841970E-15  0.00000000000E+00 -0.17763568394E-14  0.91188000000E+02  0.91188000000E+02 0.  0.
    9900012    2    3    3    0    0  0.39180435117E+01  0.32933847175E+02  0.15993456712E+02  0.54367081865E+02  0.39999994728E+02 0.  0.
        -12    1    3    3    0    0 -0.39180435117E+01 -0.32933847175E+02 -0.15993456712E+02  0.36820918135E+02  0.00000000000E+00 0.  1.
         11    1    4    4    0    0  0.13066877220E+01  0.35834283941E+02  0.24180247916E+02  0.43249135574E+02  0.51100000000E-03 0. -1.
        -11    1    4    4    0    0  0.33856169286E+01  0.89792895376E+00 -0.28157865427E+01  0.44941442465E+01  0.51100000000E-03 0.  1.
         12    1    4    4    0    0 -0.77426113883E+00 -0.37983657198E+01 -0.53710046613E+01  0.66238020445E+01  0.00000000000E+00 0. -1.
</event>
<event>
 8    1  0.3137106E-007  0.9118800E+02  0.7816164E-02  0.1184000E+00
        -11   -1    0    0    0    0  0.00000000000E+00  0.00000000000E+00  0.45593999997E+02  0.45594000000E+02  0.51100000000E-03 0.  1.
         11   -1    0    0    0    0 -0.00000000000E+00 -0.00000000000E+00 -0.45593999997E+02  0.45594000000E+02  0.51100000000E-03 0. -1.
         23    2    1    2    0    0  0.17763568394E-14  0.00000000000E+00  0.00000000000E+00  0.91188000000E+02  0.91188000000E+02 0.  0.
    9900012    2    3    3    0    0  0.97125444326E+01  0.16760923585E+02 -0.31313216769E+02  0.54367087149E+02  0.40000006773E+02 0.  0.
         12    1    3    3    0    0 -0.97125444326E+01 -0.16760923585E+02  0.31313216769E+02  0.36820912851E+02  0.00000000000E+00 0. -1.
         11    1    4    4    0    0  0.68701883418E+01 -0.34002773521E+01 -0.15414656692E+01  0.78190466550E+01  0.51100000000E-03 0. -1.
        -11    1    4    4    0    0  0.15406419129E+02  0.65504309591E+01 -0.10214970372E+02  0.19611514885E+02  0.51100000000E-03 0.  1.
         12    1    4    4    0    0 -0.12564063038E+02  0.13610769978E+02 -0.19556780727E+02  0.26936525608E+02  0.00000000000E+00 0. -1.
</event>
<event>
 8    1  0.3137106E-007  0.9118800E+02  0.7816164E-02  0.1184000E+00
        -11   -1    0    0    0    0  0.00000000000E+00  0.00000000000E+00  0.45593999997E+02  0.45594000000E+02  0.51100000000E-03 0.  1.
         11   -1    0    0    0    0 -0.00000000000E+00 -0.00000000000E+00 -0.45593999997E+02  0.45594000000E+02  0.51100000000E-03 0. -1.
         23    2    1    2    0    0  0.00000000000E+00  0.00000000000E+00 -0.35527136788E-14  0.91188000000E+02  0.91188000000E+02 0.  0.
    9900012    2    3    3    0    0 -0.18218125604E+02 -0.14058360412E+02 -0.28744420795E+02  0.54367091200E+02  0.40000016008E+02 0.  0.
        -12    1    3    3    0    0  0.18218125604E+02  0.14058360412E+02  0.28744420795E+02  0.36820908800E+02  0.00000000000E+00 0.  1.
         11    1    4    4    0    0 -0.53426336338E+01  0.75002295515E+01 -0.71736244786E+01  0.11672963030E+02  0.51100000000E-03 0.  1.
        -11    1    4    4    0    0 -0.98037624126E+01 -0.96882701740E+01 -0.26186839221E+02  0.29592682965E+02  0.51100000000E-03 0. -1.
        -12    1    4    4    0    0 -0.30717295578E+01 -0.11870319790E+02  0.46160429041E+01  0.13101445206E+02  0.00000000000E+00 0.  1.
</event>
<event>
 8    1  0.3137106E-007  0.9118800E+02  0.7816164E-02  0.1184000E+00
        -11   -1    0    0    0    0  0.00000000000E+00  0.00000000000E+00  0.45593999997E+02  0.45594000000E+02  0.51100000000E-03 0. -1.
         11   -1    0    0    0    0 -0.00000000000E+00 -0.00000000000E+00 -0.45593999997E+02  0.45594000000E+02  0.51100000000E-03 0.  1.
         23    2    1    2    0    0  0.00000000000E+00  0.00000000000E+00  0.17763568394E-14  0.91188000000E+02  0.91188000000E+02 0.  0.
    9900012    2    3    3    0    0  0.36650156707E+01  0.35352931732E+02  0.96185945356E+01  0.54367089056E+02  0.40000011121E+02 0.  0.
         12    1    3    3    0    0 -0.36650156707E+01 -0.35352931732E+02 -0.96185945356E+01  0.36820910944E+02  0.00000000000E+00 0. -1.
         11    1    4    4    0    0  0.32494140032E+01 -0.54986422258E+01 -0.51519702355E+01  0.82058854038E+01  0.51100000000E-03 0. -1.
        -11    1    4    4    0    0  0.35313231959E+01  0.13263600781E+02 -0.17775200212E+01  0.13840264697E+02  0.51100000000E-03 0.  1.
         12    1    4    4    0    0 -0.31157215284E+01  0.27587973177E+02  0.16548084792E+02  0.32320938955E+02  0.00000000000E+00 0. -1.
</event>
<event>
 8    1  0.3137106E-007  0.9118800E+02  0.7816164E-02  0.1184000E+00
        -11   -1    0    0    0    0  0.00000000000E+00  0.00000000000E+00  0.45593999997E+02  0.45594000000E+02  0.51100000000E-03 0. -1.
         11   -1    0    0    0    0 -0.00000000000E+00 -0.00000000000E+00 -0.45593999997E+02  0.45594000000E+02  0.51100000000E-03 0.  1.
         23    2    1    2    0    0  0.35527136788E-14  0.00000000000E+00  0.17763568394E-14  0.91188000000E+02  0.91188000000E+02 0.  0.
    9900012    2    3    3    0    0 -0.24708334726E+02 -0.22797448917E+02 -0.15018468286E+02  0.54367083774E+02  0.39999999080E+02 0.  0.
         12    1    3    3    0    0  0.24708334726E+02  0.22797448917E+02  0.15018468286E+02  0.36820916226E+02  0.00000000000E+00 0. -1.
         11    1    4    4    0    0 -0.14706183792E+02  0.20497022504E+01 -0.12266545031E+01  0.14898919510E+02  0.51100000000E-03 0. -1.
        -11    1    4    4    0    0 -0.14836706860E+02 -0.27299618697E+02 -0.93137192429E+01  0.32436744871E+02  0.51100000000E-03 0.  1.
        -12    1    4    4    0    0  0.48345559252E+01  0.24524675296E+01 -0.44780945400E+01  0.70314193935E+01  0.00000000000E+00 0.  1.
</event>
<event>
 8    1  0.3137106E-007  0.9118800E+02  0.7816164E-02  0.1184000E+00
        -11   -1    0    0    0    0  0.00000000000E+00  0.00000000000E+00  0.45593999997E+02  0.45594000000E+02  0.51100000000E-03 0. -1.
         11   -1    0    0    0    0 -0.00000000000E+00 -0.00000000000E+00 -0.45593999997E+02  0.45594000000E+02  0.51100000000E-03 0.  1.
         23    2    1    2    0    0 -0.88817841970E-15 -0.71054273576E-14  0.00000000000E+00  0.91188000000E+02  0.91188000000E+02 0.  0.
    9900012    2    3    3    0    0  0.56674616297E+01  0.33128433517E+02  0.15038840097E+02  0.54367082846E+02  0.39999996963E+02 0.  0.
         12    1    3    3    0    0 -0.56674616297E+01 -0.33128433517E+02 -0.15038840097E+02  0.36820917154E+02  0.00000000000E+00 0. -1.
         11    1    4    4    0    0  0.98645356010E+01  0.19249325354E+02  0.11054556597E+02  0.24290920341E+02  0.51100000000E-03 0. -1.
        -11    1    4    4    0    0  0.26484906188E+01 -0.68494596301E+01  0.37488402811E+01  0.82452048791E+01  0.51100000000E-03 0.  1.
         12    1    4    4    0    0 -0.68455645901E+01  0.20728567793E+02  0.23544321871E+00  0.21830957625E+02  0.00000000000E+00 0. -1.
</event>
<event>
 8    1  0.3137106E-007  0.9118800E+02  0.7816164E-02  0.1184000E+00
        -11   -1    0    0    0    0  0.00000000000E+00  0.00000000000E+00  0.45593999997E+02  0.45594000000E+02  0.51100000000E-03 0. -1.
         11   -1    0    0    0    0 -0.00000000000E+00 -0.00000000000E+00 -0.45593999997E+02  0.45594000000E+02  0.51100000000E-03 0.  1.
         23    2    1    2    0    0 -0.35527136788E-14  0.00000000000E+00  0.00000000000E+00  0.91188000000E+02  0.91188000000E+02 0.  0.
    9900012    2    3    3    0    0  0.30752461495E+02 -0.11395255893E+02  0.16739581088E+02  0.54367091267E+02  0.40000016162E+02 0.  0.
         12    1    3    3    0    0 -0.30752461495E+02  0.11395255893E+02 -0.16739581088E+02  0.36820908733E+02  0.00000000000E+00 0. -1.
         11    1    4    4    0    0  0.60146359557E+01 -0.15893173170E+02  0.43195651115E+01  0.17533608929E+02  0.51100000000E-03 0. -1.
        -11    1    4    4    0    0  0.17584792532E+02 -0.38785996056E+01 -0.26138583065E+01  0.18196173191E+02  0.51100000000E-03 0.  1.
        -12    1    4    4    0    0  0.71530330077E+01  0.83765168818E+01  0.15033874283E+02  0.18637309147E+02  0.00000000000E+00 0.  1.
</event>
<event>
 8    1  0.3137106E-007  0.9118800E+02  0.7816164E-02  0.1184000E+00
        -11   -1    0    0    0    0  0.00000000000E+00  0.00000000000E+00  0.45593999997E+02  0.45594000000E+02  0.51100000000E-03 0.  1.
         11   -1    0    0    0    0 -0.00000000000E+00 -0.00000000000E+00 -0.45593999997E+02  0.45594000000E+02  0.51100000000E-03 0. -1.
         23    2    1    2    0    0  0.00000000000E+00  0.35527136788E-14 -0.17763568394E-14  0.91188000000E+02  0.91188000000E+02 0.  0.
    9900012    2    3    3    0    0 -0.19984754949E+02 -0.27292047930E+02  0.14544202794E+02  0.54367080057E+02  0.39999990605E+02 0.  0.
         12    1    3    3    0    0  0.19984754949E+02  0.27292047930E+02 -0.14544202794E+02  0.36820919943E+02  0.00000000000E+00 0. -1.
         11    1    4    4    0    0 -0.17487422405E+02 -0.10692677243E+02  0.96333379120E+01  0.22648277828E+02  0.51100000000E-03 0.  1.
        -11    1    4    4    0    0  0.99379364945E+01 -0.15774183986E+02  0.48165786934E+01  0.19255827502E+02  0.51100000000E-03 0. -1.
         12    1    4    4    0    0 -0.12435269039E+02 -0.82518670075E+00  0.94286188304E-01  0.12462974727E+02  0.00000000000E+00 0. -1.
</event>
<event>
 8    1  0.3137106E-007  0.9118800E+02  0.7816164E-02  0.1184000E+00
        -11   -1    0    0    0    0  0.00000000000E+00  0.00000000000E+00  0.45593999997E+02  0.45594000000E+02  0.51100000000E-03 0.  1.
         11   -1    0    0    0    0 -0.00000000000E+00 -0.00000000000E+00 -0.45593999997E+02  0.45594000000E+02  0.51100000000E-03 0. -1.
         23    2    1    2    0    0  0.00000000000E+00  0.00000000000E+00 -0.35527136788E-14  0.91188000000E+02  0.91188000000E+02 0.  0.
    9900012    2    3    3    0    0 -0.23373833886E+02  0.88479525367E+01  0.27039942348E+02  0.54367070398E+02  0.39999968586E+02 0.  0.
         12    1    3    3    0    0  0.23373833886E+02 -0.88479525367E+01 -0.27039942348E+02  0.36820929602E+02  0.00000000000E+00 0. -1.
         11    1    4    4    0    0 -0.18198226991E+02  0.75647503696E+01  0.20356948675E+02  0.28333836193E+02  0.51100000000E-03 0. -1.
        -11    1    4    4    0    0  0.65141396729E+01  0.68717109033E+01  0.87738396831E+01  0.12908705956E+02  0.51100000000E-03 0.  1.
         12    1    4    4    0    0 -0.11689746568E+02 -0.55885087362E+01 -0.20908460107E+01  0.13124528249E+02  0.00000000000E+00 0. -1.
</event>
<event>
 8    1  0.3137106E-007  0.9118800E+02  0.7816164E-02  0.1184000E+00
        -11   -1    0    0    0    0  0.00000000000E+00  0.00000000000E+00  0.45593999997E+02  0.45594000000E+02  0.51100000000E-03 0. -1.
         11   -1    0    0    0    0 -0.00000000000E+00 -0.00000000000E+00 -0.45593999997E+02  0.45594000000E+02  0.51100000000E-03 0.  1.
         23    2    1    2    0    0 -0.35527136788E-14  0.00000000000E+00 -0.35527136788E-14  0.91188000000E+02  0.91188000000E+02 0.  0.
    9900012    2    3    3    0    0  0.19985968423E+02  0.34734157984E+01 -0.30728963843E+02  0.54367180211E+02  0.40000218926E+02 0.  0.
         12    1    3    3    0    0 -0.19985968423E+02 -0.34734157984E+01  0.30728963843E+02  0.36820819789E+02  0.00000000000E+00 0. -1.
         11    1    4    4    0    0  0.17702832513E+02 -0.13459935108E+02 -0.11353359448E+02  0.24969159039E+02  0.51100000000E-03 0. -1.
        -11    1    4    4    0    0 -0.26346839251E+01  0.12093142988E+02 -0.18753937842E+02  0.22469887663E+02  0.51100000000E-03 0.  1.
         12    1    4    4    0    0  0.49178198352E+01  0.48402079182E+01 -0.62166655199E+00  0.69281335095E+01  0.00000000000E+00 0. -1.
</event>
<event>
 8    1  0.3137106E-007  0.9118800E+02  0.7816164E-02  0.1184000E+00
        -11   -1    0    0    0    0  0.00000000000E+00  0.00000000000E+00  0.45593999997E+02  0.45594000000E+02  0.51100000000E-03 0.  1.
         11   -1    0    0    0    0 -0.00000000000E+00 -0.00000000000E+00 -0.45593999997E+02  0.45594000000E+02  0.51100000000E-03 0. -1.
         23    2    1    2    0    0 -0.88817841970E-15  0.00000000000E+00  0.00000000000E+00  0.91188000000E+02  0.91188000000E+02 0.  0.
    9900012    2    3    3    0    0 -0.74130123504E+01 -0.25264772523E+02  0.25739444230E+02  0.54367075622E+02  0.39999980496E+02 0.  0.
         12    1    3    3    0    0  0.74130123504E+01  0.25264772523E+02 -0.25739444230E+02  0.36820924378E+02  0.00000000000E+00 0. -1.
         11    1    4    4    0    0  0.62206556282E+01  0.60780205153E+01 -0.31216246725E+01  0.92403155079E+01  0.51100000000E-03 0. -1.
        -11    1    4    4    0    0 -0.10044981789E+02 -0.16326388745E+02  0.14430834892E+02  0.23993783039E+02  0.51100000000E-03 0.  1.
         12    1    4    4    0    0 -0.35886861900E+01 -0.15016404293E+02  0.14430234011E+02  0.21132977075E+02  0.00000000000E+00 0. -1.
</event>
<event>
 8    1  0.3137106E-007  0.9118800E+02  0.7816164E-02  0.1184000E+00
        -11   -1    0    0    0    0  0.00000000000E+00  0.00000000000E+00  0.45593999997E+02  0.45594000000E+02  0.51100000000E-03 0.  1.
         11   -1    0    0    0    0 -0.00000000000E+00 -0.00000000000E+00 -0.45593999997E+02  0.45594000000E+02  0.51100000000E-03 0. -1.
         23    2    1    2    0    0  0.00000000000E+00 -0.35527136788E-14  0.00000000000E+00  0.91188000000E+02  0.91188000000E+02 0.  0.
    9900012    2    3    3    0    0 -0.23150513403E+02 -0.19990751597E+02  0.20498857973E+02  0.54367087485E+02  0.40000007540E+02 0.  0.
         12    1    3    3    0    0  0.23150513403E+02  0.19990751597E+02 -0.20498857973E+02  0.36820912515E+02  0.00000000000E+00 0. -1.
         11    1    4    4    0    0 -0.12078750371E+02 -0.89733504447E+01 -0.63788855479E+01  0.16343420995E+02  0.51100000000E-03 0. -1.
        -11    1    4    4    0    0 -0.10289405390E+02 -0.26859283468E+00  0.14349677475E+01  0.10392455826E+02  0.51100000000E-03 0.  1.
        -12    1    4    4    0    0 -0.78235764166E+00 -0.10748808317E+02  0.25442775774E+02  0.27631210664E+02  0.00000000000E+00 0.  1.
</event>
<event>
 8    1  0.3137106E-007  0.9118800E+02  0.7816164E-02  0.1184000E+00
        -11   -1    0    0    0    0  0.00000000000E+00  0.00000000000E+00  0.45593999997E+02  0.45594000000E+02  0.51100000000E-03 0.  1.
         11   -1    0    0    0    0 -0.00000000000E+00 -0.00000000000E+00 -0.45593999997E+02  0.45594000000E+02  0.51100000000E-03 0. -1.
         23    2    1    2    0    0  0.00000000000E+00  0.00000000000E+00  0.00000000000E+00  0.91188000000E+02  0.91188000000E+02 0.  0.
    9900012    2    3    3    0    0 -0.17097313620E+02 -0.19806671629E+02  0.25906772595E+02  0.54367038031E+02  0.39999894799E+02 0.  0.
         12    1    3    3    0    0  0.17097313620E+02  0.19806671629E+02 -0.25906772595E+02  0.36820961969E+02  0.00000000000E+00 0. -1.
         11    1    4    4    0    0 -0.40122530245E+01 -0.28470391723E+01  0.23246106414E+02  0.23761003136E+02  0.51100000000E-03 0. -1.
        -11    1    4    4    0    0 -0.10462951207E+02  0.42336855836E+00 -0.47870295744E+01  0.11513828264E+02  0.51100000000E-03 0.  1.
        -12    1    4    4    0    0 -0.26221093887E+01 -0.17383001015E+02  0.74476957557E+01  0.19092206630E+02  0.00000000000E+00 0.  1.
</event>
<event>
 8    1  0.3137106E-007  0.9118800E+02  0.7816164E-02  0.1184000E+00
        -11   -1    0    0    0    0  0.00000000000E+00  0.00000000000E+00  0.45593999997E+02  0.45594000000E+02  0.51100000000E-03 0. -1.
         11   -1    0    0    0    0 -0.00000000000E+00 -0.00000000000E+00 -0.45593999997E+02  0.45594000000E+02  0.51100000000E-03 0.  1.
         23    2    1    2    0    0  0.17763568394E-14  0.71054273576E-14  0.35527136788E-14  0.91188000000E+02  0.91188000000E+02 0.  0.
    9900012    2    3    3    0    0  0.12936360572E+02  0.26318652053E+02  0.22265612418E+02  0.54367104206E+02  0.40000045658E+02 0.  0.
        -12    1    3    3    0    0 -0.12936360572E+02 -0.26318652053E+02 -0.22265612418E+02  0.36820895794E+02  0.00000000000E+00 0.  1.
         11    1    4    4    0    0  0.74607592186E+01  0.19916249089E+02 -0.55710072722E+00  0.21275109104E+02  0.51100000000E-03 0. -1.
        -11    1    4    4    0    0  0.36255873708E+01  0.10825865179E+02  0.25254939132E+02  0.27715630815E+02  0.51100000000E-03 0.  1.
        -12    1    4    4    0    0  0.18500139824E+01 -0.44234622147E+01 -0.24322259865E+01  0.53763642872E+01  0.00000000000E+00 0.  1.
</event>
<event>
 8    1  0.3137106E-007  0.9118800E+02  0.7816164E-02  0.1184000E+00
        -11   -1    0    0    0    0  0.00000000000E+00  0.00000000000E+00  0.45593999997E+02  0.45594000000E+02  0.51100000000E-03 0. -1.
         11   -1    0    0    0    0 -0.00000000000E+00 -0.00000000000E+00 -0.45593999997E+02  0.45594000000E+02  0.51100000000E-03 0.  1.
         23    2    1    2    0    0  0.17763568394E-14  0.00000000000E+00  0.00000000000E+00  0.91188000000E+02  0.91188000000E+02 0.  0.
    9900012    2    3    3    0    0  0.75663936868E+01 -0.12274034258E+02  0.33880359171E+02  0.54367068888E+02  0.39999965144E+02 0.  0.
        -12    1    3    3    0    0 -0.75663936868E+01  0.12274034258E+02 -0.33880359171E+02  0.36820931112E+02  0.00000000000E+00 0.  1.
         11    1    4    4    0    0  0.12540578149E+01 -0.23509690477E+01  0.59454397545E+00  0.27300548101E+01  0.51100000000E-03 0. -1.
        -11    1    4    4    0    0  0.89942815018E+01  0.63127063732E+01  0.33420535290E+02  0.35180669988E+02  0.51100000000E-03 0.  1.
        -12    1    4    4    0    0 -0.26819456299E+01 -0.16235771584E+02 -0.13472009430E+00  0.16456344089E+02  0.00000000000E+00 0.  1.
</event>
<event>
 8    1  0.3137106E-007  0.9118800E+02  0.7816164E-02  0.1184000E+00
        -11   -1    0    0    0    0  0.00000000000E+00  0.00000000000E+00  0.45593999997E+02  0.45594000000E+02  0.51100000000E-03 0. -1.
         11   -1    0    0    0    0 -0.00000000000E+00 -0.00000000000E+00 -0.45593999997E+02  0.45594000000E+02  0.51100000000E-03 0.  1.
         23    2    1    2    0    0  0.00000000000E+00 -0.35527136788E-14  0.00000000000E+00  0.91188000000E+02  0.91188000000E+02 0.  0.
    9900012    2    3    3    0    0  0.22886011970E+02  0.20608196426E+02  0.20181969339E+02  0.54367093028E+02  0.40000020177E+02 0.  0.
        -12    1    3    3    0    0 -0.22886011970E+02 -0.20608196426E+02 -0.20181969339E+02  0.36820906972E+02  0.00000000000E+00 0.  1.
         11    1    4    4    0    0  0.43243737744E+01  0.94066958599E+01 -0.10617804032E+02  0.14829831363E+02  0.51100000000E-03 0. -1.
        -11    1    4    4    0    0  0.12276170516E+02  0.53616499072E+00  0.17309524990E+02  0.21227611526E+02  0.51100000000E-03 0.  1.
         12    1    4    4    0    0  0.62854676790E+01  0.10665335575E+02  0.13490248381E+02  0.18309650140E+02  0.00000000000E+00 0. -1.
</event>
<event>
 8    1  0.3137106E-007  0.9118800E+02  0.7816164E-02  0.1184000E+00
        -11   -1    0    0    0    0  0.00000000000E+00  0.00000000000E+00  0.45593999997E+02  0.45594000000E+02  0.51100000000E-03 0.  1.
         11   -1    0    0    0    0 -0.00000000000E+00 -0.00000000000E+00 -0.45593999997E+02  0.45594000000E+02  0.51100000000E-03 0. -1.
         23    2    1    2    0    0  0.00000000000E+00  0.00000000000E+00 -0.17763568394E-14  0.91188000000E+02  0.91188000000E+02 0.  0.
    9900012    2    3    3    0    0  0.21408504033E+02 -0.25586322372E+02 -0.15581844492E+02  0.54367111699E+02  0.40000062740E+02 0.  0.
        -12    1    3    3    0    0 -0.21408504033E+02  0.25586322372E+02  0.15581844492E+02  0.36820888301E+02  0.00000000000E+00 0.  1.
         11    1    4    4    0    0  0.27299131918E+01 -0.82692366769E+01  0.73386742484E+01  0.11388100862E+02  0.51100000000E-03 0. -1.
        -11    1    4    4    0    0  0.97307726749E+01 -0.92154177277E+01  0.35689512427E+01  0.13869004073E+02  0.51100000000E-03 0.  1.
         12    1    4    4    0    0  0.89478181668E+01 -0.81016679675E+01 -0.26489469984E+02  0.29110006764E+02  0.00000000000E+00 0. -1.
</event>
<event>
 8    1  0.3137106E-007  0.9118800E+02  0.7816164E-02  0.1184000E+00
        -11   -1    0    0    0    0  0.00000000000E+00  0.00000000000E+00  0.45593999997E+02  0.45594000000E+02  0.51100000000E-03 0. -1.
         11   -1    0    0    0    0 -0.00000000000E+00 -0.00000000000E+00 -0.45593999997E+02  0.45594000000E+02  0.51100000000E-03 0.  1.
         23    2    1    2    0    0  0.00000000000E+00  0.88817841970E-15  0.35527136788E-14  0.91188000000E+02  0.91188000000E+02 0.  0.
    9900012    2    3    3    0    0 -0.23344840156E+02 -0.77213054488E+01 -0.27407662746E+02  0.54367080716E+02  0.39999992109E+02 0.  0.
         12    1    3    3    0    0  0.23344840156E+02  0.77213054488E+01  0.27407662746E+02  0.36820919284E+02  0.00000000000E+00 0. -1.
         11    1    4    4    0    0  0.10435712091E+01  0.26139985048E+01  0.29807731263E+01  0.40996387332E+01  0.51100000000E-03 0. -1.
        -11    1    4    4    0    0 -0.33263230357E+01 -0.11021036066E+02 -0.26426322493E+02  0.28824957618E+02  0.51100000000E-03 0.  1.
        -12    1    4    4    0    0 -0.21062088329E+02  0.68573211234E+00 -0.39621133786E+01  0.21442484365E+02  0.00000000000E+00 0.  1.
</event>
<event>
 8    1  0.3137106E-007  0.9118800E+02  0.7816164E-02  0.1184000E+00
        -11   -1    0    0    0    0  0.00000000000E+00  0.00000000000E+00  0.45593999997E+02  0.45594000000E+02  0.51100000000E-03 0.  1.
         11   -1    0    0    0    0 -0.00000000000E+00 -0.00000000000E+00 -0.45593999997E+02  0.45594000000E+02  0.51100000000E-03 0. -1.
         23    2    1    2    0    0  0.88817841970E-15  0.00000000000E+00  0.00000000000E+00  0.91188000000E+02  0.91188000000E+02 0.  0.
    9900012    2    3    3    0    0  0.55382722556E+01 -0.33139248289E+02 -0.15063412030E+02  0.54366964996E+02  0.39999728301E+02 0.  0.
        -12    1    3    3    0    0 -0.55382722556E+01  0.33139248289E+02  0.15063412030E+02  0.36821035004E+02  0.00000000000E+00 0.  1.
         11    1    4    4    0    0 -0.79370036557E+01 -0.49895817339E+01 -0.18818529980E+02  0.21024486290E+02  0.51100000000E-03 0. -1.
        -11    1    4    4    0    0  0.10541243206E+02 -0.23565324229E+02 -0.13896607078E+01  0.25852919980E+02  0.51100000000E-03 0.  1.
        -12    1    4    4    0    0  0.29340327052E+01 -0.45843423258E+01  0.51447786574E+01  0.74895587259E+01  0.00000000000E+00 0.  1.
</event>
<event>
 8    1  0.3137106E-007  0.9118800E+02  0.7816164E-02  0.1184000E+00
        -11   -1    0    0    0    0  0.00000000000E+00  0.00000000000E+00  0.45593999997E+02  0.45594000000E+02  0.51100000000E-03 0.  1.
         11   -1    0    0    0    0 -0.00000000000E+00 -0.00000000000E+00 -0.45593999997E+02  0.45594000000E+02  0.51100000000E-03 0. -1.
         23    2    1    2    0    0 -0.88817841970E-15  0.35527136788E-14  0.00000000000E+00  0.91188000000E+02  0.91188000000E+02 0.  0.
    9900012    2    3    3    0    0 -0.40479727654E+01  0.19253023295E+02  0.31124187700E+02  0.54367081360E+02  0.39999993576E+02 0.  0.
         12    1    3    3    0    0  0.40479727654E+01 -0.19253023295E+02 -0.31124187700E+02  0.36820918640E+02  0.00000000000E+00 0. -1.
         11    1    4    4    0    0 -0.62128988456E+01  0.98086147973E+01  0.34581483173E+02  0.36478596670E+02  0.51100000000E-03 0. -1.
        -11    1    4    4    0    0  0.30864463162E+01 -0.29159229129E+01  0.15507217192E+01  0.45203423995E+01  0.51100000000E-03 0.  1.
         12    1    4    4    0    0 -0.92152023604E+00  0.12360331410E+02 -0.50080171915E+01  0.13368142291E+02  0.00000000000E+00 0. -1.
</event>
<event>
 8    1  0.3137106E-007  0.9118800E+02  0.7816164E-02  0.1184000E+00
        -11   -1    0    0    0    0  0.00000000000E+00  0.00000000000E+00  0.45593999997E+02  0.45594000000E+02  0.51100000000E-03 0. -1.
         11   -1    0    0    0    0 -0.00000000000E+00 -0.00000000000E+00 -0.45593999997E+02  0.45594000000E+02  0.51100000000E-03 0.  1.
         23    2    1    2    0    0  0.17763568394E-14 -0.88817841970E-15  0.00000000000E+00  0.91188000000E+02  0.91188000000E+02 0.  0.
    9900012    2    3    3    0    0 -0.10800131743E+02  0.69317324756E+01 -0.34512144014E+02  0.54367084134E+02  0.39999999900E+02 0.  0.
         12    1    3    3    0    0  0.10800131743E+02 -0.69317324756E+01  0.34512144014E+02  0.36820915866E+02  0.00000000000E+00 0. -1.
         11    1    4    4    0    0  0.23146818305E+01 -0.27990299440E+01  0.11836936326E+01  0.38201376259E+01  0.51100000000E-03 0. -1.
        -11    1    4    4    0    0 -0.11580201663E+02  0.83675883967E+01  0.49732365156E+00  0.14295626506E+02  0.51100000000E-03 0.  1.
        -12    1    4    4    0    0 -0.15346119109E+01  0.13631740229E+01 -0.36193161298E+02  0.36251320002E+02  0.00000000000E+00 0.  1.
</event>
<event>
 8    1  0.3137106E-007  0.9118800E+02  0.7816164E-02  0.1184000E+00
        -11   -1    0    0    0    0  0.00000000000E+00  0.00000000000E+00  0.45593999997E+02  0.45594000000E+02  0.51100000000E-03 0.  1.
         11   -1    0    0    0    0 -0.00000000000E+00 -0.00000000000E+00 -0.45593999997E+02  0.45594000000E+02  0.51100000000E-03 0. -1.
         23    2    1    2    0    0  0.17763568394E-14  0.35527136788E-14 -0.35527136788E-14  0.91188000000E+02  0.91188000000E+02 0.  0.
    9900012    2    3    3    0    0  0.67941222446E+01  0.22072849414E+02  0.28677644910E+02  0.54367107888E+02  0.40000054053E+02 0.  0.
         12    1    3    3    0    0 -0.67941222446E+01 -0.22072849414E+02 -0.28677644910E+02  0.36820892112E+02  0.00000000000E+00 0. -1.
         11    1    4    4    0    0  0.81288084857E+01  0.78640697901E+01  0.38938521307E+01  0.11961739244E+02  0.51100000000E-03 0. -1.
        -11    1    4    4    0    0  0.15448028639E+01  0.16615729415E+02  0.30964284187E+02  0.35174646769E+02  0.51100000000E-03 0.  1.
         12    1    4    4    0    0 -0.28794891049E+01 -0.24069497905E+01 -0.61804914078E+01  0.72307218756E+01  0.00000000000E+00 0. -1.
</event>
<event>
 8    1  0.3137106E-007  0.9118800E+02  0.7816164E-02  0.1184000E+00
        -11   -1    0    0    0    0  0.00000000000E+00  0.00000000000E+00  0.45593999997E+02  0.45594000000E+02  0.51100000000E-03 0.  1.
         11   -1    0    0    0    0 -0.00000000000E+00 -0.00000000000E+00 -0.45593999997E+02  0.45594000000E+02  0.51100000000E-03 0. -1.
         23    2    1    2    0    0 -0.35527136788E-14  0.00000000000E+00 -0.88817841970E-15  0.91188000000E+02  0.91188000000E+02 0.  0.
    9900012    2    3    3    0    0  0.29168327789E+02  0.21777888605E+02 -0.55408766475E+01  0.54367230153E+02  0.40000332779E+02 0.  0.
         12    1    3    3    0    0 -0.29168327789E+02 -0.21777888605E+02  0.55408766475E+01  0.36820769847E+02  0.00000000000E+00 0. -1.
         11    1    4    4    0    0 -0.74936910101E+01  0.50632585750E+01  0.17043608796E+01  0.92030885371E+01  0.51100000000E-03 0.  1.
        -11    1    4    4    0    0  0.45238099815E+01 -0.41195330363E+01 -0.23407647640E+01  0.65509227691E+01  0.51100000000E-03 0. -1.
         12    1    4    4    0    0  0.32138208817E+02  0.20834163066E+02 -0.49044727631E+01  0.38613218847E+02  0.00000000000E+00 0. -1.
</event>
<event>
 8    1  0.3137106E-007  0.9118800E+02  0.7816164E-02  0.1184000E+00
        -11   -1    0    0    0    0  0.00000000000E+00  0.00000000000E+00  0.45593999997E+02  0.45594000000E+02  0.51100000000E-03 0.  1.
         11   -1    0    0    0    0 -0.00000000000E+00 -0.00000000000E+00 -0.45593999997E+02  0.45594000000E+02  0.51100000000E-03 0. -1.
         23    2    1    2    0    0  0.00000000000E+00  0.44408920985E-15  0.00000000000E+00  0.91188000000E+02  0.91188000000E+02 0.  0.
    9900012    2    3    3    0    0 -0.33319587991E+02  0.24613939712E+01 -0.15476595856E+02  0.54367103440E+02  0.40000043912E+02 0.  0.
        -12    1    3    3    0    0  0.33319587991E+02 -0.24613939712E+01  0.15476595856E+02  0.36820896560E+02  0.00000000000E+00 0.  1.
         11    1    4    4    0    0 -0.42462159929E+01  0.73967380519E+01 -0.12983491108E+02  0.15534256521E+02  0.51100000000E-03 0. -1.
        -11    1    4    4    0    0  0.17926929615E+01 -0.75633787197E+01 -0.66056931628E+00  0.78009485189E+01  0.51100000000E-03 0.  1.
        -12    1    4    4    0    0 -0.30866064960E+02  0.26280346390E+01 -0.18325354318E+01  0.31031898400E+02  0.00000000000E+00 0.  1.
</event>
<event>
 8    1  0.3137106E-007  0.9118800E+02  0.7816164E-02  0.1184000E+00
        -11   -1    0    0    0    0  0.00000000000E+00  0.00000000000E+00  0.45593999997E+02  0.45594000000E+02  0.51100000000E-03 0. -1.
         11   -1    0    0    0    0 -0.00000000000E+00 -0.00000000000E+00 -0.45593999997E+02  0.45594000000E+02  0.51100000000E-03 0.  1.
         23    2    1    2    0    0  0.17763568394E-14  0.00000000000E+00 -0.35527136788E-14  0.91188000000E+02  0.91188000000E+02 0.  0.
    9900012    2    3    3    0    0  0.14498054167E+02 -0.29068074289E+02 -0.17338741956E+02  0.54367102535E+02  0.40000041850E+02 0.  0.
         12    1    3    3    0    0 -0.14498054167E+02  0.29068074289E+02  0.17338741956E+02  0.36820897465E+02  0.00000000000E+00 0. -1.
         11    1    4    4    0    0  0.21705593570E+02 -0.25223102106E+02 -0.24352154469E+02  0.41235483501E+02  0.51100000000E-03 0.  1.
        -11    1    4    4    0    0 -0.50478864921E+01  0.22477491850E+00  0.68622575864E+01  0.85218695862E+01  0.51100000000E-03 0. -1.
        -12    1    4    4    0    0 -0.21596529099E+01 -0.40697471015E+01  0.15115492627E+00  0.46097494480E+01  0.00000000000E+00 0.  1.
</event>
<event>
 8    1  0.3137106E-007  0.9118800E+02  0.7816164E-02  0.1184000E+00
        -11   -1    0    0    0    0  0.00000000000E+00  0.00000000000E+00  0.45593999997E+02  0.45594000000E+02  0.51100000000E-03 0.  1.
         11   -1    0    0    0    0 -0.00000000000E+00 -0.00000000000E+00 -0.45593999997E+02  0.45594000000E+02  0.51100000000E-03 0. -1.
         23    2    1    2    0    0  0.17763568394E-14  0.35527136788E-14  0.00000000000E+00  0.91188000000E+02  0.91188000000E+02 0.  0.
    9900012    2    3    3    0    0  0.11133200124E+02  0.28989875860E+02  0.19784297744E+02  0.54367089031E+02  0.40000011063E+02 0.  0.
         12    1    3    3    0    0 -0.11133200124E+02 -0.28989875860E+02 -0.19784297744E+02  0.36820910969E+02  0.00000000000E+00 0. -1.
         11    1    4    4    0    0  0.93752905590E+01  0.17305666981E+01 -0.87952823822E+01  0.12971041847E+02  0.51100000000E-03 0. -1.
        -11    1    4    4    0    0 -0.41308989211E+01  0.42644151970E+01  0.81170412937E+01  0.10056635744E+02  0.51100000000E-03 0.  1.
         12    1    4    4    0    0  0.58888084857E+01  0.22994893965E+02  0.20462538833E+02  0.31339411439E+02  0.00000000000E+00 0. -1.
</event>
<event>
 8    1  0.3137106E-007  0.9118800E+02  0.7816164E-02  0.1184000E+00
        -11   -1    0    0    0    0  0.00000000000E+00  0.00000000000E+00  0.45593999997E+02  0.45594000000E+02  0.51100000000E-03 0.  1.
         11   -1    0    0    0    0 -0.00000000000E+00 -0.00000000000E+00 -0.45593999997E+02  0.45594000000E+02  0.51100000000E-03 0. -1.
         23    2    1    2    0    0  0.35527136788E-14  0.00000000000E+00  0.00000000000E+00  0.91188000000E+02  0.91188000000E+02 0.  0.
    9900012    2    3    3    0    0 -0.31358830493E+02  0.60353301783E+01  0.18329711132E+02  0.54367085149E+02  0.40000002214E+02 0.  0.
         12    1    3    3    0    0  0.31358830493E+02 -0.60353301783E+01 -0.18329711132E+02  0.36820914851E+02  0.00000000000E+00 0. -1.
         11    1    4    4    0    0 -0.22384541002E+02 -0.54473717192E+01  0.17755358137E+02  0.29085980770E+02  0.51100000000E-03 0.  1.
        -11    1    4    4    0    0 -0.10390457432E+02  0.62961217930E+01  0.91155100629E+01  0.15188656268E+02  0.51100000000E-03 0. -1.
         12    1    4    4    0    0  0.14161679405E+01  0.51865801045E+01 -0.85411570673E+01  0.10092448111E+02  0.00000000000E+00 0. -1.
</event>
<event>
 8    1  0.3137106E-007  0.9118800E+02  0.7816164E-02  0.1184000E+00
        -11   -1    0    0    0    0  0.00000000000E+00  0.00000000000E+00  0.45593999997E+02  0.45594000000E+02  0.51100000000E-03 0. -1.
         11   -1    0    0    0    0 -0.00000000000E+00 -0.00000000000E+00 -0.45593999997E+02  0.45594000000E+02  0.51100000000E-03 0.  1.
         23    2    1    2    0    0  0.48572257327E-15  0.00000000000E+00 -0.17763568394E-14  0.91188000000E+02  0.91188000000E+02 0.  0.
    9900012    2    3    3    0    0 -0.12031787851E+00 -0.35801153105E+02 -0.86052277348E+01  0.54366987189E+02  0.39999778894E+02 0.  0.
        -12    1    3    3    0    0  0.12031787851E+00  0.35801153105E+02  0.86052277348E+01  0.36821012811E+02  0.00000000000E+00 0.  1.
         11    1    4    4    0    0 -0.85556646077E+01 -0.19766674272E+02 -0.10114545583E+02  0.23795479429E+02  0.51100000000E-03 0.  1.
        -11    1    4    4    0    0  0.41278799713E+01 -0.22326347554E+02 -0.41052324246E+00  0.22708450360E+02  0.51100000000E-03 0. -1.
        -12    1    4    4    0    0  0.43074667579E+01  0.62918687203E+01  0.19198410902E+01  0.78630574000E+01  0.00000000000E+00 0.  1.
</event>
<event>
 8    1  0.3137106E-007  0.9118800E+02  0.7816164E-02  0.1184000E+00
        -11   -1    0    0    0    0  0.00000000000E+00  0.00000000000E+00  0.45593999997E+02  0.45594000000E+02  0.51100000000E-03 0.  1.
         11   -1    0    0    0    0 -0.00000000000E+00 -0.00000000000E+00 -0.45593999997E+02  0.45594000000E+02  0.51100000000E-03 0. -1.
         23    2    1    2    0    0  0.00000000000E+00 -0.17763568394E-14  0.35527136788E-14  0.91188000000E+02  0.91188000000E+02 0.  0.
    9900012    2    3    3    0    0  0.19342071979E+02 -0.10603329869E+02 -0.29482755564E+02  0.54367092510E+02  0.40000018994E+02 0.  0.
        -12    1    3    3    0    0 -0.19342071979E+02  0.10603329869E+02  0.29482755564E+02  0.36820907490E+02  0.00000000000E+00 0.  1.
         11    1    4    4    0    0  0.20750807394E+02  0.10463935626E+02 -0.19437306869E+02  0.30296845626E+02  0.51100000000E-03 0. -1.
        -11    1    4    4    0    0  0.51549923753E+00 -0.19148143215E+02 -0.87168370948E+01  0.21045198437E+02  0.51100000000E-03 0.  1.
        -12    1    4    4    0    0 -0.19242346522E+01 -0.19191222806E+01 -0.13286115998E+01  0.30250484471E+01  0.00000000000E+00 0.  1.
</event>
<event>
 8    1  0.3137106E-007  0.9118800E+02  0.7816164E-02  0.1184000E+00
        -11   -1    0    0    0    0  0.00000000000E+00  0.00000000000E+00  0.45593999997E+02  0.45594000000E+02  0.51100000000E-03 0. -1.
         11   -1    0    0    0    0 -0.00000000000E+00 -0.00000000000E+00 -0.45593999997E+02  0.45594000000E+02  0.51100000000E-03 0.  1.
         23    2    1    2    0    0  0.88817841970E-15  0.00000000000E+00  0.00000000000E+00  0.91188000000E+02  0.91188000000E+02 0.  0.
    9900012    2    3    3    0    0  0.68572816542E+01  0.30938157712E+02 -0.18750651298E+02  0.54367097806E+02  0.40000031068E+02 0.  0.
         12    1    3    3    0    0 -0.68572816542E+01 -0.30938157712E+02  0.18750651298E+02  0.36820902194E+02  0.00000000000E+00 0. -1.
         11    1    4    4    0    0  0.15111332894E+01 -0.70360411981E+01  0.72323984888E+00  0.72327363909E+01  0.51100000000E-03 0. -1.
        -11    1    4    4    0    0  0.11955688350E+02  0.27099078685E+02 -0.17060976926E+02  0.34181507916E+02  0.51100000000E-03 0.  1.
         12    1    4    4    0    0 -0.66095399852E+01  0.10875120225E+02 -0.24129142213E+01  0.12952853498E+02  0.00000000000E+00 0. -1.
</event>
<event>
 8    1  0.3137106E-007  0.9118800E+02  0.7816164E-02  0.1184000E+00
        -11   -1    0    0    0    0  0.00000000000E+00  0.00000000000E+00  0.45593999997E+02  0.45594000000E+02  0.51100000000E-03 0. -1.
         11   -1    0    0    0    0 -0.00000000000E+00 -0.00000000000E+00 -0.45593999997E+02  0.45594000000E+02  0.51100000000E-03 0.  1.
         23    2    1    2    0    0  0.00000000000E+00  0.00000000000E+00  0.00000000000E+00  0.91188000000E+02  0.91188000000E+02 0.  0.
    9900012    2    3    3    0    0  0.17357157336E+02  0.26818568263E+02 -0.18310444549E+02  0.54367097050E+02  0.40000029344E+02 0.  0.
         12    1    3    3    0    0 -0.17357157336E+02 -0.26818568263E+02  0.18310444549E+02  0.36820902950E+02  0.00000000000E+00 0. -1.
         11    1    4    4    0    0 -0.43593944220E+01  0.45332596058E+01 -0.14164784352E+02  0.15498254043E+02  0.51100000000E-03 0. -1.
        -11    1    4    4    0    0  0.21555697017E+01 -0.47619694308E+01  0.45364398876E-01  0.52273216649E+01  0.51100000000E-03 0.  1.
        -12    1    4    4    0    0  0.19560982057E+02  0.27047278088E+02 -0.41910245952E+01  0.33641521342E+02  0.00000000000E+00 0.  1.
</event>
<event>
 8    1  0.3137106E-007  0.9118800E+02  0.7816164E-02  0.1184000E+00
        -11   -1    0    0    0    0  0.00000000000E+00  0.00000000000E+00  0.45593999997E+02  0.45594000000E+02  0.51100000000E-03 0. -1.
         11   -1    0    0    0    0 -0.00000000000E+00 -0.00000000000E+00 -0.45593999997E+02  0.45594000000E+02  0.51100000000E-03 0.  1.
         23    2    1    2    0    0  0.00000000000E+00 -0.35527136788E-14 -0.71054273576E-14  0.91188000000E+02  0.91188000000E+02 0.  0.
    9900012    2    3    3    0    0  0.19866042619E+02 -0.21721733127E+02 -0.22119840271E+02  0.54367072893E+02  0.39999974274E+02 0.  0.
         12    1    3    3    0    0 -0.19866042619E+02  0.21721733127E+02  0.22119840271E+02  0.36820927107E+02  0.00000000000E+00 0. -1.
         11    1    4    4    0    0  0.98090104617E+01 -0.13937255759E+02 -0.37636766009E+01  0.17453625588E+02  0.51100000000E-03 0. -1.
        -11    1    4    4    0    0 -0.34435280127E+01 -0.49078237977E+01 -0.21863972927E+02  0.22671081404E+02  0.51100000000E-03 0.  1.
        -12    1    4    4    0    0  0.13500560170E+02 -0.28766535701E+01  0.35078092568E+01  0.14242365901E+02  0.00000000000E+00 0.  1.
</event>
<event>
 8    1  0.3137106E-007  0.9118800E+02  0.7816164E-02  0.1184000E+00
        -11   -1    0    0    0    0  0.00000000000E+00  0.00000000000E+00  0.45593999997E+02  0.45594000000E+02  0.51100000000E-03 0.  1.
         11   -1    0    0    0    0 -0.00000000000E+00 -0.00000000000E+00 -0.45593999997E+02  0.45594000000E+02  0.51100000000E-03 0. -1.
         23    2    1    2    0    0  0.00000000000E+00  0.17763568394E-14 -0.35527136788E-14  0.91188000000E+02  0.91188000000E+02 0.  0.
    9900012    2    3    3    0    0 -0.19966312673E+02  0.14765577037E+02 -0.27186473746E+02  0.54367078477E+02  0.39999987005E+02 0.  0.
        -12    1    3    3    0    0  0.19966312673E+02 -0.14765577037E+02  0.27186473746E+02  0.36820921523E+02  0.00000000000E+00 0.  1.
         11    1    4    4    0    0  0.20629385261E+01 -0.63554351820E+01 -0.53191198926E+01  0.85405098447E+01  0.51100000000E-03 0. -1.
        -11    1    4    4    0    0 -0.18047106206E+01  0.16179419829E+02 -0.18656777409E+02  0.24760976353E+02  0.51100000000E-03 0.  1.
         12    1    4    4    0    0 -0.20224540579E+02  0.49415923903E+01 -0.32105764449E+01  0.21065592279E+02  0.00000000000E+00 0. -1.
</event>
<event>
 8    1  0.3137106E-007  0.9118800E+02  0.7816164E-02  0.1184000E+00
        -11   -1    0    0    0    0  0.00000000000E+00  0.00000000000E+00  0.45593999997E+02  0.45594000000E+02  0.51100000000E-03 0.  1.
         11   -1    0    0    0    0 -0.00000000000E+00 -0.00000000000E+00 -0.45593999997E+02  0.45594000000E+02  0.51100000000E-03 0. -1.
         23    2    1    2    0    0  0.00000000000E+00 -0.35527136788E-14  0.35527136788E-14  0.91188000000E+02  0.91188000000E+02 0.  0.
    9900012    2    3    3    0    0 -0.21003828137E+02 -0.18446125364E+02  0.23965800837E+02  0.54367082750E+02  0.39999996745E+02 0.  0.
         12    1    3    3    0    0  0.21003828137E+02  0.18446125364E+02 -0.23965800837E+02  0.36820917250E+02  0.00000000000E+00 0. -1.
         11    1    4    4    0    0 -0.10952240201E+02  0.47972501724E+01 -0.55729179681E+01  0.13191762186E+02  0.51100000000E-03 0. -1.
        -11    1    4    4    0    0 -0.11967645332E+00 -0.15499828715E+02  0.12096804946E+02  0.19661935378E+02  0.51100000000E-03 0.  1.
         12    1    4    4    0    0 -0.99319114825E+01 -0.77435468221E+01  0.17441913859E+02  0.21513385186E+02  0.00000000000E+00 0. -1.
</event>
<event>
 8    1  0.3137106E-007  0.9118800E+02  0.7816164E-02  0.1184000E+00
        -11   -1    0    0    0    0  0.00000000000E+00  0.00000000000E+00  0.45593999997E+02  0.45594000000E+02  0.51100000000E-03 0.  1.
         11   -1    0    0    0    0 -0.00000000000E+00 -0.00000000000E+00 -0.45593999997E+02  0.45594000000E+02  0.51100000000E-03 0. -1.
         23    2    1    2    0    0  0.00000000000E+00  0.17763568394E-14 -0.17763568394E-14  0.91188000000E+02  0.91188000000E+02 0.  0.
    9900012    2    3    3    0    0 -0.35039779165E+02  0.10164742479E+02  0.49670658004E+01  0.54367083984E+02  0.39999999558E+02 0.  0.
         12    1    3    3    0    0  0.35039779165E+02 -0.10164742479E+02 -0.49670658004E+01  0.36820916016E+02  0.00000000000E+00 0. -1.
         11    1    4    4    0    0 -0.80382212053E+01  0.13281304687E+02 -0.67253132509E+01  0.16918507408E+02  0.51100000000E-03 0.  1.
        -11    1    4    4    0    0 -0.24246395016E+02 -0.99930732754E+01  0.13949831323E+02  0.29704325930E+02  0.51100000000E-03 0. -1.
         12    1    4    4    0    0 -0.27551629434E+01  0.68765110674E+01 -0.22574522719E+01  0.77442506457E+01  0.00000000000E+00 0. -1.
</event>
<event>
 8    1  0.3137106E-007  0.9118800E+02  0.7816164E-02  0.1184000E+00
        -11   -1    0    0    0    0  0.00000000000E+00  0.00000000000E+00  0.45593999997E+02  0.45594000000E+02  0.51100000000E-03 0. -1.
         11   -1    0    0    0    0 -0.00000000000E+00 -0.00000000000E+00 -0.45593999997E+02  0.45594000000E+02  0.51100000000E-03 0.  1.
         23    2    1    2    0    0 -0.88817841970E-15  0.00000000000E+00 -0.71054273576E-14  0.91188000000E+02  0.91188000000E+02 0.  0.
    9900012    2    3    3    0    0 -0.47418623457E+01 -0.48780518954E+01 -0.36187061451E+02  0.54367026829E+02  0.39999869262E+02 0.  0.
         12    1    3    3    0    0  0.47418623457E+01  0.48780518954E+01  0.36187061451E+02  0.36820973171E+02  0.00000000000E+00 0. -1.
         11    1    4    4    0    0  0.84960608159E+01  0.94572065070E+01 -0.30866807818E+01  0.13082408143E+02  0.51100000000E-03 0. -1.
        -11    1    4    4    0    0 -0.85439345086E+01 -0.10903848518E+01 -0.52422926016E+01  0.10083123920E+02  0.51100000000E-03 0.  1.
        -12    1    4    4    0    0 -0.46939886530E+01 -0.13244873551E+02 -0.27858088068E+02  0.31201494766E+02  0.00000000000E+00 0.  1.
</event>
<event>
 8    1  0.3137106E-007  0.9118800E+02  0.7816164E-02  0.1184000E+00
        -11   -1    0    0    0    0  0.00000000000E+00  0.00000000000E+00  0.45593999997E+02  0.45594000000E+02  0.51100000000E-03 0.  1.
         11   -1    0    0    0    0 -0.00000000000E+00 -0.00000000000E+00 -0.45593999997E+02  0.45594000000E+02  0.51100000000E-03 0. -1.
         23    2    1    2    0    0  0.44408920985E-15 -0.17763568394E-14  0.00000000000E+00  0.91188000000E+02  0.91188000000E+02 0.  0.
    9900012    2    3    3    0    0 -0.30876472751E+01  0.13089227214E+02  0.34277090815E+02  0.54367076743E+02  0.39999983050E+02 0.  0.
         12    1    3    3    0    0  0.30876472751E+01 -0.13089227214E+02 -0.34277090815E+02  0.36820923257E+02  0.00000000000E+00 0. -1.
         11    1    4    4    0    0 -0.12740126227E+02  0.11047532329E+01  0.23372697315E+01  0.12999774077E+02  0.51100000000E-03 0. -1.
        -11    1    4    4    0    0 -0.54135257059E+00 -0.50534589586E+01  0.12873403577E+02  0.13840340674E+02  0.51100000000E-03 0.  1.
        -12    1    4    4    0    0  0.10193831523E+02  0.17037932940E+02  0.19066417507E+02  0.27526961992E+02  0.00000000000E+00 0.  1.
</event>
<event>
 8    1  0.3137106E-007  0.9118800E+02  0.7816164E-02  0.1184000E+00
        -11   -1    0    0    0    0  0.00000000000E+00  0.00000000000E+00  0.45593999997E+02  0.45594000000E+02  0.51100000000E-03 0.  1.
         11   -1    0    0    0    0 -0.00000000000E+00 -0.00000000000E+00 -0.45593999997E+02  0.45594000000E+02  0.51100000000E-03 0. -1.
         23    2    1    2    0    0 -0.17763568394E-14  0.18318679906E-14  0.00000000000E+00  0.91188000000E+02  0.91188000000E+02 0.  0.
    9900012    2    3    3    0    0 -0.15135912122E+02 -0.36879843429E+00 -0.33564096505E+02  0.54367076298E+02  0.39999982036E+02 0.  0.
        -12    1    3    3    0    0  0.15135912122E+02  0.36879843429E+00  0.33564096505E+02  0.36820923702E+02  0.00000000000E+00 0.  1.
         11    1    4    4    0    0 -0.73907043672E+00  0.15490423930E+02 -0.43811535475E+01  0.16115022969E+02  0.51100000000E-03 0. -1.
        -11    1    4    4    0    0  0.10627273758E+01 -0.58516076220E+01 -0.10177403887E+02  0.11787716122E+02  0.51100000000E-03 0.  1.
         12    1    4    4    0    0 -0.15459569061E+02 -0.10007614742E+02 -0.19005539071E+02  0.26464337206E+02  0.00000000000E+00 0. -1.
</event>
<event>
 8    1  0.3137106E-007  0.9118800E+02  0.7816164E-02  0.1184000E+00
        -11   -1    0    0    0    0  0.00000000000E+00  0.00000000000E+00  0.45593999997E+02  0.45594000000E+02  0.51100000000E-03 0.  1.
         11   -1    0    0    0    0 -0.00000000000E+00 -0.00000000000E+00 -0.45593999997E+02  0.45594000000E+02  0.51100000000E-03 0. -1.
         23    2    1    2    0    0  0.00000000000E+00  0.00000000000E+00 -0.35527136788E-14  0.91188000000E+02  0.91188000000E+02 0.  0.
    9900012    2    3    3    0    0  0.81493328236E+01  0.26624354403E+02 -0.24093853292E+02  0.54367059772E+02  0.39999944361E+02 0.  0.
        -12    1    3    3    0    0 -0.81493328236E+01 -0.26624354403E+02  0.24093853292E+02  0.36820940228E+02  0.00000000000E+00 0.  1.
         11    1    4    4    0    0 -0.29952732918E+01  0.44243224273E+01 -0.10265902169E+02  0.11573030660E+02  0.51100000000E-03 0. -1.
        -11    1    4    4    0    0  0.23074517201E+01  0.25333685859E+02 -0.19305804814E+02  0.31934841042E+02  0.51100000000E-03 0.  1.
        -12    1    4    4    0    0  0.88371543954E+01 -0.31336538834E+01  0.54778536911E+01  0.10859188070E+02  0.00000000000E+00 0.  1.
</event>
<event>
 8    1  0.3137106E-007  0.9118800E+02  0.7816164E-02  0.1184000E+00
        -11   -1    0    0    0    0  0.00000000000E+00  0.00000000000E+00  0.45593999997E+02  0.45594000000E+02  0.51100000000E-03 0.  1.
         11   -1    0    0    0    0 -0.00000000000E+00 -0.00000000000E+00 -0.45593999997E+02  0.45594000000E+02  0.51100000000E-03 0. -1.
         23    2    1    2    0    0  0.00000000000E+00 -0.17763568394E-14 -0.26645352591E-14  0.91188000000E+02  0.91188000000E+02 0.  0.
    9900012    2    3    3    0    0 -0.33589539547E+02  0.14094675917E+02  0.53726402167E+01  0.54367050541E+02  0.39999923318E+02 0.  0.
        -12    1    3    3    0    0  0.33589539547E+02 -0.14094675917E+02 -0.53726402167E+01  0.36820949459E+02  0.00000000000E+00 0.  1.
         11    1    4    4    0    0 -0.71851902966E+01  0.13362343650E+02  0.12467833299E+02  0.19637363745E+02  0.51100000000E-03 0. -1.
        -11    1    4    4    0    0 -0.17394575082E+02  0.10635461989E+02 -0.62055512094E+01  0.21311807996E+02  0.51100000000E-03 0.  1.
        -12    1    4    4    0    0 -0.90097741680E+01 -0.99031297209E+01 -0.88964187319E+00  0.13417878800E+02  0.00000000000E+00 0.  1.
</event>
<event>
 8    1  0.3137106E-007  0.9118800E+02  0.7816164E-02  0.1184000E+00
        -11   -1    0    0    0    0  0.00000000000E+00  0.00000000000E+00  0.45593999997E+02  0.45594000000E+02  0.51100000000E-03 0. -1.
         11   -1    0    0    0    0 -0.00000000000E+00 -0.00000000000E+00 -0.45593999997E+02  0.45594000000E+02  0.51100000000E-03 0.  1.
         23    2    1    2    0    0  0.35527136788E-14  0.35527136788E-14  0.00000000000E+00  0.91188000000E+02  0.91188000000E+02 0.  0.
    9900012    2    3    3    0    0 -0.16123947574E+02 -0.25514025919E+02  0.21091078599E+02  0.54367071162E+02  0.39999970329E+02 0.  0.
        -12    1    3    3    0    0  0.16123947574E+02  0.25514025919E+02 -0.21091078599E+02  0.36820928838E+02  0.00000000000E+00 0.  1.
         11    1    4    4    0    0 -0.12194699822E+02 -0.47176927139E+01  0.22869103511E+02  0.26343181735E+02  0.51100000000E-03 0. -1.
        -11    1    4    4    0    0 -0.10374422674E+02 -0.98162978733E+01 -0.45577962049E+01  0.14992059774E+02  0.51100000000E-03 0.  1.
         12    1    4    4    0    0  0.64451749219E+01 -0.10980035332E+02  0.27797712938E+01  0.13031829653E+02  0.00000000000E+00 0. -1.
</event>
<event>
 8    1  0.3137106E-007  0.9118800E+02  0.7816164E-02  0.1184000E+00
        -11   -1    0    0    0    0  0.00000000000E+00  0.00000000000E+00  0.45593999997E+02  0.45594000000E+02  0.51100000000E-03 0. -1.
         11   -1    0    0    0    0 -0.00000000000E+00 -0.00000000000E+00 -0.45593999997E+02  0.45594000000E+02  0.51100000000E-03 0.  1.
         23    2    1    2    0    0  0.00000000000E+00 -0.35527136788E-14 -0.17763568394E-14  0.91188000000E+02  0.91188000000E+02 0.  0.
    9900012    2    3    3    0    0 -0.25776010567E+02  0.22941263369E+02  0.12848140539E+02  0.54367095597E+02  0.40000026032E+02 0.  0.
        -12    1    3    3    0    0  0.25776010567E+02 -0.22941263369E+02 -0.12848140539E+02  0.36820904403E+02  0.00000000000E+00 0.  1.
         11    1    4    4    0    0  0.22457435423E+01  0.44779266942E+01 -0.77751504716E+01  0.92492246515E+01  0.51100000000E-03 0.  1.
        -11    1    4    4    0    0 -0.22375001021E+02  0.20012744498E+01  0.90571157768E+01  0.24221418550E+02  0.51100000000E-03 0. -1.
        -12    1    4    4    0    0 -0.56467530885E+01  0.16462062225E+02  0.11566175234E+02  0.20896452395E+02  0.00000000000E+00 0.  1.
</event>
<event>
 8    1  0.3137106E-007  0.9118800E+02  0.7816164E-02  0.1184000E+00
        -11   -1    0    0    0    0  0.00000000000E+00  0.00000000000E+00  0.45593999997E+02  0.45594000000E+02  0.51100000000E-03 0.  1.
         11   -1    0    0    0    0 -0.00000000000E+00 -0.00000000000E+00 -0.45593999997E+02  0.45594000000E+02  0.51100000000E-03 0. -1.
         23    2    1    2    0    0 -0.13322676296E-14  0.00000000000E+00  0.00000000000E+00  0.91188000000E+02  0.91188000000E+02 0.  0.
    9900012    2    3    3    0    0 -0.13312098728E+01  0.16142778132E+02 -0.33066867647E+02  0.54367093690E+02  0.40000021685E+02 0.  0.
        -12    1    3    3    0    0  0.13312098728E+01 -0.16142778132E+02  0.33066867647E+02  0.36820906310E+02  0.00000000000E+00 0.  1.
         11    1    4    4    0    0 -0.52718096228E+00  0.11730728719E+02 -0.25111618599E+02  0.27721495359E+02  0.51100000000E-03 0. -1.
        -11    1    4    4    0    0 -0.10741986451E+02  0.62124367750E+01  0.18771027630E+01  0.12550225442E+02  0.51100000000E-03 0.  1.
        -12    1    4    4    0    0  0.99379575408E+01 -0.18003873623E+01 -0.98323518109E+01  0.14095372889E+02  0.00000000000E+00 0.  1.
</event>
<event>
 8    1  0.3137106E-007  0.9118800E+02  0.7816164E-02  0.1184000E+00
        -11   -1    0    0    0    0  0.00000000000E+00  0.00000000000E+00  0.45593999997E+02  0.45594000000E+02  0.51100000000E-03 0.  1.
         11   -1    0    0    0    0 -0.00000000000E+00 -0.00000000000E+00 -0.45593999997E+02  0.45594000000E+02  0.51100000000E-03 0. -1.
         23    2    1    2    0    0 -0.15543122345E-14  0.00000000000E+00  0.00000000000E+00  0.91188000000E+02  0.91188000000E+02 0.  0.
    9900012    2    3    3    0    0 -0.29325008979E+00 -0.23975086430E+01 -0.36741606807E+02  0.54367085915E+02  0.40000003960E+02 0.  0.
        -12    1    3    3    0    0  0.29325008979E+00  0.23975086430E+01  0.36741606807E+02  0.36820914085E+02  0.00000000000E+00 0.  1.
         11    1    4    4    0    0 -0.31997056867E+01  0.28761481793E+01  0.13348587869E+00  0.43044353371E+01  0.51100000000E-03 0. -1.
        -11    1    4    4    0    0 -0.14033059360E+02 -0.63463930756E+01 -0.10295063595E+02  0.18525436425E+02  0.51100000000E-03 0.  1.
         12    1    4    4    0    0  0.16939514956E+02  0.10727362532E+01 -0.26580029091E+02  0.31537214153E+02  0.00000000000E+00 0. -1.
</event>
<event>
 8    1  0.3137106E-007  0.9118800E+02  0.7816164E-02  0.1184000E+00
        -11   -1    0    0    0    0  0.00000000000E+00  0.00000000000E+00  0.45593999997E+02  0.45594000000E+02  0.51100000000E-03 0. -1.
         11   -1    0    0    0    0 -0.00000000000E+00 -0.00000000000E+00 -0.45593999997E+02  0.45594000000E+02  0.51100000000E-03 0.  1.
         23    2    1    2    0    0  0.71054273576E-14 -0.17763568394E-14  0.17763568394E-14  0.91188000000E+02  0.91188000000E+02 0.  0.
    9900012    2    3    3    0    0  0.32427935102E+02  0.15498473167E+02 -0.80003816931E+01  0.54367085390E+02  0.40000002764E+02 0.  0.
         12    1    3    3    0    0 -0.32427935102E+02 -0.15498473167E+02  0.80003816931E+01  0.36820914610E+02  0.00000000000E+00 0. -1.
         11    1    4    4    0    0  0.12628546054E+02  0.37472005974E+01 -0.67861334950E+01  0.14818005798E+02  0.51100000000E-03 0. -1.
        -11    1    4    4    0    0  0.27967616459E+02  0.10706893666E+02 -0.52087760840E+01  0.30396652627E+02  0.51100000000E-03 0.  1.
         12    1    4    4    0    0 -0.81682274108E+01  0.10443789041E+01  0.39945278859E+01  0.91524269657E+01  0.00000000000E+00 0. -1.
</event>
<event>
 8    1  0.3137106E-007  0.9118800E+02  0.7816164E-02  0.1184000E+00
        -11   -1    0    0    0    0  0.00000000000E+00  0.00000000000E+00  0.45593999997E+02  0.45594000000E+02  0.51100000000E-03 0.  1.
         11   -1    0    0    0    0 -0.00000000000E+00 -0.00000000000E+00 -0.45593999997E+02  0.45594000000E+02  0.51100000000E-03 0. -1.
         23    2    1    2    0    0  0.00000000000E+00 -0.35527136788E-14  0.88817841970E-15  0.91188000000E+02  0.91188000000E+02 0.  0.
    9900012    2    3    3    0    0 -0.21539934262E+02  0.29837477208E+02  0.12393186551E+01  0.54367085768E+02  0.40000003626E+02 0.  0.
         12    1    3    3    0    0  0.21539934262E+02 -0.29837477208E+02 -0.12393186551E+01  0.36820914232E+02  0.00000000000E+00 0. -1.
         11    1    4    4    0    0  0.24788328678E+01  0.21448161775E+01 -0.75423811390E+01  0.82238897322E+01  0.51100000000E-03 0. -1.
        -11    1    4    4    0    0 -0.17895173214E+02  0.31651978637E+02  0.11834392827E+02  0.38237910898E+02  0.51100000000E-03 0.  1.
        -12    1    4    4    0    0 -0.61235939153E+01 -0.39593176068E+01 -0.30526930333E+01  0.79052851376E+01  0.00000000000E+00 0.  1.
</event>
<event>
 8    1  0.3137106E-007  0.9118800E+02  0.7816164E-02  0.1184000E+00
        -11   -1    0    0    0    0  0.00000000000E+00  0.00000000000E+00  0.45593999997E+02  0.45594000000E+02  0.51100000000E-03 0.  1.
         11   -1    0    0    0    0 -0.00000000000E+00 -0.00000000000E+00 -0.45593999997E+02  0.45594000000E+02  0.51100000000E-03 0. -1.
         23    2    1    2    0    0  0.00000000000E+00  0.17763568394E-14  0.00000000000E+00  0.91188000000E+02  0.91188000000E+02 0.  0.
    9900012    2    3    3    0    0 -0.16812103364E+02 -0.64059818294E+01 -0.32126273831E+02  0.54367069906E+02  0.39999967466E+02 0.  0.
        -12    1    3    3    0    0  0.16812103364E+02  0.64059818294E+01  0.32126273831E+02  0.36820930094E+02  0.00000000000E+00 0.  1.
         11    1    4    4    0    0 -0.48456190893E+01 -0.13863864947E+02  0.13156736523E+01  0.14745093186E+02  0.51100000000E-03 0. -1.
        -11    1    4    4    0    0  0.20090728485E+01 -0.10190620657E+01 -0.14187006630E+02  0.14364749165E+02  0.51100000000E-03 0.  1.
        -12    1    4    4    0    0 -0.13975557123E+02  0.84769451834E+01 -0.19254940853E+02  0.25257227555E+02  0.00000000000E+00 0.  1.
</event>
<event>
 8    1  0.3137106E-007  0.9118800E+02  0.7816164E-02  0.1184000E+00
        -11   -1    0    0    0    0  0.00000000000E+00  0.00000000000E+00  0.45593999997E+02  0.45594000000E+02  0.51100000000E-03 0. -1.
         11   -1    0    0    0    0 -0.00000000000E+00 -0.00000000000E+00 -0.45593999997E+02  0.45594000000E+02  0.51100000000E-03 0.  1.
         23    2    1    2    0    0  0.00000000000E+00 -0.88817841970E-15  0.00000000000E+00  0.91188000000E+02  0.91188000000E+02 0.  0.
    9900012    2    3    3    0    0 -0.32321096490E+01 -0.51950729028E+01 -0.36309018289E+02  0.54367080343E+02  0.39999991259E+02 0.  0.
         12    1    3    3    0    0  0.32321096490E+01  0.51950729028E+01  0.36309018289E+02  0.36820919657E+02  0.00000000000E+00 0. -1.
         11    1    4    4    0    0  0.36903986844E+01 -0.49670524091E+00 -0.51137273835E+01  0.63258174618E+01  0.51100000000E-03 0. -1.
        -11    1    4    4    0    0  0.10910088669E+02 -0.12376245645E+02 -0.99763835224E+01  0.19280293553E+02  0.51100000000E-03 0.  1.
         12    1    4    4    0    0 -0.17832597003E+02  0.76778779832E+01 -0.21218907383E+02  0.28760969329E+02  0.00000000000E+00 0. -1.
</event>
<event>
 8    1  0.3137106E-007  0.9118800E+02  0.7816164E-02  0.1184000E+00
        -11   -1    0    0    0    0  0.00000000000E+00  0.00000000000E+00  0.45593999997E+02  0.45594000000E+02  0.51100000000E-03 0. -1.
         11   -1    0    0    0    0 -0.00000000000E+00 -0.00000000000E+00 -0.45593999997E+02  0.45594000000E+02  0.51100000000E-03 0.  1.
         23    2    1    2    0    0  0.35527136788E-14 -0.35527136788E-14  0.00000000000E+00  0.91188000000E+02  0.91188000000E+02 0.  0.
    9900012    2    3    3    0    0 -0.14419502319E+02  0.59349235892E+01  0.33356163286E+02  0.54367095689E+02  0.40000026242E+02 0.  0.
        -12    1    3    3    0    0  0.14419502319E+02 -0.59349235892E+01 -0.33356163286E+02  0.36820904311E+02  0.00000000000E+00 0.  1.
         11    1    4    4    0    0  0.42067835141E+01 -0.10443117092E+02  0.74975379300E+00  0.11283521309E+02  0.51100000000E-03 0. -1.
        -11    1    4    4    0    0 -0.16579408746E+02  0.17118860296E+02  0.22601113654E+02  0.32844215790E+02  0.51100000000E-03 0.  1.
        -12    1    4    4    0    0 -0.20468770865E+01 -0.74081961519E+00  0.10005295839E+02  0.10239358590E+02  0.00000000000E+00 0.  1.
</event>
<event>
 8    1  0.3137106E-007  0.9118800E+02  0.7816164E-02  0.1184000E+00
        -11   -1    0    0    0    0  0.00000000000E+00  0.00000000000E+00  0.45593999997E+02  0.45594000000E+02  0.51100000000E-03 0.  1.
         11   -1    0    0    0    0 -0.00000000000E+00 -0.00000000000E+00 -0.45593999997E+02  0.45594000000E+02  0.51100000000E-03 0. -1.
         23    2    1    2    0    0  0.00000000000E+00  0.17763568394E-14  0.35527136788E-14  0.91188000000E+02  0.91188000000E+02 0.  0.
    9900012    2    3    3    0    0  0.12999177341E+02  0.14072382277E+02 -0.31444701759E+02  0.54367084433E+02  0.40000000581E+02 0.  0.
        -12    1    3    3    0    0 -0.12999177341E+02 -0.14072382277E+02  0.31444701759E+02  0.36820915567E+02  0.00000000000E+00 0.  1.
         11    1    4    4    0    0  0.16818511312E+02  0.21902869069E+02 -0.16255176395E+02  0.32044168831E+02  0.51100000000E-03 0. -1.
        -11    1    4    4    0    0 -0.18485501401E+01 -0.43940898918E+01  0.16339459737E+01  0.50393395702E+01  0.51100000000E-03 0.  1.
         12    1    4    4    0    0 -0.19707838311E+01 -0.34363968996E+01 -0.16823471338E+02  0.17283576031E+02  0.00000000000E+00 0. -1.
</event>
<event>
 8    1  0.3137106E-007  0.9118800E+02  0.7816164E-02  0.1184000E+00
        -11   -1    0    0    0    0  0.00000000000E+00  0.00000000000E+00  0.45593999997E+02  0.45594000000E+02  0.51100000000E-03 0. -1.
         11   -1    0    0    0    0 -0.00000000000E+00 -0.00000000000E+00 -0.45593999997E+02  0.45594000000E+02  0.51100000000E-03 0.  1.
         23    2    1    2    0    0  0.15543122345E-14 -0.17763568394E-14 -0.71054273576E-14  0.91188000000E+02  0.91188000000E+02 0.  0.
    9900012    2    3    3    0    0  0.13130598490E+01  0.13296860943E+02 -0.34311067715E+02  0.54367081966E+02  0.39999994959E+02 0.  0.
         12    1    3    3    0    0 -0.13130598490E+01 -0.13296860943E+02  0.34311067715E+02  0.36820918034E+02  0.00000000000E+00 0. -1.
         11    1    4    4    0    0 -0.59225056358E+01  0.86317674233E-01  0.25809273170E+00  0.59287550014E+01  0.51100000000E-03 0. -1.
        -11    1    4    4    0    0  0.18202366633E+02  0.12757438969E+02 -0.18192597331E+02  0.28723666166E+02  0.51100000000E-03 0.  1.
        -12    1    4    4    0    0 -0.10966801148E+02  0.45310429931E+00 -0.16376563116E+02  0.19714660799E+02  0.00000000000E+00 0.  1.
</event>
<event>
 8    1  0.3137106E-007  0.9118800E+02  0.7816164E-02  0.1184000E+00
        -11   -1    0    0    0    0  0.00000000000E+00  0.00000000000E+00  0.45593999997E+02  0.45594000000E+02  0.51100000000E-03 0.  1.
         11   -1    0    0    0    0 -0.00000000000E+00 -0.00000000000E+00 -0.45593999997E+02  0.45594000000E+02  0.51100000000E-03 0. -1.
         23    2    1    2    0    0 -0.61062266354E-15 -0.71054273576E-14  0.33306690739E-15  0.91188000000E+02  0.91188000000E+02 0.  0.
    9900012    2    3    3    0    0 -0.41089230483E+00  0.36816801724E+02  0.37151543936E+00  0.54367031173E+02  0.39999879164E+02 0.  0.
        -12    1    3    3    0    0  0.41089230483E+00 -0.36816801724E+02 -0.37151543936E+00  0.36820968827E+02  0.00000000000E+00 0.  1.
         11    1    4    4    0    0  0.83213752217E+01 -0.33730938996E+01  0.10539017239E+01  0.90406723832E+01  0.51100000000E-03 0. -1.
        -11    1    4    4    0    0 -0.14240382832E+02  0.27207578025E+02  0.26890535139E+01  0.30826479109E+02  0.51100000000E-03 0.  1.
        -12    1    4    4    0    0  0.55081153051E+01  0.12982317598E+02 -0.33714397984E+01  0.14499879681E+02  0.00000000000E+00 0.  1.
</event>
<event>
 8    1  0.3137106E-007  0.9118800E+02  0.7816164E-02  0.1184000E+00
        -11   -1    0    0    0    0  0.00000000000E+00  0.00000000000E+00  0.45593999997E+02  0.45594000000E+02  0.51100000000E-03 0.  1.
         11   -1    0    0    0    0 -0.00000000000E+00 -0.00000000000E+00 -0.45593999997E+02  0.45594000000E+02  0.51100000000E-03 0. -1.
         23    2    1    2    0    0  0.00000000000E+00  0.17763568394E-14  0.00000000000E+00  0.91188000000E+02  0.91188000000E+02 0.  0.
    9900012    2    3    3    0    0  0.87390152190E+01 -0.92290845032E+01 -0.34557697993E+02  0.54367070105E+02  0.39999967919E+02 0.  0.
        -12    1    3    3    0    0 -0.87390152190E+01  0.92290845032E+01  0.34557697993E+02  0.36820929895E+02  0.00000000000E+00 0.  1.
         11    1    4    4    0    0  0.99411068323E+01 -0.18723783141E+01  0.24312775367E+01  0.10403966375E+02  0.51100000000E-03 0. -1.
        -11    1    4    4    0    0  0.85114112457E+01 -0.70689690343E+01 -0.87718189543E+01  0.14119463610E+02  0.51100000000E-03 0.  1.
        -12    1    4    4    0    0 -0.97135028590E+01 -0.28773715486E+00 -0.28217156575E+02  0.29843640121E+02  0.00000000000E+00 0.  1.
</event>
<event>
 8    1  0.3137106E-007  0.9118800E+02  0.7816164E-02  0.1184000E+00
        -11   -1    0    0    0    0  0.00000000000E+00  0.00000000000E+00  0.45593999997E+02  0.45594000000E+02  0.51100000000E-03 0. -1.
         11   -1    0    0    0    0 -0.00000000000E+00 -0.00000000000E+00 -0.45593999997E+02  0.45594000000E+02  0.51100000000E-03 0.  1.
         23    2    1    2    0    0  0.00000000000E+00 -0.17763568394E-14 -0.17763568394E-14  0.91188000000E+02  0.91188000000E+02 0.  0.
    9900012    2    3    3    0    0  0.31158789423E+02  0.15288578728E+02  0.12295088017E+02  0.54367082206E+02  0.39999995506E+02 0.  0.
        -12    1    3    3    0    0 -0.31158789423E+02 -0.15288578728E+02 -0.12295088017E+02  0.36820917794E+02  0.00000000000E+00 0.  1.
         11    1    4    4    0    0 -0.41524756882E+01  0.13039707555E+02  0.93503817997E+01  0.16574277285E+02  0.51100000000E-03 0. -1.
        -11    1    4    4    0    0  0.16576039588E+02 -0.35710089136E+01  0.58992426620E+01  0.17953224148E+02  0.51100000000E-03 0.  1.
         12    1    4    4    0    0  0.18735225524E+02  0.58198800868E+01 -0.29545364449E+01  0.19839580773E+02  0.00000000000E+00 0. -1.
</event>
<event>
 8    1  0.3137106E-007  0.9118800E+02  0.7816164E-02  0.1184000E+00
        -11   -1    0    0    0    0  0.00000000000E+00  0.00000000000E+00  0.45593999997E+02  0.45594000000E+02  0.51100000000E-03 0.  1.
         11   -1    0    0    0    0 -0.00000000000E+00 -0.00000000000E+00 -0.45593999997E+02  0.45594000000E+02  0.51100000000E-03 0. -1.
         23    2    1    2    0    0  0.00000000000E+00  0.00000000000E+00  0.00000000000E+00  0.91188000000E+02  0.91188000000E+02 0.  0.
    9900012    2    3    3    0    0  0.12846497758E+02  0.23724086565E+02 -0.25058218225E+02  0.54367094408E+02  0.40000023322E+02 0.  0.
         12    1    3    3    0    0 -0.12846497758E+02 -0.23724086565E+02  0.25058218225E+02  0.36820905592E+02  0.00000000000E+00 0. -1.
         11    1    4    4    0    0  0.62449865554E+01 -0.53531151238E+01 -0.65288956043E+01  0.10501532111E+02  0.51100000000E-03 0. -1.
        -11    1    4    4    0    0  0.75981030686E+01  0.38251540894E+01  0.45448060714E+01  0.96445962350E+01  0.51100000000E-03 0.  1.
         12    1    4    4    0    0 -0.99659186597E+00  0.25252047600E+02 -0.23074128692E+02  0.34220966062E+02  0.00000000000E+00 0. -1.
</event>
<event>
 8    1  0.3137106E-007  0.9118800E+02  0.7816164E-02  0.1184000E+00
        -11   -1    0    0    0    0  0.00000000000E+00  0.00000000000E+00  0.45593999997E+02  0.45594000000E+02  0.51100000000E-03 0. -1.
         11   -1    0    0    0    0 -0.00000000000E+00 -0.00000000000E+00 -0.45593999997E+02  0.45594000000E+02  0.51100000000E-03 0.  1.
         23    2    1    2    0    0 -0.88817841970E-15 -0.22204460493E-15  0.00000000000E+00  0.91188000000E+02  0.91188000000E+02 0.  0.
    9900012    2    3    3    0    0 -0.62023558156E+01 -0.58617461450E+00  0.36290049649E+02  0.54367074945E+02  0.39999978952E+02 0.  0.
        -12    1    3    3    0    0  0.62023558156E+01  0.58617461450E+00 -0.36290049649E+02  0.36820925055E+02  0.00000000000E+00 0.  1.
         11    1    4    4    0    0 -0.18037337574E+02 -0.49700384941E+01  0.13197728265E+02  0.22896000983E+02  0.51100000000E-03 0. -1.
        -11    1    4    4    0    0  0.54505621406E+01 -0.50189040931E+01  0.22706181451E+01  0.77494343643E+01  0.51100000000E-03 0.  1.
         12    1    4    4    0    0  0.63844196181E+01  0.94027679727E+01  0.20821703240E+02  0.23721639598E+02  0.00000000000E+00 0. -1.
</event>
<event>
 8    1  0.3137106E-007  0.9118800E+02  0.7816164E-02  0.1184000E+00
        -11   -1    0    0    0    0  0.00000000000E+00  0.00000000000E+00  0.45593999997E+02  0.45594000000E+02  0.51100000000E-03 0. -1.
         11   -1    0    0    0    0 -0.00000000000E+00 -0.00000000000E+00 -0.45593999997E+02  0.45594000000E+02  0.51100000000E-03 0.  1.
         23    2    1    2    0    0  0.00000000000E+00  0.00000000000E+00  0.00000000000E+00  0.91188000000E+02  0.91188000000E+02 0.  0.
    9900012    2    3    3    0    0 -0.34629491558E+02 -0.70294080076E+01  0.10351756273E+02  0.54367175452E+02  0.40000208076E+02 0.  0.
        -12    1    3    3    0    0  0.34629491558E+02  0.70294080076E+01 -0.10351756273E+02  0.36820824548E+02  0.00000000000E+00 0.  1.
         11    1    4    4    0    0 -0.36208944569E+01  0.10933375544E+02  0.74019463544E+01  0.13690813984E+02  0.51100000000E-03 0. -1.
        -11    1    4    4    0    0 -0.20118457651E+02 -0.30419506531E+01  0.74424915044E+01  0.21665559815E+02  0.51100000000E-03 0.  1.
        -12    1    4    4    0    0 -0.10890139450E+02 -0.14920832899E+02 -0.44926815862E+01  0.19010801652E+02  0.00000000000E+00 0.  1.
</event>
<event>
 8    1  0.3137106E-007  0.9118800E+02  0.7816164E-02  0.1184000E+00
        -11   -1    0    0    0    0  0.00000000000E+00  0.00000000000E+00  0.45593999997E+02  0.45594000000E+02  0.51100000000E-03 0.  1.
         11   -1    0    0    0    0 -0.00000000000E+00 -0.00000000000E+00 -0.45593999997E+02  0.45594000000E+02  0.51100000000E-03 0. -1.
         23    2    1    2    0    0  0.00000000000E+00 -0.13322676296E-14  0.00000000000E+00  0.91188000000E+02  0.91188000000E+02 0.  0.
    9900012    2    3    3    0    0 -0.14146576206E+02 -0.19985826309E+01  0.33936025438E+02  0.54367166585E+02  0.40000187863E+02 0.  0.
         12    1    3    3    0    0  0.14146576206E+02  0.19985826309E+01 -0.33936025438E+02  0.36820833415E+02  0.00000000000E+00 0. -1.
         11    1    4    4    0    0 -0.45122836799E+01  0.56240260521E+01  0.13333703369E+02  0.15158430619E+02  0.51100000000E-03 0. -1.
        -11    1    4    4    0    0 -0.14885280323E+01 -0.18912677345E+02  0.15068425111E+02  0.24227309294E+02  0.51100000000E-03 0.  1.
         12    1    4    4    0    0 -0.81457644933E+01  0.11290068662E+02  0.55338969575E+01  0.14981426671E+02  0.00000000000E+00 0. -1.
</event>
<event>
 8    1  0.3137106E-007  0.9118800E+02  0.7816164E-02  0.1184000E+00
        -11   -1    0    0    0    0  0.00000000000E+00  0.00000000000E+00  0.45593999997E+02  0.45594000000E+02  0.51100000000E-03 0.  1.
         11   -1    0    0    0    0 -0.00000000000E+00 -0.00000000000E+00 -0.45593999997E+02  0.45594000000E+02  0.51100000000E-03 0. -1.
         23    2    1    2    0    0  0.17763568394E-14 -0.35527136788E-14  0.35527136788E-14  0.91188000000E+02  0.91188000000E+02 0.  0.
    9900012    2    3    3    0    0 -0.81415678396E+01  0.31360664989E+02 -0.17492894466E+02  0.54367112012E+02  0.40000063453E+02 0.  0.
        -12    1    3    3    0    0  0.81415678396E+01 -0.31360664989E+02  0.17492894466E+02  0.36820887988E+02  0.00000000000E+00 0.  1.
         11    1    4    4    0    0 -0.21005682474E+01 -0.30274379705E+01  0.68767502309E+01  0.78017601621E+01  0.51100000000E-03 0.  1.
        -11    1    4    4    0    0 -0.11451694447E+02  0.22906971559E+02 -0.21763512373E+02  0.33608349004E+02  0.51100000000E-03 0. -1.
         12    1    4    4    0    0  0.54106948548E+01  0.11481131401E+02 -0.26061323243E+01  0.12957002846E+02  0.00000000000E+00 0. -1.
</event>
<event>
 8    1  0.3137106E-007  0.9118800E+02  0.7816164E-02  0.1184000E+00
        -11   -1    0    0    0    0  0.00000000000E+00  0.00000000000E+00  0.45593999997E+02  0.45594000000E+02  0.51100000000E-03 0. -1.
         11   -1    0    0    0    0 -0.00000000000E+00 -0.00000000000E+00 -0.45593999997E+02  0.45594000000E+02  0.51100000000E-03 0.  1.
         23    2    1    2    0    0 -0.88817841970E-15  0.00000000000E+00  0.00000000000E+00  0.91188000000E+02  0.91188000000E+02 0.  0.
    9900012    2    3    3    0    0  0.66372972975E+01  0.34662939236E+02  0.10497912672E+02  0.54367092320E+02  0.40000018561E+02 0.  0.
        -12    1    3    3    0    0 -0.66372972975E+01 -0.34662939236E+02 -0.10497912672E+02  0.36820907680E+02  0.00000000000E+00 0.  1.
         11    1    4    4    0    0  0.14161344069E+02  0.38552464647E+01  0.24116290820E+01  0.14873551904E+02  0.51100000000E-03 0. -1.
        -11    1    4    4    0    0 -0.82905991230E+01  0.39983822033E+01 -0.40489856147E+01  0.10055614294E+02  0.51100000000E-03 0.  1.
         12    1    4    4    0    0  0.76655235143E+00  0.26809310568E+02  0.12135269205E+02  0.29437926122E+02  0.00000000000E+00 0. -1.
</event>
<event>
 8    1  0.3137106E-007  0.9118800E+02  0.7816164E-02  0.1184000E+00
        -11   -1    0    0    0    0  0.00000000000E+00  0.00000000000E+00  0.45593999997E+02  0.45594000000E+02  0.51100000000E-03 0. -1.
         11   -1    0    0    0    0 -0.00000000000E+00 -0.00000000000E+00 -0.45593999997E+02  0.45594000000E+02  0.51100000000E-03 0.  1.
         23    2    1    2    0    0  0.00000000000E+00 -0.35527136788E-14 -0.88817841970E-15  0.91188000000E+02  0.91188000000E+02 0.  0.
    9900012    2    3    3    0    0 -0.27355071521E+02 -0.24382067043E+02 -0.36051744670E+01  0.54367049250E+02  0.39999920376E+02 0.  0.
         12    1    3    3    0    0  0.27355071521E+02  0.24382067043E+02  0.36051744670E+01  0.36820950750E+02  0.00000000000E+00 0. -1.
         11    1    4    4    0    0 -0.16980310304E+01 -0.85250246447E+01  0.11703302262E+02  0.14578293407E+02  0.51100000000E-03 0. -1.
        -11    1    4    4    0    0  0.63684290545E+00  0.37845512211E+01 -0.23686841560E+01  0.45098848902E+01  0.51100000000E-03 0.  1.
         12    1    4    4    0    0 -0.26293883396E+02 -0.19641593619E+02 -0.12939792573E+02  0.35278870953E+02  0.00000000000E+00 0. -1.
</event>
<event>
 8    1  0.3137106E-007  0.9118800E+02  0.7816164E-02  0.1184000E+00
        -11   -1    0    0    0    0  0.00000000000E+00  0.00000000000E+00  0.45593999997E+02  0.45594000000E+02  0.51100000000E-03 0.  1.
         11   -1    0    0    0    0 -0.00000000000E+00 -0.00000000000E+00 -0.45593999997E+02  0.45594000000E+02  0.51100000000E-03 0. -1.
         23    2    1    2    0    0  0.00000000000E+00  0.88817841970E-15 -0.17763568394E-14  0.91188000000E+02  0.91188000000E+02 0.  0.
    9900012    2    3    3    0    0  0.34870675953E+02 -0.52407539715E+01 -0.10599540833E+02  0.54367084619E+02  0.40000001007E+02 0.  0.
        -12    1    3    3    0    0 -0.34870675953E+02  0.52407539715E+01  0.10599540833E+02  0.36820915381E+02  0.00000000000E+00 0.  1.
         11    1    4    4    0    0  0.30312177743E+02 -0.74945930944E+01 -0.45832208312E+01  0.31559514550E+02  0.51100000000E-03 0. -1.
        -11    1    4    4    0    0 -0.33721518357E+01  0.30520366971E+01 -0.12005059803E+02  0.12837748912E+02  0.51100000000E-03 0.  1.
        -12    1    4    4    0    0  0.79306500453E+01 -0.79819757410E+00  0.59887398007E+01  0.99698211573E+01  0.00000000000E+00 0.  1.
</event>
<event>
 8    1  0.3137106E-007  0.9118800E+02  0.7816164E-02  0.1184000E+00
        -11   -1    0    0    0    0  0.00000000000E+00  0.00000000000E+00  0.45593999997E+02  0.45594000000E+02  0.51100000000E-03 0.  1.
         11   -1    0    0    0    0 -0.00000000000E+00 -0.00000000000E+00 -0.45593999997E+02  0.45594000000E+02  0.51100000000E-03 0. -1.
         23    2    1    2    0    0  0.00000000000E+00 -0.17763568394E-14  0.00000000000E+00  0.91188000000E+02  0.91188000000E+02 0.  0.
    9900012    2    3    3    0    0  0.61613473524E+01  0.51442502872E+01 -0.35935421739E+02  0.54367081384E+02  0.39999993630E+02 0.  0.
        -12    1    3    3    0    0 -0.61613473524E+01 -0.51442502872E+01  0.35935421739E+02  0.36820918616E+02  0.00000000000E+00 0.  1.
         11    1    4    4    0    0 -0.64217156159E+01  0.38163520771E+01 -0.71989590763E+01  0.10374390906E+02  0.51100000000E-03 0. -1.
        -11    1    4    4    0    0  0.65212804320E+01  0.10196490029E+02  0.12233747613E+01  0.12165202565E+02  0.51100000000E-03 0.  1.
         12    1    4    4    0    0  0.60617825363E+01 -0.88685918188E+01 -0.29959837424E+02  0.31827487912E+02  0.00000000000E+00 0. -1.
</event>
<event>
 8    1  0.3137106E-007  0.9118800E+02  0.7816164E-02  0.1184000E+00
        -11   -1    0    0    0    0  0.00000000000E+00  0.00000000000E+00  0.45593999997E+02  0.45594000000E+02  0.51100000000E-03 0.  1.
         11   -1    0    0    0    0 -0.00000000000E+00 -0.00000000000E+00 -0.45593999997E+02  0.45594000000E+02  0.51100000000E-03 0. -1.
         23    2    1    2    0    0 -0.44408920985E-15  0.00000000000E+00 -0.71054273576E-14  0.91188000000E+02  0.91188000000E+02 0.  0.
    9900012    2    3    3    0    0 -0.24111324652E+01  0.11204074949E+02 -0.34991930687E+02  0.54367081103E+02  0.39999992991E+02 0.  0.
        -12    1    3    3    0    0  0.24111324652E+01 -0.11204074949E+02  0.34991930687E+02  0.36820918897E+02  0.00000000000E+00 0.  1.
         11    1    4    4    0    0 -0.95212844001E+00  0.10533970312E+02 -0.29525197138E+02  0.31362530915E+02  0.51100000000E-03 0. -1.
        -11    1    4    4    0    0 -0.82091595820E+01 -0.79280682820E+01 -0.26464835981E+01  0.11715308081E+02  0.51100000000E-03 0.  1.
        -12    1    4    4    0    0  0.67501555569E+01  0.85981729186E+01 -0.28202499510E+01  0.11289242108E+02  0.00000000000E+00 0.  1.
</event>
<event>
 8    1  0.3137106E-007  0.9118800E+02  0.7816164E-02  0.1184000E+00
        -11   -1    0    0    0    0  0.00000000000E+00  0.00000000000E+00  0.45593999997E+02  0.45594000000E+02  0.51100000000E-03 0. -1.
         11   -1    0    0    0    0 -0.00000000000E+00 -0.00000000000E+00 -0.45593999997E+02  0.45594000000E+02  0.51100000000E-03 0.  1.
         23    2    1    2    0    0 -0.17763568394E-14  0.00000000000E+00 -0.71054273576E-14  0.91188000000E+02  0.91188000000E+02 0.  0.
    9900012    2    3    3    0    0  0.56077752542E+01  0.25035350408E+02  0.26411541490E+02  0.54367008199E+02  0.39999826791E+02 0.  0.
        -12    1    3    3    0    0 -0.56077752542E+01 -0.25035350408E+02 -0.26411541490E+02  0.36820991801E+02  0.00000000000E+00 0.  1.
         11    1    4    4    0    0  0.13793894173E+02  0.79302980329E+00 -0.27851056474E+01  0.14094581458E+02  0.51100000000E-03 0. -1.
        -11    1    4    4    0    0 -0.10505106014E+02  0.17510229283E+02  0.23657549963E+02  0.31251320811E+02  0.51100000000E-03 0.  1.
         12    1    4    4    0    0  0.23189870953E+01  0.67320913210E+01  0.55390971739E+01  0.90211059302E+01  0.00000000000E+00 0. -1.
</event>
<event>
 8    1  0.3137106E-007  0.9118800E+02  0.7816164E-02  0.1184000E+00
        -11   -1    0    0    0    0  0.00000000000E+00  0.00000000000E+00  0.45593999997E+02  0.45594000000E+02  0.51100000000E-03 0. -1.
         11   -1    0    0    0    0 -0.00000000000E+00 -0.00000000000E+00 -0.45593999997E+02  0.45594000000E+02  0.51100000000E-03 0.  1.
         23    2    1    2    0    0 -0.44408920985E-15  0.00000000000E+00  0.00000000000E+00  0.91188000000E+02  0.91188000000E+02 0.  0.
    9900012    2    3    3    0    0 -0.17788019714E+01 -0.48625892251E+01 -0.36455105542E+02  0.54367032732E+02  0.39999882720E+02 0.  0.
         12    1    3    3    0    0  0.17788019714E+01  0.48625892251E+01  0.36455105542E+02  0.36820967268E+02  0.00000000000E+00 0. -1.
         11    1    4    4    0    0  0.72348118132E+01 -0.22693616941E+01 -0.26564411986E+02  0.27625359525E+02  0.51100000000E-03 0.  1.
        -11    1    4    4    0    0 -0.45155275987E+01  0.70766635399E+01  0.39427973969E+01  0.92744168510E+01  0.51100000000E-03 0. -1.
        -12    1    4    4    0    0 -0.44980861858E+01 -0.96698910710E+01 -0.13833490953E+02  0.17467256356E+02  0.00000000000E+00 0.  1.
</event>
<event>
 8    1  0.3137106E-007  0.9118800E+02  0.7816164E-02  0.1184000E+00
        -11   -1    0    0    0    0  0.00000000000E+00  0.00000000000E+00  0.45593999997E+02  0.45594000000E+02  0.51100000000E-03 0.  1.
         11   -1    0    0    0    0 -0.00000000000E+00 -0.00000000000E+00 -0.45593999997E+02  0.45594000000E+02  0.51100000000E-03 0. -1.
         23    2    1    2    0    0  0.00000000000E+00 -0.35527136788E-14  0.11102230246E-14  0.91188000000E+02  0.91188000000E+02 0.  0.
    9900012    2    3    3    0    0 -0.22721342184E+02  0.28927619560E+02  0.16468113954E+01  0.54367101698E+02  0.40000039940E+02 0.  0.
         12    1    3    3    0    0  0.22721342184E+02 -0.28927619560E+02 -0.16468113954E+01  0.36820898302E+02  0.00000000000E+00 0. -1.
         11    1    4    4    0    0 -0.91397176735E+01  0.16442940787E+02  0.12111814705E+02  0.22374109962E+02  0.51100000000E-03 0.  1.
        -11    1    4    4    0    0  0.52162150879E+00  0.15051936419E+01 -0.13731648278E+02  0.13823742677E+02  0.51100000000E-03 0. -1.
        -12    1    4    4    0    0 -0.14103246019E+02  0.10979485130E+02  0.32666449690E+01  0.18169249059E+02  0.00000000000E+00 0.  1.
</event>
<event>
 8    1  0.3137106E-007  0.9118800E+02  0.7816164E-02  0.1184000E+00
        -11   -1    0    0    0    0  0.00000000000E+00  0.00000000000E+00  0.45593999997E+02  0.45594000000E+02  0.51100000000E-03 0.  1.
         11   -1    0    0    0    0 -0.00000000000E+00 -0.00000000000E+00 -0.45593999997E+02  0.45594000000E+02  0.51100000000E-03 0. -1.
         23    2    1    2    0    0  0.00000000000E+00  0.00000000000E+00  0.35527136788E-14  0.91188000000E+02  0.91188000000E+02 0.  0.
    9900012    2    3    3    0    0  0.18690414533E+02 -0.79484383371E+01 -0.30712726636E+02  0.54367070560E+02  0.39999968957E+02 0.  0.
        -12    1    3    3    0    0 -0.18690414533E+02  0.79484383371E+01  0.30712726636E+02  0.36820929440E+02  0.00000000000E+00 0.  1.
         11    1    4    4    0    0 -0.99338257718E+00  0.12579018406E+01  0.84332759298E+01  0.85842454039E+01  0.51100000000E-03 0.  1.
        -11    1    4    4    0    0  0.77627987356E+01 -0.60245029835E+01 -0.25796995107E+02  0.27605083540E+02  0.51100000000E-03 0. -1.
        -12    1    4    4    0    0  0.11920998374E+02 -0.31818371942E+01 -0.13349007458E+02  0.18177741617E+02  0.00000000000E+00 0.  1.
</event>
<event>
 8    1  0.3137106E-007  0.9118800E+02  0.7816164E-02  0.1184000E+00
        -11   -1    0    0    0    0  0.00000000000E+00  0.00000000000E+00  0.45593999997E+02  0.45594000000E+02  0.51100000000E-03 0. -1.
         11   -1    0    0    0    0 -0.00000000000E+00 -0.00000000000E+00 -0.45593999997E+02  0.45594000000E+02  0.51100000000E-03 0.  1.
         23    2    1    2    0    0  0.00000000000E+00 -0.35527136788E-14  0.00000000000E+00  0.91188000000E+02  0.91188000000E+02 0.  0.
    9900012    2    3    3    0    0  0.20377621609E+02 -0.24289145731E+02 -0.18723461807E+02  0.54367108039E+02  0.40000054397E+02 0.  0.
         12    1    3    3    0    0 -0.20377621609E+02  0.24289145731E+02  0.18723461807E+02  0.36820891961E+02  0.00000000000E+00 0. -1.
         11    1    4    4    0    0  0.11023589214E+02 -0.23271247027E+02  0.80227593776E+00  0.25762649403E+02  0.51100000000E-03 0.  1.
        -11    1    4    4    0    0  0.88821550884E+01  0.59288581055E+01 -0.36782646408E+01  0.11294851415E+02  0.51100000000E-03 0. -1.
        -12    1    4    4    0    0  0.47187730618E+00 -0.69467568098E+01 -0.15847473104E+02  0.17309607221E+02  0.00000000000E+00 0.  1.
</event>
<event>
 8    1  0.3137106E-007  0.9118800E+02  0.7816164E-02  0.1184000E+00
        -11   -1    0    0    0    0  0.00000000000E+00  0.00000000000E+00  0.45593999997E+02  0.45594000000E+02  0.51100000000E-03 0.  1.
         11   -1    0    0    0    0 -0.00000000000E+00 -0.00000000000E+00 -0.45593999997E+02  0.45594000000E+02  0.51100000000E-03 0. -1.
         23    2    1    2    0    0  0.00000000000E+00 -0.35527136788E-14  0.00000000000E+00  0.91188000000E+02  0.91188000000E+02 0.  0.
    9900012    2    3    3    0    0 -0.25353074648E+02 -0.19664940936E+02  0.18063538680E+02  0.54367085756E+02  0.40000003599E+02 0.  0.
        -12    1    3    3    0    0  0.25353074648E+02  0.19664940936E+02 -0.18063538680E+02  0.36820914244E+02  0.00000000000E+00 0.  1.
         11    1    4    4    0    0 -0.13121845430E+02 -0.27044796462E+02  0.10752525126E+02  0.31925235160E+02  0.51100000000E-03 0. -1.
        -11    1    4    4    0    0  0.23885875513E+01  0.21297812683E+01 -0.25070765475E+01  0.40653107898E+01  0.51100000000E-03 0.  1.
         12    1    4    4    0    0 -0.14619816769E+02  0.52500742573E+01  0.98180901007E+01  0.18376539807E+02  0.00000000000E+00 0. -1.
</event>
<event>
 8    1  0.3137106E-007  0.9118800E+02  0.7816164E-02  0.1184000E+00
        -11   -1    0    0    0    0  0.00000000000E+00  0.00000000000E+00  0.45593999997E+02  0.45594000000E+02  0.51100000000E-03 0. -1.
         11   -1    0    0    0    0 -0.00000000000E+00 -0.00000000000E+00 -0.45593999997E+02  0.45594000000E+02  0.51100000000E-03 0.  1.
         23    2    1    2    0    0  0.00000000000E+00 -0.71054273576E-14  0.00000000000E+00  0.91188000000E+02  0.91188000000E+02 0.  0.
    9900012    2    3    3    0    0  0.56040663667E+01 -0.27115104075E+02  0.24272324042E+02  0.54367080087E+02  0.39999990673E+02 0.  0.
        -12    1    3    3    0    0 -0.56040663667E+01  0.27115104075E+02 -0.24272324042E+02  0.36820919913E+02  0.00000000000E+00 0.  1.
         11    1    4    4    0    0  0.12735823508E+02 -0.91678217593E+01  0.47581968202E+01  0.16397883811E+02  0.51100000000E-03 0.  1.
        -11    1    4    4    0    0 -0.12828600054E+02 -0.68952714337E+01 -0.31097244707E+00  0.14567582216E+02  0.51100000000E-03 0. -1.
         12    1    4    4    0    0  0.56968429121E+01 -0.11052010882E+02  0.19825099669E+02  0.23401614060E+02  0.00000000000E+00 0. -1.
</event>
<event>
 8    1  0.3137106E-007  0.9118800E+02  0.7816164E-02  0.1184000E+00
        -11   -1    0    0    0    0  0.00000000000E+00  0.00000000000E+00  0.45593999997E+02  0.45594000000E+02  0.51100000000E-03 0. -1.
         11   -1    0    0    0    0 -0.00000000000E+00 -0.00000000000E+00 -0.45593999997E+02  0.45594000000E+02  0.51100000000E-03 0.  1.
         23    2    1    2    0    0  0.00000000000E+00  0.55511151231E-16 -0.35527136788E-14  0.91188000000E+02  0.91188000000E+02 0.  0.
    9900012    2    3    3    0    0  0.26231028071E+02  0.11790768438E+00 -0.25839851529E+02  0.54367100188E+02  0.40000036500E+02 0.  0.
         12    1    3    3    0    0 -0.26231028071E+02 -0.11790768438E+00  0.25839851529E+02  0.36820899812E+02  0.00000000000E+00 0. -1.
         11    1    4    4    0    0  0.88113537846E+01 -0.14974377134E+02 -0.84563266207E+01  0.19323079108E+02  0.51100000000E-03 0. -1.
        -11    1    4    4    0    0  0.28291111704E+01  0.14667089038E+02 -0.45695657433E+01  0.15620765097E+02  0.51100000000E-03 0.  1.
         12    1    4    4    0    0  0.14590563116E+02  0.42519577961E+00 -0.12813959165E+02  0.19423255983E+02  0.00000000000E+00 0. -1.
</event>
<event>
 8    1  0.3137106E-007  0.9118800E+02  0.7816164E-02  0.1184000E+00
        -11   -1    0    0    0    0  0.00000000000E+00  0.00000000000E+00  0.45593999997E+02  0.45594000000E+02  0.51100000000E-03 0.  1.
         11   -1    0    0    0    0 -0.00000000000E+00 -0.00000000000E+00 -0.45593999997E+02  0.45594000000E+02  0.51100000000E-03 0. -1.
         23    2    1    2    0    0  0.00000000000E+00 -0.17763568394E-14  0.00000000000E+00  0.91188000000E+02  0.91188000000E+02 0.  0.
    9900012    2    3    3    0    0 -0.28254692309E+02 -0.14115257156E+02  0.18926446295E+02  0.54367102518E+02  0.40000041810E+02 0.  0.
         12    1    3    3    0    0  0.28254692309E+02  0.14115257156E+02 -0.18926446295E+02  0.36820897482E+02  0.00000000000E+00 0. -1.
         11    1    4    4    0    0 -0.57697284608E+01 -0.43554632663E+01  0.16744570241E+02  0.18238433584E+02  0.51100000000E-03 0.  1.
        -11    1    4    4    0    0 -0.14782354810E+02  0.78903736327E+01  0.79502883420E-01  0.16756560828E+02  0.51100000000E-03 0. -1.
        -12    1    4    4    0    0 -0.77026090375E+01 -0.17650167522E+02  0.21023731712E+01  0.19372108107E+02  0.00000000000E+00 0.  1.
</event>
<event>
 8    1  0.3137106E-007  0.9118800E+02  0.7816164E-02  0.1184000E+00
        -11   -1    0    0    0    0  0.00000000000E+00  0.00000000000E+00  0.45593999997E+02  0.45594000000E+02  0.51100000000E-03 0. -1.
         11   -1    0    0    0    0 -0.00000000000E+00 -0.00000000000E+00 -0.45593999997E+02  0.45594000000E+02  0.51100000000E-03 0.  1.
         23    2    1    2    0    0 -0.35527136788E-14 -0.44408920985E-15  0.00000000000E+00  0.91188000000E+02  0.91188000000E+02 0.  0.
    9900012    2    3    3    0    0  0.18348285620E+02  0.10755675127E+01 -0.31905577184E+02  0.54367050989E+02  0.39999924338E+02 0.  0.
         12    1    3    3    0    0 -0.18348285620E+02 -0.10755675127E+01  0.31905577184E+02  0.36820949011E+02  0.00000000000E+00 0. -1.
         11    1    4    4    0    0  0.95584447097E+01 -0.34199768239E+01  0.13594446485E+01  0.10242470247E+02  0.51100000000E-03 0. -1.
        -11    1    4    4    0    0  0.15013421009E+02  0.87594519082E+01 -0.32082143212E+02  0.36488281975E+02  0.51100000000E-03 0.  1.
        -12    1    4    4    0    0 -0.62235800991E+01 -0.42639075716E+01 -0.11828786208E+01  0.76362987671E+01  0.00000000000E+00 0.  1.
</event>
<event>
 8    1  0.3137106E-007  0.9118800E+02  0.7816164E-02  0.1184000E+00
        -11   -1    0    0    0    0  0.00000000000E+00  0.00000000000E+00  0.45593999997E+02  0.45594000000E+02  0.51100000000E-03 0.  1.
         11   -1    0    0    0    0 -0.00000000000E+00 -0.00000000000E+00 -0.45593999997E+02  0.45594000000E+02  0.51100000000E-03 0. -1.
         23    2    1    2    0    0  0.00000000000E+00  0.00000000000E+00  0.00000000000E+00  0.91188000000E+02  0.91188000000E+02 0.  0.
    9900012    2    3    3    0    0 -0.19034732421E+02  0.25422167224E+02  0.18632501460E+02  0.54367112784E+02  0.40000065214E+02 0.  0.
         12    1    3    3    0    0  0.19034732421E+02 -0.25422167224E+02 -0.18632501460E+02  0.36820887216E+02  0.00000000000E+00 0. -1.
         11    1    4    4    0    0 -0.11338682688E+02  0.11508607999E+02 -0.73511861067E+01  0.17749752691E+02  0.51100000000E-03 0. -1.
        -11    1    4    4    0    0 -0.24913090039E+01  0.11048662850E+02  0.28110971964E+02  0.30306869128E+02  0.51100000000E-03 0.  1.
        -12    1    4    4    0    0 -0.52047407295E+01  0.28648963754E+01 -0.21272843978E+01  0.63104909645E+01  0.00000000000E+00 0.  1.
</event>
<event>
 8    1  0.3137106E-007  0.9118800E+02  0.7816164E-02  0.1184000E+00
        -11   -1    0    0    0    0  0.00000000000E+00  0.00000000000E+00  0.45593999997E+02  0.45594000000E+02  0.51100000000E-03 0.  1.
         11   -1    0    0    0    0 -0.00000000000E+00 -0.00000000000E+00 -0.45593999997E+02  0.45594000000E+02  0.51100000000E-03 0. -1.
         23    2    1    2    0    0  0.00000000000E+00  0.35527136788E-14  0.00000000000E+00  0.91188000000E+02  0.91188000000E+02 0.  0.
    9900012    2    3    3    0    0 -0.19019897286E+02 -0.26492449460E+02 -0.17093080825E+02  0.54367084975E+02  0.40000001818E+02 0.  0.
        -12    1    3    3    0    0  0.19019897286E+02  0.26492449460E+02  0.17093080825E+02  0.36820915025E+02  0.00000000000E+00 0.  1.
         11    1    4    4    0    0 -0.81443245526E+00  0.14678064956E+01  0.79916416386E+00  0.18591448988E+01  0.51100000000E-03 0. -1.
        -11    1    4    4    0    0 -0.80658520900E+01 -0.66943111875E+01  0.11022185977E+02  0.15210534382E+02  0.51100000000E-03 0.  1.
         12    1    4    4    0    0 -0.10139612741E+02 -0.21265944768E+02 -0.28914430966E+02  0.37297405694E+02  0.00000000000E+00 0. -1.
</event>
<event>
 8    1  0.3137106E-007  0.9118800E+02  0.7816164E-02  0.1184000E+00
        -11   -1    0    0    0    0  0.00000000000E+00  0.00000000000E+00  0.45593999997E+02  0.45594000000E+02  0.51100000000E-03 0.  1.
         11   -1    0    0    0    0 -0.00000000000E+00 -0.00000000000E+00 -0.45593999997E+02  0.45594000000E+02  0.51100000000E-03 0. -1.
         23    2    1    2    0    0 -0.66613381478E-15 -0.17763568394E-14  0.00000000000E+00  0.91188000000E+02  0.91188000000E+02 0.  0.
    9900012    2    3    3    0    0 -0.14724539301E+01  0.15848496604E+02 -0.33202931053E+02  0.54367114681E+02  0.40000069537E+02 0.  0.
        -12    1    3    3    0    0  0.14724539301E+01 -0.15848496604E+02  0.33202931053E+02  0.36820885319E+02  0.00000000000E+00 0.  1.
         11    1    4    4    0    0 -0.11472436080E+02  0.17599064574E+02 -0.79044811492E+01  0.22446039428E+02  0.51100000000E-03 0. -1.
        -11    1    4    4    0    0  0.12310459299E+02  0.42057453956E+01 -0.18195497253E+02  0.22367651263E+02  0.51100000000E-03 0.  1.
        -12    1    4    4    0    0 -0.23104771493E+01 -0.59563133658E+01 -0.71029526505E+01  0.95534239895E+01  0.00000000000E+00 0.  1.
</event>
<event>
 8    1  0.3137106E-007  0.9118800E+02  0.7816164E-02  0.1184000E+00
        -11   -1    0    0    0    0  0.00000000000E+00  0.00000000000E+00  0.45593999997E+02  0.45594000000E+02  0.51100000000E-03 0.  1.
         11   -1    0    0    0    0 -0.00000000000E+00 -0.00000000000E+00 -0.45593999997E+02  0.45594000000E+02  0.51100000000E-03 0. -1.
         23    2    1    2    0    0 -0.17763568394E-14  0.00000000000E+00 -0.88817841970E-15  0.91188000000E+02  0.91188000000E+02 0.  0.
    9900012    2    3    3    0    0  0.14510894066E+02  0.33605346824E+02  0.39867517000E+01  0.54367087859E+02  0.40000008392E+02 0.  0.
        -12    1    3    3    0    0 -0.14510894066E+02 -0.33605346824E+02 -0.39867517000E+01  0.36820912141E+02  0.00000000000E+00 0.  1.
         11    1    4    4    0    0  0.76186240083E+01  0.70728998120E+01  0.10278992110E+02  0.14619405685E+02  0.51100000000E-03 0. -1.
        -11    1    4    4    0    0 -0.17526045916E+01  0.27460191984E+02  0.21872712813E+01  0.27602860768E+02  0.51100000000E-03 0.  1.
         12    1    4    4    0    0  0.86448746495E+01 -0.92774497205E+00 -0.84795116916E+01  0.12144821405E+02  0.00000000000E+00 0. -1.
</event>
<event>
 8    1  0.3137106E-007  0.9118800E+02  0.7816164E-02  0.1184000E+00
        -11   -1    0    0    0    0  0.00000000000E+00  0.00000000000E+00  0.45593999997E+02  0.45594000000E+02  0.51100000000E-03 0.  1.
         11   -1    0    0    0    0 -0.00000000000E+00 -0.00000000000E+00 -0.45593999997E+02  0.45594000000E+02  0.51100000000E-03 0. -1.
         23    2    1    2    0    0  0.35527136788E-14 -0.71054273576E-14  0.88817841970E-15  0.91188000000E+02  0.91188000000E+02 0.  0.
    9900012    2    3    3    0    0  0.20262208874E+02 -0.30397092367E+02  0.46086352846E+01  0.54367084042E+02  0.39999999690E+02 0.  0.
         12    1    3    3    0    0 -0.20262208874E+02  0.30397092367E+02 -0.46086352846E+01  0.36820915958E+02  0.00000000000E+00 0. -1.
         11    1    4    4    0    0  0.14778155050E+02  0.33863419751E+01  0.55020451565E+01  0.16128660199E+02  0.51100000000E-03 0. -1.
        -11    1    4    4    0    0 -0.28346228188E+01 -0.24927397450E+02 -0.46610996185E+01  0.25517368204E+02  0.51100000000E-03 0.  1.
         12    1    4    4    0    0  0.83186766433E+01 -0.88560368922E+01  0.37676897465E+01  0.12721055638E+02  0.00000000000E+00 0. -1.
</event>
<event>
 8    1  0.3137106E-007  0.9118800E+02  0.7816164E-02  0.1184000E+00
        -11   -1    0    0    0    0  0.00000000000E+00  0.00000000000E+00  0.45593999997E+02  0.45594000000E+02  0.51100000000E-03 0. -1.
         11   -1    0    0    0    0 -0.00000000000E+00 -0.00000000000E+00 -0.45593999997E+02  0.45594000000E+02  0.51100000000E-03 0.  1.
         23    2    1    2    0    0  0.00000000000E+00 -0.49960036108E-15  0.00000000000E+00  0.91188000000E+02  0.91188000000E+02 0.  0.
    9900012    2    3    3    0    0 -0.74972872078E+01  0.49710872849E+00  0.36046128033E+02  0.54367085037E+02  0.40000001958E+02 0.  0.
        -12    1    3    3    0    0  0.74972872078E+01 -0.49710872849E+00 -0.36046128033E+02  0.36820914963E+02  0.00000000000E+00 0.  1.
         11    1    4    4    0    0 -0.11418498594E+02  0.11732233072E+01 -0.32518623775E+01  0.11930346694E+02  0.51100000000E-03 0. -1.
        -11    1    4    4    0    0 -0.43924365371E+01  0.15021344261E+01  0.40640992105E+01  0.61698305666E+01  0.51100000000E-03 0.  1.
         12    1    4    4    0    0  0.83136479228E+01 -0.21782490049E+01  0.35233891200E+02  0.36266907776E+02  0.00000000000E+00 0. -1.
</event>
<event>
 8    1  0.3137106E-007  0.9118800E+02  0.7816164E-02  0.1184000E+00
        -11   -1    0    0    0    0  0.00000000000E+00  0.00000000000E+00  0.45593999997E+02  0.45594000000E+02  0.51100000000E-03 0. -1.
         11   -1    0    0    0    0 -0.00000000000E+00 -0.00000000000E+00 -0.45593999997E+02  0.45594000000E+02  0.51100000000E-03 0.  1.
         23    2    1    2    0    0  0.00000000000E+00  0.00000000000E+00  0.44408920985E-15  0.91188000000E+02  0.91188000000E+02 0.  0.
    9900012    2    3    3    0    0 -0.91021606164E+01  0.35619683617E+02 -0.20414808274E+01  0.54367097881E+02  0.40000031239E+02 0.  0.
         12    1    3    3    0    0  0.91021606164E+01 -0.35619683617E+02  0.20414808274E+01  0.36820902119E+02  0.00000000000E+00 0. -1.
         11    1    4    4    0    0 -0.11838548877E+02  0.26085991940E+02  0.10349025034E+02  0.30458702114E+02  0.51100000000E-03 0.  1.
        -11    1    4    4    0    0  0.95126546181E+01  0.10455539032E+01 -0.62761957117E+01  0.11444405346E+02  0.51100000000E-03 0. -1.
         12    1    4    4    0    0 -0.67762663576E+01  0.84881377737E+01 -0.61143101500E+01  0.12463990421E+02  0.00000000000E+00 0. -1.
</event>
<event>
 8    1  0.3137106E-007  0.9118800E+02  0.7816164E-02  0.1184000E+00
        -11   -1    0    0    0    0  0.00000000000E+00  0.00000000000E+00  0.45593999997E+02  0.45594000000E+02  0.51100000000E-03 0.  1.
         11   -1    0    0    0    0 -0.00000000000E+00 -0.00000000000E+00 -0.45593999997E+02  0.45594000000E+02  0.51100000000E-03 0. -1.
         23    2    1    2    0    0  0.00000000000E+00  0.00000000000E+00  0.00000000000E+00  0.91188000000E+02  0.91188000000E+02 0.  0.
    9900012    2    3    3    0    0  0.40213193185E+01  0.28296584170E+02  0.23214477220E+02  0.54367086956E+02  0.40000006335E+02 0.  0.
         12    1    3    3    0    0 -0.40213193185E+01 -0.28296584170E+02 -0.23214477220E+02  0.36820913044E+02  0.00000000000E+00 0. -1.
         11    1    4    4    0    0  0.18499930491E+00  0.36798826365E+02  0.20449574746E+02  0.42099560023E+02  0.51100000000E-03 0.  1.
        -11    1    4    4    0    0 -0.12452693147E+01 -0.47281420463E+01 -0.87313145859E+00  0.49667274620E+01  0.51100000000E-03 0. -1.
        -12    1    4    4    0    0  0.50815893284E+01 -0.37741001481E+01  0.36380339328E+01  0.73007994717E+01  0.00000000000E+00 0.  1.
</event>
<event>
 8    1  0.3137106E-007  0.9118800E+02  0.7816164E-02  0.1184000E+00
        -11   -1    0    0    0    0  0.00000000000E+00  0.00000000000E+00  0.45593999997E+02  0.45594000000E+02  0.51100000000E-03 0. -1.
         11   -1    0    0    0    0 -0.00000000000E+00 -0.00000000000E+00 -0.45593999997E+02  0.45594000000E+02  0.51100000000E-03 0.  1.
         23    2    1    2    0    0  0.00000000000E+00  0.00000000000E+00  0.00000000000E+00  0.91188000000E+02  0.91188000000E+02 0.  0.
    9900012    2    3    3    0    0 -0.24714006974E+02 -0.16459783785E+02  0.21773192114E+02  0.54367102160E+02  0.40000040993E+02 0.  0.
        -12    1    3    3    0    0  0.24714006974E+02  0.16459783785E+02 -0.21773192114E+02  0.36820897840E+02  0.00000000000E+00 0.  1.
         11    1    4    4    0    0  0.28999731659E+01  0.18186056452E+01 -0.85123708166E+00  0.35272901335E+01  0.51100000000E-03 0.  1.
        -11    1    4    4    0    0 -0.14579305353E+02 -0.11749800624E+02  0.29326720348E+02  0.34794690484E+02  0.51100000000E-03 0. -1.
         12    1    4    4    0    0 -0.13034674787E+02 -0.65285888057E+01 -0.67022911525E+01  0.16045121542E+02  0.00000000000E+00 0. -1.
</event>
<event>
 8    1  0.3137106E-007  0.9118800E+02  0.7816164E-02  0.1184000E+00
        -11   -1    0    0    0    0  0.00000000000E+00  0.00000000000E+00  0.45593999997E+02  0.45594000000E+02  0.51100000000E-03 0.  1.
         11   -1    0    0    0    0 -0.00000000000E+00 -0.00000000000E+00 -0.45593999997E+02  0.45594000000E+02  0.51100000000E-03 0. -1.
         23    2    1    2    0    0  0.88817841970E-15 -0.35527136788E-14  0.35527136788E-14  0.91188000000E+02  0.91188000000E+02 0.  0.
    9900012    2    3    3    0    0 -0.50258135966E+01  0.29990178427E+02  0.20763365090E+02  0.54366987870E+02  0.39999780448E+02 0.  0.
         12    1    3    3    0    0  0.50258135966E+01 -0.29990178427E+02 -0.20763365090E+02  0.36821012130E+02  0.00000000000E+00 0. -1.
         11    1    4    4    0    0  0.53149329060E+01  0.17074979499E+02  0.64578229315E+01  0.19013335161E+02  0.51100000000E-03 0. -1.
        -11    1    4    4    0    0 -0.33256802228E+01 -0.63036565851E+01  0.13033643300E+02  0.14855035955E+02  0.51100000000E-03 0.  1.
         12    1    4    4    0    0 -0.70150662798E+01  0.19218855513E+02  0.12718988590E+01  0.20498616754E+02  0.00000000000E+00 0. -1.
</event>
<event>
 8    1  0.3137106E-007  0.9118800E+02  0.7816164E-02  0.1184000E+00
        -11   -1    0    0    0    0  0.00000000000E+00  0.00000000000E+00  0.45593999997E+02  0.45594000000E+02  0.51100000000E-03 0. -1.
         11   -1    0    0    0    0 -0.00000000000E+00 -0.00000000000E+00 -0.45593999997E+02  0.45594000000E+02  0.51100000000E-03 0.  1.
         23    2    1    2    0    0  0.00000000000E+00  0.35527136788E-14  0.00000000000E+00  0.91188000000E+02  0.91188000000E+02 0.  0.
    9900012    2    3    3    0    0  0.88883846900E+01  0.27807560612E+02  0.22439164066E+02  0.54367083478E+02  0.39999998404E+02 0.  0.
        -12    1    3    3    0    0 -0.88883846900E+01 -0.27807560612E+02 -0.22439164066E+02  0.36820916522E+02  0.00000000000E+00 0.  1.
         11    1    4    4    0    0 -0.31322590575E+01  0.23544756609E+02  0.14019764671E+02  0.27581160459E+02  0.51100000000E-03 0. -1.
        -11    1    4    4    0    0  0.10594223382E+02 -0.38795835174E+01  0.13098160140E+02  0.17287294081E+02  0.51100000000E-03 0.  1.
        -12    1    4    4    0    0  0.14264203659E+01  0.81423875196E+01 -0.46787607449E+01  0.94986289372E+01  0.00000000000E+00 0.  1.
</event>
<event>
 8    1  0.3137106E-007  0.9118800E+02  0.7816164E-02  0.1184000E+00
        -11   -1    0    0    0    0  0.00000000000E+00  0.00000000000E+00  0.45593999997E+02  0.45594000000E+02  0.51100000000E-03 0.  1.
         11   -1    0    0    0    0 -0.00000000000E+00 -0.00000000000E+00 -0.45593999997E+02  0.45594000000E+02  0.51100000000E-03 0. -1.
         23    2    1    2    0    0  0.00000000000E+00 -0.44408920985E-15 -0.71054273576E-14  0.91188000000E+02  0.91188000000E+02 0.  0.
    9900012    2    3    3    0    0 -0.18411964559E+01 -0.15319469695E+01 -0.36742926128E+02  0.54367089007E+02  0.40000011009E+02 0.  0.
        -12    1    3    3    0    0  0.18411964559E+01  0.15319469695E+01  0.36742926128E+02  0.36820910993E+02  0.00000000000E+00 0.  1.
         11    1    4    4    0    0  0.12784983668E+01  0.95934296267E+00  0.44661992718E+01  0.47436097216E+01  0.51100000000E-03 0.  1.
        -11    1    4    4    0    0 -0.73411073464E+01  0.14388099394E+01 -0.42951724493E+02  0.43598310384E+02  0.51100000000E-03 0. -1.
         12    1    4    4    0    0  0.42214125237E+01 -0.39300998717E+01  0.17425990932E+01  0.60251689019E+01  0.00000000000E+00 0. -1.
</event>
<event>
 8    1  0.3137106E-007  0.9118800E+02  0.7816164E-02  0.1184000E+00
        -11   -1    0    0    0    0  0.00000000000E+00  0.00000000000E+00  0.45593999997E+02  0.45594000000E+02  0.51100000000E-03 0. -1.
         11   -1    0    0    0    0 -0.00000000000E+00 -0.00000000000E+00 -0.45593999997E+02  0.45594000000E+02  0.51100000000E-03 0.  1.
         23    2    1    2    0    0  0.35527136788E-14  0.44408920985E-15  0.00000000000E+00  0.91188000000E+02  0.91188000000E+02 0.  0.
    9900012    2    3    3    0    0 -0.16337905119E+02  0.22408664268E+01 -0.32921576127E+02  0.54367098318E+02  0.40000032235E+02 0.  0.
         12    1    3    3    0    0  0.16337905119E+02 -0.22408664268E+01  0.32921576127E+02  0.36820901682E+02  0.00000000000E+00 0. -1.
         11    1    4    4    0    0  0.11736851608E+01  0.69144598445E+01 -0.12212426345E+02  0.14082991489E+02  0.51100000000E-03 0. -1.
        -11    1    4    4    0    0  0.68654603334E+01 -0.61031360872E+01 -0.17081390008E+01  0.93434765904E+01  0.51100000000E-03 0.  1.
         12    1    4    4    0    0 -0.24377050613E+02  0.14295426695E+01 -0.19001010781E+02  0.30940630238E+02  0.00000000000E+00 0. -1.
</event>
<event>
 8    1  0.3137106E-007  0.9118800E+02  0.7816164E-02  0.1184000E+00
        -11   -1    0    0    0    0  0.00000000000E+00  0.00000000000E+00  0.45593999997E+02  0.45594000000E+02  0.51100000000E-03 0.  1.
         11   -1    0    0    0    0 -0.00000000000E+00 -0.00000000000E+00 -0.45593999997E+02  0.45594000000E+02  0.51100000000E-03 0. -1.
         23    2    1    2    0    0 -0.53290705182E-14  0.00000000000E+00 -0.17763568394E-14  0.91188000000E+02  0.91188000000E+02 0.  0.
    9900012    2    3    3    0    0  0.15786578648E+02 -0.31751396957E+02  0.99203068986E+01  0.54367085249E+02  0.40000002443E+02 0.  0.
         12    1    3    3    0    0 -0.15786578648E+02  0.31751396957E+02 -0.99203068986E+01  0.36820914751E+02  0.00000000000E+00 0. -1.
         11    1    4    4    0    0  0.21677407546E+01 -0.21010155813E+02 -0.10435534514E+02  0.23558992510E+02  0.51100000000E-03 0. -1.
        -11    1    4    4    0    0  0.16125135172E+02 -0.74853126340E+01  0.19883564839E+02  0.26672196019E+02  0.51100000000E-03 0.  1.
         12    1    4    4    0    0 -0.25062972787E+01 -0.32559285104E+01  0.47227657379E+00  0.41358967198E+01  0.00000000000E+00 0. -1.
</event>
<event>
 8    1  0.3137106E-007  0.9118800E+02  0.7816164E-02  0.1184000E+00
        -11   -1    0    0    0    0  0.00000000000E+00  0.00000000000E+00  0.45593999997E+02  0.45594000000E+02  0.51100000000E-03 0.  1.
         11   -1    0    0    0    0 -0.00000000000E+00 -0.00000000000E+00 -0.45593999997E+02  0.45594000000E+02  0.51100000000E-03 0. -1.
         23    2    1    2    0    0  0.22204460493E-15  0.00000000000E+00 -0.16653345369E-15  0.91188000000E+02  0.91188000000E+02 0.  0.
    9900012    2    3    3    0    0 -0.17552579081E+01  0.36778011644E+02  0.27670632966E+00  0.54367086958E+02  0.40000006339E+02 0.  0.
         12    1    3    3    0    0  0.17552579081E+01 -0.36778011644E+02 -0.27670632966E+00  0.36820913042E+02  0.00000000000E+00 0. -1.
         11    1    4    4    0    0 -0.14929821004E+02  0.32918812935E+01 -0.58890279800E+01  0.16383427251E+02  0.51100000000E-03 0. -1.
        -11    1    4    4    0    0 -0.35492223934E+00  0.10366054309E-01 -0.10978738969E+01  0.11538650726E+01  0.51100000000E-03 0.  1.
        -12    1    4    4    0    0  0.13529485336E+02  0.33475764296E+02  0.72636082066E+01  0.36829794635E+02  0.00000000000E+00 0.  1.
</event>
<event>
 8    1  0.3137106E-007  0.9118800E+02  0.7816164E-02  0.1184000E+00
        -11   -1    0    0    0    0  0.00000000000E+00  0.00000000000E+00  0.45593999997E+02  0.45594000000E+02  0.51100000000E-03 0.  1.
         11   -1    0    0    0    0 -0.00000000000E+00 -0.00000000000E+00 -0.45593999997E+02  0.45594000000E+02  0.51100000000E-03 0. -1.
         23    2    1    2    0    0  0.00000000000E+00 -0.44408920985E-15 -0.17763568394E-14  0.91188000000E+02  0.91188000000E+02 0.  0.
    9900012    2    3    3    0    0 -0.35613215895E+02  0.32213611286E+01 -0.87806671797E+01  0.54367103351E+02  0.40000043710E+02 0.  0.
         12    1    3    3    0    0  0.35613215895E+02 -0.32213611286E+01  0.87806671797E+01  0.36820896649E+02  0.00000000000E+00 0. -1.
         11    1    4    4    0    0 -0.23190761604E+02  0.12348331361E+02 -0.13155460326E+02  0.29382968670E+02  0.51100000000E-03 0. -1.
        -11    1    4    4    0    0  0.38319600168E+01 -0.62988421823E+01  0.41986619093E+01  0.84845796889E+01  0.51100000000E-03 0.  1.
         12    1    4    4    0    0 -0.16254414307E+02 -0.28281280504E+01  0.17613123668E+00  0.16499554993E+02  0.00000000000E+00 0. -1.
</event>
<event>
 8    1  0.3137106E-007  0.9118800E+02  0.7816164E-02  0.1184000E+00
        -11   -1    0    0    0    0  0.00000000000E+00  0.00000000000E+00  0.45593999997E+02  0.45594000000E+02  0.51100000000E-03 0.  1.
         11   -1    0    0    0    0 -0.00000000000E+00 -0.00000000000E+00 -0.45593999997E+02  0.45594000000E+02  0.51100000000E-03 0. -1.
         23    2    1    2    0    0  0.00000000000E+00  0.35527136788E-14 -0.17763568394E-14  0.91188000000E+02  0.91188000000E+02 0.  0.
    9900012    2    3    3    0    0  0.31506027999E+02  0.18761418624E+02 -0.33405617774E+01  0.54367082276E+02  0.39999995665E+02 0.  0.
        -12    1    3    3    0    0 -0.31506027999E+02 -0.18761418624E+02  0.33405617774E+01  0.36820917724E+02  0.00000000000E+00 0.  1.
         11    1    4    4    0    0  0.17174929338E+02  0.32560569626E+01 -0.43768394869E+01  0.18020455845E+02  0.51100000000E-03 0. -1.
        -11    1    4    4    0    0  0.81767220774E+01  0.19273578599E+02 -0.99672608549E+01  0.23187839596E+02  0.51100000000E-03 0.  1.
        -12    1    4    4    0    0  0.61543765833E+01 -0.37682169375E+01  0.11003538564E+02  0.13158786834E+02  0.00000000000E+00 0.  1.
</event>
<event>
 8    1  0.3137106E-007  0.9118800E+02  0.7816164E-02  0.1184000E+00
        -11   -1    0    0    0    0  0.00000000000E+00  0.00000000000E+00  0.45593999997E+02  0.45594000000E+02  0.51100000000E-03 0.  1.
         11   -1    0    0    0    0 -0.00000000000E+00 -0.00000000000E+00 -0.45593999997E+02  0.45594000000E+02  0.51100000000E-03 0. -1.
         23    2    1    2    0    0  0.00000000000E+00  0.35527136788E-14 -0.17763568394E-14  0.91188000000E+02  0.91188000000E+02 0.  0.
    9900012    2    3    3    0    0 -0.18420151034E+02  0.29389339707E+02 -0.12359028551E+02  0.54367070635E+02  0.39999969127E+02 0.  0.
        -12    1    3    3    0    0  0.18420151034E+02 -0.29389339707E+02  0.12359028551E+02  0.36820929365E+02  0.00000000000E+00 0.  1.
         11    1    4    4    0    0 -0.13424047504E+02  0.53189106540E+01 -0.70528302819E+01  0.16069793937E+02  0.51100000000E-03 0. -1.
        -11    1    4    4    0    0 -0.71595741329E+01  0.23655367668E-01 -0.11339828277E+02  0.13410882407E+02  0.51100000000E-03 0.  1.
        -12    1    4    4    0    0  0.21634706023E+01  0.24046773686E+02  0.60336300076E+01  0.24886394291E+02  0.00000000000E+00 0.  1.
</event>
<event>
 8    1  0.3137106E-007  0.9118800E+02  0.7816164E-02  0.1184000E+00
        -11   -1    0    0    0    0  0.00000000000E+00  0.00000000000E+00  0.45593999997E+02  0.45594000000E+02  0.51100000000E-03 0.  1.
         11   -1    0    0    0    0 -0.00000000000E+00 -0.00000000000E+00 -0.45593999997E+02  0.45594000000E+02  0.51100000000E-03 0. -1.
         23    2    1    2    0    0  0.00000000000E+00  0.00000000000E+00 -0.88817841970E-15  0.91188000000E+02  0.91188000000E+02 0.  0.
    9900012    2    3    3    0    0  0.11274532644E+02  0.34880983067E+02  0.34615483495E+01  0.54367076831E+02  0.39999983251E+02 0.  0.
         12    1    3    3    0    0 -0.11274532644E+02 -0.34880983067E+02 -0.34615483495E+01  0.36820923169E+02  0.00000000000E+00 0. -1.
         11    1    4    4    0    0  0.34165013658E+01  0.21101293692E+02  0.22764055418E+01  0.21496955587E+02  0.51100000000E-03 0. -1.
        -11    1    4    4    0    0  0.40229666839E+01  0.44207934513E+00  0.13636940311E+02  0.14224831683E+02  0.51100000000E-03 0.  1.
         12    1    4    4    0    0  0.38350645946E+01  0.13337610030E+02 -0.12451797504E+02  0.18645289561E+02  0.00000000000E+00 0. -1.
</event>
<event>
 8    1  0.3137106E-007  0.9118800E+02  0.7816164E-02  0.1184000E+00
        -11   -1    0    0    0    0  0.00000000000E+00  0.00000000000E+00  0.45593999997E+02  0.45594000000E+02  0.51100000000E-03 0.  1.
         11   -1    0    0    0    0 -0.00000000000E+00 -0.00000000000E+00 -0.45593999997E+02  0.45594000000E+02  0.51100000000E-03 0. -1.
         23    2    1    2    0    0  0.00000000000E+00  0.00000000000E+00  0.00000000000E+00  0.91188000000E+02  0.91188000000E+02 0.  0.
    9900012    2    3    3    0    0 -0.10649821506E+02 -0.12187660505E+02  0.33073012725E+02  0.54367055724E+02  0.39999935133E+02 0.  0.
         12    1    3    3    0    0  0.10649821506E+02  0.12187660505E+02 -0.33073012725E+02  0.36820944276E+02  0.00000000000E+00 0. -1.
         11    1    4    4    0    0 -0.98417932885E+01  0.12211200687E+02  0.79000339233E+01  0.17560889886E+02  0.51100000000E-03 0. -1.
        -11    1    4    4    0    0  0.39995187433E+01 -0.16158532955E+02  0.11908560809E+02  0.20467245986E+02  0.51100000000E-03 0.  1.
         12    1    4    4    0    0 -0.48075469603E+01 -0.82403282368E+01  0.13264417993E+02  0.16338919851E+02  0.00000000000E+00 0. -1.
</event>
<event>
 8    1  0.3137106E-007  0.9118800E+02  0.7816164E-02  0.1184000E+00
        -11   -1    0    0    0    0  0.00000000000E+00  0.00000000000E+00  0.45593999997E+02  0.45594000000E+02  0.51100000000E-03 0.  1.
         11   -1    0    0    0    0 -0.00000000000E+00 -0.00000000000E+00 -0.45593999997E+02  0.45594000000E+02  0.51100000000E-03 0. -1.
         23    2    1    2    0    0 -0.88817841970E-15  0.35527136788E-14  0.00000000000E+00  0.91188000000E+02  0.91188000000E+02 0.  0.
    9900012    2    3    3    0    0  0.65511191536E+01 -0.22284212170E+02  0.28570536338E+02  0.54367098044E+02  0.40000031611E+02 0.  0.
         12    1    3    3    0    0 -0.65511191536E+01  0.22284212170E+02 -0.28570536338E+02  0.36820901956E+02  0.00000000000E+00 0. -1.
         11    1    4    4    0    0  0.67217856406E+00 -0.33743041457E+01 -0.11270628843E+01  0.36205004483E+01  0.51100000000E-03 0. -1.
        -11    1    4    4    0    0  0.16559754373E+02 -0.11667136552E+02  0.22060194357E+01  0.20376802061E+02  0.51100000000E-03 0.  1.
        -12    1    4    4    0    0 -0.10680813783E+02 -0.72427714727E+01  0.27491579787E+02  0.30369795535E+02  0.00000000000E+00 0.  1.
</event>
<event>
 8    1  0.3137106E-007  0.9118800E+02  0.7816164E-02  0.1184000E+00
        -11   -1    0    0    0    0  0.00000000000E+00  0.00000000000E+00  0.45593999997E+02  0.45594000000E+02  0.51100000000E-03 0.  1.
         11   -1    0    0    0    0 -0.00000000000E+00 -0.00000000000E+00 -0.45593999997E+02  0.45594000000E+02  0.51100000000E-03 0. -1.
         23    2    1    2    0    0 -0.17763568394E-14 -0.26645352591E-14 -0.71054273576E-14  0.91188000000E+02  0.91188000000E+02 0.  0.
    9900012    2    3    3    0    0  0.10153125943E+02 -0.67430135741E+01  0.34745169460E+02  0.54367068462E+02  0.39999964173E+02 0.  0.
         12    1    3    3    0    0 -0.10153125943E+02  0.67430135741E+01 -0.34745169460E+02  0.36820931538E+02  0.00000000000E+00 0. -1.
         11    1    4    4    0    0  0.29340465555E+01 -0.37265932786E+01 -0.17598088875E+01  0.50589578211E+01  0.51100000000E-03 0. -1.
        -11    1    4    4    0    0  0.18438258503E+02 -0.70637456009E+01  0.29432190067E+02  0.35441778891E+02  0.51100000000E-03 0.  1.
         12    1    4    4    0    0 -0.11219179115E+02  0.40473253054E+01  0.70727882808E+01  0.13866331750E+02  0.00000000000E+00 0. -1.
</event>
<event>
 8    1  0.3137106E-007  0.9118800E+02  0.7816164E-02  0.1184000E+00
        -11   -1    0    0    0    0  0.00000000000E+00  0.00000000000E+00  0.45593999997E+02  0.45594000000E+02  0.51100000000E-03 0. -1.
         11   -1    0    0    0    0 -0.00000000000E+00 -0.00000000000E+00 -0.45593999997E+02  0.45594000000E+02  0.51100000000E-03 0.  1.
         23    2    1    2    0    0 -0.35527136788E-14 -0.13322676296E-14  0.00000000000E+00  0.91188000000E+02  0.91188000000E+02 0.  0.
    9900012    2    3    3    0    0  0.21484874321E+02 -0.21472528506E+01 -0.29825653073E+02  0.54367080666E+02  0.39999991993E+02 0.  0.
         12    1    3    3    0    0 -0.21484874321E+02  0.21472528506E+01  0.29825653073E+02  0.36820919334E+02  0.00000000000E+00 0. -1.
         11    1    4    4    0    0  0.10158848781E+02 -0.86191382535E+01 -0.30349589944E+02  0.33144974926E+02  0.51100000000E-03 0.  1.
        -11    1    4    4    0    0  0.84622503392E+01 -0.23339735644E+01  0.58413553145E+01  0.10544123746E+02  0.51100000000E-03 0. -1.
         12    1    4    4    0    0  0.28637752009E+01  0.88058589674E+01 -0.53174184429E+01  0.10677981993E+02  0.00000000000E+00 0. -1.
</event>
<event>
 8    1  0.3137106E-007  0.9118800E+02  0.7816164E-02  0.1184000E+00
        -11   -1    0    0    0    0  0.00000000000E+00  0.00000000000E+00  0.45593999997E+02  0.45594000000E+02  0.51100000000E-03 0.  1.
         11   -1    0    0    0    0 -0.00000000000E+00 -0.00000000000E+00 -0.45593999997E+02  0.45594000000E+02  0.51100000000E-03 0. -1.
         23    2    1    2    0    0  0.00000000000E+00  0.17763568394E-14  0.00000000000E+00  0.91188000000E+02  0.91188000000E+02 0.  0.
    9900012    2    3    3    0    0 -0.25864091614E+02  0.13569740092E+02  0.22420753442E+02  0.54367091998E+02  0.40000017828E+02 0.  0.
         12    1    3    3    0    0  0.25864091614E+02 -0.13569740092E+02 -0.22420753442E+02  0.36820908002E+02  0.00000000000E+00 0. -1.
         11    1    4    4    0    0 -0.11077599429E+02  0.21751158076E+02  0.10807129337E+02  0.26694945805E+02  0.51100000000E-03 0. -1.
        -11    1    4    4    0    0  0.42904100287E+01 -0.44497685892E+00  0.69244073334E+00  0.43686493393E+01  0.51100000000E-03 0.  1.
        -12    1    4    4    0    0 -0.19076902214E+02 -0.77364411256E+01  0.10921183372E+02  0.23303496854E+02  0.00000000000E+00 0.  1.
</event>
<event>
 8    1  0.3137106E-007  0.9118800E+02  0.7816164E-02  0.1184000E+00
        -11   -1    0    0    0    0  0.00000000000E+00  0.00000000000E+00  0.45593999997E+02  0.45594000000E+02  0.51100000000E-03 0.  1.
         11   -1    0    0    0    0 -0.00000000000E+00 -0.00000000000E+00 -0.45593999997E+02  0.45594000000E+02  0.51100000000E-03 0. -1.
         23    2    1    2    0    0  0.00000000000E+00  0.00000000000E+00  0.35527136788E-14  0.91188000000E+02  0.91188000000E+02 0.  0.
    9900012    2    3    3    0    0  0.19587748838E+02  0.13965025032E+02  0.27876128041E+02  0.54367077371E+02  0.39999984483E+02 0.  0.
        -12    1    3    3    0    0 -0.19587748838E+02 -0.13965025032E+02 -0.27876128041E+02  0.36820922629E+02  0.00000000000E+00 0.  1.
         11    1    4    4    0    0 -0.42533188657E+01  0.10337464810E+02  0.12598260558E+01  0.11249047161E+02  0.51100000000E-03 0. -1.
        -11    1    4    4    0    0  0.20348700473E+02  0.42967211740E+01  0.31089053908E+02  0.37404019796E+02  0.51100000000E-03 0.  1.
         12    1    4    4    0    0  0.34923672308E+01 -0.66916095213E+00 -0.44727519227E+01  0.57140104145E+01  0.00000000000E+00 0. -1.
</event>
<event>
 8    1  0.3137106E-007  0.9118800E+02  0.7816164E-02  0.1184000E+00
        -11   -1    0    0    0    0  0.00000000000E+00  0.00000000000E+00  0.45593999997E+02  0.45594000000E+02  0.51100000000E-03 0. -1.
         11   -1    0    0    0    0 -0.00000000000E+00 -0.00000000000E+00 -0.45593999997E+02  0.45594000000E+02  0.51100000000E-03 0.  1.
         23    2    1    2    0    0  0.17763568394E-14  0.00000000000E+00  0.00000000000E+00  0.91188000000E+02  0.91188000000E+02 0.  0.
    9900012    2    3    3    0    0  0.14127648879E+02 -0.24246184144E+02 -0.23839343868E+02  0.54367051825E+02  0.39999926246E+02 0.  0.
         12    1    3    3    0    0 -0.14127648879E+02  0.24246184144E+02  0.23839343868E+02  0.36820948175E+02  0.00000000000E+00 0. -1.
         11    1    4    4    0    0 -0.12816686637E+02 -0.65605291907E+01 -0.32337029326E+01  0.14756857203E+02  0.51100000000E-03 0. -1.
        -11    1    4    4    0    0  0.13151084227E+02 -0.30333149272E+01 -0.10452551106E+02  0.17070671946E+02  0.51100000000E-03 0.  1.
         12    1    4    4    0    0  0.13793251289E+02 -0.14652340026E+02 -0.10153089830E+02  0.22539522676E+02  0.00000000000E+00 0. -1.
</event>
<event>
 8    1  0.3137106E-007  0.9118800E+02  0.7816164E-02  0.1184000E+00
        -11   -1    0    0    0    0  0.00000000000E+00  0.00000000000E+00  0.45593999997E+02  0.45594000000E+02  0.51100000000E-03 0. -1.
         11   -1    0    0    0    0 -0.00000000000E+00 -0.00000000000E+00 -0.45593999997E+02  0.45594000000E+02  0.51100000000E-03 0.  1.
         23    2    1    2    0    0  0.00000000000E+00  0.00000000000E+00  0.00000000000E+00  0.91188000000E+02  0.91188000000E+02 0.  0.
    9900012    2    3    3    0    0 -0.23380541736E+02 -0.21419588087E+02 -0.18717063076E+02  0.54367123640E+02  0.40000089963E+02 0.  0.
         12    1    3    3    0    0  0.23380541736E+02  0.21419588087E+02  0.18717063076E+02  0.36820876360E+02  0.00000000000E+00 0. -1.
         11    1    4    4    0    0  0.67251726094E+00 -0.62397615437E+01 -0.58147195196E+01  0.85555751964E+01  0.51100000000E-03 0. -1.
        -11    1    4    4    0    0  0.83090128737E+01 -0.33185006220E+01  0.16931832473E+00  0.89487882011E+01  0.51100000000E-03 0.  1.
         12    1    4    4    0    0 -0.32362071871E+02 -0.11861325921E+02 -0.13071661881E+02  0.36862760243E+02  0.00000000000E+00 0. -1.
</event>
<event>
 8    1  0.3137106E-007  0.9118800E+02  0.7816164E-02  0.1184000E+00
        -11   -1    0    0    0    0  0.00000000000E+00  0.00000000000E+00  0.45593999997E+02  0.45594000000E+02  0.51100000000E-03 0.  1.
         11   -1    0    0    0    0 -0.00000000000E+00 -0.00000000000E+00 -0.45593999997E+02  0.45594000000E+02  0.51100000000E-03 0. -1.
         23    2    1    2    0    0  0.00000000000E+00  0.00000000000E+00  0.00000000000E+00  0.91188000000E+02  0.91188000000E+02 0.  0.
    9900012    2    3    3    0    0 -0.29159087573E+02 -0.14268399413E+02 -0.17376445136E+02  0.54367075847E+02  0.39999981008E+02 0.  0.
        -12    1    3    3    0    0  0.29159087573E+02  0.14268399413E+02  0.17376445136E+02  0.36820924153E+02  0.00000000000E+00 0.  1.
         11    1    4    4    0    0 -0.15908484682E+02 -0.11047101549E+02  0.29127272155E+01  0.19585768242E+02  0.51100000000E-03 0.  1.
        -11    1    4    4    0    0 -0.20085011960E+02  0.10426428730E+01 -0.13256953134E+02  0.24088204919E+02  0.51100000000E-03 0. -1.
         12    1    4    4    0    0  0.68344090686E+01 -0.42639407368E+01 -0.70322192179E+01  0.10693102686E+02  0.00000000000E+00 0. -1.
</event>
<event>
 8    1  0.3137106E-007  0.9118800E+02  0.7816164E-02  0.1184000E+00
        -11   -1    0    0    0    0  0.00000000000E+00  0.00000000000E+00  0.45593999997E+02  0.45594000000E+02  0.51100000000E-03 0.  1.
         11   -1    0    0    0    0 -0.00000000000E+00 -0.00000000000E+00 -0.45593999997E+02  0.45594000000E+02  0.51100000000E-03 0. -1.
         23    2    1    2    0    0  0.35527136788E-14  0.00000000000E+00  0.00000000000E+00  0.91188000000E+02  0.91188000000E+02 0.  0.
    9900012    2    3    3    0    0  0.27667660549E+02  0.96907714653E+01  0.22279353498E+02  0.54367080889E+02  0.39999992503E+02 0.  0.
         12    1    3    3    0    0 -0.27667660549E+02 -0.96907714653E+01 -0.22279353498E+02  0.36820919111E+02  0.00000000000E+00 0. -1.
         11    1    4    4    0    0  0.20215895728E+01 -0.12554020479E+02  0.21418907207E+01  0.12894880795E+02  0.51100000000E-03 0. -1.
        -11    1    4    4    0    0  0.87091638022E+01  0.15862370975E+02  0.11255007739E+02  0.21310550123E+02  0.51100000000E-03 0.  1.
         12    1    4    4    0    0  0.16936907174E+02  0.63824209694E+01  0.88824550386E+01  0.20161649971E+02  0.00000000000E+00 0. -1.
</event>
<event>
 8    1  0.3137106E-007  0.9118800E+02  0.7816164E-02  0.1184000E+00
        -11   -1    0    0    0    0  0.00000000000E+00  0.00000000000E+00  0.45593999997E+02  0.45594000000E+02  0.51100000000E-03 0.  1.
         11   -1    0    0    0    0 -0.00000000000E+00 -0.00000000000E+00 -0.45593999997E+02  0.45594000000E+02  0.51100000000E-03 0. -1.
         23    2    1    2    0    0  0.44408920985E-15  0.00000000000E+00  0.00000000000E+00  0.91188000000E+02  0.91188000000E+02 0.  0.
    9900012    2    3    3    0    0 -0.29189020822E+01 -0.35840588634E+02  0.79190215780E+01  0.54367099878E+02  0.40000035793E+02 0.  0.
         12    1    3    3    0    0  0.29189020822E+01  0.35840588634E+02 -0.79190215780E+01  0.36820900122E+02  0.00000000000E+00 0. -1.
         11    1    4    4    0    0 -0.10108339804E+02 -0.55542647356E+01  0.12220009541E+01  0.11598348026E+02  0.51100000000E-03 0.  1.
        -11    1    4    4    0    0 -0.10488744763E+02 -0.17439450265E+02  0.23306359621E+01  0.20483653397E+02  0.51100000000E-03 0. -1.
         12    1    4    4    0    0  0.17678182485E+02 -0.12846873634E+02  0.43663846618E+01  0.22285098455E+02  0.00000000000E+00 0. -1.
</event>
<event>
 8    1  0.3137106E-007  0.9118800E+02  0.7816164E-02  0.1184000E+00
        -11   -1    0    0    0    0  0.00000000000E+00  0.00000000000E+00  0.45593999997E+02  0.45594000000E+02  0.51100000000E-03 0.  1.
         11   -1    0    0    0    0 -0.00000000000E+00 -0.00000000000E+00 -0.45593999997E+02  0.45594000000E+02  0.51100000000E-03 0. -1.
         23    2    1    2    0    0  0.00000000000E+00  0.00000000000E+00  0.00000000000E+00  0.91188000000E+02  0.91188000000E+02 0.  0.
    9900012    2    3    3    0    0 -0.82700139651E+01 -0.16675722495E+02 -0.31769600138E+02  0.54367077352E+02  0.39999984440E+02 0.  0.
        -12    1    3    3    0    0  0.82700139651E+01  0.16675722495E+02  0.31769600138E+02  0.36820922648E+02  0.00000000000E+00 0.  1.
         11    1    4    4    0    0 -0.37279542780E+01 -0.14510747207E+01  0.19459145141E+01  0.44485778066E+01  0.51100000000E-03 0.  1.
        -11    1    4    4    0    0 -0.81220414722E+01 -0.19106720092E+02 -0.58679981692E+01  0.21574700765E+02  0.51100000000E-03 0. -1.
         12    1    4    4    0    0  0.35799817851E+01  0.38820723175E+01 -0.27847516483E+02  0.28343798780E+02  0.00000000000E+00 0. -1.
</event>
<event>
 8    1  0.3137106E-007  0.9118800E+02  0.7816164E-02  0.1184000E+00
        -11   -1    0    0    0    0  0.00000000000E+00  0.00000000000E+00  0.45593999997E+02  0.45594000000E+02  0.51100000000E-03 0.  1.
         11   -1    0    0    0    0 -0.00000000000E+00 -0.00000000000E+00 -0.45593999997E+02  0.45594000000E+02  0.51100000000E-03 0. -1.
         23    2    1    2    0    0  0.00000000000E+00  0.35527136788E-14  0.00000000000E+00  0.91188000000E+02  0.91188000000E+02 0.  0.
    9900012    2    3    3    0    0  0.88137861501E+01  0.20013128955E+02  0.29623843789E+02  0.54367078261E+02  0.39999986512E+02 0.  0.
         12    1    3    3    0    0 -0.88137861501E+01 -0.20013128955E+02 -0.29623843789E+02  0.36820921739E+02  0.00000000000E+00 0. -1.
         11    1    4    4    0    0  0.20781736961E+01  0.22935587300E+01  0.80914113721E+01  0.86631493010E+01  0.51100000000E-03 0. -1.
        -11    1    4    4    0    0 -0.72009817920E+01 -0.64778363947E+01  0.13560400586E+02  0.16664362197E+02  0.51100000000E-03 0.  1.
         12    1    4    4    0    0  0.13936594246E+02  0.24197406619E+02  0.79720318307E+01  0.29039566763E+02  0.00000000000E+00 0. -1.
</event>
<event>
 8    1  0.3137106E-007  0.9118800E+02  0.7816164E-02  0.1184000E+00
        -11   -1    0    0    0    0  0.00000000000E+00  0.00000000000E+00  0.45593999997E+02  0.45594000000E+02  0.51100000000E-03 0. -1.
         11   -1    0    0    0    0 -0.00000000000E+00 -0.00000000000E+00 -0.45593999997E+02  0.45594000000E+02  0.51100000000E-03 0.  1.
         23    2    1    2    0    0 -0.35527136788E-14  0.00000000000E+00  0.35527136788E-14  0.91188000000E+02  0.91188000000E+02 0.  0.
    9900012    2    3    3    0    0 -0.17152510426E+02 -0.10438890869E+02  0.30864015021E+02  0.54367265628E+02  0.40000413650E+02 0.  0.
        -12    1    3    3    0    0  0.17152510426E+02  0.10438890869E+02 -0.30864015021E+02  0.36820734372E+02  0.00000000000E+00 0.  1.
         11    1    4    4    0    0  0.46012717830E+01  0.27780916611E+01  0.16886826503E+02  0.17721580203E+02  0.51100000000E-03 0. -1.
        -11    1    4    4    0    0  0.23420847458E+01 -0.28667943558E+01  0.92965873753E+01  0.10006518272E+02  0.51100000000E-03 0.  1.
        -12    1    4    4    0    0 -0.24095866955E+02 -0.10350188174E+02  0.46806011429E+01  0.26639167153E+02  0.00000000000E+00 0.  1.
</event>
<event>
 8    1  0.3137106E-007  0.9118800E+02  0.7816164E-02  0.1184000E+00
        -11   -1    0    0    0    0  0.00000000000E+00  0.00000000000E+00  0.45593999997E+02  0.45594000000E+02  0.51100000000E-03 0. -1.
         11   -1    0    0    0    0 -0.00000000000E+00 -0.00000000000E+00 -0.45593999997E+02  0.45594000000E+02  0.51100000000E-03 0.  1.
         23    2    1    2    0    0  0.00000000000E+00  0.88817841970E-15  0.22204460493E-15  0.91188000000E+02  0.91188000000E+02 0.  0.
    9900012    2    3    3    0    0  0.36478097122E+02 -0.48241146652E+01 -0.13582504485E+01  0.54367238245E+02  0.40000351226E+02 0.  0.
         12    1    3    3    0    0 -0.36478097122E+02  0.48241146652E+01  0.13582504485E+01  0.36820761755E+02  0.00000000000E+00 0. -1.
         11    1    4    4    0    0  0.44420823172E+00 -0.76410474752E+01 -0.99545668231E+01  0.12556923523E+02  0.51100000000E-03 0.  1.
        -11    1    4    4    0    0  0.23093082791E+02  0.91979590024E+01  0.11000650354E+02  0.27182848105E+02  0.51100000000E-03 0. -1.
         12    1    4    4    0    0  0.12940806099E+02 -0.63810261924E+01 -0.24043339792E+01  0.14627466617E+02  0.00000000000E+00 0. -1.
</event>
<event>
 8    1  0.3137106E-007  0.9118800E+02  0.7816164E-02  0.1184000E+00
        -11   -1    0    0    0    0  0.00000000000E+00  0.00000000000E+00  0.45593999997E+02  0.45594000000E+02  0.51100000000E-03 0.  1.
         11   -1    0    0    0    0 -0.00000000000E+00 -0.00000000000E+00 -0.45593999997E+02  0.45594000000E+02  0.51100000000E-03 0. -1.
         23    2    1    2    0    0  0.17763568394E-14  0.17763568394E-14  0.00000000000E+00  0.91188000000E+02  0.91188000000E+02 0.  0.
    9900012    2    3    3    0    0  0.10614961824E+02  0.92464267205E+01  0.34023610316E+02  0.54367083654E+02  0.39999998805E+02 0.  0.
         12    1    3    3    0    0 -0.10614961824E+02 -0.92464267205E+01 -0.34023610316E+02  0.36820916346E+02  0.00000000000E+00 0. -1.
         11    1    4    4    0    0  0.18878063859E+01  0.45394655648E+01 -0.59108321395E+01  0.76882050835E+01  0.51100000000E-03 0. -1.
        -11    1    4    4    0    0  0.90151257802E+01  0.12854853567E+02  0.22551057576E+02  0.27478536190E+02  0.51100000000E-03 0.  1.
        -12    1    4    4    0    0 -0.28797034190E+00 -0.81478924108E+01  0.17383384879E+02  0.19200342380E+02  0.00000000000E+00 0.  1.
</event>
<event>
 8    1  0.3137106E-007  0.9118800E+02  0.7816164E-02  0.1184000E+00
        -11   -1    0    0    0    0  0.00000000000E+00  0.00000000000E+00  0.45593999997E+02  0.45594000000E+02  0.51100000000E-03 0.  1.
         11   -1    0    0    0    0 -0.00000000000E+00 -0.00000000000E+00 -0.45593999997E+02  0.45594000000E+02  0.51100000000E-03 0. -1.
         23    2    1    2    0    0  0.00000000000E+00 -0.35527136788E-14  0.35527136788E-14  0.91188000000E+02  0.91188000000E+02 0.  0.
    9900012    2    3    3    0    0  0.23106501285E+02 -0.26902275975E+02  0.99064506218E+01  0.54367073637E+02  0.39999975970E+02 0.  0.
         12    1    3    3    0    0 -0.23106501285E+02  0.26902275975E+02 -0.99064506218E+01  0.36820926363E+02  0.00000000000E+00 0. -1.
         11    1    4    4    0    0 -0.56078731936E+01 -0.21416422313E+01  0.26372918453E+00  0.60086959106E+01  0.51100000000E-03 0. -1.
        -11    1    4    4    0    0  0.36779668698E+01 -0.19973140175E+02  0.10482155863E+02  0.22854526041E+02  0.51100000000E-03 0.  1.
         12    1    4    4    0    0  0.25036407609E+02 -0.47874935692E+01 -0.83943442577E+00  0.25503851686E+02  0.00000000000E+00 0. -1.
</event>
<event>
 8    1  0.3137106E-007  0.9118800E+02  0.7816164E-02  0.1184000E+00
        -11   -1    0    0    0    0  0.00000000000E+00  0.00000000000E+00  0.45593999997E+02  0.45594000000E+02  0.51100000000E-03 0. -1.
         11   -1    0    0    0    0 -0.00000000000E+00 -0.00000000000E+00 -0.45593999997E+02  0.45594000000E+02  0.51100000000E-03 0.  1.
         23    2    1    2    0    0 -0.35527136788E-14  0.00000000000E+00  0.00000000000E+00  0.91188000000E+02  0.91188000000E+02 0.  0.
    9900012    2    3    3    0    0  0.30283543902E+02 -0.16691140917E+02  0.12652808734E+02  0.54367071369E+02  0.39999970800E+02 0.  0.
        -12    1    3    3    0    0 -0.30283543902E+02  0.16691140917E+02 -0.12652808734E+02  0.36820928631E+02  0.00000000000E+00 0.  1.
         11    1    4    4    0    0  0.10006748096E+02 -0.90852191442E+01  0.86742695216E+01  0.16059861966E+02  0.51100000000E-03 0. -1.
        -11    1    4    4    0    0  0.11121438573E+02  0.78335089206E+01 -0.88638620817E+01  0.16236326838E+02  0.51100000000E-03 0.  1.
        -12    1    4    4    0    0  0.91553572324E+01 -0.15439430694E+02  0.12842401294E+02  0.22070882565E+02  0.00000000000E+00 0.  1.
</event>
<event>
 8    1  0.3137106E-007  0.9118800E+02  0.7816164E-02  0.1184000E+00
        -11   -1    0    0    0    0  0.00000000000E+00  0.00000000000E+00  0.45593999997E+02  0.45594000000E+02  0.51100000000E-03 0.  1.
         11   -1    0    0    0    0 -0.00000000000E+00 -0.00000000000E+00 -0.45593999997E+02  0.45594000000E+02  0.51100000000E-03 0. -1.
         23    2    1    2    0    0  0.00000000000E+00 -0.35527136788E-14  0.00000000000E+00  0.91188000000E+02  0.91188000000E+02 0.  0.
    9900012    2    3    3    0    0 -0.11919022048E+02  0.26884488178E+02  0.22157229791E+02  0.54367059991E+02  0.39999944861E+02 0.  0.
         12    1    3    3    0    0  0.11919022048E+02 -0.26884488178E+02 -0.22157229791E+02  0.36820940009E+02  0.00000000000E+00 0. -1.
         11    1    4    4    0    0  0.55411732237E+01  0.23104100075E+02  0.13324418160E+02  0.27240487524E+02  0.51100000000E-03 0. -1.
        -11    1    4    4    0    0 -0.17356828786E+02  0.41674449895E+01 -0.42979856379E+00  0.17855302582E+02  0.51100000000E-03 0.  1.
        -12    1    4    4    0    0 -0.10336648642E+00 -0.38705688670E+00  0.92626101942E+01  0.92712698847E+01  0.00000000000E+00 0.  1.
</event>
<event>
 8    1  0.3137106E-007  0.9118800E+02  0.7816164E-02  0.1184000E+00
        -11   -1    0    0    0    0  0.00000000000E+00  0.00000000000E+00  0.45593999997E+02  0.45594000000E+02  0.51100000000E-03 0.  1.
         11   -1    0    0    0    0 -0.00000000000E+00 -0.00000000000E+00 -0.45593999997E+02  0.45594000000E+02  0.51100000000E-03 0. -1.
         23    2    1    2    0    0 -0.35527136788E-14  0.00000000000E+00 -0.35527136788E-14  0.91188000000E+02  0.91188000000E+02 0.  0.
    9900012    2    3    3    0    0  0.14616456623E+02 -0.25979361092E+02  0.21615087393E+02  0.54367081897E+02  0.39999994801E+02 0.  0.
        -12    1    3    3    0    0 -0.14616456623E+02  0.25979361092E+02 -0.21615087393E+02  0.36820918103E+02  0.00000000000E+00 0.  1.
         11    1    4    4    0    0  0.57753286229E+00  0.22620201025E+01 -0.18028533806E+01  0.29496711214E+01  0.51100000000E-03 0. -1.
        -11    1    4    4    0    0  0.18816324639E+02 -0.33569076026E+02  0.18254065321E+02  0.42592814408E+02  0.51100000000E-03 0.  1.
         12    1    4    4    0    0 -0.47774008782E+01  0.53276948319E+01  0.51638754521E+01  0.88245963680E+01  0.00000000000E+00 0. -1.
</event>
<event>
 8    1  0.3137106E-007  0.9118800E+02  0.7816164E-02  0.1184000E+00
        -11   -1    0    0    0    0  0.00000000000E+00  0.00000000000E+00  0.45593999997E+02  0.45594000000E+02  0.51100000000E-03 0. -1.
         11   -1    0    0    0    0 -0.00000000000E+00 -0.00000000000E+00 -0.45593999997E+02  0.45594000000E+02  0.51100000000E-03 0.  1.
         23    2    1    2    0    0  0.00000000000E+00  0.71054273576E-14  0.88817841970E-15  0.91188000000E+02  0.91188000000E+02 0.  0.
    9900012    2    3    3    0    0  0.17020689065E+02  0.32452938555E+02 -0.35891870937E+01  0.54367090979E+02  0.40000015505E+02 0.  0.
         12    1    3    3    0    0 -0.17020689065E+02 -0.32452938555E+02  0.35891870937E+01  0.36820909021E+02  0.00000000000E+00 0. -1.
         11    1    4    4    0    0  0.81884164274E+01  0.14002295139E+02 -0.29194699303E+01  0.16481436153E+02  0.51100000000E-03 0. -1.
        -11    1    4    4    0    0  0.47507024863E+01  0.26874824738E+02 -0.47014020257E+01  0.27693475046E+02  0.51100000000E-03 0.  1.
         12    1    4    4    0    0  0.40815701517E+01 -0.84241813218E+01  0.40316848624E+01  0.10192179780E+02  0.00000000000E+00 0. -1.
</event>
<event>
 8    1  0.3137106E-007  0.9118800E+02  0.7816164E-02  0.1184000E+00
        -11   -1    0    0    0    0  0.00000000000E+00  0.00000000000E+00  0.45593999997E+02  0.45594000000E+02  0.51100000000E-03 0. -1.
         11   -1    0    0    0    0 -0.00000000000E+00 -0.00000000000E+00 -0.45593999997E+02  0.45594000000E+02  0.51100000000E-03 0.  1.
         23    2    1    2    0    0  0.00000000000E+00  0.00000000000E+00  0.35527136788E-14  0.91188000000E+02  0.91188000000E+02 0.  0.
    9900012    2    3    3    0    0 -0.32553807787E+02 -0.47045287336E+01 -0.16549977840E+02  0.54367017415E+02  0.39999847801E+02 0.  0.
         12    1    3    3    0    0  0.32553807787E+02  0.47045287336E+01  0.16549977840E+02  0.36820982585E+02  0.00000000000E+00 0. -1.
         11    1    4    4    0    0 -0.77530521373E+00 -0.15490781009E+01 -0.12370954586E+01  0.21286490016E+01  0.51100000000E-03 0. -1.
        -11    1    4    4    0    0 -0.36907165674E+02  0.58750011913E+01 -0.18044255236E+02  0.41499995957E+02  0.51100000000E-03 0.  1.
         12    1    4    4    0    0  0.51286631013E+01 -0.90304518240E+01  0.27313728546E+01  0.10738372457E+02  0.00000000000E+00 0. -1.
</event>
<event>
 8    1  0.3137106E-007  0.9118800E+02  0.7816164E-02  0.1184000E+00
        -11   -1    0    0    0    0  0.00000000000E+00  0.00000000000E+00  0.45593999997E+02  0.45594000000E+02  0.51100000000E-03 0.  1.
         11   -1    0    0    0    0 -0.00000000000E+00 -0.00000000000E+00 -0.45593999997E+02  0.45594000000E+02  0.51100000000E-03 0. -1.
         23    2    1    2    0    0  0.17763568394E-14  0.00000000000E+00  0.00000000000E+00  0.91188000000E+02  0.91188000000E+02 0.  0.
    9900012    2    3    3    0    0 -0.13163757560E+02 -0.22682757976E+02  0.25845474170E+02  0.54367074461E+02  0.39999977848E+02 0.  0.
        -12    1    3    3    0    0  0.13163757560E+02  0.22682757976E+02 -0.25845474170E+02  0.36820925539E+02  0.00000000000E+00 0.  1.
         11    1    4    4    0    0 -0.39085964271E+00  0.34803938754E+01  0.11908560226E+02  0.12412885229E+02  0.51100000000E-03 0. -1.
        -11    1    4    4    0    0 -0.14382491023E+02 -0.11142106081E+01  0.60588719370E+01  0.15646323616E+02  0.51100000000E-03 0.  1.
         12    1    4    4    0    0  0.16095931050E+01 -0.25048941243E+02  0.78780420067E+01  0.26307865615E+02  0.00000000000E+00 0. -1.
</event>
<event>
 8    1  0.3137106E-007  0.9118800E+02  0.7816164E-02  0.1184000E+00
        -11   -1    0    0    0    0  0.00000000000E+00  0.00000000000E+00  0.45593999997E+02  0.45594000000E+02  0.51100000000E-03 0. -1.
         11   -1    0    0    0    0 -0.00000000000E+00 -0.00000000000E+00 -0.45593999997E+02  0.45594000000E+02  0.51100000000E-03 0.  1.
         23    2    1    2    0    0  0.88817841970E-15 -0.88817841970E-15  0.71054273576E-14  0.91188000000E+02  0.91188000000E+02 0.  0.
    9900012    2    3    3    0    0  0.53535983517E+01 -0.75652734433E+01  0.35635638752E+02  0.54366903780E+02  0.39999588744E+02 0.  0.
        -12    1    3    3    0    0 -0.53535983517E+01  0.75652734433E+01 -0.35635638752E+02  0.36821096220E+02  0.00000000000E+00 0.  1.
         11    1    4    4    0    0 -0.42514767587E+01  0.31987098262E+01  0.31096748454E+02  0.31548606369E+02  0.51100000000E-03 0. -1.
        -11    1    4    4    0    0  0.57886071250E+01 -0.31680464944E+01  0.10524123398E+02  0.12421822112E+02  0.51100000000E-03 0.  1.
        -12    1    4    4    0    0  0.38164679854E+01 -0.75959367752E+01 -0.59852330991E+01  0.10396475298E+02  0.00000000000E+00 0.  1.
</event>
<event>
 8    1  0.3137106E-007  0.9118800E+02  0.7816164E-02  0.1184000E+00
        -11   -1    0    0    0    0  0.00000000000E+00  0.00000000000E+00  0.45593999997E+02  0.45594000000E+02  0.51100000000E-03 0.  1.
         11   -1    0    0    0    0 -0.00000000000E+00 -0.00000000000E+00 -0.45593999997E+02  0.45594000000E+02  0.51100000000E-03 0. -1.
         23    2    1    2    0    0  0.00000000000E+00  0.00000000000E+00 -0.35527136788E-14  0.91188000000E+02  0.91188000000E+02 0.  0.
    9900012    2    3    3    0    0  0.17634087794E+02 -0.26902780509E+02 -0.17918006947E+02  0.54367141449E+02  0.40000130562E+02 0.  0.
        -12    1    3    3    0    0 -0.17634087794E+02  0.26902780509E+02  0.17918006947E+02  0.36820858551E+02  0.00000000000E+00 0.  1.
         11    1    4    4    0    0  0.13580155260E+02 -0.33625894763E+01 -0.20039262137E+00  0.13991704054E+02  0.51100000000E-03 0. -1.
        -11    1    4    4    0    0  0.96246229205E+00  0.34679958521E+01  0.41455912550E+01  0.54899231332E+01  0.51100000000E-03 0.  1.
         12    1    4    4    0    0  0.30914702423E+01 -0.27008186885E+02 -0.21863205580E+02  0.34885514262E+02  0.00000000000E+00 0. -1.
</event>
<event>
 8    1  0.3137106E-007  0.9118800E+02  0.7816164E-02  0.1184000E+00
        -11   -1    0    0    0    0  0.00000000000E+00  0.00000000000E+00  0.45593999997E+02  0.45594000000E+02  0.51100000000E-03 0. -1.
         11   -1    0    0    0    0 -0.00000000000E+00 -0.00000000000E+00 -0.45593999997E+02  0.45594000000E+02  0.51100000000E-03 0.  1.
         23    2    1    2    0    0  0.17763568394E-14  0.00000000000E+00  0.00000000000E+00  0.91188000000E+02  0.91188000000E+02 0.  0.
    9900012    2    3    3    0    0 -0.13784615110E+02 -0.27710757304E+02  0.19946879013E+02  0.54367086561E+02  0.40000005434E+02 0.  0.
        -12    1    3    3    0    0  0.13784615110E+02  0.27710757304E+02 -0.19946879013E+02  0.36820913439E+02  0.00000000000E+00 0.  1.
         11    1    4    4    0    0  0.21805981238E+01  0.11781135082E+01  0.53027514635E+00  0.25345910139E+01  0.51100000000E-03 0. -1.
        -11    1    4    4    0    0  0.64478630996E-01  0.49384315667E+01  0.12930510934E+02  0.13841617576E+02  0.51100000000E-03 0.  1.
         12    1    4    4    0    0 -0.16029691865E+02 -0.33827302379E+02  0.64860929317E+01  0.37990877972E+02  0.00000000000E+00 0. -1.
</event>
<event>
 8    1  0.3137106E-007  0.9118800E+02  0.7816164E-02  0.1184000E+00
        -11   -1    0    0    0    0  0.00000000000E+00  0.00000000000E+00  0.45593999997E+02  0.45594000000E+02  0.51100000000E-03 0. -1.
         11   -1    0    0    0    0 -0.00000000000E+00 -0.00000000000E+00 -0.45593999997E+02  0.45594000000E+02  0.51100000000E-03 0.  1.
         23    2    1    2    0    0  0.35527136788E-14  0.00000000000E+00  0.35527136788E-14  0.91188000000E+02  0.91188000000E+02 0.  0.
    9900012    2    3    3    0    0 -0.21216476548E+02  0.74971463242E+01  0.29145023273E+02  0.54367102921E+02  0.40000042730E+02 0.  0.
        -12    1    3    3    0    0  0.21216476548E+02 -0.74971463242E+01 -0.29145023273E+02  0.36820897079E+02  0.00000000000E+00 0.  1.
         11    1    4    4    0    0 -0.34912716068E+01  0.62823471846E+01  0.16240904943E+02  0.17760176159E+02  0.51100000000E-03 0. -1.
        -11    1    4    4    0    0  0.80643654964E+01  0.13937772591E+01  0.51775243652E+01  0.96841811591E+01  0.51100000000E-03 0.  1.
         12    1    4    4    0    0 -0.25789570438E+02 -0.17897811954E+00  0.77265939643E+01  0.26922745603E+02  0.00000000000E+00 0. -1.
</event>
<event>
 8    1  0.3137106E-007  0.9118800E+02  0.7816164E-02  0.1184000E+00
        -11   -1    0    0    0    0  0.00000000000E+00  0.00000000000E+00  0.45593999997E+02  0.45594000000E+02  0.51100000000E-03 0.  1.
         11   -1    0    0    0    0 -0.00000000000E+00 -0.00000000000E+00 -0.45593999997E+02  0.45594000000E+02  0.51100000000E-03 0. -1.
         23    2    1    2    0    0  0.35527136788E-14  0.35527136788E-14  0.00000000000E+00  0.91188000000E+02  0.91188000000E+02 0.  0.
    9900012    2    3    3    0    0  0.26274397892E+02  0.18220926017E+02  0.18260154063E+02  0.54367090778E+02  0.40000015048E+02 0.  0.
         12    1    3    3    0    0 -0.26274397892E+02 -0.18220926017E+02 -0.18260154063E+02  0.36820909222E+02  0.00000000000E+00 0. -1.
         11    1    4    4    0    0  0.72439287321E+01  0.95573648938E+01 -0.85553923643E+00  0.12022881303E+02  0.51100000000E-03 0. -1.
        -11    1    4    4    0    0  0.13233810229E+02 -0.91865895936E+01  0.81450742893E+00  0.16130424177E+02  0.51100000000E-03 0.  1.
         12    1    4    4    0    0  0.57966589314E+01  0.17850150717E+02  0.18301185870E+02  0.26213785298E+02  0.00000000000E+00 0. -1.
</event>
<event>
 8    1  0.3137106E-007  0.9118800E+02  0.7816164E-02  0.1184000E+00
        -11   -1    0    0    0    0  0.00000000000E+00  0.00000000000E+00  0.45593999997E+02  0.45594000000E+02  0.51100000000E-03 0.  1.
         11   -1    0    0    0    0 -0.00000000000E+00 -0.00000000000E+00 -0.45593999997E+02  0.45594000000E+02  0.51100000000E-03 0. -1.
         23    2    1    2    0    0  0.00000000000E+00  0.00000000000E+00  0.35527136788E-14  0.91188000000E+02  0.91188000000E+02 0.  0.
    9900012    2    3    3    0    0  0.21663405452E+02 -0.14864192037E+02  0.25798042279E+02  0.54366996128E+02  0.39999799272E+02 0.  0.
         12    1    3    3    0    0 -0.21663405452E+02  0.14864192037E+02 -0.25798042279E+02  0.36821003872E+02  0.00000000000E+00 0. -1.
         11    1    4    4    0    0  0.15829192560E+02 -0.96381940649E+01  0.41567460291E+01  0.18993068729E+02  0.51100000000E-03 0. -1.
        -11    1    4    4    0    0 -0.68487162011E+01 -0.10656514512E+00  0.20540584815E+02  0.21652526285E+02  0.51100000000E-03 0.  1.
        -12    1    4    4    0    0  0.12682929093E+02 -0.51194328274E+01  0.11007114354E+01  0.13721401114E+02  0.00000000000E+00 0.  1.
</event>
<event>
 8    1  0.3137106E-007  0.9118800E+02  0.7816164E-02  0.1184000E+00
        -11   -1    0    0    0    0  0.00000000000E+00  0.00000000000E+00  0.45593999997E+02  0.45594000000E+02  0.51100000000E-03 0. -1.
         11   -1    0    0    0    0 -0.00000000000E+00 -0.00000000000E+00 -0.45593999997E+02  0.45594000000E+02  0.51100000000E-03 0.  1.
         23    2    1    2    0    0  0.00000000000E+00  0.00000000000E+00 -0.88817841970E-15  0.91188000000E+02  0.91188000000E+02 0.  0.
    9900012    2    3    3    0    0  0.55108512025E+01 -0.36334649657E+02  0.22810393636E+01  0.54367090353E+02  0.40000014078E+02 0.  0.
         12    1    3    3    0    0 -0.55108512025E+01  0.36334649657E+02 -0.22810393636E+01  0.36820909647E+02  0.00000000000E+00 0. -1.
         11    1    4    4    0    0  0.73146492691E+00 -0.13151175907E+02 -0.67077515836E+01  0.14781150167E+02  0.51100000000E-03 0. -1.
        -11    1    4    4    0    0  0.11805716100E+02 -0.70164044188E+01 -0.73274588775E+01  0.15565876700E+02  0.51100000000E-03 0.  1.
         12    1    4    4    0    0 -0.70263298239E+01 -0.16167069330E+02  0.16316249825E+02  0.24020063486E+02  0.00000000000E+00 0. -1.
</event>
<event>
 8    1  0.3137106E-007  0.9118800E+02  0.7816164E-02  0.1184000E+00
        -11   -1    0    0    0    0  0.00000000000E+00  0.00000000000E+00  0.45593999997E+02  0.45594000000E+02  0.51100000000E-03 0.  1.
         11   -1    0    0    0    0 -0.00000000000E+00 -0.00000000000E+00 -0.45593999997E+02  0.45594000000E+02  0.51100000000E-03 0. -1.
         23    2    1    2    0    0  0.35527136788E-14  0.00000000000E+00  0.00000000000E+00  0.91188000000E+02  0.91188000000E+02 0.  0.
    9900012    2    3    3    0    0  0.18444340700E+02  0.29446408609E+02 -0.12185713198E+02  0.54367132412E+02  0.40000109959E+02 0.  0.
        -12    1    3    3    0    0 -0.18444340700E+02 -0.29446408609E+02  0.12185713198E+02  0.36820867588E+02  0.00000000000E+00 0.  1.
         11    1    4    4    0    0 -0.18672931935E+00  0.59409999863E+01 -0.66122186808E+01  0.88911070638E+01  0.51100000000E-03 0. -1.
        -11    1    4    4    0    0  0.15872551480E+01  0.20435784547E+02  0.94302324792E+01  0.22562578616E+02  0.51100000000E-03 0.  1.
        -12    1    4    4    0    0  0.17043814872E+02  0.30696240759E+01 -0.15003726996E+02  0.22913446732E+02  0.00000000000E+00 0.  1.
</event>
<event>
 8    1  0.3137106E-007  0.9118800E+02  0.7816164E-02  0.1184000E+00
        -11   -1    0    0    0    0  0.00000000000E+00  0.00000000000E+00  0.45593999997E+02  0.45594000000E+02  0.51100000000E-03 0. -1.
         11   -1    0    0    0    0 -0.00000000000E+00 -0.00000000000E+00 -0.45593999997E+02  0.45594000000E+02  0.51100000000E-03 0.  1.
         23    2    1    2    0    0 -0.17763568394E-14  0.00000000000E+00  0.00000000000E+00  0.91188000000E+02  0.91188000000E+02 0.  0.
    9900012    2    3    3    0    0  0.12917921543E+02 -0.93146103145E+01  0.33198527925E+02  0.54367123874E+02  0.40000090495E+02 0.  0.
        -12    1    3    3    0    0 -0.12917921543E+02  0.93146103145E+01 -0.33198527925E+02  0.36820876126E+02  0.00000000000E+00 0.  1.
         11    1    4    4    0    0  0.65378450339E+01 -0.20800304654E+00 -0.44963143136E+00  0.65565884147E+01  0.51100000000E-03 0. -1.
        -11    1    4    4    0    0  0.28891040018E+01 -0.10426525230E+02 -0.27967523046E+01  0.11175024565E+02  0.51100000000E-03 0.  1.
         12    1    4    4    0    0  0.34909725070E+01  0.13199179625E+01  0.36444911661E+02  0.36635510894E+02  0.00000000000E+00 0. -1.
</event>
<event>
 8    1  0.3137106E-007  0.9118800E+02  0.7816164E-02  0.1184000E+00
        -11   -1    0    0    0    0  0.00000000000E+00  0.00000000000E+00  0.45593999997E+02  0.45594000000E+02  0.51100000000E-03 0. -1.
         11   -1    0    0    0    0 -0.00000000000E+00 -0.00000000000E+00 -0.45593999997E+02  0.45594000000E+02  0.51100000000E-03 0.  1.
         23    2    1    2    0    0 -0.35527136788E-14  0.00000000000E+00  0.00000000000E+00  0.91188000000E+02  0.91188000000E+02 0.  0.
    9900012    2    3    3    0    0 -0.28702230015E+02 -0.11666185586E+02  0.19896024210E+02  0.54367222261E+02  0.40000314787E+02 0.  0.
         12    1    3    3    0    0  0.28702230015E+02  0.11666185586E+02 -0.19896024210E+02  0.36820777739E+02  0.00000000000E+00 0. -1.
         11    1    4    4    0    0  0.16458307680E+00  0.49540336698E+01  0.12470224195E+02  0.13419240996E+02  0.51100000000E-03 0. -1.
        -11    1    4    4    0    0  0.36492658246E+01 -0.17545146765E+01 -0.10929019817E+01  0.41940312125E+01  0.51100000000E-03 0.  1.
        -12    1    4    4    0    0 -0.32516078916E+02 -0.14865704580E+02  0.85187019964E+01  0.36753950052E+02  0.00000000000E+00 0.  1.
</event>
<event>
 8    1  0.3137106E-007  0.9118800E+02  0.7816164E-02  0.1184000E+00
        -11   -1    0    0    0    0  0.00000000000E+00  0.00000000000E+00  0.45593999997E+02  0.45594000000E+02  0.51100000000E-03 0.  1.
         11   -1    0    0    0    0 -0.00000000000E+00 -0.00000000000E+00 -0.45593999997E+02  0.45594000000E+02  0.51100000000E-03 0. -1.
         23    2    1    2    0    0  0.00000000000E+00  0.00000000000E+00  0.17763568394E-14  0.91188000000E+02  0.91188000000E+02 0.  0.
    9900012    2    3    3    0    0  0.34357322056E+02 -0.10201440091E+02 -0.84430210680E+01  0.54367087959E+02  0.40000008620E+02 0.  0.
         12    1    3    3    0    0 -0.34357322056E+02  0.10201440091E+02  0.84430210680E+01  0.36820912041E+02  0.00000000000E+00 0. -1.
         11    1    4    4    0    0 -0.26625837430E+00 -0.70773777358E+00 -0.11995782298E+02  0.12019591485E+02  0.51100000000E-03 0. -1.
        -11    1    4    4    0    0  0.12799434237E+02 -0.43366578810E+01 -0.93892661058E+01  0.16455711368E+02  0.51100000000E-03 0.  1.
        -12    1    4    4    0    0  0.21824146193E+02 -0.51570444364E+01  0.12942027336E+02  0.25891785105E+02  0.00000000000E+00 0.  1.
</event>
<event>
 8    1  0.3137106E-007  0.9118800E+02  0.7816164E-02  0.1184000E+00
        -11   -1    0    0    0    0  0.00000000000E+00  0.00000000000E+00  0.45593999997E+02  0.45594000000E+02  0.51100000000E-03 0.  1.
         11   -1    0    0    0    0 -0.00000000000E+00 -0.00000000000E+00 -0.45593999997E+02  0.45594000000E+02  0.51100000000E-03 0. -1.
         23    2    1    2    0    0  0.00000000000E+00 -0.88817841970E-15  0.00000000000E+00  0.91188000000E+02  0.91188000000E+02 0.  0.
    9900012    2    3    3    0    0  0.32569822992E+02  0.56218796846E+01 -0.16228996161E+02  0.54367092660E+02  0.40000019338E+02 0.  0.
        -12    1    3    3    0    0 -0.32569822992E+02 -0.56218796846E+01  0.16228996161E+02  0.36820907340E+02  0.00000000000E+00 0.  1.
         11    1    4    4    0    0  0.14597527998E+02 -0.14782776742E+02 -0.31597215782E+01  0.21014332075E+02  0.51100000000E-03 0. -1.
        -11    1    4    4    0    0 -0.17254170306E+01 -0.60057489161E+00 -0.13100897266E+01  0.22481302193E+01  0.51100000000E-03 0.  1.
        -12    1    4    4    0    0  0.19697712024E+02  0.21005231318E+02 -0.11759184856E+02  0.31104630366E+02  0.00000000000E+00 0.  1.
</event>
<event>
 8    1  0.3137106E-007  0.9118800E+02  0.7816164E-02  0.1184000E+00
        -11   -1    0    0    0    0  0.00000000000E+00  0.00000000000E+00  0.45593999997E+02  0.45594000000E+02  0.51100000000E-03 0.  1.
         11   -1    0    0    0    0 -0.00000000000E+00 -0.00000000000E+00 -0.45593999997E+02  0.45594000000E+02  0.51100000000E-03 0. -1.
         23    2    1    2    0    0  0.35527136788E-14  0.00000000000E+00 -0.35527136788E-14  0.91188000000E+02  0.91188000000E+02 0.  0.
    9900012    2    3    3    0    0  0.20981926962E+02 -0.15882178699E+02 -0.25754527624E+02  0.54367074531E+02  0.39999978008E+02 0.  0.
        -12    1    3    3    0    0 -0.20981926962E+02  0.15882178699E+02  0.25754527624E+02  0.36820925469E+02  0.00000000000E+00 0.  1.
         11    1    4    4    0    0 -0.31622886286E+01  0.65948141543E-01  0.16970389099E+00  0.31675255642E+01  0.51100000000E-03 0.  1.
        -11    1    4    4    0    0  0.30404946741E+02 -0.58724412880E+01 -0.24008209360E+02  0.39183420855E+02  0.51100000000E-03 0. -1.
         12    1    4    4    0    0 -0.62607311499E+01 -0.10075685553E+02 -0.19160221551E+01  0.12016128111E+02  0.00000000000E+00 0. -1.
</event>
<event>
 8    1  0.3137106E-007  0.9118800E+02  0.7816164E-02  0.1184000E+00
        -11   -1    0    0    0    0  0.00000000000E+00  0.00000000000E+00  0.45593999997E+02  0.45594000000E+02  0.51100000000E-03 0.  1.
         11   -1    0    0    0    0 -0.00000000000E+00 -0.00000000000E+00 -0.45593999997E+02  0.45594000000E+02  0.51100000000E-03 0. -1.
         23    2    1    2    0    0  0.00000000000E+00 -0.35527136788E-14  0.17763568394E-14  0.91188000000E+02  0.91188000000E+02 0.  0.
    9900012    2    3    3    0    0  0.21644648166E+02 -0.27708304117E+02 -0.10933348311E+02  0.54367095387E+02  0.40000025554E+02 0.  0.
        -12    1    3    3    0    0 -0.21644648166E+02  0.27708304117E+02  0.10933348311E+02  0.36820904613E+02  0.00000000000E+00 0.  1.
         11    1    4    4    0    0  0.79029434231E+01 -0.29825108054E+02 -0.31262235566E+01  0.31012366230E+02  0.51100000000E-03 0. -1.
        -11    1    4    4    0    0  0.34511211780E+00 -0.33280597616E+01  0.36159218255E+01  0.49264566434E+01  0.51100000000E-03 0.  1.
         12    1    4    4    0    0  0.13396592625E+02  0.54448636995E+01 -0.11423046580E+02  0.18428272513E+02  0.00000000000E+00 0. -1.
</event>
<event>
 8    1  0.3137106E-007  0.9118800E+02  0.7816164E-02  0.1184000E+00
        -11   -1    0    0    0    0  0.00000000000E+00  0.00000000000E+00  0.45593999997E+02  0.45594000000E+02  0.51100000000E-03 0. -1.
         11   -1    0    0    0    0 -0.00000000000E+00 -0.00000000000E+00 -0.45593999997E+02  0.45594000000E+02  0.51100000000E-03 0.  1.
         23    2    1    2    0    0 -0.17763568394E-14  0.00000000000E+00 -0.71054273576E-14  0.91188000000E+02  0.91188000000E+02 0.  0.
    9900012    2    3    3    0    0  0.14605259954E+02 -0.66566200081E+01  0.33138438328E+02  0.54367077916E+02  0.39999985725E+02 0.  0.
        -12    1    3    3    0    0 -0.14605259954E+02  0.66566200081E+01 -0.33138438328E+02  0.36820922084E+02  0.00000000000E+00 0.  1.
         11    1    4    4    0    0  0.15654423856E+02 -0.27161889779E+00 -0.15979074685E+01  0.15738108896E+02  0.51100000000E-03 0. -1.
        -11    1    4    4    0    0  0.53301081502E+00 -0.30125944243E+01  0.34769378869E+02  0.34903718039E+02  0.51100000000E-03 0.  1.
        -12    1    4    4    0    0 -0.15821747166E+01 -0.33724066860E+01 -0.33033072623E-01  0.37252509813E+01  0.00000000000E+00 0.  1.
</event>
<event>
 8    1  0.3137106E-007  0.9118800E+02  0.7816164E-02  0.1184000E+00
        -11   -1    0    0    0    0  0.00000000000E+00  0.00000000000E+00  0.45593999997E+02  0.45594000000E+02  0.51100000000E-03 0.  1.
         11   -1    0    0    0    0 -0.00000000000E+00 -0.00000000000E+00 -0.45593999997E+02  0.45594000000E+02  0.51100000000E-03 0. -1.
         23    2    1    2    0    0  0.71054273576E-14  0.00000000000E+00 -0.33306690739E-15  0.91188000000E+02  0.91188000000E+02 0.  0.
    9900012    2    3    3    0    0 -0.36734635571E+02 -0.24139302287E+01  0.72107587481E+00  0.54367075784E+02  0.39999980865E+02 0.  0.
        -12    1    3    3    0    0  0.36734635571E+02  0.24139302287E+01 -0.72107587481E+00  0.36820924216E+02  0.00000000000E+00 0.  1.
         11    1    4    4    0    0 -0.89258641967E+01 -0.11445554896E+02  0.69822740285E+01  0.16106642400E+02  0.51100000000E-03 0. -1.
        -11    1    4    4    0    0 -0.89604916470E+01  0.69247307089E+01  0.85557414495E+01  0.14193062318E+02  0.51100000000E-03 0.  1.
        -12    1    4    4    0    0 -0.18848279727E+02  0.21068939583E+01 -0.14816939603E+02  0.24067371066E+02  0.00000000000E+00 0.  1.
</event>
<event>
 8    1  0.3137106E-007  0.9118800E+02  0.7816164E-02  0.1184000E+00
        -11   -1    0    0    0    0  0.00000000000E+00  0.00000000000E+00  0.45593999997E+02  0.45594000000E+02  0.51100000000E-03 0.  1.
         11   -1    0    0    0    0 -0.00000000000E+00 -0.00000000000E+00 -0.45593999997E+02  0.45594000000E+02  0.51100000000E-03 0. -1.
         23    2    1    2    0    0  0.00000000000E+00  0.00000000000E+00  0.00000000000E+00  0.91188000000E+02  0.91188000000E+02 0.  0.
    9900012    2    3    3    0    0  0.33652192531E+02 -0.13473875880E+02  0.64625129577E+01  0.54367089268E+02  0.40000011604E+02 0.  0.
         12    1    3    3    0    0 -0.33652192531E+02  0.13473875880E+02 -0.64625129577E+01  0.36820910732E+02  0.00000000000E+00 0. -1.
         11    1    4    4    0    0  0.54604489708E+01 -0.44069059382E+01  0.37270780150E+01  0.79453403767E+01  0.51100000000E-03 0.  1.
        -11    1    4    4    0    0  0.33656206472E+02  0.22560988074E+01  0.11703977014E+01  0.33752037672E+02  0.51100000000E-03 0. -1.
         12    1    4    4    0    0 -0.54644629119E+01 -0.11323068750E+02  0.15650372413E+01  0.12669711220E+02  0.00000000000E+00 0. -1.
</event>
<event>
 8    1  0.3137106E-007  0.9118800E+02  0.7816164E-02  0.1184000E+00
        -11   -1    0    0    0    0  0.00000000000E+00  0.00000000000E+00  0.45593999997E+02  0.45594000000E+02  0.51100000000E-03 0.  1.
         11   -1    0    0    0    0 -0.00000000000E+00 -0.00000000000E+00 -0.45593999997E+02  0.45594000000E+02  0.51100000000E-03 0. -1.
         23    2    1    2    0    0  0.00000000000E+00 -0.71054273576E-14  0.88817841970E-15  0.91188000000E+02  0.91188000000E+02 0.  0.
    9900012    2    3    3    0    0  0.12106242822E+02  0.34517659698E+02  0.42128509671E+01  0.54367108382E+02  0.40000055178E+02 0.  0.
         12    1    3    3    0    0 -0.12106242822E+02 -0.34517659698E+02 -0.42128509671E+01  0.36820891618E+02  0.00000000000E+00 0. -1.
         11    1    4    4    0    0 -0.11309900197E+02  0.22057959945E+02  0.95879791571E+01  0.26578126043E+02  0.51100000000E-03 0. -1.
        -11    1    4    4    0    0  0.84055520489E+01  0.79879211769E+01 -0.19995091238E+01  0.11766827396E+02  0.51100000000E-03 0.  1.
         12    1    4    4    0    0  0.15010590970E+02  0.44717785762E+01 -0.33756190661E+01  0.16022154942E+02  0.00000000000E+00 0. -1.
</event>
<event>
 8    1  0.3137106E-007  0.9118800E+02  0.7816164E-02  0.1184000E+00
        -11   -1    0    0    0    0  0.00000000000E+00  0.00000000000E+00  0.45593999997E+02  0.45594000000E+02  0.51100000000E-03 0. -1.
         11   -1    0    0    0    0 -0.00000000000E+00 -0.00000000000E+00 -0.45593999997E+02  0.45594000000E+02  0.51100000000E-03 0.  1.
         23    2    1    2    0    0  0.00000000000E+00  0.00000000000E+00 -0.17763568394E-14  0.91188000000E+02  0.91188000000E+02 0.  0.
    9900012    2    3    3    0    0 -0.12757596724E+02 -0.32163774805E+02 -0.12590343013E+02  0.54367062735E+02  0.39999951117E+02 0.  0.
         12    1    3    3    0    0  0.12757596724E+02  0.32163774805E+02  0.12590343013E+02  0.36820937265E+02  0.00000000000E+00 0. -1.
         11    1    4    4    0    0  0.85237189300E+01 -0.16649483060E+02 -0.50730197031E+01  0.19380263149E+02  0.51100000000E-03 0. -1.
        -11    1    4    4    0    0 -0.15533673717E+02 -0.17865392984E+02 -0.12729415771E+02  0.26879458918E+02  0.51100000000E-03 0.  1.
         12    1    4    4    0    0 -0.57476419373E+01  0.23511012381E+01  0.52120924617E+01  0.81073406676E+01  0.00000000000E+00 0. -1.
</event>
<event>
 8    1  0.3137106E-007  0.9118800E+02  0.7816164E-02  0.1184000E+00
        -11   -1    0    0    0    0  0.00000000000E+00  0.00000000000E+00  0.45593999997E+02  0.45594000000E+02  0.51100000000E-03 0.  1.
         11   -1    0    0    0    0 -0.00000000000E+00 -0.00000000000E+00 -0.45593999997E+02  0.45594000000E+02  0.51100000000E-03 0. -1.
         23    2    1    2    0    0 -0.35527136788E-14  0.00000000000E+00  0.00000000000E+00  0.91188000000E+02  0.91188000000E+02 0.  0.
    9900012    2    3    3    0    0 -0.31307320975E+02  0.15296306456E+02  0.11901863589E+02  0.54367086177E+02  0.40000004559E+02 0.  0.
        -12    1    3    3    0    0  0.31307320975E+02 -0.15296306456E+02 -0.11901863589E+02  0.36820913823E+02  0.00000000000E+00 0.  1.
         11    1    4    4    0    0 -0.13957527981E+02  0.62762763719E+01  0.22640328649E+02  0.27327435189E+02  0.51100000000E-03 0. -1.
        -11    1    4    4    0    0 -0.65931189817E+01  0.10575383011E+01  0.34662576548E+01  0.75234664587E+01  0.51100000000E-03 0.  1.
        -12    1    4    4    0    0 -0.10756674012E+02  0.79624917830E+01 -0.14204722714E+02  0.19516184529E+02  0.00000000000E+00 0.  1.
</event>
<event>
 8    1  0.3137106E-007  0.9118800E+02  0.7816164E-02  0.1184000E+00
        -11   -1    0    0    0    0  0.00000000000E+00  0.00000000000E+00  0.45593999997E+02  0.45594000000E+02  0.51100000000E-03 0. -1.
         11   -1    0    0    0    0 -0.00000000000E+00 -0.00000000000E+00 -0.45593999997E+02  0.45594000000E+02  0.51100000000E-03 0.  1.
         23    2    1    2    0    0  0.26645352591E-14  0.17763568394E-14  0.00000000000E+00  0.91188000000E+02  0.91188000000E+02 0.  0.
    9900012    2    3    3    0    0 -0.74923062604E+01 -0.11830987198E+02  0.34053972106E+02  0.54367083018E+02  0.39999997356E+02 0.  0.
        -12    1    3    3    0    0  0.74923062604E+01  0.11830987198E+02 -0.34053972106E+02  0.36820916982E+02  0.00000000000E+00 0.  1.
         11    1    4    4    0    0  0.11314956100E+02 -0.64592300592E+01  0.18971712458E+02  0.23014685711E+02  0.51100000000E-03 0.  1.
        -11    1    4    4    0    0  0.46462747888E+00 -0.47605503097E+01  0.10493616115E+02  0.11532332695E+02  0.51100000000E-03 0. -1.
        -12    1    4    4    0    0 -0.19271889839E+02 -0.61120682904E+00  0.45886435329E+01  0.19820064612E+02  0.00000000000E+00 0.  1.
</event>
<event>
 8    1  0.3137106E-007  0.9118800E+02  0.7816164E-02  0.1184000E+00
        -11   -1    0    0    0    0  0.00000000000E+00  0.00000000000E+00  0.45593999997E+02  0.45594000000E+02  0.51100000000E-03 0. -1.
         11   -1    0    0    0    0 -0.00000000000E+00 -0.00000000000E+00 -0.45593999997E+02  0.45594000000E+02  0.51100000000E-03 0.  1.
         23    2    1    2    0    0  0.00000000000E+00  0.17763568394E-14  0.00000000000E+00  0.91188000000E+02  0.91188000000E+02 0.  0.
    9900012    2    3    3    0    0  0.13796318372E+01 -0.11148211117E+02  0.35065615067E+02  0.54367036472E+02  0.39999891245E+02 0.  0.
        -12    1    3    3    0    0 -0.13796318372E+01  0.11148211117E+02 -0.35065615067E+02  0.36820963528E+02  0.00000000000E+00 0.  1.
         11    1    4    4    0    0  0.79544377811E+01 -0.15418624120E+02  0.32754443799E+02  0.37065626111E+02  0.51100000000E-03 0. -1.
        -11    1    4    4    0    0 -0.38214260444E+01 -0.50748950700E+01  0.38645074723E+01  0.74358775709E+01  0.51100000000E-03 0.  1.
        -12    1    4    4    0    0 -0.27533798995E+01  0.93453080736E+01 -0.15533362041E+01  0.98655327897E+01  0.00000000000E+00 0.  1.
</event>
<event>
 8    1  0.3137106E-007  0.9118800E+02  0.7816164E-02  0.1184000E+00
        -11   -1    0    0    0    0  0.00000000000E+00  0.00000000000E+00  0.45593999997E+02  0.45594000000E+02  0.51100000000E-03 0. -1.
         11   -1    0    0    0    0 -0.00000000000E+00 -0.00000000000E+00 -0.45593999997E+02  0.45594000000E+02  0.51100000000E-03 0.  1.
         23    2    1    2    0    0  0.00000000000E+00 -0.88817841970E-15  0.35527136788E-14  0.91188000000E+02  0.91188000000E+02 0.  0.
    9900012    2    3    3    0    0  0.28463566486E+02  0.72863114667E+01  0.22192646143E+02  0.54367102472E+02  0.40000041706E+02 0.  0.
         12    1    3    3    0    0 -0.28463566486E+02 -0.72863114667E+01 -0.22192646143E+02  0.36820897528E+02  0.00000000000E+00 0. -1.
         11    1    4    4    0    0  0.10484271969E+02  0.13941555966E-01 -0.10316133196E+02  0.14708594680E+02  0.51100000000E-03 0. -1.
        -11    1    4    4    0    0  0.25985131745E+01  0.11432370662E+01 -0.35358793463E+00  0.28608191827E+01  0.51100000000E-03 0.  1.
        -12    1    4    4    0    0  0.15380781343E+02  0.61291328444E+01  0.32862367274E+02  0.36797688609E+02  0.00000000000E+00 0.  1.
</event>
<event>
 8    1  0.3137106E-007  0.9118800E+02  0.7816164E-02  0.1184000E+00
        -11   -1    0    0    0    0  0.00000000000E+00  0.00000000000E+00  0.45593999997E+02  0.45594000000E+02  0.51100000000E-03 0.  1.
         11   -1    0    0    0    0 -0.00000000000E+00 -0.00000000000E+00 -0.45593999997E+02  0.45594000000E+02  0.51100000000E-03 0. -1.
         23    2    1    2    0    0  0.88817841970E-15  0.00000000000E+00  0.71054273576E-14  0.91188000000E+02  0.91188000000E+02 0.  0.
    9900012    2    3    3    0    0 -0.40789835621E+01  0.27354778536E+01  0.36491909081E+02  0.54367076948E+02  0.39999983519E+02 0.  0.
         12    1    3    3    0    0  0.40789835621E+01 -0.27354778536E+01 -0.36491909081E+02  0.36820923052E+02  0.00000000000E+00 0. -1.
         11    1    4    4    0    0 -0.13172101285E+02  0.93044683154E+00  0.29967414022E+02  0.32747761557E+02  0.51100000000E-03 0.  1.
        -11    1    4    4    0    0  0.11922628599E+02  0.33843804855E+01 -0.19502522271E+01  0.12546178222E+02  0.51100000000E-03 0. -1.
         12    1    4    4    0    0 -0.28295108757E+01 -0.15793494634E+01  0.84747472867E+01  0.90731371695E+01  0.00000000000E+00 0. -1.
</event>
<event>
 8    1  0.3137106E-007  0.9118800E+02  0.7816164E-02  0.1184000E+00
        -11   -1    0    0    0    0  0.00000000000E+00  0.00000000000E+00  0.45593999997E+02  0.45594000000E+02  0.51100000000E-03 0.  1.
         11   -1    0    0    0    0 -0.00000000000E+00 -0.00000000000E+00 -0.45593999997E+02  0.45594000000E+02  0.51100000000E-03 0. -1.
         23    2    1    2    0    0 -0.88817841970E-15 -0.71054273576E-14 -0.88817841970E-15  0.91188000000E+02  0.91188000000E+02 0.  0.
    9900012    2    3    3    0    0 -0.72521254431E+01 -0.35970187942E+02  0.30548908811E+01  0.54367080642E+02  0.39999991941E+02 0.  0.
         12    1    3    3    0    0  0.72521254431E+01  0.35970187942E+02 -0.30548908811E+01  0.36820919358E+02  0.00000000000E+00 0. -1.
         11    1    4    4    0    0 -0.13019058428E+02 -0.18047309825E+02  0.64381958183E+01  0.23165742810E+02  0.51100000000E-03 0. -1.
        -11    1    4    4    0    0 -0.62608637349E+01 -0.10517012580E+01  0.57430413619E+01  0.85607835265E+01  0.51100000000E-03 0.  1.
         12    1    4    4    0    0  0.12027796719E+02 -0.16871176859E+02 -0.91263462990E+01  0.22640554306E+02  0.00000000000E+00 0. -1.
</event>
<event>
 8    1  0.3137106E-007  0.9118800E+02  0.7816164E-02  0.1184000E+00
        -11   -1    0    0    0    0  0.00000000000E+00  0.00000000000E+00  0.45593999997E+02  0.45594000000E+02  0.51100000000E-03 0.  1.
         11   -1    0    0    0    0 -0.00000000000E+00 -0.00000000000E+00 -0.45593999997E+02  0.45594000000E+02  0.51100000000E-03 0. -1.
         23    2    1    2    0    0  0.00000000000E+00  0.17763568394E-14  0.35527136788E-14  0.91188000000E+02  0.91188000000E+02 0.  0.
    9900012    2    3    3    0    0  0.15056614045E+02  0.12157409534E+02  0.31325351176E+02  0.54367056783E+02  0.39999937548E+02 0.  0.
         12    1    3    3    0    0 -0.15056614045E+02 -0.12157409534E+02 -0.31325351176E+02  0.36820943217E+02  0.00000000000E+00 0. -1.
         11    1    4    4    0    0 -0.70700184889E-01 -0.67327839126E+01  0.17431005051E+01  0.69551259775E+01  0.51100000000E-03 0. -1.
        -11    1    4    4    0    0  0.20916111789E+02  0.20487330156E+02  0.18009090523E+02  0.34373562094E+02  0.51100000000E-03 0.  1.
        -12    1    4    4    0    0 -0.57887975593E+01 -0.15971367093E+01  0.11573160148E+02  0.13038368712E+02  0.00000000000E+00 0.  1.
</event>
<event>
 8    1  0.3137106E-007  0.9118800E+02  0.7816164E-02  0.1184000E+00
        -11   -1    0    0    0    0  0.00000000000E+00  0.00000000000E+00  0.45593999997E+02  0.45594000000E+02  0.51100000000E-03 0.  1.
         11   -1    0    0    0    0 -0.00000000000E+00 -0.00000000000E+00 -0.45593999997E+02  0.45594000000E+02  0.51100000000E-03 0. -1.
         23    2    1    2    0    0 -0.17763568394E-14 -0.35527136788E-14  0.00000000000E+00  0.91188000000E+02  0.91188000000E+02 0.  0.
    9900012    2    3    3    0    0 -0.12154568009E+02 -0.14402262595E+02  0.31632601502E+02  0.54367079735E+02  0.39999989872E+02 0.  0.
         12    1    3    3    0    0  0.12154568009E+02  0.14402262595E+02 -0.31632601502E+02  0.36820920265E+02  0.00000000000E+00 0. -1.
         11    1    4    4    0    0  0.26130077137E+01  0.29636945798E+01  0.29133011121E+00  0.39618390135E+01  0.51100000000E-03 0.  1.
        -11    1    4    4    0    0 -0.63311015326E+01  0.87412322806E+01  0.35737263874E+01  0.11369411108E+02  0.51100000000E-03 0. -1.
         12    1    4    4    0    0 -0.84364741903E+01 -0.26107189456E+02  0.27767545004E+02  0.39035829613E+02  0.00000000000E+00 0. -1.
</event>
<event>
 8    1  0.3137106E-007  0.9118800E+02  0.7816164E-02  0.1184000E+00
        -11   -1    0    0    0    0  0.00000000000E+00  0.00000000000E+00  0.45593999997E+02  0.45594000000E+02  0.51100000000E-03 0.  1.
         11   -1    0    0    0    0 -0.00000000000E+00 -0.00000000000E+00 -0.45593999997E+02  0.45594000000E+02  0.51100000000E-03 0. -1.
         23    2    1    2    0    0 -0.17763568394E-14  0.00000000000E+00 -0.17763568394E-14  0.91188000000E+02  0.91188000000E+02 0.  0.
    9900012    2    3    3    0    0 -0.13942754908E+02  0.32373613562E+02 -0.10645638063E+02  0.54367070092E+02  0.39999967890E+02 0.  0.
        -12    1    3    3    0    0  0.13942754908E+02 -0.32373613562E+02  0.10645638063E+02  0.36820929908E+02  0.00000000000E+00 0.  1.
         11    1    4    4    0    0 -0.50973314305E+01  0.22428546920E+01  0.48503521222E+01  0.73850592992E+01  0.51100000000E-03 0.  1.
        -11    1    4    4    0    0  0.87260183033E+01  0.24046296114E+02 -0.11035400261E+02  0.27859429488E+02  0.51100000000E-03 0. -1.
        -12    1    4    4    0    0 -0.17571441781E+02  0.60844627556E+01 -0.44605899248E+01  0.19122581305E+02  0.00000000000E+00 0.  1.
</event>
<event>
 8    1  0.3137106E-007  0.9118800E+02  0.7816164E-02  0.1184000E+00
        -11   -1    0    0    0    0  0.00000000000E+00  0.00000000000E+00  0.45593999997E+02  0.45594000000E+02  0.51100000000E-03 0.  1.
         11   -1    0    0    0    0 -0.00000000000E+00 -0.00000000000E+00 -0.45593999997E+02  0.45594000000E+02  0.51100000000E-03 0. -1.
         23    2    1    2    0    0 -0.35527136788E-14  0.00000000000E+00  0.00000000000E+00  0.91188000000E+02  0.91188000000E+02 0.  0.
    9900012    2    3    3    0    0 -0.24636310844E+02 -0.20431961651E+02  0.18203512645E+02  0.54367071963E+02  0.39999972154E+02 0.  0.
        -12    1    3    3    0    0  0.24636310844E+02  0.20431961651E+02 -0.18203512645E+02  0.36820928037E+02  0.00000000000E+00 0.  1.
         11    1    4    4    0    0  0.44097582740E+01 -0.10046183144E+01 -0.68415100681E+01  0.82013100335E+01  0.51100000000E-03 0. -1.
        -11    1    4    4    0    0 -0.48752780689E+01 -0.12743548511E+02  0.76140385409E+01  0.15624978338E+02  0.51100000000E-03 0.  1.
        -12    1    4    4    0    0 -0.24170791049E+02 -0.66837948259E+01  0.17430984172E+02  0.30540783592E+02  0.00000000000E+00 0.  1.
</event>
<event>
 8    1  0.3137106E-007  0.9118800E+02  0.7816164E-02  0.1184000E+00
        -11   -1    0    0    0    0  0.00000000000E+00  0.00000000000E+00  0.45593999997E+02  0.45594000000E+02  0.51100000000E-03 0.  1.
         11   -1    0    0    0    0 -0.00000000000E+00 -0.00000000000E+00 -0.45593999997E+02  0.45594000000E+02  0.51100000000E-03 0. -1.
         23    2    1    2    0    0  0.00000000000E+00  0.83266726847E-16 -0.35527136788E-14  0.91188000000E+02  0.91188000000E+02 0.  0.
    9900012    2    3    3    0    0 -0.23922934461E+02  0.22684863614E+00 -0.27989633996E+02  0.54367111027E+02  0.40000061208E+02 0.  0.
        -12    1    3    3    0    0  0.23922934461E+02 -0.22684863614E+00  0.27989633996E+02  0.36820888973E+02  0.00000000000E+00 0.  1.
         11    1    4    4    0    0 -0.22061332782E+02 -0.17837126711E+01 -0.30895264556E+02  0.38005281307E+02  0.51100000000E-03 0. -1.
        -11    1    4    4    0    0  0.46001682074E+01 -0.13325856763E+01 -0.40681613728E+01  0.62838896663E+01  0.51100000000E-03 0.  1.
        -12    1    4    4    0    0 -0.64617698863E+01  0.33431469835E+01  0.69737919320E+01  0.10077940054E+02  0.00000000000E+00 0.  1.
</event>
<event>
 8    1  0.3137106E-007  0.9118800E+02  0.7816164E-02  0.1184000E+00
        -11   -1    0    0    0    0  0.00000000000E+00  0.00000000000E+00  0.45593999997E+02  0.45594000000E+02  0.51100000000E-03 0.  1.
         11   -1    0    0    0    0 -0.00000000000E+00 -0.00000000000E+00 -0.45593999997E+02  0.45594000000E+02  0.51100000000E-03 0. -1.
         23    2    1    2    0    0 -0.22204460493E-15 -0.35527136788E-14  0.00000000000E+00  0.91188000000E+02  0.91188000000E+02 0.  0.
    9900012    2    3    3    0    0  0.96214959408E+00  0.21714565433E+02 -0.29720848211E+02  0.54367124098E+02  0.40000091007E+02 0.  0.
        -12    1    3    3    0    0 -0.96214959408E+00 -0.21714565433E+02  0.29720848211E+02  0.36820875902E+02  0.00000000000E+00 0.  1.
         11    1    4    4    0    0  0.78285606433E+01  0.13406872209E+02 -0.20392190191E+01  0.15658512019E+02  0.51100000000E-03 0. -1.
        -11    1    4    4    0    0 -0.23903336471E+01  0.12643773852E+01  0.46162734762E+01  0.53499837556E+01  0.51100000000E-03 0.  1.
         12    1    4    4    0    0 -0.44760774021E+01  0.70433158390E+01 -0.32297902668E+02  0.33358628324E+02  0.00000000000E+00 0. -1.
</event>
<event>
 8    1  0.3137106E-007  0.9118800E+02  0.7816164E-02  0.1184000E+00
        -11   -1    0    0    0    0  0.00000000000E+00  0.00000000000E+00  0.45593999997E+02  0.45594000000E+02  0.51100000000E-03 0. -1.
         11   -1    0    0    0    0 -0.00000000000E+00 -0.00000000000E+00 -0.45593999997E+02  0.45594000000E+02  0.51100000000E-03 0.  1.
         23    2    1    2    0    0 -0.17763568394E-14  0.88817841970E-15  0.00000000000E+00  0.91188000000E+02  0.91188000000E+02 0.  0.
    9900012    2    3    3    0    0  0.15041438644E+02 -0.72256486546E+01  0.32822639177E+02  0.54367075005E+02  0.39999979089E+02 0.  0.
        -12    1    3    3    0    0 -0.15041438644E+02  0.72256486546E+01 -0.32822639177E+02  0.36820924995E+02  0.00000000000E+00 0.  1.
         11    1    4    4    0    0  0.16979457370E+02  0.32061411605E+01  0.25998968663E+02  0.31217425991E+02  0.51100000000E-03 0. -1.
        -11    1    4    4    0    0 -0.80692261223E+01 -0.57556465120E+01  0.10644015141E+02  0.14544240632E+02  0.51100000000E-03 0.  1.
        -12    1    4    4    0    0  0.61312073970E+01 -0.46761433031E+01 -0.38203446277E+01  0.86054083814E+01  0.00000000000E+00 0.  1.
</event>
<event>
 8    1  0.3137106E-007  0.9118800E+02  0.7816164E-02  0.1184000E+00
        -11   -1    0    0    0    0  0.00000000000E+00  0.00000000000E+00  0.45593999997E+02  0.45594000000E+02  0.51100000000E-03 0.  1.
         11   -1    0    0    0    0 -0.00000000000E+00 -0.00000000000E+00 -0.45593999997E+02  0.45594000000E+02  0.51100000000E-03 0. -1.
         23    2    1    2    0    0  0.00000000000E+00  0.00000000000E+00  0.00000000000E+00  0.91188000000E+02  0.91188000000E+02 0.  0.
    9900012    2    3    3    0    0 -0.16292172971E+02 -0.20080146227E+02  0.26213221854E+02  0.54367079689E+02  0.39999989766E+02 0.  0.
        -12    1    3    3    0    0  0.16292172971E+02  0.20080146227E+02 -0.26213221854E+02  0.36820920311E+02  0.00000000000E+00 0.  1.
         11    1    4    4    0    0  0.34517960160E+01 -0.10411055868E+02  0.38890065519E+00  0.10975255077E+02  0.51100000000E-03 0. -1.
        -11    1    4    4    0    0 -0.89886258701E+01 -0.41884375475E+00  0.27660561436E+02  0.29087411097E+02  0.51100000000E-03 0.  1.
        -12    1    4    4    0    0 -0.10755343117E+02 -0.92502466041E+01 -0.18362402369E+01  0.14304413515E+02  0.00000000000E+00 0.  1.
</event>
<event>
 8    1  0.3137106E-007  0.9118800E+02  0.7816164E-02  0.1184000E+00
        -11   -1    0    0    0    0  0.00000000000E+00  0.00000000000E+00  0.45593999997E+02  0.45594000000E+02  0.51100000000E-03 0.  1.
         11   -1    0    0    0    0 -0.00000000000E+00 -0.00000000000E+00 -0.45593999997E+02  0.45594000000E+02  0.51100000000E-03 0. -1.
         23    2    1    2    0    0 -0.71054273576E-14 -0.17763568394E-14 -0.17763568394E-14  0.91188000000E+02  0.91188000000E+02 0.  0.
    9900012    2    3    3    0    0 -0.33044381769E+02 -0.11972236052E+02 -0.10977878012E+02  0.54367090068E+02  0.40000013427E+02 0.  0.
         12    1    3    3    0    0  0.33044381769E+02  0.11972236052E+02  0.10977878012E+02  0.36820909932E+02  0.00000000000E+00 0. -1.
         11    1    4    4    0    0 -0.30957785212E+02 -0.77652805353E+01 -0.14153153500E+02  0.34914120371E+02  0.51100000000E-03 0. -1.
        -11    1    4    4    0    0  0.80038497235E+01 -0.38800830038E+01  0.86074000150E-01  0.88951707969E+01  0.51100000000E-03 0.  1.
        -12    1    4    4    0    0 -0.10090446280E+02 -0.32687251307E+00  0.30892014871E+01  0.10557798900E+02  0.00000000000E+00 0.  1.
</event>
<event>
 8    1  0.3137106E-007  0.9118800E+02  0.7816164E-02  0.1184000E+00
        -11   -1    0    0    0    0  0.00000000000E+00  0.00000000000E+00  0.45593999997E+02  0.45594000000E+02  0.51100000000E-03 0. -1.
         11   -1    0    0    0    0 -0.00000000000E+00 -0.00000000000E+00 -0.45593999997E+02  0.45594000000E+02  0.51100000000E-03 0.  1.
         23    2    1    2    0    0  0.17763568394E-14  0.00000000000E+00  0.00000000000E+00  0.91188000000E+02  0.91188000000E+02 0.  0.
    9900012    2    3    3    0    0  0.68287987774E+01 -0.16717145738E+02  0.32088717191E+02  0.54367065393E+02  0.39999957176E+02 0.  0.
        -12    1    3    3    0    0 -0.68287987774E+01  0.16717145738E+02 -0.32088717191E+02  0.36820934607E+02  0.00000000000E+00 0.  1.
         11    1    4    4    0    0 -0.61610385978E+01 -0.10236313664E+02  0.57688009782E+01  0.13267237053E+02  0.51100000000E-03 0.  1.
        -11    1    4    4    0    0 -0.40556441972E+01 -0.23404694134E+01 -0.39424815489E+01  0.61212096806E+01  0.51100000000E-03 0. -1.
        -12    1    4    4    0    0  0.17045481572E+02 -0.41403626603E+01  0.30262397762E+02  0.34978618659E+02  0.00000000000E+00 0.  1.
</event>
<event>
 8    1  0.3137106E-007  0.9118800E+02  0.7816164E-02  0.1184000E+00
        -11   -1    0    0    0    0  0.00000000000E+00  0.00000000000E+00  0.45593999997E+02  0.45594000000E+02  0.51100000000E-03 0.  1.
         11   -1    0    0    0    0 -0.00000000000E+00 -0.00000000000E+00 -0.45593999997E+02  0.45594000000E+02  0.51100000000E-03 0. -1.
         23    2    1    2    0    0  0.00000000000E+00 -0.17763568394E-14  0.00000000000E+00  0.91188000000E+02  0.91188000000E+02 0.  0.
    9900012    2    3    3    0    0 -0.87341869731E+01 -0.97599407776E+01  0.34413019485E+02  0.54366832499E+02  0.39999426244E+02 0.  0.
         12    1    3    3    0    0  0.87341869731E+01  0.97599407776E+01 -0.34413019485E+02  0.36821167501E+02  0.00000000000E+00 0. -1.
         11    1    4    4    0    0  0.89426712739E+01 -0.12449831224E+02  0.17208871221E+02  0.23045930573E+02  0.51100000000E-03 0. -1.
        -11    1    4    4    0    0 -0.13243728365E+02 -0.72884527465E+01  0.11555342142E+02  0.19027449033E+02  0.51100000000E-03 0.  1.
         12    1    4    4    0    0 -0.44331298824E+01  0.99783431926E+01  0.56488061227E+01  0.12293452893E+02  0.00000000000E+00 0. -1.
</event>
<event>
 8    1  0.3137106E-007  0.9118800E+02  0.7816164E-02  0.1184000E+00
        -11   -1    0    0    0    0  0.00000000000E+00  0.00000000000E+00  0.45593999997E+02  0.45594000000E+02  0.51100000000E-03 0. -1.
         11   -1    0    0    0    0 -0.00000000000E+00 -0.00000000000E+00 -0.45593999997E+02  0.45594000000E+02  0.51100000000E-03 0.  1.
         23    2    1    2    0    0  0.17763568394E-14 -0.44408920985E-15  0.71054273576E-14  0.91188000000E+02  0.91188000000E+02 0.  0.
    9900012    2    3    3    0    0 -0.13799669318E+02 -0.35749106692E+01 -0.33949471795E+02  0.54367116052E+02  0.40000072663E+02 0.  0.
         12    1    3    3    0    0  0.13799669318E+02  0.35749106692E+01  0.33949471795E+02  0.36820883948E+02  0.00000000000E+00 0. -1.
         11    1    4    4    0    0 -0.46183311570E+01  0.96243715227E+01 -0.97288202504E+01  0.14443249413E+02  0.51100000000E-03 0. -1.
        -11    1    4    4    0    0 -0.16308514455E+02 -0.13463097697E+02 -0.87461171263E+01  0.22884868546E+02  0.51100000000E-03 0.  1.
         12    1    4    4    0    0  0.71271762935E+01  0.26381550553E+00 -0.15474534418E+02  0.17038998092E+02  0.00000000000E+00 0. -1.
</event>
<event>
 8    1  0.3137106E-007  0.9118800E+02  0.7816164E-02  0.1184000E+00
        -11   -1    0    0    0    0  0.00000000000E+00  0.00000000000E+00  0.45593999997E+02  0.45594000000E+02  0.51100000000E-03 0. -1.
         11   -1    0    0    0    0 -0.00000000000E+00 -0.00000000000E+00 -0.45593999997E+02  0.45594000000E+02  0.51100000000E-03 0.  1.
         23    2    1    2    0    0  0.00000000000E+00  0.00000000000E+00  0.00000000000E+00  0.91188000000E+02  0.91188000000E+02 0.  0.
    9900012    2    3    3    0    0 -0.25546523962E+02  0.24470221952E+02  0.10215833115E+02  0.54367083456E+02  0.39999998355E+02 0.  0.
        -12    1    3    3    0    0  0.25546523962E+02 -0.24470221952E+02 -0.10215833115E+02  0.36820916544E+02  0.00000000000E+00 0.  1.
         11    1    4    4    0    0  0.65463027317E+01 -0.11663252503E+00 -0.15961486742E+01  0.67390929251E+01  0.51100000000E-03 0. -1.
        -11    1    4    4    0    0 -0.16451199525E+02  0.18085618992E+02 -0.36180863939E+01  0.24714815992E+02  0.51100000000E-03 0.  1.
         12    1    4    4    0    0 -0.15641627169E+02  0.65012354847E+01  0.15430068183E+02  0.22913174539E+02  0.00000000000E+00 0. -1.
</event>
<event>
 8    1  0.3137106E-007  0.9118800E+02  0.7816164E-02  0.1184000E+00
        -11   -1    0    0    0    0  0.00000000000E+00  0.00000000000E+00  0.45593999997E+02  0.45594000000E+02  0.51100000000E-03 0.  1.
         11   -1    0    0    0    0 -0.00000000000E+00 -0.00000000000E+00 -0.45593999997E+02  0.45594000000E+02  0.51100000000E-03 0. -1.
         23    2    1    2    0    0  0.00000000000E+00  0.66613381478E-15  0.00000000000E+00  0.91188000000E+02  0.91188000000E+02 0.  0.
    9900012    2    3    3    0    0  0.23739265112E+02  0.15867127322E+01 -0.28101723672E+02  0.54367119529E+02  0.40000080589E+02 0.  0.
        -12    1    3    3    0    0 -0.23739265112E+02 -0.15867127322E+01  0.28101723672E+02  0.36820880471E+02  0.00000000000E+00 0.  1.
         11    1    4    4    0    0  0.20459792497E+02  0.67624865985E-01 -0.21118973070E+02  0.29404399432E+02  0.51100000000E-03 0. -1.
        -11    1    4    4    0    0 -0.85388760323E+01  0.49101023969E+01 -0.79095875765E+01  0.12632619892E+02  0.51100000000E-03 0.  1.
        -12    1    4    4    0    0  0.11818348647E+02 -0.33910145307E+01  0.92683697433E+00  0.12330100205E+02  0.00000000000E+00 0.  1.
</event>
<event>
 8    1  0.3137106E-007  0.9118800E+02  0.7816164E-02  0.1184000E+00
        -11   -1    0    0    0    0  0.00000000000E+00  0.00000000000E+00  0.45593999997E+02  0.45594000000E+02  0.51100000000E-03 0.  1.
         11   -1    0    0    0    0 -0.00000000000E+00 -0.00000000000E+00 -0.45593999997E+02  0.45594000000E+02  0.51100000000E-03 0. -1.
         23    2    1    2    0    0  0.00000000000E+00  0.00000000000E+00  0.17763568394E-14  0.91188000000E+02  0.91188000000E+02 0.  0.
    9900012    2    3    3    0    0  0.32309329438E+02  0.86076768845E+01 -0.15420608037E+02  0.54367081729E+02  0.39999994418E+02 0.  0.
        -12    1    3    3    0    0 -0.32309329438E+02 -0.86076768845E+01  0.15420608037E+02  0.36820918271E+02  0.00000000000E+00 0.  1.
         11    1    4    4    0    0 -0.66651719951E+00 -0.56877421451E+00  0.19095172837E+01  0.21009535460E+01  0.51100000000E-03 0.  1.
        -11    1    4    4    0    0  0.13890136991E+02  0.19854499235E+02  0.20947594531E+00  0.24231816398E+02  0.51100000000E-03 0. -1.
         12    1    4    4    0    0  0.19085709646E+02 -0.10678048136E+02 -0.17539601266E+02  0.28034311785E+02  0.00000000000E+00 0. -1.
</event>
<event>
 8    1  0.3137106E-007  0.9118800E+02  0.7816164E-02  0.1184000E+00
        -11   -1    0    0    0    0  0.00000000000E+00  0.00000000000E+00  0.45593999997E+02  0.45594000000E+02  0.51100000000E-03 0.  1.
         11   -1    0    0    0    0 -0.00000000000E+00 -0.00000000000E+00 -0.45593999997E+02  0.45594000000E+02  0.51100000000E-03 0. -1.
         23    2    1    2    0    0 -0.35527136788E-14  0.17763568394E-14  0.00000000000E+00  0.91188000000E+02  0.91188000000E+02 0.  0.
    9900012    2    3    3    0    0 -0.27483571540E+02  0.88658056668E+01 -0.22843600474E+02  0.54367091574E+02  0.40000016861E+02 0.  0.
        -12    1    3    3    0    0  0.27483571540E+02 -0.88658056668E+01  0.22843600474E+02  0.36820908426E+02  0.00000000000E+00 0.  1.
         11    1    4    4    0    0 -0.13400053952E+02  0.80518263058E+01  0.43350605779E+01  0.16223011535E+02  0.51100000000E-03 0. -1.
        -11    1    4    4    0    0  0.58566932795E+00  0.48288911424E+01 -0.21284361681E+02  0.21833122787E+02  0.51100000000E-03 0.  1.
         12    1    4    4    0    0 -0.14669186916E+02 -0.40149117814E+01 -0.58942993708E+01  0.16310957252E+02  0.00000000000E+00 0. -1.
</event>
<event>
 8    1  0.3137106E-007  0.9118800E+02  0.7816164E-02  0.1184000E+00
        -11   -1    0    0    0    0  0.00000000000E+00  0.00000000000E+00  0.45593999997E+02  0.45594000000E+02  0.51100000000E-03 0. -1.
         11   -1    0    0    0    0 -0.00000000000E+00 -0.00000000000E+00 -0.45593999997E+02  0.45594000000E+02  0.51100000000E-03 0.  1.
         23    2    1    2    0    0  0.00000000000E+00  0.00000000000E+00 -0.17763568394E-14  0.91188000000E+02  0.91188000000E+02 0.  0.
    9900012    2    3    3    0    0 -0.27931271905E+02  0.19691511684E+02 -0.13706538621E+02  0.54367071391E+02  0.39999970851E+02 0.  0.
        -12    1    3    3    0    0  0.27931271905E+02 -0.19691511684E+02  0.13706538621E+02  0.36820928609E+02  0.00000000000E+00 0.  1.
         11    1    4    4    0    0 -0.14672873869E+02 -0.31817376563E+01  0.28042109320E+01  0.15273515682E+02  0.51100000000E-03 0. -1.
        -11    1    4    4    0    0  0.14733925569E+00 -0.20010360389E+01 -0.98634463242E+01  0.10065457155E+02  0.51100000000E-03 0.  1.
        -12    1    4    4    0    0 -0.13405737292E+02  0.24874285379E+02 -0.66473032289E+01  0.29028098554E+02  0.00000000000E+00 0.  1.
</event>
<event>
 8    1  0.3137106E-007  0.9118800E+02  0.7816164E-02  0.1184000E+00
        -11   -1    0    0    0    0  0.00000000000E+00  0.00000000000E+00  0.45593999997E+02  0.45594000000E+02  0.51100000000E-03 0.  1.
         11   -1    0    0    0    0 -0.00000000000E+00 -0.00000000000E+00 -0.45593999997E+02  0.45594000000E+02  0.51100000000E-03 0. -1.
         23    2    1    2    0    0  0.00000000000E+00  0.00000000000E+00  0.00000000000E+00  0.91188000000E+02  0.91188000000E+02 0.  0.
    9900012    2    3    3    0    0  0.15064043815E+02 -0.19916907812E+02  0.27058672928E+02  0.54367076417E+02  0.39999982308E+02 0.  0.
         12    1    3    3    0    0 -0.15064043815E+02  0.19916907812E+02 -0.27058672928E+02  0.36820923583E+02  0.00000000000E+00 0. -1.
         11    1    4    4    0    0 -0.14135602362E+01 -0.12407337585E+02  0.17802010595E+02  0.21745154863E+02  0.51100000000E-03 0. -1.
        -11    1    4    4    0    0  0.33836710988E+01 -0.15187803252E+02  0.16614766355E+01  0.15648613440E+02  0.51100000000E-03 0.  1.
         12    1    4    4    0    0  0.13093932953E+02  0.76782330253E+01  0.75951856970E+01  0.16973308114E+02  0.00000000000E+00 0. -1.
</event>
<event>
 8    1  0.3137106E-007  0.9118800E+02  0.7816164E-02  0.1184000E+00
        -11   -1    0    0    0    0  0.00000000000E+00  0.00000000000E+00  0.45593999997E+02  0.45594000000E+02  0.51100000000E-03 0. -1.
         11   -1    0    0    0    0 -0.00000000000E+00 -0.00000000000E+00 -0.45593999997E+02  0.45594000000E+02  0.51100000000E-03 0.  1.
         23    2    1    2    0    0 -0.99920072216E-15  0.71054273576E-14  0.00000000000E+00  0.91188000000E+02  0.91188000000E+02 0.  0.
    9900012    2    3    3    0    0 -0.98502760556E+00  0.32427832045E+02  0.17413931198E+02  0.54367087867E+02  0.40000008411E+02 0.  0.
        -12    1    3    3    0    0  0.98502760556E+00 -0.32427832045E+02 -0.17413931198E+02  0.36820912133E+02  0.00000000000E+00 0.  1.
         11    1    4    4    0    0  0.57997348581E-02  0.34370893559E+02  0.17349630027E+02  0.38501532697E+02  0.51100000000E-03 0. -1.
        -11    1    4    4    0    0  0.50411866732E+01  0.46221983197E+01 -0.89805343845E+00  0.68981722666E+01  0.51100000000E-03 0.  1.
         12    1    4    4    0    0 -0.60320140136E+01 -0.65652598338E+01  0.96235460960E+00  0.89673829036E+01  0.00000000000E+00 0. -1.
</event>
<event>
 8    1  0.3137106E-007  0.9118800E+02  0.7816164E-02  0.1184000E+00
        -11   -1    0    0    0    0  0.00000000000E+00  0.00000000000E+00  0.45593999997E+02  0.45594000000E+02  0.51100000000E-03 0.  1.
         11   -1    0    0    0    0 -0.00000000000E+00 -0.00000000000E+00 -0.45593999997E+02  0.45594000000E+02  0.51100000000E-03 0. -1.
         23    2    1    2    0    0  0.00000000000E+00  0.17763568394E-14  0.00000000000E+00  0.91188000000E+02  0.91188000000E+02 0.  0.
    9900012    2    3    3    0    0  0.33412196864E+02 -0.11999240344E+02  0.97684537990E+01  0.54367090754E+02  0.40000014991E+02 0.  0.
         12    1    3    3    0    0 -0.33412196864E+02  0.11999240344E+02 -0.97684537990E+01  0.36820909246E+02  0.00000000000E+00 0. -1.
         11    1    4    4    0    0  0.32707688083E+02  0.53705076561E+00  0.19532125169E+02  0.38099674501E+02  0.51100000000E-03 0.  1.
        -11    1    4    4    0    0 -0.14915740600E+00 -0.10250485614E+02 -0.63070152450E+01  0.12036326051E+02  0.51100000000E-03 0. -1.
        -12    1    4    4    0    0  0.85366618713E+00 -0.22858054962E+01 -0.34566561246E+01  0.42310902010E+01  0.00000000000E+00 0.  1.
</event>
<event>
 8    1  0.3137106E-007  0.9118800E+02  0.7816164E-02  0.1184000E+00
        -11   -1    0    0    0    0  0.00000000000E+00  0.00000000000E+00  0.45593999997E+02  0.45594000000E+02  0.51100000000E-03 0. -1.
         11   -1    0    0    0    0 -0.00000000000E+00 -0.00000000000E+00 -0.45593999997E+02  0.45594000000E+02  0.51100000000E-03 0.  1.
         23    2    1    2    0    0  0.00000000000E+00  0.00000000000E+00 -0.35527136788E-14  0.91188000000E+02  0.91188000000E+02 0.  0.
    9900012    2    3    3    0    0 -0.11417671340E+02  0.24798875921E+02 -0.24706930065E+02  0.54367083947E+02  0.39999999474E+02 0.  0.
         12    1    3    3    0    0  0.11417671340E+02 -0.24798875921E+02  0.24706930065E+02  0.36820916053E+02  0.00000000000E+00 0. -1.
         11    1    4    4    0    0 -0.10808260425E+02 -0.86762389126E+01 -0.48499192354E+01  0.14683914053E+02  0.51100000000E-03 0. -1.
        -11    1    4    4    0    0  0.34263392026E+01  0.13479575388E+02 -0.69970529149E+01  0.15569120166E+02  0.51100000000E-03 0.  1.
        -12    1    4    4    0    0 -0.40357501177E+01  0.19995539445E+02 -0.12859957915E+02  0.24114049728E+02  0.00000000000E+00 0.  1.
</event>
<event>
 8    1  0.3137106E-007  0.9118800E+02  0.7816164E-02  0.1184000E+00
        -11   -1    0    0    0    0  0.00000000000E+00  0.00000000000E+00  0.45593999997E+02  0.45594000000E+02  0.51100000000E-03 0.  1.
         11   -1    0    0    0    0 -0.00000000000E+00 -0.00000000000E+00 -0.45593999997E+02  0.45594000000E+02  0.51100000000E-03 0. -1.
         23    2    1    2    0    0  0.35527136788E-14  0.88817841970E-15  0.00000000000E+00  0.91188000000E+02  0.91188000000E+02 0.  0.
    9900012    2    3    3    0    0  0.15305563641E+02 -0.78202753805E+01 -0.32563185387E+02  0.54367108811E+02  0.40000056157E+02 0.  0.
        -12    1    3    3    0    0 -0.15305563641E+02  0.78202753805E+01  0.32563185387E+02  0.36820891189E+02  0.00000000000E+00 0.  1.
         11    1    4    4    0    0  0.14003955886E-01 -0.44784280622E+01 -0.25373257060E+02  0.25765455325E+02  0.51100000000E-03 0. -1.
        -11    1    4    4    0    0  0.17731816509E+02  0.54567386035E+01 -0.47968320735E+01  0.19162539266E+02  0.51100000000E-03 0.  1.
         12    1    4    4    0    0 -0.24402568241E+01 -0.87985859218E+01 -0.23930962529E+01  0.94391142204E+01  0.00000000000E+00 0. -1.
</event>
<event>
 8    1  0.3137106E-007  0.9118800E+02  0.7816164E-02  0.1184000E+00
        -11   -1    0    0    0    0  0.00000000000E+00  0.00000000000E+00  0.45593999997E+02  0.45594000000E+02  0.51100000000E-03 0.  1.
         11   -1    0    0    0    0 -0.00000000000E+00 -0.00000000000E+00 -0.45593999997E+02  0.45594000000E+02  0.51100000000E-03 0. -1.
         23    2    1    2    0    0  0.00000000000E+00  0.00000000000E+00 -0.71054273576E-14  0.91188000000E+02  0.91188000000E+02 0.  0.
    9900012    2    3    3    0    0  0.42885868691E+01  0.61941747334E+01 -0.36041947246E+02  0.54367058414E+02  0.39999941267E+02 0.  0.
        -12    1    3    3    0    0 -0.42885868691E+01 -0.61941747334E+01  0.36041947246E+02  0.36820941586E+02  0.00000000000E+00 0.  1.
         11    1    4    4    0    0  0.68064221662E+01  0.12027431096E+02 -0.46476604648E+01  0.14580371379E+02  0.51100000000E-03 0. -1.
        -11    1    4    4    0    0 -0.45249885812E+01  0.19052569276E+01  0.21084371357E+01  0.53433166700E+01  0.51100000000E-03 0.  1.
         12    1    4    4    0    0  0.20071532841E+01 -0.77385132905E+01 -0.33502723917E+02  0.34443370365E+02  0.00000000000E+00 0. -1.
</event>
<event>
 8    1  0.3137106E-007  0.9118800E+02  0.7816164E-02  0.1184000E+00
        -11   -1    0    0    0    0  0.00000000000E+00  0.00000000000E+00  0.45593999997E+02  0.45594000000E+02  0.51100000000E-03 0. -1.
         11   -1    0    0    0    0 -0.00000000000E+00 -0.00000000000E+00 -0.45593999997E+02  0.45594000000E+02  0.51100000000E-03 0.  1.
         23    2    1    2    0    0 -0.88817841970E-15  0.00000000000E+00  0.00000000000E+00  0.91188000000E+02  0.91188000000E+02 0.  0.
    9900012    2    3    3    0    0  0.57330016968E+01 -0.60637189771E+01  0.35862847086E+02  0.54367084783E+02  0.40000001380E+02 0.  0.
        -12    1    3    3    0    0 -0.57330016968E+01  0.60637189771E+01 -0.35862847086E+02  0.36820915217E+02  0.00000000000E+00 0.  1.
         11    1    4    4    0    0  0.39572567462E+01 -0.11932403627E+02  0.70896038919E+01  0.14432762066E+02  0.51100000000E-03 0. -1.
        -11    1    4    4    0    0  0.35226836391E+01  0.13174893518E+02  0.42474355053E+01  0.14283830994E+02  0.51100000000E-03 0.  1.
         12    1    4    4    0    0 -0.17469386885E+01 -0.73062088688E+01  0.24525807689E+02  0.25650491723E+02  0.00000000000E+00 0. -1.
</event>
<event>
 8    1  0.3137106E-007  0.9118800E+02  0.7816164E-02  0.1184000E+00
        -11   -1    0    0    0    0  0.00000000000E+00  0.00000000000E+00  0.45593999997E+02  0.45594000000E+02  0.51100000000E-03 0.  1.
         11   -1    0    0    0    0 -0.00000000000E+00 -0.00000000000E+00 -0.45593999997E+02  0.45594000000E+02  0.51100000000E-03 0. -1.
         23    2    1    2    0    0  0.88817841970E-15  0.88817841970E-15 -0.14210854715E-13  0.91188000000E+02  0.91188000000E+02 0.  0.
    9900012    2    3    3    0    0 -0.64009139126E+01 -0.74531087599E+01  0.35486017764E+02  0.54367109383E+02  0.40000057459E+02 0.  0.
         12    1    3    3    0    0  0.64009139126E+01  0.74531087599E+01 -0.35486017764E+02  0.36820890617E+02  0.00000000000E+00 0. -1.
         11    1    4    4    0    0 -0.34290886157E+01 -0.18654294727E+01  0.52268833541E+00  0.39384869187E+01  0.51100000000E-03 0. -1.
        -11    1    4    4    0    0 -0.41753317263E+01  0.58874585164E+01  0.37852353897E+02  0.38534351670E+02  0.51100000000E-03 0.  1.
        -12    1    4    4    0    0  0.12035064295E+01 -0.11475137804E+02 -0.28890244683E+01  0.11894270794E+02  0.00000000000E+00 0.  1.
</event>
<event>
 8    1  0.3137106E-007  0.9118800E+02  0.7816164E-02  0.1184000E+00
        -11   -1    0    0    0    0  0.00000000000E+00  0.00000000000E+00  0.45593999997E+02  0.45594000000E+02  0.51100000000E-03 0.  1.
         11   -1    0    0    0    0 -0.00000000000E+00 -0.00000000000E+00 -0.45593999997E+02  0.45594000000E+02  0.51100000000E-03 0. -1.
         23    2    1    2    0    0 -0.17763568394E-14  0.00000000000E+00  0.17763568394E-14  0.91188000000E+02  0.91188000000E+02 0.  0.
    9900012    2    3    3    0    0  0.10427358775E+02  0.34695532194E+02 -0.65780147065E+01  0.54367081452E+02  0.39999993786E+02 0.  0.
        -12    1    3    3    0    0 -0.10427358775E+02 -0.34695532194E+02  0.65780147065E+01  0.36820918548E+02  0.00000000000E+00 0.  1.
         11    1    4    4    0    0  0.88931798433E+01  0.29975146211E+02 -0.25789818904E+01  0.31372745910E+02  0.51100000000E-03 0. -1.
        -11    1    4    4    0    0 -0.34198334164E+01  0.20580996471E+01 -0.12320327075E+02  0.12950733348E+02  0.51100000000E-03 0.  1.
        -12    1    4    4    0    0  0.49540123479E+01  0.26622863359E+01  0.83212942591E+01  0.10043602194E+02  0.00000000000E+00 0.  1.
</event>
<event>
 8    1  0.3137106E-007  0.9118800E+02  0.7816164E-02  0.1184000E+00
        -11   -1    0    0    0    0  0.00000000000E+00  0.00000000000E+00  0.45593999997E+02  0.45594000000E+02  0.51100000000E-03 0.  1.
         11   -1    0    0    0    0 -0.00000000000E+00 -0.00000000000E+00 -0.45593999997E+02  0.45594000000E+02  0.51100000000E-03 0. -1.
         23    2    1    2    0    0  0.00000000000E+00  0.35527136788E-14  0.00000000000E+00  0.91188000000E+02  0.91188000000E+02 0.  0.
    9900012    2    3    3    0    0  0.13585254393E+02  0.24410977058E+02 -0.23985948266E+02  0.54367073177E+02  0.39999974922E+02 0.  0.
        -12    1    3    3    0    0 -0.13585254393E+02 -0.24410977058E+02  0.23985948266E+02  0.36820926823E+02  0.00000000000E+00 0.  1.
         11    1    4    4    0    0 -0.41714798298E+01  0.12296352451E+00 -0.52042474322E+00  0.42056160278E+01  0.51100000000E-03 0.  1.
        -11    1    4    4    0    0  0.81024296885E+01  0.28463275665E+02 -0.25942729178E+02  0.39355210911E+02  0.51100000000E-03 0. -1.
         12    1    4    4    0    0  0.96543045345E+01 -0.41752621307E+01  0.24772056554E+01  0.10806246238E+02  0.00000000000E+00 0. -1.
</event>
<event>
 8    1  0.3137106E-007  0.9118800E+02  0.7816164E-02  0.1184000E+00
        -11   -1    0    0    0    0  0.00000000000E+00  0.00000000000E+00  0.45593999997E+02  0.45594000000E+02  0.51100000000E-03 0.  1.
         11   -1    0    0    0    0 -0.00000000000E+00 -0.00000000000E+00 -0.45593999997E+02  0.45594000000E+02  0.51100000000E-03 0. -1.
         23    2    1    2    0    0 -0.71054273576E-14  0.00000000000E+00  0.00000000000E+00  0.91188000000E+02  0.91188000000E+02 0.  0.
    9900012    2    3    3    0    0  0.30394598890E+02  0.17391247656E+02  0.11379497027E+02  0.54367080820E+02  0.39999992344E+02 0.  0.
         12    1    3    3    0    0 -0.30394598890E+02 -0.17391247656E+02 -0.11379497027E+02  0.36820919180E+02  0.00000000000E+00 0. -1.
         11    1    4    4    0    0  0.21081933512E+01 -0.75594603704E+01 -0.42360804698E+01  0.89182003961E+01  0.51100000000E-03 0. -1.
        -11    1    4    4    0    0  0.22162560346E+02  0.78109451300E+01  0.13564578231E+02  0.27132779581E+02  0.51100000000E-03 0.  1.
         12    1    4    4    0    0  0.61238451919E+01  0.17139762897E+02  0.20509992662E+01  0.18316100843E+02  0.00000000000E+00 0. -1.
</event>
<event>
 8    1  0.3137106E-007  0.9118800E+02  0.7816164E-02  0.1184000E+00
        -11   -1    0    0    0    0  0.00000000000E+00  0.00000000000E+00  0.45593999997E+02  0.45594000000E+02  0.51100000000E-03 0. -1.
         11   -1    0    0    0    0 -0.00000000000E+00 -0.00000000000E+00 -0.45593999997E+02  0.45594000000E+02  0.51100000000E-03 0.  1.
         23    2    1    2    0    0  0.00000000000E+00  0.35527136788E-14 -0.71054273576E-14  0.91188000000E+02  0.91188000000E+02 0.  0.
    9900012    2    3    3    0    0 -0.19604896719E+02 -0.19551881736E+02  0.24272443217E+02  0.54367088081E+02  0.40000008899E+02 0.  0.
        -12    1    3    3    0    0  0.19604896719E+02  0.19551881736E+02 -0.24272443217E+02  0.36820911919E+02  0.00000000000E+00 0.  1.
         11    1    4    4    0    0 -0.61243556104E+01 -0.76228109805E+01  0.31798044417E+02  0.33267560895E+02  0.51100000000E-03 0. -1.
        -11    1    4    4    0    0 -0.11834107329E+02 -0.11147845877E+02 -0.34286396179E+01  0.16615538928E+02  0.51100000000E-03 0.  1.
         12    1    4    4    0    0 -0.16464337793E+01 -0.78122487893E+00 -0.40969615818E+01  0.44839882587E+01  0.00000000000E+00 0. -1.
</event>
<event>
 8    1  0.3137106E-007  0.9118800E+02  0.7816164E-02  0.1184000E+00
        -11   -1    0    0    0    0  0.00000000000E+00  0.00000000000E+00  0.45593999997E+02  0.45594000000E+02  0.51100000000E-03 0.  1.
         11   -1    0    0    0    0 -0.00000000000E+00 -0.00000000000E+00 -0.45593999997E+02  0.45594000000E+02  0.51100000000E-03 0. -1.
         23    2    1    2    0    0 -0.71054273576E-14  0.00000000000E+00  0.22204460493E-15  0.91188000000E+02  0.91188000000E+02 0.  0.
    9900012    2    3    3    0    0 -0.17889045917E+02  0.32160983844E+02 -0.11971470589E+01  0.54367081941E+02  0.39999994901E+02 0.  0.
        -12    1    3    3    0    0  0.17889045917E+02 -0.32160983844E+02  0.11971470589E+01  0.36820918059E+02  0.00000000000E+00 0.  1.
         11    1    4    4    0    0 -0.81161386259E+01  0.15459873053E+02 -0.13714502437E+02  0.22202859239E+02  0.51100000000E-03 0. -1.
        -11    1    4    4    0    0 -0.14193602109E+02  0.19660932260E+02  0.11033416476E+02  0.26641075007E+02  0.51100000000E-03 0.  1.
        -12    1    4    4    0    0  0.44206948173E+01 -0.29598214689E+01  0.14839389020E+01  0.55231476950E+01  0.00000000000E+00 0.  1.
</event>
<event>
 8    1  0.3137106E-007  0.9118800E+02  0.7816164E-02  0.1184000E+00
        -11   -1    0    0    0    0  0.00000000000E+00  0.00000000000E+00  0.45593999997E+02  0.45594000000E+02  0.51100000000E-03 0. -1.
         11   -1    0    0    0    0 -0.00000000000E+00 -0.00000000000E+00 -0.45593999997E+02  0.45594000000E+02  0.51100000000E-03 0.  1.
         23    2    1    2    0    0  0.00000000000E+00 -0.17763568394E-14 -0.35527136788E-14  0.91188000000E+02  0.91188000000E+02 0.  0.
    9900012    2    3    3    0    0 -0.13818768094E+02  0.12675197306E+02 -0.31688587249E+02  0.54367006800E+02  0.39999823602E+02 0.  0.
         12    1    3    3    0    0  0.13818768094E+02 -0.12675197306E+02  0.31688587249E+02  0.36820993200E+02  0.00000000000E+00 0. -1.
         11    1    4    4    0    0  0.65244515708E+01  0.13814891537E+02 -0.22731588148E+02  0.27388771358E+02  0.51100000000E-03 0. -1.
        -11    1    4    4    0    0 -0.41425251819E+01 -0.70713393882E+01 -0.28490198486E+01  0.86764779712E+01  0.51100000000E-03 0.  1.
        -12    1    4    4    0    0 -0.16200694482E+02  0.59316451571E+01 -0.61079792522E+01  0.18301757471E+02  0.00000000000E+00 0.  1.
</event>
<event>
 8    1  0.3137106E-007  0.9118800E+02  0.7816164E-02  0.1184000E+00
        -11   -1    0    0    0    0  0.00000000000E+00  0.00000000000E+00  0.45593999997E+02  0.45594000000E+02  0.51100000000E-03 0. -1.
         11   -1    0    0    0    0 -0.00000000000E+00 -0.00000000000E+00 -0.45593999997E+02  0.45594000000E+02  0.51100000000E-03 0.  1.
         23    2    1    2    0    0  0.00000000000E+00 -0.44408920985E-15 -0.17763568394E-14  0.91188000000E+02  0.91188000000E+02 0.  0.
    9900012    2    3    3    0    0  0.33910463665E+02 -0.11711015977E+01  0.14299953711E+02  0.54367086092E+02  0.40000004363E+02 0.  0.
         12    1    3    3    0    0 -0.33910463665E+02  0.11711015977E+01 -0.14299953711E+02  0.36820913908E+02  0.00000000000E+00 0. -1.
         11    1    4    4    0    0  0.31699620840E+02  0.21235276657E+01  0.81301965100E+01  0.32794442009E+02  0.51100000000E-03 0. -1.
        -11    1    4    4    0    0  0.84837521859E+01  0.12151621575E+01 -0.34464625825E+01  0.92373575667E+01  0.51100000000E-03 0.  1.
        -12    1    4    4    0    0 -0.62729093607E+01 -0.45097914209E+01  0.96162197831E+01  0.12335286516E+02  0.00000000000E+00 0.  1.
</event>
<event>
 8    1  0.3137106E-007  0.9118800E+02  0.7816164E-02  0.1184000E+00
        -11   -1    0    0    0    0  0.00000000000E+00  0.00000000000E+00  0.45593999997E+02  0.45594000000E+02  0.51100000000E-03 0. -1.
         11   -1    0    0    0    0 -0.00000000000E+00 -0.00000000000E+00 -0.45593999997E+02  0.45594000000E+02  0.51100000000E-03 0.  1.
         23    2    1    2    0    0  0.13322676296E-14  0.00000000000E+00  0.00000000000E+00  0.91188000000E+02  0.91188000000E+02 0.  0.
    9900012    2    3    3    0    0 -0.32405329058E+01  0.12953766584E+02  0.34314409011E+02  0.54367084911E+02  0.40000001671E+02 0.  0.
        -12    1    3    3    0    0  0.32405329058E+01 -0.12953766584E+02 -0.34314409011E+02  0.36820915089E+02  0.00000000000E+00 0.  1.
         11    1    4    4    0    0  0.19166246159E+01  0.13279064117E+02  0.87315761207E+01  0.16007729869E+02  0.51100000000E-03 0. -1.
        -11    1    4    4    0    0  0.10942472624E+02  0.14423540931E+01  0.16318547388E+02  0.19700585817E+02  0.51100000000E-03 0.  1.
        -12    1    4    4    0    0 -0.16099630145E+02 -0.17676516261E+01  0.92642855030E+01  0.18658769224E+02  0.00000000000E+00 0.  1.
</event>
<event>
 8    1  0.3137106E-007  0.9118800E+02  0.7816164E-02  0.1184000E+00
        -11   -1    0    0    0    0  0.00000000000E+00  0.00000000000E+00  0.45593999997E+02  0.45594000000E+02  0.51100000000E-03 0. -1.
         11   -1    0    0    0    0 -0.00000000000E+00 -0.00000000000E+00 -0.45593999997E+02  0.45594000000E+02  0.51100000000E-03 0.  1.
         23    2    1    2    0    0  0.00000000000E+00  0.00000000000E+00  0.88817841970E-15  0.91188000000E+02  0.91188000000E+02 0.  0.
    9900012    2    3    3    0    0  0.35332373517E+02 -0.70072429211E+01  0.76355491479E+01  0.54367086344E+02  0.40000004938E+02 0.  0.
        -12    1    3    3    0    0 -0.35332373517E+02  0.70072429211E+01 -0.76355491479E+01  0.36820913656E+02  0.00000000000E+00 0.  1.
         11    1    4    4    0    0  0.46117208000E+01  0.36880973575E+01  0.11110387837E+02  0.12582159950E+02  0.51100000000E-03 0. -1.
        -11    1    4    4    0    0  0.12264716394E+02 -0.62151660231E+01 -0.14371118746E+02  0.19889208410E+02  0.51100000000E-03 0.  1.
         12    1    4    4    0    0  0.18455936323E+02 -0.44801742554E+01  0.10896280057E+02  0.21895717983E+02  0.00000000000E+00 0. -1.
</event>
<event>
 8    1  0.3137106E-007  0.9118800E+02  0.7816164E-02  0.1184000E+00
        -11   -1    0    0    0    0  0.00000000000E+00  0.00000000000E+00  0.45593999997E+02  0.45594000000E+02  0.51100000000E-03 0.  1.
         11   -1    0    0    0    0 -0.00000000000E+00 -0.00000000000E+00 -0.45593999997E+02  0.45594000000E+02  0.51100000000E-03 0. -1.
         23    2    1    2    0    0  0.17763568394E-14  0.35527136788E-14  0.00000000000E+00  0.91188000000E+02  0.91188000000E+02 0.  0.
    9900012    2    3    3    0    0  0.13253077767E+02  0.12959756914E+02  0.31814736522E+02  0.54367125085E+02  0.40000093257E+02 0.  0.
         12    1    3    3    0    0 -0.13253077767E+02 -0.12959756914E+02 -0.31814736522E+02  0.36820874915E+02  0.00000000000E+00 0. -1.
         11    1    4    4    0    0  0.54248984120E+01  0.70792871315E+01  0.35209124252E+01  0.95886731949E+01  0.51100000000E-03 0. -1.
        -11    1    4    4    0    0  0.62288328361E+01  0.15770170885E+02  0.25402634933E+01  0.17144958067E+02  0.51100000000E-03 0.  1.
        -12    1    4    4    0    0  0.15993465186E+01 -0.98897011024E+01  0.25753560603E+02  0.27633493824E+02  0.00000000000E+00 0.  1.
</event>
<event>
 8    1  0.3137106E-007  0.9118800E+02  0.7816164E-02  0.1184000E+00
        -11   -1    0    0    0    0  0.00000000000E+00  0.00000000000E+00  0.45593999997E+02  0.45594000000E+02  0.51100000000E-03 0.  1.
         11   -1    0    0    0    0 -0.00000000000E+00 -0.00000000000E+00 -0.45593999997E+02  0.45594000000E+02  0.51100000000E-03 0. -1.
         23    2    1    2    0    0  0.00000000000E+00  0.00000000000E+00  0.88817841970E-15  0.91188000000E+02  0.91188000000E+02 0.  0.
    9900012    2    3    3    0    0 -0.55926277198E+01  0.36283293628E+02  0.28328578151E+01  0.54367082511E+02  0.39999996201E+02 0.  0.
        -12    1    3    3    0    0  0.55926277198E+01 -0.36283293628E+02 -0.28328578151E+01  0.36820917489E+02  0.00000000000E+00 0.  1.
         11    1    4    4    0    0 -0.73098812538E+01  0.16170470150E+02 -0.64984634000E+00  0.17757836843E+02  0.51100000000E-03 0.  1.
        -11    1    4    4    0    0 -0.25587925910E+01  0.22335880374E+02  0.12979398397E+02  0.25959656289E+02  0.51100000000E-03 0. -1.
         12    1    4    4    0    0  0.42760461249E+01 -0.22230568968E+01 -0.94966942418E+01  0.10649589379E+02  0.00000000000E+00 0. -1.
</event>
<event>
 8    1  0.3137106E-007  0.9118800E+02  0.7816164E-02  0.1184000E+00
        -11   -1    0    0    0    0  0.00000000000E+00  0.00000000000E+00  0.45593999997E+02  0.45594000000E+02  0.51100000000E-03 0. -1.
         11   -1    0    0    0    0 -0.00000000000E+00 -0.00000000000E+00 -0.45593999997E+02  0.45594000000E+02  0.51100000000E-03 0.  1.
         23    2    1    2    0    0  0.00000000000E+00  0.00000000000E+00 -0.71054273576E-14  0.91188000000E+02  0.91188000000E+02 0.  0.
    9900012    2    3    3    0    0 -0.10952456568E+02  0.59818015419E+01 -0.34641632444E+02  0.54367069092E+02  0.39999965608E+02 0.  0.
         12    1    3    3    0    0  0.10952456568E+02 -0.59818015419E+01  0.34641632444E+02  0.36820930908E+02  0.00000000000E+00 0. -1.
         11    1    4    4    0    0 -0.58019000959E+01 -0.52465531250E+01  0.59155448838E+01  0.98072440547E+01  0.51100000000E-03 0. -1.
        -11    1    4    4    0    0 -0.61187892900E+01  0.11149841152E+02 -0.41377701517E+02  0.43288251560E+02  0.51100000000E-03 0.  1.
        -12    1    4    4    0    0  0.96823281827E+00  0.78513515221E-01  0.82052418861E+00  0.12715734767E+01  0.00000000000E+00 0.  1.
</event>
<event>
 8    1  0.3137106E-007  0.9118800E+02  0.7816164E-02  0.1184000E+00
        -11   -1    0    0    0    0  0.00000000000E+00  0.00000000000E+00  0.45593999997E+02  0.45594000000E+02  0.51100000000E-03 0. -1.
         11   -1    0    0    0    0 -0.00000000000E+00 -0.00000000000E+00 -0.45593999997E+02  0.45594000000E+02  0.51100000000E-03 0.  1.
         23    2    1    2    0    0  0.35527136788E-14  0.00000000000E+00  0.17763568394E-14  0.91188000000E+02  0.91188000000E+02 0.  0.
    9900012    2    3    3    0    0 -0.31283186882E+02  0.16188117267E+02 -0.10727879058E+02  0.54367077806E+02  0.39999985474E+02 0.  0.
        -12    1    3    3    0    0  0.31283186882E+02 -0.16188117267E+02  0.10727879058E+02  0.36820922194E+02  0.00000000000E+00 0.  1.
         11    1    4    4    0    0 -0.24735078799E+02  0.20827709710E+02  0.42275300408E+01  0.32611188655E+02  0.51100000000E-03 0. -1.
        -11    1    4    4    0    0  0.41415452009E+01 -0.37209846641E+00 -0.52706002043E+01  0.67134254069E+01  0.51100000000E-03 0.  1.
         12    1    4    4    0    0 -0.10689653284E+02 -0.42674939762E+01 -0.96848088949E+01  0.15042463744E+02  0.00000000000E+00 0. -1.
</event>
<event>
 8    1  0.3137106E-007  0.9118800E+02  0.7816164E-02  0.1184000E+00
        -11   -1    0    0    0    0  0.00000000000E+00  0.00000000000E+00  0.45593999997E+02  0.45594000000E+02  0.51100000000E-03 0.  1.
         11   -1    0    0    0    0 -0.00000000000E+00 -0.00000000000E+00 -0.45593999997E+02  0.45594000000E+02  0.51100000000E-03 0. -1.
         23    2    1    2    0    0  0.00000000000E+00  0.53290705182E-14  0.55511151231E-15  0.91188000000E+02  0.91188000000E+02 0.  0.
    9900012    2    3    3    0    0  0.34499613846E+02 -0.12856399467E+02 -0.51912931656E+00  0.54367083960E+02  0.39999999504E+02 0.  0.
         12    1    3    3    0    0 -0.34499613846E+02  0.12856399467E+02  0.51912931656E+00  0.36820916040E+02  0.00000000000E+00 0. -1.
         11    1    4    4    0    0  0.25587743939E+02 -0.11877875641E+02 -0.74826076038E+01  0.29185715452E+02  0.51100000000E-03 0. -1.
        -11    1    4    4    0    0 -0.18936097537E+01 -0.99617725542E+01  0.26136977527E+01  0.10471584719E+02  0.51100000000E-03 0.  1.
         12    1    4    4    0    0  0.10805479661E+02  0.89832487287E+01  0.43497805346E+01  0.14709783789E+02  0.00000000000E+00 0. -1.
</event>
<event>
 8    1  0.3137106E-007  0.9118800E+02  0.7816164E-02  0.1184000E+00
        -11   -1    0    0    0    0  0.00000000000E+00  0.00000000000E+00  0.45593999997E+02  0.45594000000E+02  0.51100000000E-03 0. -1.
         11   -1    0    0    0    0 -0.00000000000E+00 -0.00000000000E+00 -0.45593999997E+02  0.45594000000E+02  0.51100000000E-03 0.  1.
         23    2    1    2    0    0  0.00000000000E+00 -0.17763568394E-14  0.00000000000E+00  0.91188000000E+02  0.91188000000E+02 0.  0.
    9900012    2    3    3    0    0  0.15861478323E+02  0.64713556394E+01  0.32593041558E+02  0.54367200221E+02  0.40000264542E+02 0.  0.
        -12    1    3    3    0    0 -0.15861478323E+02 -0.64713556394E+01 -0.32593041558E+02  0.36820799779E+02  0.00000000000E+00 0.  1.
         11    1    4    4    0    0 -0.34120333270E+01 -0.86197350208E+01  0.59204109904E+00  0.92893657575E+01  0.51100000000E-03 0. -1.
        -11    1    4    4    0    0  0.21183010615E+02  0.11939018154E+02  0.17096774076E+02  0.29724733426E+02  0.51100000000E-03 0.  1.
         12    1    4    4    0    0 -0.19094989648E+01  0.31520725061E+01  0.14904226383E+02  0.15353101037E+02  0.00000000000E+00 0. -1.
</event>
<event>
 8    1  0.3137106E-007  0.9118800E+02  0.7816164E-02  0.1184000E+00
        -11   -1    0    0    0    0  0.00000000000E+00  0.00000000000E+00  0.45593999997E+02  0.45594000000E+02  0.51100000000E-03 0. -1.
         11   -1    0    0    0    0 -0.00000000000E+00 -0.00000000000E+00 -0.45593999997E+02  0.45594000000E+02  0.51100000000E-03 0.  1.
         23    2    1    2    0    0  0.00000000000E+00  0.16653345369E-15  0.00000000000E+00  0.91188000000E+02  0.91188000000E+02 0.  0.
    9900012    2    3    3    0    0 -0.29489058688E+02  0.37042938848E+00  0.22046166009E+02  0.54367146725E+02  0.40000142588E+02 0.  0.
        -12    1    3    3    0    0  0.29489058688E+02 -0.37042938848E+00 -0.22046166009E+02  0.36820853275E+02  0.00000000000E+00 0.  1.
         11    1    4    4    0    0 -0.10437574970E+02  0.76854618737E+01  0.15726356751E+01  0.13056893915E+02  0.51100000000E-03 0. -1.
        -11    1    4    4    0    0 -0.66288840893E+01 -0.15303204053E+02  0.20645567877E+02  0.26539962920E+02  0.51100000000E-03 0.  1.
        -12    1    4    4    0    0 -0.12422599628E+02  0.79881715680E+01 -0.17203754345E+00  0.14770289890E+02  0.00000000000E+00 0.  1.
</event>
<event>
 8    1  0.3137106E-007  0.9118800E+02  0.7816164E-02  0.1184000E+00
        -11   -1    0    0    0    0  0.00000000000E+00  0.00000000000E+00  0.45593999997E+02  0.45594000000E+02  0.51100000000E-03 0. -1.
         11   -1    0    0    0    0 -0.00000000000E+00 -0.00000000000E+00 -0.45593999997E+02  0.45594000000E+02  0.51100000000E-03 0.  1.
         23    2    1    2    0    0 -0.17763568394E-14  0.17763568394E-14  0.71054273576E-14  0.91188000000E+02  0.91188000000E+02 0.  0.
    9900012    2    3    3    0    0 -0.10164524251E+02  0.11518532164E+02 -0.33463092964E+02  0.54367180791E+02  0.40000220249E+02 0.  0.
         12    1    3    3    0    0  0.10164524251E+02 -0.11518532164E+02  0.33463092964E+02  0.36820819209E+02  0.00000000000E+00 0. -1.
         11    1    4    4    0    0 -0.76009614356E+01  0.17138409182E+01 -0.26900018469E+01  0.82430562073E+01  0.51100000000E-03 0. -1.
        -11    1    4    4    0    0 -0.57193131621E+01 -0.11177810529E+02 -0.15667459255E+02  0.20077929949E+02  0.51100000000E-03 0.  1.
         12    1    4    4    0    0  0.31557503463E+01  0.20982501775E+02 -0.15105631862E+02  0.26046194635E+02  0.00000000000E+00 0. -1.
</event>
<event>
 8    1  0.3137106E-007  0.9118800E+02  0.7816164E-02  0.1184000E+00
        -11   -1    0    0    0    0  0.00000000000E+00  0.00000000000E+00  0.45593999997E+02  0.45594000000E+02  0.51100000000E-03 0. -1.
         11   -1    0    0    0    0 -0.00000000000E+00 -0.00000000000E+00 -0.45593999997E+02  0.45594000000E+02  0.51100000000E-03 0.  1.
         23    2    1    2    0    0  0.00000000000E+00  0.00000000000E+00  0.17763568394E-14  0.91188000000E+02  0.91188000000E+02 0.  0.
    9900012    2    3    3    0    0 -0.83043453050E+01 -0.34592816981E+02  0.94949703503E+01  0.54367087470E+02  0.40000007505E+02 0.  0.
         12    1    3    3    0    0  0.83043453050E+01  0.34592816981E+02 -0.94949703503E+01  0.36820912530E+02  0.00000000000E+00 0. -1.
         11    1    4    4    0    0  0.75702790616E-01 -0.53258169548E+01  0.13207899361E+02  0.14241441744E+02  0.51100000000E-03 0. -1.
        -11    1    4    4    0    0 -0.13160179700E+02 -0.31253408534E+02 -0.27628335668E+00  0.33912272225E+02  0.51100000000E-03 0.  1.
        -12    1    4    4    0    0  0.47801316041E+01  0.19864085078E+01 -0.34366456539E+01  0.62133735010E+01  0.00000000000E+00 0.  1.
</event>
<event>
 8    1  0.3137106E-007  0.9118800E+02  0.7816164E-02  0.1184000E+00
        -11   -1    0    0    0    0  0.00000000000E+00  0.00000000000E+00  0.45593999997E+02  0.45594000000E+02  0.51100000000E-03 0.  1.
         11   -1    0    0    0    0 -0.00000000000E+00 -0.00000000000E+00 -0.45593999997E+02  0.45594000000E+02  0.51100000000E-03 0. -1.
         23    2    1    2    0    0  0.00000000000E+00  0.71054273576E-14  0.00000000000E+00  0.91188000000E+02  0.91188000000E+02 0.  0.
    9900012    2    3    3    0    0 -0.65349906176E+01  0.34266531757E+02  0.11784694052E+02  0.54367077756E+02  0.39999985360E+02 0.  0.
         12    1    3    3    0    0  0.65349906176E+01 -0.34266531757E+02 -0.11784694052E+02  0.36820922244E+02  0.00000000000E+00 0. -1.
         11    1    4    4    0    0  0.26339995781E+01 -0.26698910701E+01  0.19661574507E+01  0.42346248341E+01  0.51100000000E-03 0. -1.
        -11    1    4    4    0    0 -0.46485860562E+01  0.42011665736E+02  0.95342585249E+01  0.43330029957E+02  0.51100000000E-03 0.  1.
         12    1    4    4    0    0 -0.45204041395E+01 -0.50752429088E+01  0.28427807636E+00  0.68024229649E+01  0.00000000000E+00 0. -1.
</event>
<event>
 8    1  0.3137106E-007  0.9118800E+02  0.7816164E-02  0.1184000E+00
        -11   -1    0    0    0    0  0.00000000000E+00  0.00000000000E+00  0.45593999997E+02  0.45594000000E+02  0.51100000000E-03 0. -1.
         11   -1    0    0    0    0 -0.00000000000E+00 -0.00000000000E+00 -0.45593999997E+02  0.45594000000E+02  0.51100000000E-03 0.  1.
         23    2    1    2    0    0  0.00000000000E+00  0.00000000000E+00  0.00000000000E+00  0.91188000000E+02  0.91188000000E+02 0.  0.
    9900012    2    3    3    0    0  0.29525505003E+02 -0.10006010054E+02  0.19593468061E+02  0.54367086465E+02  0.40000005214E+02 0.  0.
        -12    1    3    3    0    0 -0.29525505003E+02  0.10006010054E+02 -0.19593468061E+02  0.36820913535E+02  0.00000000000E+00 0.  1.
         11    1    4    4    0    0  0.55712057179E+01 -0.53506844143E+01 -0.16835083685E+01  0.79058432530E+01  0.51100000000E-03 0.  1.
        -11    1    4    4    0    0 -0.23013255255E+01 -0.39289483395E+01 -0.66910212255E+01  0.80933614482E+01  0.51100000000E-03 0. -1.
         12    1    4    4    0    0  0.26255624811E+02 -0.72637729988E+00  0.27967997655E+02  0.38367881764E+02  0.00000000000E+00 0. -1.
</event>
<event>
 8    1  0.3137106E-007  0.9118800E+02  0.7816164E-02  0.1184000E+00
        -11   -1    0    0    0    0  0.00000000000E+00  0.00000000000E+00  0.45593999997E+02  0.45594000000E+02  0.51100000000E-03 0. -1.
         11   -1    0    0    0    0 -0.00000000000E+00 -0.00000000000E+00 -0.45593999997E+02  0.45594000000E+02  0.51100000000E-03 0.  1.
         23    2    1    2    0    0  0.88817841970E-15  0.00000000000E+00  0.00000000000E+00  0.91188000000E+02  0.91188000000E+02 0.  0.
    9900012    2    3    3    0    0  0.50887148622E+01  0.10314861701E+02 -0.34978401528E+02  0.54367082516E+02  0.39999996213E+02 0.  0.
         12    1    3    3    0    0 -0.50887148622E+01 -0.10314861701E+02  0.34978401528E+02  0.36820917484E+02  0.00000000000E+00 0. -1.
         11    1    4    4    0    0  0.51310370283E+01  0.13784942593E+01  0.19651370893E+01  0.56647640241E+01  0.51100000000E-03 0. -1.
        -11    1    4    4    0    0 -0.14791645740E+02  0.65517564794E+01 -0.14406201309E+02  0.21662339049E+02  0.51100000000E-03 0.  1.
         12    1    4    4    0    0  0.14749323574E+02  0.23846109625E+01 -0.22537337309E+02  0.27039979444E+02  0.00000000000E+00 0. -1.
</event>
<event>
 8    1  0.3137106E-007  0.9118800E+02  0.7816164E-02  0.1184000E+00
        -11   -1    0    0    0    0  0.00000000000E+00  0.00000000000E+00  0.45593999997E+02  0.45594000000E+02  0.51100000000E-03 0.  1.
         11   -1    0    0    0    0 -0.00000000000E+00 -0.00000000000E+00 -0.45593999997E+02  0.45594000000E+02  0.51100000000E-03 0. -1.
         23    2    1    2    0    0  0.00000000000E+00  0.35527136788E-14 -0.35527136788E-14  0.91188000000E+02  0.91188000000E+02 0.  0.
    9900012    2    3    3    0    0 -0.22235969776E+02 -0.11562254617E+02 -0.26975066539E+02  0.54367105138E+02  0.40000047782E+02 0.  0.
        -12    1    3    3    0    0  0.22235969776E+02  0.11562254617E+02  0.26975066539E+02  0.36820894862E+02  0.00000000000E+00 0.  1.
         11    1    4    4    0    0 -0.64421999347E+00  0.90609302199E+01 -0.26138219186E+01  0.94523828284E+01  0.51100000000E-03 0.  1.
        -11    1    4    4    0    0 -0.15944582949E+02 -0.17201848070E+02 -0.28661343959E+02  0.37035198666E+02  0.51100000000E-03 0. -1.
         12    1    4    4    0    0 -0.56471668336E+01 -0.34213367669E+01  0.43000993388E+01  0.78795236431E+01  0.00000000000E+00 0. -1.
</event>
<event>
 8    1  0.3137106E-007  0.9118800E+02  0.7816164E-02  0.1184000E+00
        -11   -1    0    0    0    0  0.00000000000E+00  0.00000000000E+00  0.45593999997E+02  0.45594000000E+02  0.51100000000E-03 0.  1.
         11   -1    0    0    0    0 -0.00000000000E+00 -0.00000000000E+00 -0.45593999997E+02  0.45594000000E+02  0.51100000000E-03 0. -1.
         23    2    1    2    0    0  0.00000000000E+00  0.00000000000E+00  0.00000000000E+00  0.91188000000E+02  0.91188000000E+02 0.  0.
    9900012    2    3    3    0    0 -0.21652906007E+02 -0.16707361364E+02 -0.24653500972E+02  0.54367090553E+02  0.40000014535E+02 0.  0.
        -12    1    3    3    0    0  0.21652906007E+02  0.16707361364E+02  0.24653500972E+02  0.36820909447E+02  0.00000000000E+00 0.  1.
         11    1    4    4    0    0 -0.11876918730E+02 -0.55552335343E+01 -0.24368483662E+02  0.27672094507E+02  0.51100000000E-03 0. -1.
        -11    1    4    4    0    0 -0.32809640106E+01  0.16281140667E+01 -0.91387464865E+01  0.98454135443E+01  0.51100000000E-03 0.  1.
        -12    1    4    4    0    0 -0.64950232665E+01 -0.12780241896E+02  0.88537291768E+01  0.16849582502E+02  0.00000000000E+00 0.  1.
</event>
<event>
 8    1  0.3137106E-007  0.9118800E+02  0.7816164E-02  0.1184000E+00
        -11   -1    0    0    0    0  0.00000000000E+00  0.00000000000E+00  0.45593999997E+02  0.45594000000E+02  0.51100000000E-03 0.  1.
         11   -1    0    0    0    0 -0.00000000000E+00 -0.00000000000E+00 -0.45593999997E+02  0.45594000000E+02  0.51100000000E-03 0. -1.
         23    2    1    2    0    0  0.00000000000E+00  0.17763568394E-14  0.00000000000E+00  0.91188000000E+02  0.91188000000E+02 0.  0.
    9900012    2    3    3    0    0 -0.17465001529E+02  0.11710036292E+02  0.30226291188E+02  0.54367083291E+02  0.39999997977E+02 0.  0.
         12    1    3    3    0    0  0.17465001529E+02 -0.11710036292E+02 -0.30226291188E+02  0.36820916709E+02  0.00000000000E+00 0. -1.
         11    1    4    4    0    0 -0.45928923502E+01  0.17032760045E+01  0.18519010045E+02  0.19155927088E+02  0.51100000000E-03 0. -1.
        -11    1    4    4    0    0 -0.20502054568E+02  0.47602090572E+01  0.10223994761E+01  0.21072236064E+02  0.51100000000E-03 0.  1.
         12    1    4    4    0    0  0.76299453895E+01  0.52465512305E+01  0.10684881667E+02  0.14138920139E+02  0.00000000000E+00 0. -1.
</event>
<event>
 8    1  0.3137106E-007  0.9118800E+02  0.7816164E-02  0.1184000E+00
        -11   -1    0    0    0    0  0.00000000000E+00  0.00000000000E+00  0.45593999997E+02  0.45594000000E+02  0.51100000000E-03 0.  1.
         11   -1    0    0    0    0 -0.00000000000E+00 -0.00000000000E+00 -0.45593999997E+02  0.45594000000E+02  0.51100000000E-03 0. -1.
         23    2    1    2    0    0  0.00000000000E+00 -0.17763568394E-14 -0.26645352591E-14  0.91188000000E+02  0.91188000000E+02 0.  0.
    9900012    2    3    3    0    0 -0.34057953629E+02 -0.12444585312E+02 -0.64007471861E+01  0.54367062023E+02  0.39999949494E+02 0.  0.
        -12    1    3    3    0    0  0.34057953629E+02  0.12444585312E+02  0.64007471861E+01  0.36820937977E+02  0.00000000000E+00 0.  1.
         11    1    4    4    0    0 -0.14780509839E+02 -0.76653352052E+01 -0.44378187312E+01  0.17231223702E+02  0.51100000000E-03 0. -1.
        -11    1    4    4    0    0 -0.76108249231E+01 -0.14209607369E+02 -0.11099337463E+02  0.19571226073E+02  0.51100000000E-03 0.  1.
        -12    1    4    4    0    0 -0.11666618867E+02  0.94303572626E+01  0.91364090085E+01  0.17564612249E+02  0.00000000000E+00 0.  1.
</event>
<event>
 8    1  0.3137106E-007  0.9118800E+02  0.7816164E-02  0.1184000E+00
        -11   -1    0    0    0    0  0.00000000000E+00  0.00000000000E+00  0.45593999997E+02  0.45594000000E+02  0.51100000000E-03 0.  1.
         11   -1    0    0    0    0 -0.00000000000E+00 -0.00000000000E+00 -0.45593999997E+02  0.45594000000E+02  0.51100000000E-03 0. -1.
         23    2    1    2    0    0  0.00000000000E+00  0.00000000000E+00  0.00000000000E+00  0.91188000000E+02  0.91188000000E+02 0.  0.
    9900012    2    3    3    0    0 -0.13771285374E+02  0.50474104836E+01 -0.33773592703E+02  0.54367079078E+02  0.39999988375E+02 0.  0.
        -12    1    3    3    0    0  0.13771285374E+02 -0.50474104836E+01  0.33773592703E+02  0.36820920922E+02  0.00000000000E+00 0.  1.
         11    1    4    4    0    0  0.32167671321E+00 -0.69632094071E+01 -0.89582062078E+01  0.11350736535E+02  0.51100000000E-03 0. -1.
        -11    1    4    4    0    0  0.78813150613E+01  0.75692301997E+01 -0.21505038070E+01  0.11137012157E+02  0.51100000000E-03 0.  1.
         12    1    4    4    0    0 -0.21974277149E+02  0.44413896911E+01 -0.22664882688E+02  0.31879330386E+02  0.00000000000E+00 0. -1.
</event>
<event>
 8    1  0.3137106E-007  0.9118800E+02  0.7816164E-02  0.1184000E+00
        -11   -1    0    0    0    0  0.00000000000E+00  0.00000000000E+00  0.45593999997E+02  0.45594000000E+02  0.51100000000E-03 0.  1.
         11   -1    0    0    0    0 -0.00000000000E+00 -0.00000000000E+00 -0.45593999997E+02  0.45594000000E+02  0.51100000000E-03 0. -1.
         23    2    1    2    0    0  0.00000000000E+00  0.17763568394E-14  0.00000000000E+00  0.91188000000E+02  0.91188000000E+02 0.  0.
    9900012    2    3    3    0    0  0.17619618185E+02 -0.81141903502E+01 -0.31296795199E+02  0.54367076332E+02  0.39999982114E+02 0.  0.
        -12    1    3    3    0    0 -0.17619618185E+02  0.81141903502E+01  0.31296795199E+02  0.36820923668E+02  0.00000000000E+00 0.  1.
         11    1    4    4    0    0  0.91543956595E+01 -0.69055773960E+01 -0.22219599897E+01  0.11680199721E+02  0.51100000000E-03 0. -1.
        -11    1    4    4    0    0  0.96701488053E+01 -0.11990384235E+02 -0.27774811280E+02  0.31760372068E+02  0.51100000000E-03 0.  1.
        -12    1    4    4    0    0 -0.12049262801E+01  0.10781771281E+02 -0.13000239300E+01  0.10926504543E+02  0.00000000000E+00 0.  1.
</event>
<event>
 8    1  0.3137106E-007  0.9118800E+02  0.7816164E-02  0.1184000E+00
        -11   -1    0    0    0    0  0.00000000000E+00  0.00000000000E+00  0.45593999997E+02  0.45594000000E+02  0.51100000000E-03 0.  1.
         11   -1    0    0    0    0 -0.00000000000E+00 -0.00000000000E+00 -0.45593999997E+02  0.45594000000E+02  0.51100000000E-03 0. -1.
         23    2    1    2    0    0  0.00000000000E+00  0.00000000000E+00 -0.35527136788E-14  0.91188000000E+02  0.91188000000E+02 0.  0.
    9900012    2    3    3    0    0  0.12068956272E+02 -0.18291784505E+02  0.29589366287E+02  0.54367086335E+02  0.40000004918E+02 0.  0.
         12    1    3    3    0    0 -0.12068956272E+02  0.18291784505E+02 -0.29589366287E+02  0.36820913665E+02  0.00000000000E+00 0. -1.
         11    1    4    4    0    0  0.17386603570E+02 -0.12411895613E+02  0.34210476675E+02  0.40332441669E+02  0.51100000000E-03 0.  1.
        -11    1    4    4    0    0 -0.73686786697E+01 -0.22391440117E+01  0.13633195993E+00  0.77025825479E+01  0.51100000000E-03 0. -1.
        -12    1    4    4    0    0  0.20510313715E+01 -0.36407448802E+01 -0.47574423482E+01  0.63320621180E+01  0.00000000000E+00 0.  1.
</event>
<event>
 8    1  0.3137106E-007  0.9118800E+02  0.7816164E-02  0.1184000E+00
        -11   -1    0    0    0    0  0.00000000000E+00  0.00000000000E+00  0.45593999997E+02  0.45594000000E+02  0.51100000000E-03 0.  1.
         11   -1    0    0    0    0 -0.00000000000E+00 -0.00000000000E+00 -0.45593999997E+02  0.45594000000E+02  0.51100000000E-03 0. -1.
         23    2    1    2    0    0  0.00000000000E+00  0.00000000000E+00  0.00000000000E+00  0.91188000000E+02  0.91188000000E+02 0.  0.
    9900012    2    3    3    0    0  0.13122887262E+02 -0.10583850978E+02  0.32734545684E+02  0.54367101685E+02  0.40000039912E+02 0.  0.
         12    1    3    3    0    0 -0.13122887262E+02  0.10583850978E+02 -0.32734545684E+02  0.36820898315E+02  0.00000000000E+00 0. -1.
         11    1    4    4    0    0  0.12242888059E+01 -0.10994315201E+02  0.12527117544E+02  0.16712346456E+02  0.51100000000E-03 0. -1.
        -11    1    4    4    0    0  0.58989107790E+01 -0.14402306472E+02  0.12223151116E+02  0.19789618581E+02  0.51100000000E-03 0.  1.
        -12    1    4    4    0    0  0.59996876770E+01  0.14812770696E+02  0.79842770230E+01  0.17865136649E+02  0.00000000000E+00 0.  1.
</event>
<event>
 8    1  0.3137106E-007  0.9118800E+02  0.7816164E-02  0.1184000E+00
        -11   -1    0    0    0    0  0.00000000000E+00  0.00000000000E+00  0.45593999997E+02  0.45594000000E+02  0.51100000000E-03 0.  1.
         11   -1    0    0    0    0 -0.00000000000E+00 -0.00000000000E+00 -0.45593999997E+02  0.45594000000E+02  0.51100000000E-03 0. -1.
         23    2    1    2    0    0  0.00000000000E+00  0.00000000000E+00  0.00000000000E+00  0.91188000000E+02  0.91188000000E+02 0.  0.
    9900012    2    3    3    0    0  0.29054552007E+02 -0.86966936341E+01 -0.20880133190E+02  0.54367089711E+02  0.40000012614E+02 0.  0.
        -12    1    3    3    0    0 -0.29054552007E+02  0.86966936341E+01  0.20880133190E+02  0.36820910289E+02  0.00000000000E+00 0.  1.
         11    1    4    4    0    0  0.24458915261E+02 -0.12919875201E+02  0.31121115349E+01  0.27836072808E+02  0.51100000000E-03 0.  1.
        -11    1    4    4    0    0  0.35393557236E+01 -0.13910860453E+01 -0.32058820270E+01  0.49739158775E+01  0.51100000000E-03 0. -1.
        -12    1    4    4    0    0  0.10562810227E+01  0.56142676117E+01 -0.20786362698E+02  0.21557101025E+02  0.00000000000E+00 0.  1.
</event>
<event>
 8    1  0.3137106E-007  0.9118800E+02  0.7816164E-02  0.1184000E+00
        -11   -1    0    0    0    0  0.00000000000E+00  0.00000000000E+00  0.45593999997E+02  0.45594000000E+02  0.51100000000E-03 0. -1.
         11   -1    0    0    0    0 -0.00000000000E+00 -0.00000000000E+00 -0.45593999997E+02  0.45594000000E+02  0.51100000000E-03 0.  1.
         23    2    1    2    0    0  0.17763568394E-14  0.00000000000E+00 -0.35527136788E-14  0.91188000000E+02  0.91188000000E+02 0.  0.
    9900012    2    3    3    0    0  0.74952827771E+01  0.17744999862E+02 -0.31380170208E+02  0.54367090638E+02  0.40000014726E+02 0.  0.
         12    1    3    3    0    0 -0.74952827771E+01 -0.17744999862E+02  0.31380170208E+02  0.36820909362E+02  0.00000000000E+00 0. -1.
         11    1    4    4    0    0 -0.11440621751E+02  0.13555450911E+01 -0.37055565610E+00  0.11526605758E+02  0.51100000000E-03 0. -1.
        -11    1    4    4    0    0  0.58906683233E+01 -0.22341455726E+01 -0.37080842961E+01  0.73103535580E+01  0.51100000000E-03 0.  1.
        -12    1    4    4    0    0  0.13045236205E+02  0.18623600343E+02 -0.27301530256E+02  0.35530131321E+02  0.00000000000E+00 0.  1.
</event>
<event>
 8    1  0.3137106E-007  0.9118800E+02  0.7816164E-02  0.1184000E+00
        -11   -1    0    0    0    0  0.00000000000E+00  0.00000000000E+00  0.45593999997E+02  0.45594000000E+02  0.51100000000E-03 0. -1.
         11   -1    0    0    0    0 -0.00000000000E+00 -0.00000000000E+00 -0.45593999997E+02  0.45594000000E+02  0.51100000000E-03 0.  1.
         23    2    1    2    0    0 -0.17763568394E-14  0.00000000000E+00  0.00000000000E+00  0.91188000000E+02  0.91188000000E+02 0.  0.
    9900012    2    3    3    0    0 -0.80195352622E+01  0.33399118973E+02  0.13265113655E+02  0.54367118230E+02  0.40000077629E+02 0.  0.
        -12    1    3    3    0    0  0.80195352622E+01 -0.33399118973E+02 -0.13265113655E+02  0.36820881770E+02  0.00000000000E+00 0.  1.
         11    1    4    4    0    0  0.13385930044E+02  0.16663944837E+02  0.65290954889E+00  0.21384491386E+02  0.51100000000E-03 0. -1.
        -11    1    4    4    0    0 -0.44902398234E+01  0.12097355325E+02  0.45933082220E+01  0.13696960985E+02  0.51100000000E-03 0.  1.
        -12    1    4    4    0    0 -0.16915225483E+02  0.46378188108E+01  0.80188958846E+01  0.19285665860E+02  0.00000000000E+00 0.  1.
</event>
<event>
 8    1  0.3137106E-007  0.9118800E+02  0.7816164E-02  0.1184000E+00
        -11   -1    0    0    0    0  0.00000000000E+00  0.00000000000E+00  0.45593999997E+02  0.45594000000E+02  0.51100000000E-03 0.  1.
         11   -1    0    0    0    0 -0.00000000000E+00 -0.00000000000E+00 -0.45593999997E+02  0.45594000000E+02  0.51100000000E-03 0. -1.
         23    2    1    2    0    0  0.00000000000E+00  0.35527136788E-14  0.00000000000E+00  0.91188000000E+02  0.91188000000E+02 0.  0.
    9900012    2    3    3    0    0  0.32178843341E+02 -0.16570929118E+02  0.67606904973E+01  0.54367074066E+02  0.39999976949E+02 0.  0.
         12    1    3    3    0    0 -0.32178843341E+02  0.16570929118E+02 -0.67606904973E+01  0.36820925934E+02  0.00000000000E+00 0. -1.
         11    1    4    4    0    0  0.10775172172E+02 -0.19948219803E+02  0.62434065475E+01  0.23516290826E+02  0.51100000000E-03 0.  1.
        -11    1    4    4    0    0  0.84275562982E+01  0.49265993872E+01 -0.10075232461E+02  0.14028734657E+02  0.51100000000E-03 0. -1.
         12    1    4    4    0    0  0.12976114872E+02 -0.15493087019E+01  0.10592516411E+02  0.16822048583E+02  0.00000000000E+00 0. -1.
</event>
<event>
 8    1  0.3137106E-007  0.9118800E+02  0.7816164E-02  0.1184000E+00
        -11   -1    0    0    0    0  0.00000000000E+00  0.00000000000E+00  0.45593999997E+02  0.45594000000E+02  0.51100000000E-03 0. -1.
         11   -1    0    0    0    0 -0.00000000000E+00 -0.00000000000E+00 -0.45593999997E+02  0.45594000000E+02  0.51100000000E-03 0.  1.
         23    2    1    2    0    0 -0.35527136788E-14 -0.35527136788E-14  0.17763568394E-14  0.91188000000E+02  0.91188000000E+02 0.  0.
    9900012    2    3    3    0    0  0.20216737085E+02  0.26596270761E+02 -0.15482327440E+02  0.54367074703E+02  0.39999978401E+02 0.  0.
        -12    1    3    3    0    0 -0.20216737085E+02 -0.26596270761E+02  0.15482327440E+02  0.36820925297E+02  0.00000000000E+00 0.  1.
         11    1    4    4    0    0  0.13556023506E+02  0.22548361437E+02 -0.44601851697E+01  0.26684970092E+02  0.51100000000E-03 0. -1.
        -11    1    4    4    0    0 -0.57287075030E+01  0.10046643324E+02 -0.60031586762E+01  0.13030389330E+02  0.51100000000E-03 0.  1.
         12    1    4    4    0    0  0.12389421082E+02 -0.59987340006E+01 -0.50189835940E+01  0.14651715281E+02  0.00000000000E+00 0. -1.
</event>
<event>
 8    1  0.3137106E-007  0.9118800E+02  0.7816164E-02  0.1184000E+00
        -11   -1    0    0    0    0  0.00000000000E+00  0.00000000000E+00  0.45593999997E+02  0.45594000000E+02  0.51100000000E-03 0.  1.
         11   -1    0    0    0    0 -0.00000000000E+00 -0.00000000000E+00 -0.45593999997E+02  0.45594000000E+02  0.51100000000E-03 0. -1.
         23    2    1    2    0    0  0.17763568394E-14  0.00000000000E+00  0.00000000000E+00  0.91188000000E+02  0.91188000000E+02 0.  0.
    9900012    2    3    3    0    0 -0.77378686559E+01 -0.22763859832E+02  0.27887488416E+02  0.54367082902E+02  0.39999997092E+02 0.  0.
         12    1    3    3    0    0  0.77378686559E+01  0.22763859832E+02 -0.27887488416E+02  0.36820917098E+02  0.00000000000E+00 0. -1.
         11    1    4    4    0    0  0.64192377417E+01 -0.11938199875E+02  0.12841760902E+01  0.13615297937E+02  0.51100000000E-03 0. -1.
        -11    1    4    4    0    0  0.54002587649E+01  0.32658790376E+01  0.29019946421E+01  0.69462460207E+01  0.51100000000E-03 0.  1.
         12    1    4    4    0    0 -0.19557365162E+02 -0.14091538995E+02  0.23701317683E+02  0.33805538944E+02  0.00000000000E+00 0. -1.
</event>
<event>
 8    1  0.3137106E-007  0.9118800E+02  0.7816164E-02  0.1184000E+00
        -11   -1    0    0    0    0  0.00000000000E+00  0.00000000000E+00  0.45593999997E+02  0.45594000000E+02  0.51100000000E-03 0.  1.
         11   -1    0    0    0    0 -0.00000000000E+00 -0.00000000000E+00 -0.45593999997E+02  0.45594000000E+02  0.51100000000E-03 0. -1.
         23    2    1    2    0    0  0.00000000000E+00 -0.71054273576E-14  0.17763568394E-14  0.91188000000E+02  0.91188000000E+02 0.  0.
    9900012    2    3    3    0    0 -0.12534083573E+02  0.32116767515E+02 -0.12930261675E+02  0.54367059306E+02  0.39999943299E+02 0.  0.
        -12    1    3    3    0    0  0.12534083573E+02 -0.32116767515E+02  0.12930261675E+02  0.36820940694E+02  0.00000000000E+00 0.  1.
         11    1    4    4    0    0  0.10449327383E+02  0.84641706896E+01 -0.11349297556E+00  0.13447806852E+02  0.51100000000E-03 0. -1.
        -11    1    4    4    0    0 -0.20332909983E+02  0.84570742803E+01 -0.12845574644E+02  0.25494276259E+02  0.51100000000E-03 0.  1.
         12    1    4    4    0    0 -0.26505009729E+01  0.15195522545E+02  0.28805944574E-01  0.15424976195E+02  0.00000000000E+00 0. -1.
</event>
<event>
 8    1  0.3137106E-007  0.9118800E+02  0.7816164E-02  0.1184000E+00
        -11   -1    0    0    0    0  0.00000000000E+00  0.00000000000E+00  0.45593999997E+02  0.45594000000E+02  0.51100000000E-03 0.  1.
         11   -1    0    0    0    0 -0.00000000000E+00 -0.00000000000E+00 -0.45593999997E+02  0.45594000000E+02  0.51100000000E-03 0. -1.
         23    2    1    2    0    0  0.00000000000E+00  0.35527136788E-14 -0.88817841970E-15  0.91188000000E+02  0.91188000000E+02 0.  0.
    9900012    2    3    3    0    0  0.25937027542E+02 -0.24984051116E+02 -0.76712209026E+01  0.54367084232E+02  0.40000000123E+02 0.  0.
        -12    1    3    3    0    0 -0.25937027542E+02  0.24984051116E+02  0.76712209026E+01  0.36820915768E+02  0.00000000000E+00 0.  1.
         11    1    4    4    0    0  0.16056158701E+02 -0.14664269178E+02  0.14295142238E+02  0.26022915183E+02  0.51100000000E-03 0. -1.
        -11    1    4    4    0    0  0.44564192115E+01 -0.10864596044E+02 -0.10966663726E+02  0.16067570847E+02  0.51100000000E-03 0.  1.
         12    1    4    4    0    0  0.54244496296E+01  0.54481410549E+00 -0.10999699415E+02  0.12276598202E+02  0.00000000000E+00 0. -1.
</event>
<event>
 8    1  0.3137106E-007  0.9118800E+02  0.7816164E-02  0.1184000E+00
        -11   -1    0    0    0    0  0.00000000000E+00  0.00000000000E+00  0.45593999997E+02  0.45594000000E+02  0.51100000000E-03 0. -1.
         11   -1    0    0    0    0 -0.00000000000E+00 -0.00000000000E+00 -0.45593999997E+02  0.45594000000E+02  0.51100000000E-03 0.  1.
         23    2    1    2    0    0  0.00000000000E+00 -0.35527136788E-14  0.17763568394E-14  0.91188000000E+02  0.91188000000E+02 0.  0.
    9900012    2    3    3    0    0 -0.22140420652E+02 -0.26074044146E+02  0.13628200212E+02  0.54367056968E+02  0.39999937969E+02 0.  0.
         12    1    3    3    0    0  0.22140420652E+02  0.26074044146E+02 -0.13628200212E+02  0.36820943032E+02  0.00000000000E+00 0. -1.
         11    1    4    4    0    0 -0.27945068087E+01  0.45141603383E+01  0.54097625782E+00  0.53366250980E+01  0.51100000000E-03 0. -1.
        -11    1    4    4    0    0  0.40555229089E+01 -0.20785362335E+01 -0.59728208378E+01  0.75128002742E+01  0.51100000000E-03 0.  1.
        -12    1    4    4    0    0 -0.23401436752E+02 -0.28509668251E+02  0.19060044792E+02  0.41517631595E+02  0.00000000000E+00 0.  1.
</event>
<event>
 8    1  0.3137106E-007  0.9118800E+02  0.7816164E-02  0.1184000E+00
        -11   -1    0    0    0    0  0.00000000000E+00  0.00000000000E+00  0.45593999997E+02  0.45594000000E+02  0.51100000000E-03 0. -1.
         11   -1    0    0    0    0 -0.00000000000E+00 -0.00000000000E+00 -0.45593999997E+02  0.45594000000E+02  0.51100000000E-03 0.  1.
         23    2    1    2    0    0  0.00000000000E+00  0.00000000000E+00  0.00000000000E+00  0.91188000000E+02  0.91188000000E+02 0.  0.
    9900012    2    3    3    0    0 -0.30620488182E+02  0.86112189711E+01  0.18547802463E+02  0.54366968443E+02  0.39999736159E+02 0.  0.
        -12    1    3    3    0    0  0.30620488182E+02 -0.86112189711E+01 -0.18547802463E+02  0.36821031557E+02  0.00000000000E+00 0.  1.
         11    1    4    4    0    0 -0.13656493650E+01  0.89329564096E+00 -0.49081883799E+01  0.51723581396E+01  0.51100000000E-03 0. -1.
        -11    1    4    4    0    0 -0.21313678267E+01  0.12337095232E+02 -0.75838271418E+00  0.12542798419E+02  0.51100000000E-03 0.  1.
         12    1    4    4    0    0 -0.27123470991E+02 -0.46191719021E+01  0.24214373557E+02  0.36651811884E+02  0.00000000000E+00 0. -1.
</event>
<event>
 8    1  0.3137106E-007  0.9118800E+02  0.7816164E-02  0.1184000E+00
        -11   -1    0    0    0    0  0.00000000000E+00  0.00000000000E+00  0.45593999997E+02  0.45594000000E+02  0.51100000000E-03 0. -1.
         11   -1    0    0    0    0 -0.00000000000E+00 -0.00000000000E+00 -0.45593999997E+02  0.45594000000E+02  0.51100000000E-03 0.  1.
         23    2    1    2    0    0  0.00000000000E+00 -0.35527136788E-14 -0.35527136788E-14  0.91188000000E+02  0.91188000000E+02 0.  0.
    9900012    2    3    3    0    0 -0.43536212798E+01 -0.23055012107E+02 -0.28377671199E+02  0.54367084420E+02  0.40000000552E+02 0.  0.
         12    1    3    3    0    0  0.43536212798E+01  0.23055012107E+02  0.28377671199E+02  0.36820915580E+02  0.00000000000E+00 0. -1.
         11    1    4    4    0    0  0.66202532820E+01  0.41472189507E+01 -0.37668471649E+01  0.86727340769E+01  0.51100000000E-03 0. -1.
        -11    1    4    4    0    0 -0.10972248707E+02 -0.30716030647E+02 -0.15868339091E+02  0.36272151386E+02  0.51100000000E-03 0.  1.
        -12    1    4    4    0    0 -0.16258545798E-02  0.35137995899E+01 -0.87424849433E+01  0.94221989570E+01  0.00000000000E+00 0.  1.
</event>
<event>
 8    1  0.3137106E-007  0.9118800E+02  0.7816164E-02  0.1184000E+00
        -11   -1    0    0    0    0  0.00000000000E+00  0.00000000000E+00  0.45593999997E+02  0.45594000000E+02  0.51100000000E-03 0. -1.
         11   -1    0    0    0    0 -0.00000000000E+00 -0.00000000000E+00 -0.45593999997E+02  0.45594000000E+02  0.51100000000E-03 0.  1.
         23    2    1    2    0    0  0.00000000000E+00  0.35527136788E-14  0.17763568394E-14  0.91188000000E+02  0.91188000000E+02 0.  0.
    9900012    2    3    3    0    0 -0.22346194923E+02 -0.27723508857E+02  0.93720061977E+01  0.54367083783E+02  0.39999999101E+02 0.  0.
        -12    1    3    3    0    0  0.22346194923E+02  0.27723508857E+02 -0.93720061977E+01  0.36820916217E+02  0.00000000000E+00 0.  1.
         11    1    4    4    0    0 -0.57893328379E+01 -0.12666828077E+02  0.12689544975E+02  0.18841163982E+02  0.51100000000E-03 0. -1.
        -11    1    4    4    0    0 -0.24151530462E+02 -0.10866054161E+02 -0.41714971145E+01  0.26809866563E+02  0.51100000000E-03 0.  1.
        -12    1    4    4    0    0  0.75946683772E+01 -0.41906266189E+01  0.85395833682E+00  0.87160532387E+01  0.00000000000E+00 0.  1.
</event>
<event>
 8    1  0.3137106E-007  0.9118800E+02  0.7816164E-02  0.1184000E+00
        -11   -1    0    0    0    0  0.00000000000E+00  0.00000000000E+00  0.45593999997E+02  0.45594000000E+02  0.51100000000E-03 0. -1.
         11   -1    0    0    0    0 -0.00000000000E+00 -0.00000000000E+00 -0.45593999997E+02  0.45594000000E+02  0.51100000000E-03 0.  1.
         23    2    1    2    0    0 -0.35527136788E-14  0.00000000000E+00 -0.35527136788E-14  0.91188000000E+02  0.91188000000E+02 0.  0.
    9900012    2    3    3    0    0 -0.27466019972E+02  0.21861931060E+02  0.11110931128E+02  0.54367094616E+02  0.40000023796E+02 0.  0.
         12    1    3    3    0    0  0.27466019972E+02 -0.21861931060E+02 -0.11110931128E+02  0.36820905384E+02  0.00000000000E+00 0. -1.
         11    1    4    4    0    0 -0.17886540287E+02  0.14835624603E+02  0.22096818004E+02  0.32067014937E+02  0.51100000000E-03 0. -1.
        -11    1    4    4    0    0 -0.95451696984E+01 -0.12032830902E+01 -0.14918707165E+01  0.97356989098E+01  0.51100000000E-03 0.  1.
         12    1    4    4    0    0 -0.34309986832E-01  0.82295895465E+01 -0.94940161596E+01  0.12564380769E+02  0.00000000000E+00 0. -1.
</event>
<event>
 8    1  0.3137106E-007  0.9118800E+02  0.7816164E-02  0.1184000E+00
        -11   -1    0    0    0    0  0.00000000000E+00  0.00000000000E+00  0.45593999997E+02  0.45594000000E+02  0.51100000000E-03 0.  1.
         11   -1    0    0    0    0 -0.00000000000E+00 -0.00000000000E+00 -0.45593999997E+02  0.45594000000E+02  0.51100000000E-03 0. -1.
         23    2    1    2    0    0  0.00000000000E+00  0.00000000000E+00  0.00000000000E+00  0.91188000000E+02  0.91188000000E+02 0.  0.
    9900012    2    3    3    0    0 -0.46561091353E+01  0.32508098454E+02 -0.16653155262E+02  0.54367035896E+02  0.39999889932E+02 0.  0.
        -12    1    3    3    0    0  0.46561091353E+01 -0.32508098454E+02  0.16653155262E+02  0.36820964104E+02  0.00000000000E+00 0.  1.
         11    1    4    4    0    0  0.49219578546E+01  0.31103973532E+02 -0.68641394510E+01  0.32230408767E+02  0.51100000000E-03 0. -1.
        -11    1    4    4    0    0 -0.19915769897E+01  0.87334469866E+01 -0.65666934672E+01  0.11106796952E+02  0.51100000000E-03 0.  1.
        -12    1    4    4    0    0 -0.75864900003E+01 -0.73293220651E+01 -0.32223223435E+01  0.11029830177E+02  0.00000000000E+00 0.  1.
</event>
<event>
 8    1  0.3137106E-007  0.9118800E+02  0.7816164E-02  0.1184000E+00
        -11   -1    0    0    0    0  0.00000000000E+00  0.00000000000E+00  0.45593999997E+02  0.45594000000E+02  0.51100000000E-03 0.  1.
         11   -1    0    0    0    0 -0.00000000000E+00 -0.00000000000E+00 -0.45593999997E+02  0.45594000000E+02  0.51100000000E-03 0. -1.
         23    2    1    2    0    0  0.35527136788E-14 -0.71054273576E-14  0.00000000000E+00  0.91188000000E+02  0.91188000000E+02 0.  0.
    9900012    2    3    3    0    0  0.21800240227E+02 -0.25862741294E+02  0.14548106574E+02  0.54367091998E+02  0.40000017829E+02 0.  0.
         12    1    3    3    0    0 -0.21800240227E+02  0.25862741294E+02 -0.14548106574E+02  0.36820908002E+02  0.00000000000E+00 0. -1.
         11    1    4    4    0    0  0.70256507386E+01  0.25207441015E+01  0.74633317609E+01  0.10555341793E+02  0.51100000000E-03 0. -1.
        -11    1    4    4    0    0  0.16245611368E+02 -0.10102545453E+02 -0.73280114467E+01  0.20486118846E+02  0.51100000000E-03 0.  1.
        -12    1    4    4    0    0 -0.14710218801E+01 -0.18280939943E+02  0.14412786260E+02  0.23325631360E+02  0.00000000000E+00 0.  1.
</event>
<event>
 8    1  0.3137106E-007  0.9118800E+02  0.7816164E-02  0.1184000E+00
        -11   -1    0    0    0    0  0.00000000000E+00  0.00000000000E+00  0.45593999997E+02  0.45594000000E+02  0.51100000000E-03 0.  1.
         11   -1    0    0    0    0 -0.00000000000E+00 -0.00000000000E+00 -0.45593999997E+02  0.45594000000E+02  0.51100000000E-03 0. -1.
         23    2    1    2    0    0  0.00000000000E+00 -0.17763568394E-14  0.00000000000E+00  0.91188000000E+02  0.91188000000E+02 0.  0.
    9900012    2    3    3    0    0 -0.31721556185E+02 -0.76832730818E+01 -0.17043807953E+02  0.54367065715E+02  0.39999957911E+02 0.  0.
        -12    1    3    3    0    0  0.31721556185E+02  0.76832730818E+01  0.17043807953E+02  0.36820934285E+02  0.00000000000E+00 0.  1.
         11    1    4    4    0    0 -0.26664407604E+02 -0.98139884961E+01 -0.15583317278E+01  0.28455814891E+02  0.51100000000E-03 0. -1.
        -11    1    4    4    0    0  0.40254907222E+01  0.27926500659E+01  0.26847009006E+01  0.55866885659E+01  0.51100000000E-03 0.  1.
         12    1    4    4    0    0 -0.90826393038E+01 -0.66193465156E+00 -0.18170177126E+02  0.20324562258E+02  0.00000000000E+00 0. -1.
</event>
<event>
 8    1  0.3137106E-007  0.9118800E+02  0.7816164E-02  0.1184000E+00
        -11   -1    0    0    0    0  0.00000000000E+00  0.00000000000E+00  0.45593999997E+02  0.45594000000E+02  0.51100000000E-03 0. -1.
         11   -1    0    0    0    0 -0.00000000000E+00 -0.00000000000E+00 -0.45593999997E+02  0.45594000000E+02  0.51100000000E-03 0.  1.
         23    2    1    2    0    0 -0.35527136788E-14  0.00000000000E+00  0.00000000000E+00  0.91188000000E+02  0.91188000000E+02 0.  0.
    9900012    2    3    3    0    0 -0.16460955506E+02 -0.29578453234E+02 -0.14488987987E+02  0.54367099349E+02  0.40000034585E+02 0.  0.
         12    1    3    3    0    0  0.16460955506E+02  0.29578453234E+02  0.14488987987E+02  0.36820900651E+02  0.00000000000E+00 0. -1.
         11    1    4    4    0    0 -0.22417385215E+01 -0.82275516716E+01  0.10226417492E+02  0.13315314983E+02  0.51100000000E-03 0. -1.
        -11    1    4    4    0    0 -0.17546659671E+02 -0.22955434430E+02 -0.23215610413E+02  0.37064832424E+02  0.51100000000E-03 0.  1.
         12    1    4    4    0    0  0.33274426858E+01  0.16045328680E+01 -0.14997950652E+01  0.39869519422E+01  0.00000000000E+00 0. -1.
</event>
<event>
 8    1  0.3137106E-007  0.9118800E+02  0.7816164E-02  0.1184000E+00
        -11   -1    0    0    0    0  0.00000000000E+00  0.00000000000E+00  0.45593999997E+02  0.45594000000E+02  0.51100000000E-03 0.  1.
         11   -1    0    0    0    0 -0.00000000000E+00 -0.00000000000E+00 -0.45593999997E+02  0.45594000000E+02  0.51100000000E-03 0. -1.
         23    2    1    2    0    0  0.17763568394E-14  0.00000000000E+00  0.88817841970E-15  0.91188000000E+02  0.91188000000E+02 0.  0.
    9900012    2    3    3    0    0 -0.82448481271E+01 -0.35149438411E+02 -0.72331338345E+01  0.54367098784E+02  0.40000033299E+02 0.  0.
         12    1    3    3    0    0  0.82448481271E+01  0.35149438411E+02  0.72331338345E+01  0.36820901216E+02  0.00000000000E+00 0. -1.
         11    1    4    4    0    0  0.71340562597E+01 -0.14129973816E+02 -0.76598080180E+01  0.17584754133E+02  0.51100000000E-03 0. -1.
        -11    1    4    4    0    0 -0.13871694866E+02 -0.24731539149E+02 -0.62118057273E+01  0.29028597586E+02  0.51100000000E-03 0.  1.
         12    1    4    4    0    0 -0.15072095203E+01  0.37120745545E+01  0.66384799108E+01  0.77537470659E+01  0.00000000000E+00 0. -1.
</event>
<event>
 8    1  0.3137106E-007  0.9118800E+02  0.7816164E-02  0.1184000E+00
        -11   -1    0    0    0    0  0.00000000000E+00  0.00000000000E+00  0.45593999997E+02  0.45594000000E+02  0.51100000000E-03 0.  1.
         11   -1    0    0    0    0 -0.00000000000E+00 -0.00000000000E+00 -0.45593999997E+02  0.45594000000E+02  0.51100000000E-03 0. -1.
         23    2    1    2    0    0  0.00000000000E+00  0.00000000000E+00  0.00000000000E+00  0.91188000000E+02  0.91188000000E+02 0.  0.
    9900012    2    3    3    0    0  0.23132809294E+02 -0.30442007497E+01 -0.28484726835E+02  0.54367167760E+02  0.40000190542E+02 0.  0.
         12    1    3    3    0    0 -0.23132809294E+02  0.30442007497E+01  0.28484726835E+02  0.36820832240E+02  0.00000000000E+00 0. -1.
         11    1    4    4    0    0  0.63853834749E+01 -0.10018342340E+02 -0.21358940729E+00  0.11882168407E+02  0.51100000000E-03 0. -1.
        -11    1    4    4    0    0 -0.46424618228E+01 -0.51590495828E+01 -0.44288140377E+01  0.82330212204E+01  0.51100000000E-03 0.  1.
         12    1    4    4    0    0  0.21389887642E+02  0.12133191173E+02 -0.23842323390E+02  0.34251978132E+02  0.00000000000E+00 0. -1.
</event>
<event>
 8    1  0.3137106E-007  0.9118800E+02  0.7816164E-02  0.1184000E+00
        -11   -1    0    0    0    0  0.00000000000E+00  0.00000000000E+00  0.45593999997E+02  0.45594000000E+02  0.51100000000E-03 0. -1.
         11   -1    0    0    0    0 -0.00000000000E+00 -0.00000000000E+00 -0.45593999997E+02  0.45594000000E+02  0.51100000000E-03 0.  1.
         23    2    1    2    0    0  0.00000000000E+00  0.26645352591E-14  0.35527136788E-14  0.91188000000E+02  0.91188000000E+02 0.  0.
    9900012    2    3    3    0    0  0.22753090442E+02  0.83829623532E+00  0.28937369836E+02  0.54367119534E+02  0.40000080602E+02 0.  0.
        -12    1    3    3    0    0 -0.22753090442E+02 -0.83829623532E+00 -0.28937369836E+02  0.36820880466E+02  0.00000000000E+00 0.  1.
         11    1    4    4    0    0 -0.46869860121E+01  0.92477980759E+01  0.96804384463E+01  0.14184516062E+02  0.51100000000E-03 0. -1.
        -11    1    4    4    0    0  0.33167319468E+00  0.49769277883E+01  0.34638341697E+01  0.60727230082E+01  0.51100000000E-03 0.  1.
         12    1    4    4    0    0  0.27108403259E+02 -0.13386429629E+02  0.15793097220E+02  0.34109880464E+02  0.00000000000E+00 0. -1.
</event>
<event>
 8    1  0.3137106E-007  0.9118800E+02  0.7816164E-02  0.1184000E+00
        -11   -1    0    0    0    0  0.00000000000E+00  0.00000000000E+00  0.45593999997E+02  0.45594000000E+02  0.51100000000E-03 0.  1.
         11   -1    0    0    0    0 -0.00000000000E+00 -0.00000000000E+00 -0.45593999997E+02  0.45594000000E+02  0.51100000000E-03 0. -1.
         23    2    1    2    0    0 -0.17763568394E-14  0.00000000000E+00  0.00000000000E+00  0.91188000000E+02  0.91188000000E+02 0.  0.
    9900012    2    3    3    0    0 -0.15391976643E+02 -0.87846923250E+01 -0.32275311990E+02  0.54367088438E+02  0.40000009711E+02 0.  0.
        -12    1    3    3    0    0  0.15391976643E+02  0.87846923250E+01  0.32275311990E+02  0.36820911562E+02  0.00000000000E+00 0.  1.
         11    1    4    4    0    0 -0.18353357242E+02  0.24321421390E+01 -0.18717986952E+01  0.18608188199E+02  0.51100000000E-03 0. -1.
        -11    1    4    4    0    0 -0.47818694639E+01 -0.39315280075E+00 -0.12951210715E+02  0.13811397610E+02  0.51100000000E-03 0.  1.
         12    1    4    4    0    0  0.77432500631E+01 -0.10823681663E+02 -0.17452302580E+02  0.21947502629E+02  0.00000000000E+00 0. -1.
</event>
<event>
 8    1  0.3137106E-007  0.9118800E+02  0.7816164E-02  0.1184000E+00
        -11   -1    0    0    0    0  0.00000000000E+00  0.00000000000E+00  0.45593999997E+02  0.45594000000E+02  0.51100000000E-03 0.  1.
         11   -1    0    0    0    0 -0.00000000000E+00 -0.00000000000E+00 -0.45593999997E+02  0.45594000000E+02  0.51100000000E-03 0. -1.
         23    2    1    2    0    0  0.00000000000E+00  0.88817841970E-15  0.00000000000E+00  0.91188000000E+02  0.91188000000E+02 0.  0.
    9900012    2    3    3    0    0  0.25230333700E+01 -0.42452640406E+01  0.36488231317E+02  0.54367095763E+02  0.40000026412E+02 0.  0.
         12    1    3    3    0    0 -0.25230333700E+01  0.42452640406E+01 -0.36488231317E+02  0.36820904237E+02  0.00000000000E+00 0. -1.
         11    1    4    4    0    0  0.35116785879E+01  0.86246503125E+01  0.26074900306E+01  0.96703404303E+01  0.51100000000E-03 0. -1.
        -11    1    4    4    0    0 -0.86418048341E+01  0.51536091616E+00  0.25954100380E+02  0.27359855893E+02  0.51100000000E-03 0.  1.
        -12    1    4    4    0    0  0.76531596162E+01 -0.13385275269E+02  0.79266409064E+01  0.17336899440E+02  0.00000000000E+00 0.  1.
</event>
<event>
 8    1  0.3137106E-007  0.9118800E+02  0.7816164E-02  0.1184000E+00
        -11   -1    0    0    0    0  0.00000000000E+00  0.00000000000E+00  0.45593999997E+02  0.45594000000E+02  0.51100000000E-03 0.  1.
         11   -1    0    0    0    0 -0.00000000000E+00 -0.00000000000E+00 -0.45593999997E+02  0.45594000000E+02  0.51100000000E-03 0. -1.
         23    2    1    2    0    0  0.17763568394E-14  0.22204460493E-15  0.00000000000E+00  0.91188000000E+02  0.91188000000E+02 0.  0.
    9900012    2    3    3    0    0 -0.13778288663E+02  0.12463131495E+01  0.34123092636E+02  0.54367082223E+02  0.39999995543E+02 0.  0.
         12    1    3    3    0    0  0.13778288663E+02 -0.12463131495E+01 -0.34123092636E+02  0.36820917777E+02  0.00000000000E+00 0. -1.
         11    1    4    4    0    0  0.82802404274E+01 -0.34499416168E+01  0.13346869049E+02  0.16081150219E+02  0.51100000000E-03 0. -1.
        -11    1    4    4    0    0 -0.14771828276E+02  0.40318368085E+01  0.25379889311E+02  0.29641211183E+02  0.51100000000E-03 0.  1.
         12    1    4    4    0    0 -0.72867008140E+01  0.66441795776E+00 -0.46036657240E+01  0.86447208210E+01  0.00000000000E+00 0. -1.
</event>
<event>
 8    1  0.3137106E-007  0.9118800E+02  0.7816164E-02  0.1184000E+00
        -11   -1    0    0    0    0  0.00000000000E+00  0.00000000000E+00  0.45593999997E+02  0.45594000000E+02  0.51100000000E-03 0.  1.
         11   -1    0    0    0    0 -0.00000000000E+00 -0.00000000000E+00 -0.45593999997E+02  0.45594000000E+02  0.51100000000E-03 0. -1.
         23    2    1    2    0    0  0.88817841970E-15 -0.11102230246E-15 -0.71054273576E-14  0.91188000000E+02  0.91188000000E+02 0.  0.
    9900012    2    3    3    0    0 -0.23974984728E+01 -0.85562084571E+00  0.36732815373E+02  0.54367084596E+02  0.40000000954E+02 0.  0.
         12    1    3    3    0    0  0.23974984728E+01  0.85562084571E+00 -0.36732815373E+02  0.36820915404E+02  0.00000000000E+00 0. -1.
         11    1    4    4    0    0 -0.87247790915E+01  0.32868202941E-01  0.42055125896E+02  0.42950628224E+02  0.51100000000E-03 0.  1.
        -11    1    4    4    0    0  0.44564046592E+00 -0.26017517840E+01 -0.45250848058E+01  0.52387117244E+01  0.51100000000E-03 0. -1.
        -12    1    4    4    0    0  0.58816401528E+01  0.17132627353E+01 -0.79722571694E+00  0.61777446476E+01  0.00000000000E+00 0.  1.
</event>
<event>
 8    1  0.3137106E-007  0.9118800E+02  0.7816164E-02  0.1184000E+00
        -11   -1    0    0    0    0  0.00000000000E+00  0.00000000000E+00  0.45593999997E+02  0.45594000000E+02  0.51100000000E-03 0. -1.
         11   -1    0    0    0    0 -0.00000000000E+00 -0.00000000000E+00 -0.45593999997E+02  0.45594000000E+02  0.51100000000E-03 0.  1.
         23    2    1    2    0    0  0.00000000000E+00  0.00000000000E+00 -0.17763568394E-14  0.91188000000E+02  0.91188000000E+02 0.  0.
    9900012    2    3    3    0    0  0.46276852701E+01 -0.35433141024E+02 -0.88801587997E+01  0.54367079668E+02  0.39999989719E+02 0.  0.
         12    1    3    3    0    0 -0.46276852701E+01  0.35433141024E+02  0.88801587997E+01  0.36820920332E+02  0.00000000000E+00 0. -1.
         11    1    4    4    0    0 -0.77473300369E+01  0.73263184148E+00  0.19299198681E+01  0.80176345062E+01  0.51100000000E-03 0. -1.
        -11    1    4    4    0    0  0.73391146794E+01 -0.26234899014E+02  0.43005015774E+01  0.27579464183E+02  0.51100000000E-03 0.  1.
        -12    1    4    4    0    0  0.50359006276E+01 -0.99308738512E+01 -0.15110580245E+02  0.18769980978E+02  0.00000000000E+00 0.  1.
</event>
<event>
 8    1  0.3137106E-007  0.9118800E+02  0.7816164E-02  0.1184000E+00
        -11   -1    0    0    0    0  0.00000000000E+00  0.00000000000E+00  0.45593999997E+02  0.45594000000E+02  0.51100000000E-03 0. -1.
         11   -1    0    0    0    0 -0.00000000000E+00 -0.00000000000E+00 -0.45593999997E+02  0.45594000000E+02  0.51100000000E-03 0.  1.
         23    2    1    2    0    0  0.00000000000E+00 -0.35527136788E-14  0.35527136788E-14  0.91188000000E+02  0.91188000000E+02 0.  0.
    9900012    2    3    3    0    0  0.14103715477E+02 -0.29448571095E+02  0.17019019910E+02  0.54367079744E+02  0.39999989892E+02 0.  0.
         12    1    3    3    0    0 -0.14103715477E+02  0.29448571095E+02 -0.17019019910E+02  0.36820920256E+02  0.00000000000E+00 0. -1.
         11    1    4    4    0    0  0.34691685604E+01 -0.81390397519E+00  0.34253166579E+01  0.49427082303E+01  0.51100000000E-03 0. -1.
        -11    1    4    4    0    0 -0.85824209787E+00 -0.22011790135E+02  0.23991212642E+02  0.32570443176E+02  0.51100000000E-03 0.  1.
        -12    1    4    4    0    0  0.11492789014E+02 -0.66228769855E+01 -0.10397509390E+02  0.16853928337E+02  0.00000000000E+00 0.  1.
</event>
<event>
 8    1  0.3137106E-007  0.9118800E+02  0.7816164E-02  0.1184000E+00
        -11   -1    0    0    0    0  0.00000000000E+00  0.00000000000E+00  0.45593999997E+02  0.45594000000E+02  0.51100000000E-03 0.  1.
         11   -1    0    0    0    0 -0.00000000000E+00 -0.00000000000E+00 -0.45593999997E+02  0.45594000000E+02  0.51100000000E-03 0. -1.
         23    2    1    2    0    0 -0.17763568394E-14 -0.17763568394E-14  0.00000000000E+00  0.91188000000E+02  0.91188000000E+02 0.  0.
    9900012    2    3    3    0    0  0.79219671029E+01  0.12877372464E+02  0.33573735177E+02  0.54367082330E+02  0.39999995788E+02 0.  0.
         12    1    3    3    0    0 -0.79219671029E+01 -0.12877372464E+02 -0.33573735177E+02  0.36820917670E+02  0.00000000000E+00 0. -1.
         11    1    4    4    0    0  0.24146316502E+01  0.11587862328E+02  0.27433534407E+02  0.29878216307E+02  0.51100000000E-03 0.  1.
        -11    1    4    4    0    0  0.13407478413E+02  0.49935417936E+01  0.95493049089E+00  0.14339031681E+02  0.51100000000E-03 0. -1.
         12    1    4    4    0    0 -0.79001429605E+01 -0.37040316577E+01  0.51852702782E+01  0.10149834342E+02  0.00000000000E+00 0. -1.
</event>
<event>
 8    1  0.3137106E-007  0.9118800E+02  0.7816164E-02  0.1184000E+00
        -11   -1    0    0    0    0  0.00000000000E+00  0.00000000000E+00  0.45593999997E+02  0.45594000000E+02  0.51100000000E-03 0. -1.
         11   -1    0    0    0    0 -0.00000000000E+00 -0.00000000000E+00 -0.45593999997E+02  0.45594000000E+02  0.51100000000E-03 0.  1.
         23    2    1    2    0    0  0.26645352591E-14  0.00000000000E+00  0.00000000000E+00  0.91188000000E+02  0.91188000000E+02 0.  0.
    9900012    2    3    3    0    0  0.22456673058E+01  0.61774021101E+01 -0.36229512099E+02  0.54367070280E+02  0.39999968318E+02 0.  0.
         12    1    3    3    0    0 -0.22456673058E+01 -0.61774021101E+01  0.36229512099E+02  0.36820929720E+02  0.00000000000E+00 0. -1.
         11    1    4    4    0    0 -0.94098249483E+01 -0.39714878313E+01 -0.11941564812E+02  0.15713640303E+02  0.51100000000E-03 0. -1.
        -11    1    4    4    0    0 -0.73885098246E+01  0.34119353439E+01 -0.13472636033E+02  0.15739863473E+02  0.51100000000E-03 0.  1.
         12    1    4    4    0    0  0.19044002079E+02  0.67369545975E+01 -0.10815311254E+02  0.22913566504E+02  0.00000000000E+00 0. -1.
</event>
<event>
 8    1  0.3137106E-007  0.9118800E+02  0.7816164E-02  0.1184000E+00
        -11   -1    0    0    0    0  0.00000000000E+00  0.00000000000E+00  0.45593999997E+02  0.45594000000E+02  0.51100000000E-03 0. -1.
         11   -1    0    0    0    0 -0.00000000000E+00 -0.00000000000E+00 -0.45593999997E+02  0.45594000000E+02  0.51100000000E-03 0.  1.
         23    2    1    2    0    0 -0.35527136788E-14  0.00000000000E+00  0.44408920985E-15  0.91188000000E+02  0.91188000000E+02 0.  0.
    9900012    2    3    3    0    0 -0.31764998717E+02 -0.18309348625E+02  0.33959468056E+01  0.54367084133E+02  0.39999999899E+02 0.  0.
        -12    1    3    3    0    0  0.31764998717E+02  0.18309348625E+02 -0.33959468056E+01  0.36820915867E+02  0.00000000000E+00 0.  1.
         11    1    4    4    0    0 -0.21555982719E+02 -0.24309066202E+02  0.73147586944E+01  0.33303104744E+02  0.51100000000E-03 0. -1.
        -11    1    4    4    0    0 -0.54692749126E+01  0.95317703992E+00  0.65040295407E+01  0.85512522513E+01  0.51100000000E-03 0.  1.
         12    1    4    4    0    0 -0.47397410855E+01  0.50465405374E+01 -0.10422841430E+02  0.12512727138E+02  0.00000000000E+00 0. -1.
</event>
<event>
 8    1  0.3137106E-007  0.9118800E+02  0.7816164E-02  0.1184000E+00
        -11   -1    0    0    0    0  0.00000000000E+00  0.00000000000E+00  0.45593999997E+02  0.45594000000E+02  0.51100000000E-03 0.  1.
         11   -1    0    0    0    0 -0.00000000000E+00 -0.00000000000E+00 -0.45593999997E+02  0.45594000000E+02  0.51100000000E-03 0. -1.
         23    2    1    2    0    0  0.35527136788E-14  0.00000000000E+00  0.88817841970E-15  0.91188000000E+02  0.91188000000E+02 0.  0.
    9900012    2    3    3    0    0 -0.29206102592E+02  0.21931874663E+02  0.46664252673E+01  0.54367094530E+02  0.40000023600E+02 0.  0.
        -12    1    3    3    0    0  0.29206102592E+02 -0.21931874663E+02 -0.46664252673E+01  0.36820905470E+02  0.00000000000E+00 0.  1.
         11    1    4    4    0    0  0.34425048527E+01 -0.43204906978E+01  0.11566112300E+01  0.56440437037E+01  0.51100000000E-03 0. -1.
        -11    1    4    4    0    0  0.69812680775E+00  0.26556645808E+01 -0.61589745689E+01  0.67433599494E+01  0.51100000000E-03 0.  1.
        -12    1    4    4    0    0 -0.33346734253E+02  0.23596700780E+02  0.96687886062E+01  0.41979690877E+02  0.00000000000E+00 0.  1.
</event>
<event>
 8    1  0.3137106E-007  0.9118800E+02  0.7816164E-02  0.1184000E+00
        -11   -1    0    0    0    0  0.00000000000E+00  0.00000000000E+00  0.45593999997E+02  0.45594000000E+02  0.51100000000E-03 0. -1.
         11   -1    0    0    0    0 -0.00000000000E+00 -0.00000000000E+00 -0.45593999997E+02  0.45594000000E+02  0.51100000000E-03 0.  1.
         23    2    1    2    0    0  0.00000000000E+00  0.00000000000E+00  0.35527136788E-14  0.91188000000E+02  0.91188000000E+02 0.  0.
    9900012    2    3    3    0    0 -0.81757885361E+01 -0.17276487694E+02  0.31471565023E+02  0.54367082708E+02  0.39999996649E+02 0.  0.
        -12    1    3    3    0    0  0.81757885361E+01  0.17276487694E+02 -0.31471565023E+02  0.36820917292E+02  0.00000000000E+00 0.  1.
         11    1    4    4    0    0 -0.97501998965E-01  0.56813059060E+01 -0.71991864907E+00  0.57275672462E+01  0.51100000000E-03 0. -1.
        -11    1    4    4    0    0 -0.25746406835E+01  0.44465064019E+01 -0.10124377962E+01  0.52369098124E+01  0.51100000000E-03 0.  1.
         12    1    4    4    0    0 -0.55036458537E+01 -0.27404300002E+02  0.33203921469E+02  0.43402605649E+02  0.00000000000E+00 0. -1.
</event>
<event>
 8    1  0.3137106E-007  0.9118800E+02  0.7816164E-02  0.1184000E+00
        -11   -1    0    0    0    0  0.00000000000E+00  0.00000000000E+00  0.45593999997E+02  0.45594000000E+02  0.51100000000E-03 0. -1.
         11   -1    0    0    0    0 -0.00000000000E+00 -0.00000000000E+00 -0.45593999997E+02  0.45594000000E+02  0.51100000000E-03 0.  1.
         23    2    1    2    0    0  0.00000000000E+00  0.00000000000E+00  0.00000000000E+00  0.91188000000E+02  0.91188000000E+02 0.  0.
    9900012    2    3    3    0    0  0.19928157779E+02 -0.20259348581E+02  0.23413817342E+02  0.54367088551E+02  0.40000009970E+02 0.  0.
        -12    1    3    3    0    0 -0.19928157779E+02  0.20259348581E+02 -0.23413817342E+02  0.36820911449E+02  0.00000000000E+00 0.  1.
         11    1    4    4    0    0 -0.11905750602E+01 -0.20056063283E+01 -0.42721293996E+01  0.48673417371E+01  0.51100000000E-03 0. -1.
        -11    1    4    4    0    0 -0.10184656029E+01 -0.18822245062E+02  0.11659946438E+02  0.22164578330E+02  0.51100000000E-03 0.  1.
         12    1    4    4    0    0  0.22137198442E+02  0.56850280907E+00  0.16026000303E+02  0.27335168484E+02  0.00000000000E+00 0. -1.
</event>
<event>
 8    1  0.3137106E-007  0.9118800E+02  0.7816164E-02  0.1184000E+00
        -11   -1    0    0    0    0  0.00000000000E+00  0.00000000000E+00  0.45593999997E+02  0.45594000000E+02  0.51100000000E-03 0.  1.
         11   -1    0    0    0    0 -0.00000000000E+00 -0.00000000000E+00 -0.45593999997E+02  0.45594000000E+02  0.51100000000E-03 0. -1.
         23    2    1    2    0    0  0.44408920985E-15  0.35527136788E-14  0.00000000000E+00  0.91188000000E+02  0.91188000000E+02 0.  0.
    9900012    2    3    3    0    0  0.17005946353E+01  0.31538453676E+02  0.18926508890E+02  0.54367098041E+02  0.40000031603E+02 0.  0.
         12    1    3    3    0    0 -0.17005946353E+01 -0.31538453676E+02 -0.18926508890E+02  0.36820901959E+02  0.00000000000E+00 0. -1.
         11    1    4    4    0    0 -0.91641779427E+01  0.20769019279E+02  0.15257881769E+02  0.27352098192E+02  0.51100000000E-03 0. -1.
        -11    1    4    4    0    0  0.11962720712E+02  0.11841688374E+02  0.10615732209E+02  0.19900403035E+02  0.51100000000E-03 0.  1.
         12    1    4    4    0    0 -0.10979481340E+01 -0.10722539775E+01 -0.69471050885E+01  0.71145968128E+01  0.00000000000E+00 0. -1.
</event>
<event>
 8    1  0.3137106E-007  0.9118800E+02  0.7816164E-02  0.1184000E+00
        -11   -1    0    0    0    0  0.00000000000E+00  0.00000000000E+00  0.45593999997E+02  0.45594000000E+02  0.51100000000E-03 0. -1.
         11   -1    0    0    0    0 -0.00000000000E+00 -0.00000000000E+00 -0.45593999997E+02  0.45594000000E+02  0.51100000000E-03 0.  1.
         23    2    1    2    0    0  0.00000000000E+00 -0.35527136788E-14  0.17763568394E-14  0.91188000000E+02  0.91188000000E+02 0.  0.
    9900012    2    3    3    0    0 -0.24120661788E+02  0.25363613302E+02 -0.11430690449E+02  0.54367083540E+02  0.39999998545E+02 0.  0.
         12    1    3    3    0    0  0.24120661788E+02 -0.25363613302E+02  0.11430690449E+02  0.36820916460E+02  0.00000000000E+00 0. -1.
         11    1    4    4    0    0 -0.28253002992E+02  0.12704460216E+02 -0.16721759097E+02  0.35203021390E+02  0.51100000000E-03 0. -1.
        -11    1    4    4    0    0  0.36946720054E+01  0.50307816006E+01 -0.37851480869E+01  0.72997747254E+01  0.51100000000E-03 0.  1.
         12    1    4    4    0    0  0.43766919822E+00  0.76283714859E+01  0.90762167355E+01  0.11864287424E+02  0.00000000000E+00 0. -1.
</event>
<event>
 8    1  0.3137106E-007  0.9118800E+02  0.7816164E-02  0.1184000E+00
        -11   -1    0    0    0    0  0.00000000000E+00  0.00000000000E+00  0.45593999997E+02  0.45594000000E+02  0.51100000000E-03 0. -1.
         11   -1    0    0    0    0 -0.00000000000E+00 -0.00000000000E+00 -0.45593999997E+02  0.45594000000E+02  0.51100000000E-03 0.  1.
         23    2    1    2    0    0  0.17763568394E-14  0.00000000000E+00 -0.35527136788E-14  0.91188000000E+02  0.91188000000E+02 0.  0.
    9900012    2    3    3    0    0 -0.12094766355E+02 -0.17683976805E+02 -0.29946146430E+02  0.54367107903E+02  0.40000054086E+02 0.  0.
         12    1    3    3    0    0  0.12094766355E+02  0.17683976805E+02  0.29946146430E+02  0.36820892097E+02  0.00000000000E+00 0. -1.
         11    1    4    4    0    0 -0.37942266509E+01  0.31586043661E+01 -0.63590215882E+01  0.80504716161E+01  0.51100000000E-03 0. -1.
        -11    1    4    4    0    0 -0.17595182713E+02 -0.20260234627E+01 -0.53198169108E+01  0.18493125155E+02  0.51100000000E-03 0.  1.
         12    1    4    4    0    0  0.92946430091E+01 -0.18816557708E+02 -0.18267307931E+02  0.27823511132E+02  0.00000000000E+00 0. -1.
</event>
<event>
 8    1  0.3137106E-007  0.9118800E+02  0.7816164E-02  0.1184000E+00
        -11   -1    0    0    0    0  0.00000000000E+00  0.00000000000E+00  0.45593999997E+02  0.45594000000E+02  0.51100000000E-03 0. -1.
         11   -1    0    0    0    0 -0.00000000000E+00 -0.00000000000E+00 -0.45593999997E+02  0.45594000000E+02  0.51100000000E-03 0.  1.
         23    2    1    2    0    0  0.35527136788E-14  0.00000000000E+00  0.00000000000E+00  0.91188000000E+02  0.91188000000E+02 0.  0.
    9900012    2    3    3    0    0  0.23831276507E+02  0.25250558524E+02 -0.12257865352E+02  0.54367140304E+02  0.40000127951E+02 0.  0.
        -12    1    3    3    0    0 -0.23831276507E+02 -0.25250558524E+02  0.12257865352E+02  0.36820859696E+02  0.00000000000E+00 0.  1.
         11    1    4    4    0    0  0.12315187729E+02  0.95768927424E+00 -0.14250851266E+01  0.12434302772E+02  0.51100000000E-03 0. -1.
        -11    1    4    4    0    0  0.19063849244E+02  0.26119747727E+02 -0.11025346322E+02  0.34164745442E+02  0.51100000000E-03 0.  1.
         12    1    4    4    0    0 -0.75477604660E+01 -0.18268784768E+01  0.19256609718E+00  0.77680920902E+01  0.00000000000E+00 0. -1.
</event>
<event>
 8    1  0.3137106E-007  0.9118800E+02  0.7816164E-02  0.1184000E+00
        -11   -1    0    0    0    0  0.00000000000E+00  0.00000000000E+00  0.45593999997E+02  0.45594000000E+02  0.51100000000E-03 0.  1.
         11   -1    0    0    0    0 -0.00000000000E+00 -0.00000000000E+00 -0.45593999997E+02  0.45594000000E+02  0.51100000000E-03 0. -1.
         23    2    1    2    0    0  0.00000000000E+00 -0.88817841970E-15  0.00000000000E+00  0.91188000000E+02  0.91188000000E+02 0.  0.
    9900012    2    3    3    0    0  0.12749262036E+02 -0.74084353795E+01 -0.33739459924E+02  0.54367085384E+02  0.40000002749E+02 0.  0.
        -12    1    3    3    0    0 -0.12749262036E+02  0.74084353795E+01  0.33739459924E+02  0.36820914616E+02  0.00000000000E+00 0.  1.
         11    1    4    4    0    0  0.34338311741E+01  0.12954565427E+02 -0.10524652088E+02  0.17040547637E+02  0.51100000000E-03 0. -1.
        -11    1    4    4    0    0 -0.43863175795E+01 -0.10966491826E+02 -0.14040009504E+02  0.18347359266E+02  0.51100000000E-03 0.  1.
         12    1    4    4    0    0  0.13701748441E+02 -0.93965089810E+01 -0.91747983316E+01  0.18979178481E+02  0.00000000000E+00 0. -1.
</event>
<event>
 8    1  0.3137106E-007  0.9118800E+02  0.7816164E-02  0.1184000E+00
        -11   -1    0    0    0    0  0.00000000000E+00  0.00000000000E+00  0.45593999997E+02  0.45594000000E+02  0.51100000000E-03 0. -1.
         11   -1    0    0    0    0 -0.00000000000E+00 -0.00000000000E+00 -0.45593999997E+02  0.45594000000E+02  0.51100000000E-03 0.  1.
         23    2    1    2    0    0  0.00000000000E+00 -0.44408920985E-15  0.35527136788E-14  0.91188000000E+02  0.91188000000E+02 0.  0.
    9900012    2    3    3    0    0 -0.20511765032E+02  0.25792467949E+01  0.30469588556E+02  0.54367070551E+02  0.39999968934E+02 0.  0.
        -12    1    3    3    0    0  0.20511765032E+02 -0.25792467949E+01 -0.30469588556E+02  0.36820929449E+02  0.00000000000E+00 0.  1.
         11    1    4    4    0    0 -0.13128194042E+02  0.34871362470E+01  0.11022367109E+02  0.17492917851E+02  0.51100000000E-03 0. -1.
        -11    1    4    4    0    0  0.44874467699E+01  0.78128089603E+01  0.20206965110E+02  0.22124615287E+02  0.51100000000E-03 0.  1.
        -12    1    4    4    0    0 -0.11871017760E+02 -0.87206984125E+01 -0.75974366319E+00  0.14749537413E+02  0.00000000000E+00 0.  1.
</event>
<event>
 8    1  0.3137106E-007  0.9118800E+02  0.7816164E-02  0.1184000E+00
        -11   -1    0    0    0    0  0.00000000000E+00  0.00000000000E+00  0.45593999997E+02  0.45594000000E+02  0.51100000000E-03 0.  1.
         11   -1    0    0    0    0 -0.00000000000E+00 -0.00000000000E+00 -0.45593999997E+02  0.45594000000E+02  0.51100000000E-03 0. -1.
         23    2    1    2    0    0  0.00000000000E+00  0.35527136788E-14 -0.17763568394E-14  0.91188000000E+02  0.91188000000E+02 0.  0.
    9900012    2    3    3    0    0 -0.35769622490E+02 -0.84229196643E+01  0.23169856455E+01  0.54367083509E+02  0.39999998475E+02 0.  0.
         12    1    3    3    0    0  0.35769622490E+02  0.84229196643E+01 -0.23169856455E+01  0.36820916491E+02  0.00000000000E+00 0. -1.
         11    1    4    4    0    0 -0.96789660776E+01 -0.42259935581E+01  0.11342012749E+02  0.15497827568E+02  0.51100000000E-03 0. -1.
        -11    1    4    4    0    0 -0.19599159166E+01 -0.12000262571E+02 -0.71047315682E+00  0.12179997723E+02  0.51100000000E-03 0.  1.
        -12    1    4    4    0    0 -0.24130740496E+02  0.78033364645E+01 -0.83145539464E+01  0.26689258217E+02  0.00000000000E+00 0.  1.
</event>
<event>
 8    1  0.3137106E-007  0.9118800E+02  0.7816164E-02  0.1184000E+00
        -11   -1    0    0    0    0  0.00000000000E+00  0.00000000000E+00  0.45593999997E+02  0.45594000000E+02  0.51100000000E-03 0.  1.
         11   -1    0    0    0    0 -0.00000000000E+00 -0.00000000000E+00 -0.45593999997E+02  0.45594000000E+02  0.51100000000E-03 0. -1.
         23    2    1    2    0    0  0.35527136788E-14  0.00000000000E+00  0.17763568394E-14  0.91188000000E+02  0.91188000000E+02 0.  0.
    9900012    2    3    3    0    0 -0.29728985729E+02  0.16000589446E+02 -0.14695092712E+02  0.54367119987E+02  0.40000081634E+02 0.  0.
        -12    1    3    3    0    0  0.29728985729E+02 -0.16000589446E+02  0.14695092712E+02  0.36820880013E+02  0.00000000000E+00 0.  1.
         11    1    4    4    0    0  0.30283506759E+00 -0.19435789966E+01 -0.23707468681E+00  0.19812655205E+01  0.51100000000E-03 0.  1.
        -11    1    4    4    0    0 -0.13801846160E+02  0.24128820367E+02  0.27541639520E+01  0.27933427091E+02  0.51100000000E-03 0. -1.
         12    1    4    4    0    0 -0.16229974637E+02 -0.61846519242E+01 -0.17212181977E+02  0.24452427375E+02  0.00000000000E+00 0. -1.
</event>
<event>
 8    1  0.3137106E-007  0.9118800E+02  0.7816164E-02  0.1184000E+00
        -11   -1    0    0    0    0  0.00000000000E+00  0.00000000000E+00  0.45593999997E+02  0.45594000000E+02  0.51100000000E-03 0. -1.
         11   -1    0    0    0    0 -0.00000000000E+00 -0.00000000000E+00 -0.45593999997E+02  0.45594000000E+02  0.51100000000E-03 0.  1.
         23    2    1    2    0    0  0.44408920985E-15  0.00000000000E+00  0.00000000000E+00  0.91188000000E+02  0.91188000000E+02 0.  0.
    9900012    2    3    3    0    0 -0.32078032785E+01 -0.85422612626E+01  0.35672372033E+02  0.54367104359E+02  0.40000046007E+02 0.  0.
        -12    1    3    3    0    0  0.32078032785E+01  0.85422612626E+01 -0.35672372033E+02  0.36820895641E+02  0.00000000000E+00 0.  1.
         11    1    4    4    0    0  0.61138305586E+01 -0.42242557590E+01  0.29630105862E+01  0.80001682990E+01  0.51100000000E-03 0. -1.
        -11    1    4    4    0    0  0.36783651935E+01  0.19615899860E+01 -0.46916790906E+01  0.62761499919E+01  0.51100000000E-03 0.  1.
         12    1    4    4    0    0 -0.12999999031E+02 -0.62795954896E+01  0.37401040537E+02  0.40090786068E+02  0.00000000000E+00 0. -1.
</event>
<event>
 8    1  0.3137106E-007  0.9118800E+02  0.7816164E-02  0.1184000E+00
        -11   -1    0    0    0    0  0.00000000000E+00  0.00000000000E+00  0.45593999997E+02  0.45594000000E+02  0.51100000000E-03 0.  1.
         11   -1    0    0    0    0 -0.00000000000E+00 -0.00000000000E+00 -0.45593999997E+02  0.45594000000E+02  0.51100000000E-03 0. -1.
         23    2    1    2    0    0  0.00000000000E+00  0.00000000000E+00  0.00000000000E+00  0.91188000000E+02  0.91188000000E+02 0.  0.
    9900012    2    3    3    0    0 -0.16639620325E+01 -0.90344988782E+01 -0.35656544163E+02  0.54367080929E+02  0.39999992593E+02 0.  0.
        -12    1    3    3    0    0  0.16639620325E+01  0.90344988782E+01  0.35656544163E+02  0.36820919071E+02  0.00000000000E+00 0.  1.
         11    1    4    4    0    0  0.99824927203E+01 -0.59719333477E+01 -0.51750543023E+01  0.12731666667E+02  0.51100000000E-03 0. -1.
        -11    1    4    4    0    0 -0.14410581800E+02 -0.12017711725E+00 -0.33583029048E+02  0.36544481809E+02  0.51100000000E-03 0.  1.
         12    1    4    4    0    0  0.27641270476E+01 -0.29423884132E+01  0.31015391875E+01  0.50909324530E+01  0.00000000000E+00 0. -1.
</event>
<event>
 8    1  0.3137106E-007  0.9118800E+02  0.7816164E-02  0.1184000E+00
        -11   -1    0    0    0    0  0.00000000000E+00  0.00000000000E+00  0.45593999997E+02  0.45594000000E+02  0.51100000000E-03 0.  1.
         11   -1    0    0    0    0 -0.00000000000E+00 -0.00000000000E+00 -0.45593999997E+02  0.45594000000E+02  0.51100000000E-03 0. -1.
         23    2    1    2    0    0  0.00000000000E+00  0.00000000000E+00  0.00000000000E+00  0.91188000000E+02  0.91188000000E+02 0.  0.
    9900012    2    3    3    0    0 -0.24129990757E+02  0.27664373948E+02 -0.28644934097E+01  0.54367090691E+02  0.40000014847E+02 0.  0.
         12    1    3    3    0    0  0.24129990757E+02 -0.27664373948E+02  0.28644934097E+01  0.36820909309E+02  0.00000000000E+00 0. -1.
         11    1    4    4    0    0  0.30480470898E+01  0.31108425152E+01  0.12617556518E+02  0.13348058471E+02  0.51100000000E-03 0. -1.
        -11    1    4    4    0    0 -0.10154173672E+02  0.76467435753E+01 -0.47656545224E+00  0.12720339821E+02  0.51100000000E-03 0.  1.
         12    1    4    4    0    0 -0.17023864175E+02  0.16906787858E+02 -0.15005484475E+02  0.28298692398E+02  0.00000000000E+00 0. -1.
</event>
<event>
 8    1  0.3137106E-007  0.9118800E+02  0.7816164E-02  0.1184000E+00
        -11   -1    0    0    0    0  0.00000000000E+00  0.00000000000E+00  0.45593999997E+02  0.45594000000E+02  0.51100000000E-03 0.  1.
         11   -1    0    0    0    0 -0.00000000000E+00 -0.00000000000E+00 -0.45593999997E+02  0.45594000000E+02  0.51100000000E-03 0. -1.
         23    2    1    2    0    0 -0.88817841970E-15  0.71054273576E-14  0.00000000000E+00  0.91188000000E+02  0.91188000000E+02 0.  0.
    9900012    2    3    3    0    0 -0.75529622299E+01  0.32975577281E+02 -0.14537677593E+02  0.54367081960E+02  0.39999994945E+02 0.  0.
        -12    1    3    3    0    0  0.75529622299E+01 -0.32975577281E+02  0.14537677593E+02  0.36820918040E+02  0.00000000000E+00 0.  1.
         11    1    4    4    0    0 -0.57320200481E+01 -0.29612335503E+01 -0.75045177945E+01  0.98966027282E+01  0.51100000000E-03 0.  1.
        -11    1    4    4    0    0  0.38401023488E+01 -0.13313687935E+01 -0.53745773846E+01  0.67383240674E+01  0.51100000000E-03 0. -1.
        -12    1    4    4    0    0 -0.56610445305E+01  0.37268179625E+02 -0.16585824135E+01  0.37732155165E+02  0.00000000000E+00 0.  1.
</event>
<event>
 8    1  0.3137106E-007  0.9118800E+02  0.7816164E-02  0.1184000E+00
        -11   -1    0    0    0    0  0.00000000000E+00  0.00000000000E+00  0.45593999997E+02  0.45594000000E+02  0.51100000000E-03 0.  1.
         11   -1    0    0    0    0 -0.00000000000E+00 -0.00000000000E+00 -0.45593999997E+02  0.45594000000E+02  0.51100000000E-03 0. -1.
         23    2    1    2    0    0  0.00000000000E+00  0.00000000000E+00 -0.35527136788E-14  0.91188000000E+02  0.91188000000E+02 0.  0.
    9900012    2    3    3    0    0  0.93688107421E+01  0.19904207816E+02  0.29526722722E+02  0.54367089389E+02  0.40000011881E+02 0.  0.
         12    1    3    3    0    0 -0.93688107421E+01 -0.19904207816E+02 -0.29526722722E+02  0.36820910611E+02  0.00000000000E+00 0. -1.
         11    1    4    4    0    0 -0.58770477414E+01  0.12330195310E+02 -0.16846561937E+01  0.13762684087E+02  0.51100000000E-03 0. -1.
        -11    1    4    4    0    0 -0.18086684899E+01  0.47843860775E+01  0.18385371188E+02  0.19083592582E+02  0.51100000000E-03 0.  1.
         12    1    4    4    0    0  0.17054526973E+02  0.27896264285E+01  0.12826007727E+02  0.21520812720E+02  0.00000000000E+00 0. -1.
</event>
<event>
 8    1  0.3137106E-007  0.9118800E+02  0.7816164E-02  0.1184000E+00
        -11   -1    0    0    0    0  0.00000000000E+00  0.00000000000E+00  0.45593999997E+02  0.45594000000E+02  0.51100000000E-03 0. -1.
         11   -1    0    0    0    0 -0.00000000000E+00 -0.00000000000E+00 -0.45593999997E+02  0.45594000000E+02  0.51100000000E-03 0.  1.
         23    2    1    2    0    0  0.35527136788E-14  0.35527136788E-14 -0.35527136788E-14  0.91188000000E+02  0.91188000000E+02 0.  0.
    9900012    2    3    3    0    0 -0.17727276965E+02 -0.19919631159E+02  0.25391574390E+02  0.54367080618E+02  0.39999991886E+02 0.  0.
        -12    1    3    3    0    0  0.17727276965E+02  0.19919631159E+02 -0.25391574390E+02  0.36820919382E+02  0.00000000000E+00 0.  1.
         11    1    4    4    0    0 -0.80350149829E+01 -0.10630596474E+01 -0.67880452185E+01  0.10572091550E+02  0.51100000000E-03 0.  1.
        -11    1    4    4    0    0 -0.75354813904E+01 -0.24665006355E+01  0.24146927391E+02  0.25415373455E+02  0.51100000000E-03 0. -1.
         12    1    4    4    0    0 -0.21567805920E+01 -0.16390070876E+02  0.80326922176E+01  0.18379615614E+02  0.00000000000E+00 0. -1.
</event>
<event>
 8    1  0.3137106E-007  0.9118800E+02  0.7816164E-02  0.1184000E+00
        -11   -1    0    0    0    0  0.00000000000E+00  0.00000000000E+00  0.45593999997E+02  0.45594000000E+02  0.51100000000E-03 0.  1.
         11   -1    0    0    0    0 -0.00000000000E+00 -0.00000000000E+00 -0.45593999997E+02  0.45594000000E+02  0.51100000000E-03 0. -1.
         23    2    1    2    0    0  0.35527136788E-14 -0.88817841970E-15 -0.35527136788E-14  0.91188000000E+02  0.91188000000E+02 0.  0.
    9900012    2    3    3    0    0  0.25675498102E+02  0.50686498041E+01  0.25900909193E+02  0.54367088677E+02  0.40000010257E+02 0.  0.
         12    1    3    3    0    0 -0.25675498102E+02 -0.50686498041E+01 -0.25900909193E+02  0.36820911323E+02  0.00000000000E+00 0. -1.
         11    1    4    4    0    0  0.48378440007E+01 -0.51648216043E+01  0.41100368649E+01  0.81836739960E+01  0.51100000000E-03 0. -1.
        -11    1    4    4    0    0  0.14162661442E+02  0.62294782035E+01  0.30684505529E+02  0.34364607630E+02  0.51100000000E-03 0.  1.
         12    1    4    4    0    0  0.66749926598E+01  0.40039932050E+01 -0.88936332004E+01  0.11818807050E+02  0.00000000000E+00 0. -1.
</event>
<event>
 8    1  0.3137106E-007  0.9118800E+02  0.7816164E-02  0.1184000E+00
        -11   -1    0    0    0    0  0.00000000000E+00  0.00000000000E+00  0.45593999997E+02  0.45594000000E+02  0.51100000000E-03 0.  1.
         11   -1    0    0    0    0 -0.00000000000E+00 -0.00000000000E+00 -0.45593999997E+02  0.45594000000E+02  0.51100000000E-03 0. -1.
         23    2    1    2    0    0  0.00000000000E+00  0.00000000000E+00  0.17763568394E-14  0.91188000000E+02  0.91188000000E+02 0.  0.
    9900012    2    3    3    0    0 -0.19944141922E+02  0.26633102218E+02  0.15769842745E+02  0.54367097363E+02  0.40000030059E+02 0.  0.
         12    1    3    3    0    0  0.19944141922E+02 -0.26633102218E+02 -0.15769842745E+02  0.36820902637E+02  0.00000000000E+00 0. -1.
         11    1    4    4    0    0 -0.21315258250E+02  0.19104675869E+02 -0.21546160375E+01  0.28704899318E+02  0.51100000000E-03 0. -1.
        -11    1    4    4    0    0 -0.60930781251E+01  0.55044345240E+01  0.15528464661E+02  0.17565808136E+02  0.51100000000E-03 0.  1.
        -12    1    4    4    0    0  0.74641944528E+01  0.20239918247E+01  0.23959941216E+01  0.80963899094E+01  0.00000000000E+00 0.  1.
</event>
<event>
 8    1  0.3137106E-007  0.9118800E+02  0.7816164E-02  0.1184000E+00
        -11   -1    0    0    0    0  0.00000000000E+00  0.00000000000E+00  0.45593999997E+02  0.45594000000E+02  0.51100000000E-03 0.  1.
         11   -1    0    0    0    0 -0.00000000000E+00 -0.00000000000E+00 -0.45593999997E+02  0.45594000000E+02  0.51100000000E-03 0. -1.
         23    2    1    2    0    0  0.88817841970E-15  0.00000000000E+00  0.71054273576E-14  0.91188000000E+02  0.91188000000E+02 0.  0.
    9900012    2    3    3    0    0 -0.64107194135E+01  0.16961116942E+02  0.32046866154E+02  0.54367103194E+02  0.40000043350E+02 0.  0.
         12    1    3    3    0    0  0.64107194135E+01 -0.16961116942E+02 -0.32046866154E+02  0.36820896806E+02  0.00000000000E+00 0. -1.
         11    1    4    4    0    0  0.36463681560E+01  0.17975812188E+02  0.28287535687E+02  0.33713654504E+02  0.51100000000E-03 0. -1.
        -11    1    4    4    0    0 -0.14081901981E+02  0.30654477988E+01  0.14869884999E+01  0.14488204466E+02  0.51100000000E-03 0.  1.
         12    1    4    4    0    0  0.40248144110E+01 -0.40801430450E+01  0.22723419677E+01  0.61652442230E+01  0.00000000000E+00 0. -1.
</event>
<event>
 8    1  0.3137106E-007  0.9118800E+02  0.7816164E-02  0.1184000E+00
        -11   -1    0    0    0    0  0.00000000000E+00  0.00000000000E+00  0.45593999997E+02  0.45594000000E+02  0.51100000000E-03 0. -1.
         11   -1    0    0    0    0 -0.00000000000E+00 -0.00000000000E+00 -0.45593999997E+02  0.45594000000E+02  0.51100000000E-03 0.  1.
         23    2    1    2    0    0  0.35527136788E-14  0.00000000000E+00  0.00000000000E+00  0.91188000000E+02  0.91188000000E+02 0.  0.
    9900012    2    3    3    0    0  0.23010355921E+02  0.12355828705E+02  0.25954530805E+02  0.54367073180E+02  0.39999974928E+02 0.  0.
        -12    1    3    3    0    0 -0.23010355921E+02 -0.12355828705E+02 -0.25954530805E+02  0.36820926820E+02  0.00000000000E+00 0.  1.
         11    1    4    4    0    0  0.29563516197E+02  0.11586033421E+02  0.26970949731E+02  0.41661370477E+02  0.51100000000E-03 0. -1.
        -11    1    4    4    0    0  0.20656544054E+01 -0.24027476278E+01  0.96085489938E+00  0.33110975045E+01  0.51100000000E-03 0.  1.
         12    1    4    4    0    0 -0.86188146821E+01  0.31725429115E+01 -0.19772738256E+01  0.93946051983E+01  0.00000000000E+00 0. -1.
</event>
<event>
 8    1  0.3137106E-007  0.9118800E+02  0.7816164E-02  0.1184000E+00
        -11   -1    0    0    0    0  0.00000000000E+00  0.00000000000E+00  0.45593999997E+02  0.45594000000E+02  0.51100000000E-03 0.  1.
         11   -1    0    0    0    0 -0.00000000000E+00 -0.00000000000E+00 -0.45593999997E+02  0.45594000000E+02  0.51100000000E-03 0. -1.
         23    2    1    2    0    0  0.17763568394E-14  0.00000000000E+00  0.35527136788E-14  0.91188000000E+02  0.91188000000E+02 0.  0.
    9900012    2    3    3    0    0 -0.25593083054E+01  0.26365737686E+02 -0.25574939517E+02  0.54367085916E+02  0.40000003962E+02 0.  0.
        -12    1    3    3    0    0  0.25593083054E+01 -0.26365737686E+02  0.25574939517E+02  0.36820914084E+02  0.00000000000E+00 0.  1.
         11    1    4    4    0    0 -0.15952187237E+02  0.70533195635E+01 -0.25018016773E+02  0.30497913995E+02  0.51100000000E-03 0.  1.
        -11    1    4    4    0    0  0.68101818766E+01  0.13211716637E+02  0.17184975494E+00  0.14864641478E+02  0.51100000000E-03 0. -1.
        -12    1    4    4    0    0  0.65826970551E+01  0.61007014859E+01 -0.72877249851E+00  0.90045304428E+01  0.00000000000E+00 0.  1.
</event>
<event>
 8    1  0.3137106E-007  0.9118800E+02  0.7816164E-02  0.1184000E+00
        -11   -1    0    0    0    0  0.00000000000E+00  0.00000000000E+00  0.45593999997E+02  0.45594000000E+02  0.51100000000E-03 0.  1.
         11   -1    0    0    0    0 -0.00000000000E+00 -0.00000000000E+00 -0.45593999997E+02  0.45594000000E+02  0.51100000000E-03 0. -1.
         23    2    1    2    0    0  0.00000000000E+00  0.17763568394E-14  0.00000000000E+00  0.91188000000E+02  0.91188000000E+02 0.  0.
    9900012    2    3    3    0    0  0.21296909394E+02 -0.14942369947E+02  0.26056615355E+02  0.54367082397E+02  0.39999995940E+02 0.  0.
         12    1    3    3    0    0 -0.21296909394E+02  0.14942369947E+02 -0.26056615355E+02  0.36820917603E+02  0.00000000000E+00 0. -1.
         11    1    4    4    0    0  0.69032827315E+01 -0.16848298652E+02  0.71199051920E+01  0.19550282099E+02  0.51100000000E-03 0. -1.
        -11    1    4    4    0    0  0.35210732257E+01 -0.86110142056E+01 -0.14663178643E+01  0.94179408922E+01  0.51100000000E-03 0.  1.
        -12    1    4    4    0    0  0.10872553437E+02  0.10516942910E+02  0.20403028028E+02  0.25398859406E+02  0.00000000000E+00 0.  1.
</event>
<event>
 8    1  0.3137106E-007  0.9118800E+02  0.7816164E-02  0.1184000E+00
        -11   -1    0    0    0    0  0.00000000000E+00  0.00000000000E+00  0.45593999997E+02  0.45594000000E+02  0.51100000000E-03 0.  1.
         11   -1    0    0    0    0 -0.00000000000E+00 -0.00000000000E+00 -0.45593999997E+02  0.45594000000E+02  0.51100000000E-03 0. -1.
         23    2    1    2    0    0  0.00000000000E+00  0.00000000000E+00 -0.35527136788E-14  0.91188000000E+02  0.91188000000E+02 0.  0.
    9900012    2    3    3    0    0  0.15594974933E+02 -0.21336300833E+02 -0.25638623375E+02  0.54367082236E+02  0.39999995574E+02 0.  0.
        -12    1    3    3    0    0 -0.15594974933E+02  0.21336300833E+02  0.25638623375E+02  0.36820917764E+02  0.00000000000E+00 0.  1.
         11    1    4    4    0    0  0.13216317168E+02 -0.64575905701E+01 -0.61189096251E+01  0.15931496186E+02  0.51100000000E-03 0. -1.
        -11    1    4    4    0    0  0.13109361444E+02  0.12675408412E+01 -0.11392643183E+02  0.17414199270E+02  0.51100000000E-03 0.  1.
         12    1    4    4    0    0 -0.10730703679E+02 -0.16146251104E+02 -0.81270705673E+01  0.21021386780E+02  0.00000000000E+00 0. -1.
</event>
<event>
 8    1  0.3137106E-007  0.9118800E+02  0.7816164E-02  0.1184000E+00
        -11   -1    0    0    0    0  0.00000000000E+00  0.00000000000E+00  0.45593999997E+02  0.45594000000E+02  0.51100000000E-03 0.  1.
         11   -1    0    0    0    0 -0.00000000000E+00 -0.00000000000E+00 -0.45593999997E+02  0.45594000000E+02  0.51100000000E-03 0. -1.
         23    2    1    2    0    0 -0.13511327474E-14  0.00000000000E+00 -0.35527136788E-14  0.91188000000E+02  0.91188000000E+02 0.  0.
    9900012    2    3    3    0    0 -0.16447120253E-02 -0.19453390181E+02  0.31262526199E+02  0.54367082894E+02  0.39999997073E+02 0.  0.
         12    1    3    3    0    0  0.16447120253E-02  0.19453390181E+02 -0.31262526199E+02  0.36820917106E+02  0.00000000000E+00 0. -1.
         11    1    4    4    0    0  0.65056348847E+01 -0.42086302022E+01  0.15618391451E+02  0.17434735593E+02  0.51100000000E-03 0. -1.
        -11    1    4    4    0    0  0.10835031289E+02 -0.60063511302E+01  0.10050926822E+01  0.12429174087E+02  0.51100000000E-03 0.  1.
        -12    1    4    4    0    0 -0.17342310886E+02 -0.92384088481E+01  0.14639042066E+02  0.24503173213E+02  0.00000000000E+00 0.  1.
</event>
<event>
 8    1  0.3137106E-007  0.9118800E+02  0.7816164E-02  0.1184000E+00
        -11   -1    0    0    0    0  0.00000000000E+00  0.00000000000E+00  0.45593999997E+02  0.45594000000E+02  0.51100000000E-03 0.  1.
         11   -1    0    0    0    0 -0.00000000000E+00 -0.00000000000E+00 -0.45593999997E+02  0.45594000000E+02  0.51100000000E-03 0. -1.
         23    2    1    2    0    0  0.00000000000E+00  0.00000000000E+00 -0.35527136788E-14  0.91188000000E+02  0.91188000000E+02 0.  0.
    9900012    2    3    3    0    0  0.22117507012E+02 -0.48425808226E+01  0.29036920112E+02  0.54367116862E+02  0.40000074511E+02 0.  0.
         12    1    3    3    0    0 -0.22117507012E+02  0.48425808226E+01 -0.29036920112E+02  0.36820883138E+02  0.00000000000E+00 0. -1.
         11    1    4    4    0    0 -0.56476601573E+01 -0.23280812025E+01  0.10668058154E+02  0.12293229534E+02  0.51100000000E-03 0. -1.
        -11    1    4    4    0    0  0.90888278292E+01  0.49086711328E+01  0.19369232795E+02  0.21951515276E+02  0.51100000000E-03 0.  1.
        -12    1    4    4    0    0  0.18676339340E+02 -0.74231707529E+01 -0.10003708370E+01  0.20122372052E+02  0.00000000000E+00 0.  1.
</event>
<event>
 8    1  0.3137106E-007  0.9118800E+02  0.7816164E-02  0.1184000E+00
        -11   -1    0    0    0    0  0.00000000000E+00  0.00000000000E+00  0.45593999997E+02  0.45594000000E+02  0.51100000000E-03 0.  1.
         11   -1    0    0    0    0 -0.00000000000E+00 -0.00000000000E+00 -0.45593999997E+02  0.45594000000E+02  0.51100000000E-03 0. -1.
         23    2    1    2    0    0  0.00000000000E+00 -0.16653345369E-15  0.00000000000E+00  0.91188000000E+02  0.91188000000E+02 0.  0.
    9900012    2    3    3    0    0  0.29532459070E+02 -0.32824573061E+00 -0.21988923309E+02  0.54366991971E+02  0.39999789796E+02 0.  0.
        -12    1    3    3    0    0 -0.29532459070E+02  0.32824573061E+00  0.21988923309E+02  0.36821008029E+02  0.00000000000E+00 0.  1.
         11    1    4    4    0    0  0.18003885973E+02  0.44110999010E+01  0.41971586752E+01  0.19005626895E+02  0.51100000000E-03 0. -1.
        -11    1    4    4    0    0  0.15459371181E+02  0.10241313208E+01 -0.12157201300E+02  0.19693616884E+02  0.51100000000E-03 0.  1.
        -12    1    4    4    0    0 -0.39307980840E+01 -0.57634769524E+01 -0.14028880684E+02  0.15667748192E+02  0.00000000000E+00 0.  1.
</event>
<event>
 8    1  0.3137106E-007  0.9118800E+02  0.7816164E-02  0.1184000E+00
        -11   -1    0    0    0    0  0.00000000000E+00  0.00000000000E+00  0.45593999997E+02  0.45594000000E+02  0.51100000000E-03 0. -1.
         11   -1    0    0    0    0 -0.00000000000E+00 -0.00000000000E+00 -0.45593999997E+02  0.45594000000E+02  0.51100000000E-03 0.  1.
         23    2    1    2    0    0  0.00000000000E+00  0.17763568394E-14  0.44408920985E-15  0.91188000000E+02  0.91188000000E+02 0.  0.
    9900012    2    3    3    0    0  0.34112360793E+02  0.13702456975E+02 -0.20902744231E+01  0.54367085656E+02  0.40000003369E+02 0.  0.
        -12    1    3    3    0    0 -0.34112360793E+02 -0.13702456975E+02  0.20902744231E+01  0.36820914344E+02  0.00000000000E+00 0.  1.
         11    1    4    4    0    0 -0.37330951577E+01  0.90624554149E+00  0.85845631263E+01  0.94048925974E+01  0.51100000000E-03 0. -1.
        -11    1    4    4    0    0  0.27992642602E+02  0.65588222183E+01 -0.15117995940E+02  0.32483226290E+02  0.51100000000E-03 0.  1.
        -12    1    4    4    0    0  0.98528133486E+01  0.62373892150E+01  0.44431583910E+01  0.12478966768E+02  0.00000000000E+00 0.  1.
</event>
<event>
 8    1  0.3137106E-007  0.9118800E+02  0.7816164E-02  0.1184000E+00
        -11   -1    0    0    0    0  0.00000000000E+00  0.00000000000E+00  0.45593999997E+02  0.45594000000E+02  0.51100000000E-03 0.  1.
         11   -1    0    0    0    0 -0.00000000000E+00 -0.00000000000E+00 -0.45593999997E+02  0.45594000000E+02  0.51100000000E-03 0. -1.
         23    2    1    2    0    0  0.00000000000E+00 -0.35527136788E-14 -0.71054273576E-14  0.91188000000E+02  0.91188000000E+02 0.  0.
    9900012    2    3    3    0    0 -0.25739914382E+02  0.16498425667E+02  0.20519205551E+02  0.54367095091E+02  0.40000024879E+02 0.  0.
         12    1    3    3    0    0  0.25739914382E+02 -0.16498425667E+02 -0.20519205551E+02  0.36820904909E+02  0.00000000000E+00 0. -1.
         11    1    4    4    0    0  0.60651270405E+01 -0.72349854581E+01  0.10387726481E+01  0.94978855264E+01  0.51100000000E-03 0.  1.
        -11    1    4    4    0    0 -0.21801741559E+02  0.20439456652E+02  0.14664105033E+02  0.33288485996E+02  0.51100000000E-03 0. -1.
         12    1    4    4    0    0 -0.10003299863E+02  0.32939544734E+01  0.48163278701E+01  0.11580723569E+02  0.00000000000E+00 0. -1.
</event>
<event>
 8    1  0.3137106E-007  0.9118800E+02  0.7816164E-02  0.1184000E+00
        -11   -1    0    0    0    0  0.00000000000E+00  0.00000000000E+00  0.45593999997E+02  0.45594000000E+02  0.51100000000E-03 0.  1.
         11   -1    0    0    0    0 -0.00000000000E+00 -0.00000000000E+00 -0.45593999997E+02  0.45594000000E+02  0.51100000000E-03 0. -1.
         23    2    1    2    0    0  0.00000000000E+00 -0.17763568394E-14  0.00000000000E+00  0.91188000000E+02  0.91188000000E+02 0.  0.
    9900012    2    3    3    0    0 -0.32215723370E+02  0.83855015896E+01 -0.15735449115E+02  0.54367165843E+02  0.40000186172E+02 0.  0.
        -12    1    3    3    0    0  0.32215723370E+02 -0.83855015896E+01  0.15735449115E+02  0.36820834157E+02  0.00000000000E+00 0.  1.
         11    1    4    4    0    0 -0.11163031106E+02 -0.12545131066E+02 -0.75876434606E+01  0.18427314251E+02  0.51100000000E-03 0. -1.
        -11    1    4    4    0    0  0.19953231641E+01  0.42238202565E+01  0.27938900548E+01  0.54431419224E+01  0.51100000000E-03 0.  1.
        -12    1    4    4    0    0 -0.23048015428E+02  0.16706812399E+02 -0.10941695709E+02  0.30496709670E+02  0.00000000000E+00 0.  1.
</event>
<event>
 8    1  0.3137106E-007  0.9118800E+02  0.7816164E-02  0.1184000E+00
        -11   -1    0    0    0    0  0.00000000000E+00  0.00000000000E+00  0.45593999997E+02  0.45594000000E+02  0.51100000000E-03 0. -1.
         11   -1    0    0    0    0 -0.00000000000E+00 -0.00000000000E+00 -0.45593999997E+02  0.45594000000E+02  0.51100000000E-03 0.  1.
         23    2    1    2    0    0 -0.44408920985E-15  0.71054273576E-14 -0.35527136788E-14  0.91188000000E+02  0.91188000000E+02 0.  0.
    9900012    2    3    3    0    0  0.37210667456E+01 -0.32666030760E+02  0.16579033408E+02  0.54367078609E+02  0.39999987305E+02 0.  0.
        -12    1    3    3    0    0 -0.37210667456E+01  0.32666030760E+02 -0.16579033408E+02  0.36820921391E+02  0.00000000000E+00 0.  1.
         11    1    4    4    0    0  0.38810400522E+01 -0.37262580386E+02  0.10447705531E+02  0.38893661695E+02  0.51100000000E-03 0. -1.
        -11    1    4    4    0    0 -0.83169184478E+00  0.39892747175E+01  0.10368508111E+02  0.11140555857E+02  0.51100000000E-03 0.  1.
        -12    1    4    4    0    0  0.67171853815E+00  0.60727490859E+00 -0.42371802338E+01  0.43328610574E+01  0.00000000000E+00 0.  1.
</event>
<event>
 8    1  0.3137106E-007  0.9118800E+02  0.7816164E-02  0.1184000E+00
        -11   -1    0    0    0    0  0.00000000000E+00  0.00000000000E+00  0.45593999997E+02  0.45594000000E+02  0.51100000000E-03 0.  1.
         11   -1    0    0    0    0 -0.00000000000E+00 -0.00000000000E+00 -0.45593999997E+02  0.45594000000E+02  0.51100000000E-03 0. -1.
         23    2    1    2    0    0 -0.17763568394E-14  0.00000000000E+00 -0.35527136788E-14  0.91188000000E+02  0.91188000000E+02 0.  0.
    9900012    2    3    3    0    0  0.93166290563E+01  0.32816849326E+02  0.13857639406E+02  0.54367090905E+02  0.40000015336E+02 0.  0.
         12    1    3    3    0    0 -0.93166290563E+01 -0.32816849326E+02 -0.13857639406E+02  0.36820909095E+02  0.00000000000E+00 0. -1.
         11    1    4    4    0    0  0.64867439296E+01  0.28747453722E+01  0.17167954481E+02  0.18576347032E+02  0.51100000000E-03 0.  1.
        -11    1    4    4    0    0 -0.77949560661E+01  0.91453743097E+01  0.94068261144E+00  0.12053385225E+02  0.51100000000E-03 0. -1.
        -12    1    4    4    0    0  0.10624841193E+02  0.20796729644E+02 -0.42509976856E+01  0.23737358648E+02  0.00000000000E+00 0.  1.
</event>
<event>
 8    1  0.3137106E-007  0.9118800E+02  0.7816164E-02  0.1184000E+00
        -11   -1    0    0    0    0  0.00000000000E+00  0.00000000000E+00  0.45593999997E+02  0.45594000000E+02  0.51100000000E-03 0.  1.
         11   -1    0    0    0    0 -0.00000000000E+00 -0.00000000000E+00 -0.45593999997E+02  0.45594000000E+02  0.51100000000E-03 0. -1.
         23    2    1    2    0    0 -0.33306690739E-15  0.17763568394E-14  0.00000000000E+00  0.91188000000E+02  0.91188000000E+02 0.  0.
    9900012    2    3    3    0    0  0.57048622726E+00 -0.14329125967E+02 -0.33913574693E+02  0.54367084015E+02  0.39999999628E+02 0.  0.
        -12    1    3    3    0    0 -0.57048622726E+00  0.14329125967E+02  0.33913574693E+02  0.36820915985E+02  0.00000000000E+00 0.  1.
         11    1    4    4    0    0 -0.64740422200E+01 -0.11205421605E+02 -0.63041921076E+01  0.14395052428E+02  0.51100000000E-03 0. -1.
        -11    1    4    4    0    0  0.61849697117E+01 -0.83209142560E+01  0.14235351234E+01  0.10465080836E+02  0.51100000000E-03 0.  1.
         12    1    4    4    0    0  0.85955873562E+00  0.51972098943E+01 -0.29032917709E+02  0.29506950751E+02  0.00000000000E+00 0. -1.
</event>
<event>
 8    1  0.3137106E-007  0.9118800E+02  0.7816164E-02  0.1184000E+00
        -11   -1    0    0    0    0  0.00000000000E+00  0.00000000000E+00  0.45593999997E+02  0.45594000000E+02  0.51100000000E-03 0. -1.
         11   -1    0    0    0    0 -0.00000000000E+00 -0.00000000000E+00 -0.45593999997E+02  0.45594000000E+02  0.51100000000E-03 0.  1.
         23    2    1    2    0    0  0.00000000000E+00 -0.35527136788E-14  0.17763568394E-14  0.91188000000E+02  0.91188000000E+02 0.  0.
    9900012    2    3    3    0    0  0.29340306627E+02  0.19792669352E+02 -0.10157591607E+02  0.54367081756E+02  0.39999994479E+02 0.  0.
         12    1    3    3    0    0 -0.29340306627E+02 -0.19792669352E+02  0.10157591607E+02  0.36820918244E+02  0.00000000000E+00 0. -1.
         11    1    4    4    0    0  0.42181437258E+00  0.14345286617E+02 -0.16421633401E+01  0.14445133305E+02  0.51100000000E-03 0. -1.
        -11    1    4    4    0    0  0.15431982921E+02  0.59147530813E+01 -0.17216809163E+02  0.23865224049E+02  0.51100000000E-03 0.  1.
        -12    1    4    4    0    0  0.13486509334E+02 -0.46737034636E+00  0.87013808955E+01  0.16056724402E+02  0.00000000000E+00 0.  1.
</event>
<event>
 8    1  0.3137106E-007  0.9118800E+02  0.7816164E-02  0.1184000E+00
        -11   -1    0    0    0    0  0.00000000000E+00  0.00000000000E+00  0.45593999997E+02  0.45594000000E+02  0.51100000000E-03 0. -1.
         11   -1    0    0    0    0 -0.00000000000E+00 -0.00000000000E+00 -0.45593999997E+02  0.45594000000E+02  0.51100000000E-03 0.  1.
         23    2    1    2    0    0  0.00000000000E+00  0.71054273576E-14 -0.88817841970E-15  0.91188000000E+02  0.91188000000E+02 0.  0.
    9900012    2    3    3    0    0  0.11719393974E+02  0.34282086758E+02  0.65707368208E+01  0.54367078638E+02  0.39999987371E+02 0.  0.
        -12    1    3    3    0    0 -0.11719393974E+02 -0.34282086758E+02 -0.65707368208E+01  0.36820921362E+02  0.00000000000E+00 0.  1.
         11    1    4    4    0    0  0.96911744486E+01  0.13823396406E+02  0.10620695782E+02  0.19945032703E+02  0.51100000000E-03 0. -1.
        -11    1    4    4    0    0  0.96333943998E+01  0.23917144444E+02 -0.23051079770E+01  0.25887170743E+02  0.51100000000E-03 0.  1.
         12    1    4    4    0    0 -0.76051748746E+01 -0.34584540919E+01 -0.17448509843E+01  0.85348751916E+01  0.00000000000E+00 0. -1.
</event>
<event>
 8    1  0.3137106E-007  0.9118800E+02  0.7816164E-02  0.1184000E+00
        -11   -1    0    0    0    0  0.00000000000E+00  0.00000000000E+00  0.45593999997E+02  0.45594000000E+02  0.51100000000E-03 0. -1.
         11   -1    0    0    0    0 -0.00000000000E+00 -0.00000000000E+00 -0.45593999997E+02  0.45594000000E+02  0.51100000000E-03 0.  1.
         23    2    1    2    0    0  0.00000000000E+00 -0.88817841970E-15  0.71054273576E-14  0.91188000000E+02  0.91188000000E+02 0.  0.
    9900012    2    3    3    0    0  0.91144867017E+01 -0.79100284430E+01 -0.34787038242E+02  0.54367075956E+02  0.39999981256E+02 0.  0.
         12    1    3    3    0    0 -0.91144867017E+01  0.79100284430E+01  0.34787038242E+02  0.36820924044E+02  0.00000000000E+00 0. -1.
         11    1    4    4    0    0  0.69381579092E+01  0.71871211071E+01 -0.62955537672E+01  0.11807910166E+02  0.51100000000E-03 0.  1.
        -11    1    4    4    0    0 -0.67783787736E+01 -0.18726032327E+02 -0.25678205391E+02  0.32495860319E+02  0.51100000000E-03 0. -1.
         12    1    4    4    0    0  0.89547075660E+01  0.36288827772E+01 -0.28132790845E+01  0.10063305471E+02  0.00000000000E+00 0. -1.
</event>
<event>
 8    1  0.3137106E-007  0.9118800E+02  0.7816164E-02  0.1184000E+00
        -11   -1    0    0    0    0  0.00000000000E+00  0.00000000000E+00  0.45593999997E+02  0.45594000000E+02  0.51100000000E-03 0.  1.
         11   -1    0    0    0    0 -0.00000000000E+00 -0.00000000000E+00 -0.45593999997E+02  0.45594000000E+02  0.51100000000E-03 0. -1.
         23    2    1    2    0    0  0.00000000000E+00  0.44408920985E-15 -0.71054273576E-14  0.91188000000E+02  0.91188000000E+02 0.  0.
    9900012    2    3    3    0    0  0.57872900677E+01  0.38532885431E+01 -0.36158529799E+02  0.54367084257E+02  0.40000000181E+02 0.  0.
        -12    1    3    3    0    0 -0.57872900677E+01 -0.38532885431E+01  0.36158529799E+02  0.36820915743E+02  0.00000000000E+00 0.  1.
         11    1    4    4    0    0 -0.21462575562E+00  0.75917697041E+01 -0.31038159120E+02  0.31953847237E+02  0.51100000000E-03 0. -1.
        -11    1    4    4    0    0  0.13427275125E+01  0.82797472553E+01 -0.44758283905E+01  0.95073746022E+01  0.51100000000E-03 0.  1.
         12    1    4    4    0    0  0.46591883109E+01 -0.12018228416E+02 -0.64454228869E+00  0.12905862418E+02  0.00000000000E+00 0. -1.
</event>
<event>
 8    1  0.3137106E-007  0.9118800E+02  0.7816164E-02  0.1184000E+00
        -11   -1    0    0    0    0  0.00000000000E+00  0.00000000000E+00  0.45593999997E+02  0.45594000000E+02  0.51100000000E-03 0. -1.
         11   -1    0    0    0    0 -0.00000000000E+00 -0.00000000000E+00 -0.45593999997E+02  0.45594000000E+02  0.51100000000E-03 0.  1.
         23    2    1    2    0    0  0.35527136788E-14  0.00000000000E+00  0.00000000000E+00  0.91188000000E+02  0.91188000000E+02 0.  0.
    9900012    2    3    3    0    0 -0.27477795132E+02  0.13430985135E+02 -0.20502575837E+02  0.54367133593E+02  0.40000112651E+02 0.  0.
         12    1    3    3    0    0  0.27477795132E+02 -0.13430985135E+02  0.20502575837E+02  0.36820866407E+02  0.00000000000E+00 0. -1.
         11    1    4    4    0    0 -0.33530999778E+01  0.22893085613E+02 -0.47512155189E+01  0.23620133308E+02  0.51100000000E-03 0. -1.
        -11    1    4    4    0    0 -0.14578263198E+01 -0.19081956100E+01 -0.67073071788E+00  0.24932605202E+01  0.51100000000E-03 0.  1.
         12    1    4    4    0    0 -0.22666868834E+02 -0.75539048673E+01 -0.15080629601E+02  0.28253739764E+02  0.00000000000E+00 0. -1.
</event>
<event>
 8    1  0.3137106E-007  0.9118800E+02  0.7816164E-02  0.1184000E+00
        -11   -1    0    0    0    0  0.00000000000E+00  0.00000000000E+00  0.45593999997E+02  0.45594000000E+02  0.51100000000E-03 0.  1.
         11   -1    0    0    0    0 -0.00000000000E+00 -0.00000000000E+00 -0.45593999997E+02  0.45594000000E+02  0.51100000000E-03 0. -1.
         23    2    1    2    0    0  0.00000000000E+00  0.00000000000E+00  0.00000000000E+00  0.91188000000E+02  0.91188000000E+02 0.  0.
    9900012    2    3    3    0    0 -0.86952095950E+01 -0.14164693563E+02 -0.32856276681E+02  0.54367080253E+02  0.39999991054E+02 0.  0.
        -12    1    3    3    0    0  0.86952095950E+01  0.14164693563E+02  0.32856276681E+02  0.36820919747E+02  0.00000000000E+00 0.  1.
         11    1    4    4    0    0 -0.24630029945E+01  0.12340278883E+02 -0.32133445852E+01  0.12987472824E+02  0.51100000000E-03 0. -1.
        -11    1    4    4    0    0 -0.38565946549E+01 -0.43871160901E+01 -0.10573391421E+02  0.12079599179E+02  0.51100000000E-03 0.  1.
        -12    1    4    4    0    0 -0.23756119456E+01 -0.22117856357E+02 -0.19069540675E+02  0.29300008251E+02  0.00000000000E+00 0.  1.
</event>
<event>
 8    1  0.3137106E-007  0.9118800E+02  0.7816164E-02  0.1184000E+00
        -11   -1    0    0    0    0  0.00000000000E+00  0.00000000000E+00  0.45593999997E+02  0.45594000000E+02  0.51100000000E-03 0. -1.
         11   -1    0    0    0    0 -0.00000000000E+00 -0.00000000000E+00 -0.45593999997E+02  0.45594000000E+02  0.51100000000E-03 0.  1.
         23    2    1    2    0    0 -0.35527136788E-14  0.00000000000E+00  0.00000000000E+00  0.91188000000E+02  0.91188000000E+02 0.  0.
    9900012    2    3    3    0    0 -0.17059476861E+02 -0.26856827608E+02  0.18532797356E+02  0.54367088580E+02  0.40000010036E+02 0.  0.
        -12    1    3    3    0    0  0.17059476861E+02  0.26856827608E+02 -0.18532797356E+02  0.36820911420E+02  0.00000000000E+00 0.  1.
         11    1    4    4    0    0  0.18545408837E+01 -0.18224399790E+02 -0.32058014567E+00  0.18321322045E+02  0.51100000000E-03 0. -1.
        -11    1    4    4    0    0 -0.43833666158E+01 -0.93244774404E+00  0.19080238237E+02  0.19599460531E+02  0.51100000000E-03 0.  1.
        -12    1    4    4    0    0 -0.14530651129E+02 -0.76999800742E+01 -0.22686073459E+00  0.16446306004E+02  0.00000000000E+00 0.  1.
</event>
<event>
 8    1  0.3137106E-007  0.9118800E+02  0.7816164E-02  0.1184000E+00
        -11   -1    0    0    0    0  0.00000000000E+00  0.00000000000E+00  0.45593999997E+02  0.45594000000E+02  0.51100000000E-03 0.  1.
         11   -1    0    0    0    0 -0.00000000000E+00 -0.00000000000E+00 -0.45593999997E+02  0.45594000000E+02  0.51100000000E-03 0. -1.
         23    2    1    2    0    0  0.00000000000E+00  0.44408920985E-15  0.00000000000E+00  0.91188000000E+02  0.91188000000E+02 0.  0.
    9900012    2    3    3    0    0 -0.27995208868E+02  0.32741677921E+01  0.23692354040E+02  0.54367088357E+02  0.40000009528E+02 0.  0.
        -12    1    3    3    0    0  0.27995208868E+02 -0.32741677921E+01 -0.23692354040E+02  0.36820911643E+02  0.00000000000E+00 0.  1.
         11    1    4    4    0    0  0.88767217703E+00  0.21912794171E+01 -0.24913933121E+01  0.34346336449E+01  0.51100000000E-03 0.  1.
        -11    1    4    4    0    0 -0.32204808136E+02  0.76771905007E+01  0.27964400718E+02  0.43337012228E+02  0.51100000000E-03 0. -1.
         12    1    4    4    0    0  0.33219270913E+01 -0.65943021258E+01 -0.17806533658E+01  0.75954424845E+01  0.00000000000E+00 0. -1.
</event>
<event>
 8    1  0.3137106E-007  0.9118800E+02  0.7816164E-02  0.1184000E+00
        -11   -1    0    0    0    0  0.00000000000E+00  0.00000000000E+00  0.45593999997E+02  0.45594000000E+02  0.51100000000E-03 0.  1.
         11   -1    0    0    0    0 -0.00000000000E+00 -0.00000000000E+00 -0.45593999997E+02  0.45594000000E+02  0.51100000000E-03 0. -1.
         23    2    1    2    0    0  0.17763568394E-14 -0.17763568394E-14  0.71054273576E-14  0.91188000000E+02  0.91188000000E+02 0.  0.
    9900012    2    3    3    0    0  0.12395333685E+02 -0.11417998694E+02  0.32737821871E+02  0.54367082409E+02  0.39999995968E+02 0.  0.
         12    1    3    3    0    0 -0.12395333685E+02  0.11417998694E+02 -0.32737821871E+02  0.36820917591E+02  0.00000000000E+00 0. -1.
         11    1    4    4    0    0 -0.17200501999E+01  0.97134345119E+01  0.21181248871E+02  0.23365673256E+02  0.51100000000E-03 0. -1.
        -11    1    4    4    0    0 -0.13969671909E+01 -0.18110403015E+01 -0.17474195864E+01  0.28783432349E+01  0.51100000000E-03 0.  1.
        -12    1    4    4    0    0  0.15512351076E+02 -0.19320392905E+02  0.13303992586E+02  0.28123065918E+02  0.00000000000E+00 0.  1.
</event>
<event>
 8    1  0.3137106E-007  0.9118800E+02  0.7816164E-02  0.1184000E+00
        -11   -1    0    0    0    0  0.00000000000E+00  0.00000000000E+00  0.45593999997E+02  0.45594000000E+02  0.51100000000E-03 0. -1.
         11   -1    0    0    0    0 -0.00000000000E+00 -0.00000000000E+00 -0.45593999997E+02  0.45594000000E+02  0.51100000000E-03 0.  1.
         23    2    1    2    0    0 -0.88817841970E-15  0.00000000000E+00 -0.71054273576E-14  0.91188000000E+02  0.91188000000E+02 0.  0.
    9900012    2    3    3    0    0 -0.58475885631E+01  0.33244071199E+01 -0.36201292763E+02  0.54367087838E+02  0.40000008345E+02 0.  0.
         12    1    3    3    0    0  0.58475885631E+01 -0.33244071199E+01  0.36201292763E+02  0.36820912162E+02  0.00000000000E+00 0. -1.
         11    1    4    4    0    0 -0.55134877382E+01 -0.16814989313E+02 -0.24322034382E+02  0.30078293990E+02  0.51100000000E-03 0. -1.
        -11    1    4    4    0    0  0.24396487031E+01  0.13980710260E+02 -0.62976134074E+01  0.15526496065E+02  0.51100000000E-03 0.  1.
        -12    1    4    4    0    0 -0.27737495280E+01  0.61586861726E+01 -0.55816449737E+01  0.87622977824E+01  0.00000000000E+00 0.  1.
</event>
<event>
 8    1  0.3137106E-007  0.9118800E+02  0.7816164E-02  0.1184000E+00
        -11   -1    0    0    0    0  0.00000000000E+00  0.00000000000E+00  0.45593999997E+02  0.45594000000E+02  0.51100000000E-03 0.  1.
         11   -1    0    0    0    0 -0.00000000000E+00 -0.00000000000E+00 -0.45593999997E+02  0.45594000000E+02  0.51100000000E-03 0. -1.
         23    2    1    2    0    0 -0.71054273576E-14 -0.26645352591E-14  0.35527136788E-14  0.91188000000E+02  0.91188000000E+02 0.  0.
    9900012    2    3    3    0    0 -0.27817248615E+02  0.53292000139E+01 -0.23528303655E+02  0.54367071628E+02  0.39999971390E+02 0.  0.
        -12    1    3    3    0    0  0.27817248615E+02 -0.53292000139E+01  0.23528303655E+02  0.36820928372E+02  0.00000000000E+00 0.  1.
         11    1    4    4    0    0 -0.31238748076E+01 -0.18136826406E+01 -0.88842581250E+01  0.95905203836E+01  0.51100000000E-03 0. -1.
        -11    1    4    4    0    0 -0.31882108152E+02  0.11507499117E+02 -0.11364135399E+02  0.35749614400E+02  0.51100000000E-03 0.  1.
         12    1    4    4    0    0  0.71887343436E+01 -0.43646164626E+01 -0.32799101303E+01  0.90269368443E+01  0.00000000000E+00 0. -1.
</event>
<event>
 8    1  0.3137106E-007  0.9118800E+02  0.7816164E-02  0.1184000E+00
        -11   -1    0    0    0    0  0.00000000000E+00  0.00000000000E+00  0.45593999997E+02  0.45594000000E+02  0.51100000000E-03 0. -1.
         11   -1    0    0    0    0 -0.00000000000E+00 -0.00000000000E+00 -0.45593999997E+02  0.45594000000E+02  0.51100000000E-03 0.  1.
         23    2    1    2    0    0  0.00000000000E+00  0.00000000000E+00  0.13322676296E-14  0.91188000000E+02  0.91188000000E+02 0.  0.
    9900012    2    3    3    0    0 -0.81172663073E+01  0.35829543340E+02 -0.24772555423E+01  0.54367041522E+02  0.39999902757E+02 0.  0.
        -12    1    3    3    0    0  0.81172663073E+01 -0.35829543340E+02  0.24772555423E+01  0.36820958478E+02  0.00000000000E+00 0.  1.
         11    1    4    4    0    0 -0.62526364831E+01  0.14840819682E+02 -0.11868347252E+02  0.20005075820E+02  0.51100000000E-03 0.  1.
        -11    1    4    4    0    0 -0.86858012437E+01  0.53610060816E+01 -0.56134126232E+01  0.11648773798E+02  0.51100000000E-03 0. -1.
         12    1    4    4    0    0  0.68211714196E+01  0.15627717576E+02  0.15004504333E+02  0.22713191904E+02  0.00000000000E+00 0. -1.
</event>
<event>
 8    1  0.3137106E-007  0.9118800E+02  0.7816164E-02  0.1184000E+00
        -11   -1    0    0    0    0  0.00000000000E+00  0.00000000000E+00  0.45593999997E+02  0.45594000000E+02  0.51100000000E-03 0. -1.
         11   -1    0    0    0    0 -0.00000000000E+00 -0.00000000000E+00 -0.45593999997E+02  0.45594000000E+02  0.51100000000E-03 0.  1.
         23    2    1    2    0    0  0.00000000000E+00  0.00000000000E+00  0.00000000000E+00  0.91188000000E+02  0.91188000000E+02 0.  0.
    9900012    2    3    3    0    0  0.17752457007E+02  0.34241949578E+01 -0.32076526111E+02  0.54367104190E+02  0.40000045621E+02 0.  0.
         12    1    3    3    0    0 -0.17752457007E+02 -0.34241949578E+01  0.32076526111E+02  0.36820895810E+02  0.00000000000E+00 0. -1.
         11    1    4    4    0    0  0.81960742586E+00  0.12135827742E+02 -0.10514762169E+02  0.16078255348E+02  0.51100000000E-03 0. -1.
        -11    1    4    4    0    0  0.12008015157E+02  0.49915571266E+00 -0.24627424555E+02  0.27403496582E+02  0.51100000000E-03 0.  1.
         12    1    4    4    0    0  0.49248344245E+01 -0.92107884964E+01  0.30656606126E+01  0.10885352260E+02  0.00000000000E+00 0. -1.
</event>
<event>
 8    1  0.3137106E-007  0.9118800E+02  0.7816164E-02  0.1184000E+00
        -11   -1    0    0    0    0  0.00000000000E+00  0.00000000000E+00  0.45593999997E+02  0.45594000000E+02  0.51100000000E-03 0. -1.
         11   -1    0    0    0    0 -0.00000000000E+00 -0.00000000000E+00 -0.45593999997E+02  0.45594000000E+02  0.51100000000E-03 0.  1.
         23    2    1    2    0    0  0.17763568394E-14  0.00000000000E+00  0.00000000000E+00  0.91188000000E+02  0.91188000000E+02 0.  0.
    9900012    2    3    3    0    0  0.10528681150E+02 -0.35220617109E+02  0.21057836665E+01  0.54367091251E+02  0.40000016125E+02 0.  0.
        -12    1    3    3    0    0 -0.10528681150E+02  0.35220617109E+02 -0.21057836665E+01  0.36820908749E+02  0.00000000000E+00 0.  1.
         11    1    4    4    0    0 -0.96291951113E+01 -0.14690559765E+01  0.76728331621E+01  0.12399673098E+02  0.51100000000E-03 0. -1.
        -11    1    4    4    0    0  0.21487014941E+02 -0.29629165811E+02 -0.25502842640E+01  0.36689006907E+02  0.51100000000E-03 0.  1.
         12    1    4    4    0    0 -0.13291386801E+01 -0.41223953209E+01 -0.30167652316E+01  0.52784112454E+01  0.00000000000E+00 0. -1.
</event>
<event>
 8    1  0.3137106E-007  0.9118800E+02  0.7816164E-02  0.1184000E+00
        -11   -1    0    0    0    0  0.00000000000E+00  0.00000000000E+00  0.45593999997E+02  0.45594000000E+02  0.51100000000E-03 0. -1.
         11   -1    0    0    0    0 -0.00000000000E+00 -0.00000000000E+00 -0.45593999997E+02  0.45594000000E+02  0.51100000000E-03 0.  1.
         23    2    1    2    0    0  0.17763568394E-14 -0.35527136788E-14  0.00000000000E+00  0.91188000000E+02  0.91188000000E+02 0.  0.
    9900012    2    3    3    0    0  0.80303595618E+01 -0.20539333559E+02  0.29486083446E+02  0.54367081832E+02  0.39999994653E+02 0.  0.
        -12    1    3    3    0    0 -0.80303595618E+01  0.20539333559E+02 -0.29486083446E+02  0.36820918168E+02  0.00000000000E+00 0.  1.
         11    1    4    4    0    0  0.17157250744E+02 -0.83762095162E+01  0.16105293211E+02  0.24978242705E+02  0.51100000000E-03 0. -1.
        -11    1    4    4    0    0 -0.72512129367E+01 -0.16820232665E+02  0.39990064752E+01  0.18748129747E+02  0.51100000000E-03 0.  1.
         12    1    4    4    0    0 -0.18756782456E+01  0.46571086227E+01  0.93817837592E+01  0.10640709380E+02  0.00000000000E+00 0. -1.
</event>
<event>
 8    1  0.3137106E-007  0.9118800E+02  0.7816164E-02  0.1184000E+00
        -11   -1    0    0    0    0  0.00000000000E+00  0.00000000000E+00  0.45593999997E+02  0.45594000000E+02  0.51100000000E-03 0.  1.
         11   -1    0    0    0    0 -0.00000000000E+00 -0.00000000000E+00 -0.45593999997E+02  0.45594000000E+02  0.51100000000E-03 0. -1.
         23    2    1    2    0    0  0.00000000000E+00  0.00000000000E+00  0.00000000000E+00  0.91188000000E+02  0.91188000000E+02 0.  0.
    9900012    2    3    3    0    0 -0.27631683608E+01  0.70830079604E+01  0.36027434186E+02  0.54367080468E+02  0.39999991542E+02 0.  0.
         12    1    3    3    0    0  0.27631683608E+01 -0.70830079604E+01 -0.36027434186E+02  0.36820919532E+02  0.00000000000E+00 0. -1.
         11    1    4    4    0    0 -0.78733782549E+01  0.12833145728E+02  0.25319317846E+02  0.29457555413E+02  0.51100000000E-03 0. -1.
        -11    1    4    4    0    0  0.22333383016E+01  0.62868795086E+01 -0.22017672141E+01  0.70256980472E+01  0.51100000000E-03 0.  1.
        -12    1    4    4    0    0  0.28768715925E+01 -0.12037017276E+02  0.12909883554E+02  0.17883827008E+02  0.00000000000E+00 0.  1.
</event>
<event>
 8    1  0.3137106E-007  0.9118800E+02  0.7816164E-02  0.1184000E+00
        -11   -1    0    0    0    0  0.00000000000E+00  0.00000000000E+00  0.45593999997E+02  0.45594000000E+02  0.51100000000E-03 0.  1.
         11   -1    0    0    0    0 -0.00000000000E+00 -0.00000000000E+00 -0.45593999997E+02  0.45594000000E+02  0.51100000000E-03 0. -1.
         23    2    1    2    0    0 -0.17763568394E-14  0.00000000000E+00  0.00000000000E+00  0.91188000000E+02  0.91188000000E+02 0.  0.
    9900012    2    3    3    0    0 -0.12895539854E+02  0.11670709106E+02  0.32454273936E+02  0.54367078014E+02  0.39999985949E+02 0.  0.
         12    1    3    3    0    0  0.12895539854E+02 -0.11670709106E+02 -0.32454273936E+02  0.36820921986E+02  0.00000000000E+00 0. -1.
         11    1    4    4    0    0  0.38237945560E+01  0.41036341917E+01 -0.36266233739E+01  0.66793424634E+01  0.51100000000E-03 0. -1.
        -11    1    4    4    0    0 -0.20560769502E+02  0.51536967028E+01  0.14613142671E+02  0.25745869012E+02  0.51100000000E-03 0.  1.
        -12    1    4    4    0    0  0.38414350917E+01  0.24133782118E+01  0.21467754639E+02  0.21941866538E+02  0.00000000000E+00 0.  1.
</event>
<event>
 8    1  0.3137106E-007  0.9118800E+02  0.7816164E-02  0.1184000E+00
        -11   -1    0    0    0    0  0.00000000000E+00  0.00000000000E+00  0.45593999997E+02  0.45594000000E+02  0.51100000000E-03 0. -1.
         11   -1    0    0    0    0 -0.00000000000E+00 -0.00000000000E+00 -0.45593999997E+02  0.45594000000E+02  0.51100000000E-03 0.  1.
         23    2    1    2    0    0  0.00000000000E+00  0.44408920985E-15 -0.35527136788E-14  0.91188000000E+02  0.91188000000E+02 0.  0.
    9900012    2    3    3    0    0  0.19288659716E+02  0.38044465855E+01 -0.31132768110E+02  0.54367143714E+02  0.40000135725E+02 0.  0.
         12    1    3    3    0    0 -0.19288659716E+02 -0.38044465855E+01  0.31132768110E+02  0.36820856286E+02  0.00000000000E+00 0. -1.
         11    1    4    4    0    0  0.15732640293E+01  0.21931048826E+01 -0.87424985317E+00  0.28371079991E+01  0.51100000000E-03 0. -1.
        -11    1    4    4    0    0 -0.10522766831E+02  0.62209573194E+01 -0.44835627582E+01  0.13020417313E+02  0.51100000000E-03 0.  1.
        -12    1    4    4    0    0  0.28238162517E+02 -0.46096156165E+01 -0.25774955499E+02  0.38509618402E+02  0.00000000000E+00 0.  1.
</event>
<event>
 8    1  0.3137106E-007  0.9118800E+02  0.7816164E-02  0.1184000E+00
        -11   -1    0    0    0    0  0.00000000000E+00  0.00000000000E+00  0.45593999997E+02  0.45594000000E+02  0.51100000000E-03 0.  1.
         11   -1    0    0    0    0 -0.00000000000E+00 -0.00000000000E+00 -0.45593999997E+02  0.45594000000E+02  0.51100000000E-03 0. -1.
         23    2    1    2    0    0  0.00000000000E+00  0.00000000000E+00  0.00000000000E+00  0.91188000000E+02  0.91188000000E+02 0.  0.
    9900012    2    3    3    0    0  0.17174202135E+02  0.32337860327E+02 -0.38844234970E+01  0.54367093230E+02  0.40000020636E+02 0.  0.
         12    1    3    3    0    0 -0.17174202135E+02 -0.32337860327E+02  0.38844234970E+01  0.36820906770E+02  0.00000000000E+00 0. -1.
         11    1    4    4    0    0  0.84081451356E+01  0.21424030893E+02  0.52487243588E+01  0.23605827924E+02  0.51100000000E-03 0. -1.
        -11    1    4    4    0    0  0.67439767959E+01  0.12745099273E+01  0.82805919951E+01  0.10755175621E+02  0.51100000000E-03 0.  1.
        -12    1    4    4    0    0  0.20220802031E+01  0.96393195061E+01 -0.17413739851E+02  0.20006089685E+02  0.00000000000E+00 0.  1.
</event>
<event>
 8    1  0.3137106E-007  0.9118800E+02  0.7816164E-02  0.1184000E+00
        -11   -1    0    0    0    0  0.00000000000E+00  0.00000000000E+00  0.45593999997E+02  0.45594000000E+02  0.51100000000E-03 0. -1.
         11   -1    0    0    0    0 -0.00000000000E+00 -0.00000000000E+00 -0.45593999997E+02  0.45594000000E+02  0.51100000000E-03 0.  1.
         23    2    1    2    0    0  0.00000000000E+00  0.00000000000E+00 -0.88817841970E-15  0.91188000000E+02  0.91188000000E+02 0.  0.
    9900012    2    3    3    0    0  0.13441309192E+02  0.33885035856E+02  0.51878528884E+01  0.54367105587E+02  0.40000048807E+02 0.  0.
         12    1    3    3    0    0 -0.13441309192E+02 -0.33885035856E+02 -0.51878528884E+01  0.36820894413E+02  0.00000000000E+00 0. -1.
         11    1    4    4    0    0  0.13110924378E+02  0.21224132078E+02  0.14305030926E+02  0.28757503900E+02  0.51100000000E-03 0. -1.
        -11    1    4    4    0    0  0.17824068253E+01  0.91725972132E+01  0.52745958693E+01  0.10730092058E+02  0.51100000000E-03 0.  1.
         12    1    4    4    0    0 -0.14520220109E+01  0.34883065652E+01 -0.14391773907E+02  0.14879509630E+02  0.00000000000E+00 0. -1.
</event>
<event>
 8    1  0.3137106E-007  0.9118800E+02  0.7816164E-02  0.1184000E+00
        -11   -1    0    0    0    0  0.00000000000E+00  0.00000000000E+00  0.45593999997E+02  0.45594000000E+02  0.51100000000E-03 0.  1.
         11   -1    0    0    0    0 -0.00000000000E+00 -0.00000000000E+00 -0.45593999997E+02  0.45594000000E+02  0.51100000000E-03 0. -1.
         23    2    1    2    0    0  0.00000000000E+00  0.00000000000E+00 -0.17763568394E-14  0.91188000000E+02  0.91188000000E+02 0.  0.
    9900012    2    3    3    0    0 -0.24016630886E+02 -0.23445787337E+02  0.15141688344E+02  0.54367160400E+02  0.40000173763E+02 0.  0.
        -12    1    3    3    0    0  0.24016630886E+02  0.23445787337E+02 -0.15141688344E+02  0.36820839600E+02  0.00000000000E+00 0.  1.
         11    1    4    4    0    0 -0.51425866295E+01 -0.12823968200E+02  0.13599396181E+02  0.19386694777E+02  0.51100000000E-03 0. -1.
        -11    1    4    4    0    0  0.29317605090E+00 -0.12557336131E+02  0.77272048000E+01  0.14747282366E+02  0.51100000000E-03 0.  1.
         12    1    4    4    0    0 -0.19167220307E+02  0.19355169935E+01 -0.61849126378E+01  0.20233183256E+02  0.00000000000E+00 0. -1.
</event>
<event>
 8    1  0.3137106E-007  0.9118800E+02  0.7816164E-02  0.1184000E+00
        -11   -1    0    0    0    0  0.00000000000E+00  0.00000000000E+00  0.45593999997E+02  0.45594000000E+02  0.51100000000E-03 0.  1.
         11   -1    0    0    0    0 -0.00000000000E+00 -0.00000000000E+00 -0.45593999997E+02  0.45594000000E+02  0.51100000000E-03 0. -1.
         23    2    1    2    0    0  0.17763568394E-14  0.00000000000E+00 -0.17763568394E-14  0.91188000000E+02  0.91188000000E+02 0.  0.
    9900012    2    3    3    0    0 -0.22297429013E+01 -0.35590017316E+02  0.91737954875E+01  0.54367087333E+02  0.40000007193E+02 0.  0.
        -12    1    3    3    0    0  0.22297429013E+01  0.35590017316E+02 -0.91737954875E+01  0.36820912667E+02  0.00000000000E+00 0.  1.
         11    1    4    4    0    0  0.11755400396E+02 -0.21786359056E+02  0.32282630234E+00  0.24757606840E+02  0.51100000000E-03 0. -1.
        -11    1    4    4    0    0  0.38150947495E+01 -0.41516327782E+01 -0.27497183311E+01  0.62731135678E+01  0.51100000000E-03 0.  1.
        -12    1    4    4    0    0 -0.17800238046E+02 -0.96520254819E+01  0.11600687516E+02  0.23336366925E+02  0.00000000000E+00 0.  1.
</event>
<event>
 8    1  0.3137106E-007  0.9118800E+02  0.7816164E-02  0.1184000E+00
        -11   -1    0    0    0    0  0.00000000000E+00  0.00000000000E+00  0.45593999997E+02  0.45594000000E+02  0.51100000000E-03 0. -1.
         11   -1    0    0    0    0 -0.00000000000E+00 -0.00000000000E+00 -0.45593999997E+02  0.45594000000E+02  0.51100000000E-03 0.  1.
         23    2    1    2    0    0  0.22204460493E-15  0.35527136788E-14 -0.71054273576E-14  0.91188000000E+02  0.91188000000E+02 0.  0.
    9900012    2    3    3    0    0 -0.11587038060E+01 -0.14823141206E+02  0.33685480552E+02  0.54367085973E+02  0.40000004093E+02 0.  0.
        -12    1    3    3    0    0  0.11587038060E+01  0.14823141206E+02 -0.33685480552E+02  0.36820914027E+02  0.00000000000E+00 0.  1.
         11    1    4    4    0    0 -0.86062125043E+01 -0.17474248731E+02  0.75349130073E+00  0.19493178596E+02  0.51100000000E-03 0. -1.
        -11    1    4    4    0    0  0.59217451269E+01  0.40374639808E+01  0.13077848925E+02  0.14913024962E+02  0.51100000000E-03 0.  1.
        -12    1    4    4    0    0  0.15257635714E+01 -0.13863564565E+01  0.19854140327E+02  0.19960882416E+02  0.00000000000E+00 0.  1.
</event>
<event>
 8    1  0.3137106E-007  0.9118800E+02  0.7816164E-02  0.1184000E+00
        -11   -1    0    0    0    0  0.00000000000E+00  0.00000000000E+00  0.45593999997E+02  0.45594000000E+02  0.51100000000E-03 0.  1.
         11   -1    0    0    0    0 -0.00000000000E+00 -0.00000000000E+00 -0.45593999997E+02  0.45594000000E+02  0.51100000000E-03 0. -1.
         23    2    1    2    0    0 -0.71054273576E-14  0.35527136788E-14 -0.17763568394E-14  0.91188000000E+02  0.91188000000E+02 0.  0.
    9900012    2    3    3    0    0 -0.28246581906E+02  0.20803610011E+02 -0.11185685802E+02  0.54367093632E+02  0.40000021553E+02 0.  0.
         12    1    3    3    0    0  0.28246581906E+02 -0.20803610011E+02  0.11185685802E+02  0.36820906368E+02  0.00000000000E+00 0. -1.
         11    1    4    4    0    0 -0.58562372635E+01  0.97991235307E+01 -0.17585505577E+02  0.20965885231E+02  0.51100000000E-03 0. -1.
        -11    1    4    4    0    0 -0.21773198893E+02  0.16455501890E+02  0.55341416618E+01  0.27847485644E+02  0.51100000000E-03 0.  1.
        -12    1    4    4    0    0 -0.61714574963E+00 -0.54510154094E+01  0.86567811292E+00  0.55537227573E+01  0.00000000000E+00 0.  1.
</event>
<event>
 8    1  0.3137106E-007  0.9118800E+02  0.7816164E-02  0.1184000E+00
        -11   -1    0    0    0    0  0.00000000000E+00  0.00000000000E+00  0.45593999997E+02  0.45594000000E+02  0.51100000000E-03 0.  1.
         11   -1    0    0    0    0 -0.00000000000E+00 -0.00000000000E+00 -0.45593999997E+02  0.45594000000E+02  0.51100000000E-03 0. -1.
         23    2    1    2    0    0  0.00000000000E+00 -0.35527136788E-14  0.00000000000E+00  0.91188000000E+02  0.91188000000E+02 0.  0.
    9900012    2    3    3    0    0 -0.59352688292E+01  0.31517142068E+02  0.18089269104E+02  0.54367091308E+02  0.40000016255E+02 0.  0.
         12    1    3    3    0    0  0.59352688292E+01 -0.31517142068E+02 -0.18089269104E+02  0.36820908692E+02  0.00000000000E+00 0. -1.
         11    1    4    4    0    0 -0.51061609872E+01 -0.76740616680E+01  0.71363909424E+01  0.11657280063E+02  0.51100000000E-03 0.  1.
        -11    1    4    4    0    0 -0.48052801282E+00  0.40105351399E+02  0.99824872615E+01  0.41331829988E+02  0.51100000000E-03 0. -1.
         12    1    4    4    0    0 -0.34857982914E+00 -0.91414766301E+00  0.97039089980E+00  0.13779812573E+01  0.00000000000E+00 0. -1.
</event>
<event>
 8    1  0.3137106E-007  0.9118800E+02  0.7816164E-02  0.1184000E+00
        -11   -1    0    0    0    0  0.00000000000E+00  0.00000000000E+00  0.45593999997E+02  0.45594000000E+02  0.51100000000E-03 0.  1.
         11   -1    0    0    0    0 -0.00000000000E+00 -0.00000000000E+00 -0.45593999997E+02  0.45594000000E+02  0.51100000000E-03 0. -1.
         23    2    1    2    0    0  0.00000000000E+00  0.17763568394E-14 -0.17763568394E-14  0.91188000000E+02  0.91188000000E+02 0.  0.
    9900012    2    3    3    0    0  0.33350847937E+02 -0.89480766057E+01  0.12784080269E+02  0.54367084186E+02  0.40000000020E+02 0.  0.
         12    1    3    3    0    0 -0.33350847937E+02  0.89480766057E+01 -0.12784080269E+02  0.36820915814E+02  0.00000000000E+00 0. -1.
         11    1    4    4    0    0  0.35266756705E+01 -0.16942805780E+02  0.15222923574E+02  0.23048503452E+02  0.51100000000E-03 0.  1.
        -11    1    4    4    0    0  0.10024016656E+02  0.19971478319E+01 -0.29013190997E+01  0.10624837042E+02  0.51100000000E-03 0. -1.
        -12    1    4    4    0    0  0.19800155610E+02  0.59975813425E+01  0.46247579438E+00  0.20693743692E+02  0.00000000000E+00 0.  1.
</event>
<event>
 8    1  0.3137106E-007  0.9118800E+02  0.7816164E-02  0.1184000E+00
        -11   -1    0    0    0    0  0.00000000000E+00  0.00000000000E+00  0.45593999997E+02  0.45594000000E+02  0.51100000000E-03 0.  1.
         11   -1    0    0    0    0 -0.00000000000E+00 -0.00000000000E+00 -0.45593999997E+02  0.45594000000E+02  0.51100000000E-03 0. -1.
         23    2    1    2    0    0  0.00000000000E+00  0.00000000000E+00  0.88817841970E-15  0.91188000000E+02  0.91188000000E+02 0.  0.
    9900012    2    3    3    0    0  0.32059684862E+02  0.17108854403E+02  0.59366292810E+01  0.54367083938E+02  0.39999999453E+02 0.  0.
         12    1    3    3    0    0 -0.32059684862E+02 -0.17108854403E+02 -0.59366292810E+01  0.36820916062E+02  0.00000000000E+00 0. -1.
         11    1    4    4    0    0  0.10752416356E+02 -0.73571152526E+01 -0.29275736611E+00  0.13031780748E+02  0.51100000000E-03 0. -1.
        -11    1    4    4    0    0  0.19754563451E+02  0.17938228520E+02 -0.60329070760E+01  0.27357243787E+02  0.51100000000E-03 0.  1.
         12    1    4    4    0    0  0.15527050552E+01  0.65277411362E+01  0.12262293723E+02  0.13978059403E+02  0.00000000000E+00 0. -1.
</event>
<event>
 8    1  0.3137106E-007  0.9118800E+02  0.7816164E-02  0.1184000E+00
        -11   -1    0    0    0    0  0.00000000000E+00  0.00000000000E+00  0.45593999997E+02  0.45594000000E+02  0.51100000000E-03 0.  1.
         11   -1    0    0    0    0 -0.00000000000E+00 -0.00000000000E+00 -0.45593999997E+02  0.45594000000E+02  0.51100000000E-03 0. -1.
         23    2    1    2    0    0  0.00000000000E+00  0.17763568394E-14  0.00000000000E+00  0.91188000000E+02  0.91188000000E+02 0.  0.
    9900012    2    3    3    0    0  0.33248103624E+02  0.15165380221E+02 -0.45107692698E+01  0.54367188069E+02  0.40000236840E+02 0.  0.
         12    1    3    3    0    0 -0.33248103624E+02 -0.15165380221E+02  0.45107692698E+01  0.36820811931E+02  0.00000000000E+00 0. -1.
         11    1    4    4    0    0  0.36485419591E+01  0.11314940350E+02  0.12809347034E+01  0.11957446531E+02  0.51100000000E-03 0. -1.
        -11    1    4    4    0    0  0.28358529664E+02  0.32761938425E+00  0.68934178446E+01  0.29186173936E+02  0.51100000000E-03 0.  1.
         12    1    4    4    0    0  0.12410320010E+01  0.35228204866E+01 -0.12685121818E+02  0.13223567603E+02  0.00000000000E+00 0. -1.
</event>
<event>
 8    1  0.3137106E-007  0.9118800E+02  0.7816164E-02  0.1184000E+00
        -11   -1    0    0    0    0  0.00000000000E+00  0.00000000000E+00  0.45593999997E+02  0.45594000000E+02  0.51100000000E-03 0.  1.
         11   -1    0    0    0    0 -0.00000000000E+00 -0.00000000000E+00 -0.45593999997E+02  0.45594000000E+02  0.51100000000E-03 0. -1.
         23    2    1    2    0    0 -0.35527136788E-14  0.00000000000E+00  0.00000000000E+00  0.91188000000E+02  0.91188000000E+02 0.  0.
    9900012    2    3    3    0    0 -0.19205051297E+02 -0.19128769627E+02  0.24920602099E+02  0.54367078885E+02  0.39999987934E+02 0.  0.
         12    1    3    3    0    0  0.19205051297E+02  0.19128769627E+02 -0.24920602099E+02  0.36820921115E+02  0.00000000000E+00 0. -1.
         11    1    4    4    0    0  0.43325162932E+01 -0.11737577222E+00 -0.26587677704E+01  0.50846357609E+01  0.51100000000E-03 0. -1.
        -11    1    4    4    0    0  0.53042092309E+01 -0.73008060389E+01  0.10245622424E+02  0.13653174851E+02  0.51100000000E-03 0.  1.
        -12    1    4    4    0    0 -0.28841776821E+02 -0.11710587816E+02  0.17333747445E+02  0.35629268273E+02  0.00000000000E+00 0.  1.
</event>
<event>
 8    1  0.3137106E-007  0.9118800E+02  0.7816164E-02  0.1184000E+00
        -11   -1    0    0    0    0  0.00000000000E+00  0.00000000000E+00  0.45593999997E+02  0.45594000000E+02  0.51100000000E-03 0.  1.
         11   -1    0    0    0    0 -0.00000000000E+00 -0.00000000000E+00 -0.45593999997E+02  0.45594000000E+02  0.51100000000E-03 0. -1.
         23    2    1    2    0    0  0.00000000000E+00  0.00000000000E+00  0.35527136788E-14  0.91188000000E+02  0.91188000000E+02 0.  0.
    9900012    2    3    3    0    0  0.25619726410E+02  0.24978798118E+02  0.86873157971E+01  0.54367079418E+02  0.39999989149E+02 0.  0.
         12    1    3    3    0    0 -0.25619726410E+02 -0.24978798118E+02 -0.86873157971E+01  0.36820920582E+02  0.00000000000E+00 0. -1.
         11    1    4    4    0    0  0.96552731901E+01 -0.46735734377E+01 -0.87712006336E+01  0.13856426302E+02  0.51100000000E-03 0. -1.
        -11    1    4    4    0    0  0.52256369025E+01  0.55556796594E+00  0.83394499865E+00  0.53208459218E+01  0.51100000000E-03 0.  1.
         12    1    4    4    0    0  0.10738816317E+02  0.29096803590E+02  0.16624571432E+02  0.35189807194E+02  0.00000000000E+00 0. -1.
</event>
<event>
 8    1  0.3137106E-007  0.9118800E+02  0.7816164E-02  0.1184000E+00
        -11   -1    0    0    0    0  0.00000000000E+00  0.00000000000E+00  0.45593999997E+02  0.45594000000E+02  0.51100000000E-03 0. -1.
         11   -1    0    0    0    0 -0.00000000000E+00 -0.00000000000E+00 -0.45593999997E+02  0.45594000000E+02  0.51100000000E-03 0.  1.
         23    2    1    2    0    0  0.00000000000E+00  0.17763568394E-14  0.00000000000E+00  0.91188000000E+02  0.91188000000E+02 0.  0.
    9900012    2    3    3    0    0  0.35678663854E+02 -0.89434864910E+01 -0.16810336216E+01  0.54367097254E+02  0.40000029810E+02 0.  0.
         12    1    3    3    0    0 -0.35678663854E+02  0.89434864910E+01  0.16810336216E+01  0.36820902746E+02  0.00000000000E+00 0. -1.
         11    1    4    4    0    0  0.95211683392E+00  0.73864968836E+01  0.63451087675E+01  0.97840312862E+01  0.51100000000E-03 0. -1.
        -11    1    4    4    0    0  0.26598460309E+02 -0.37628691681E+01  0.13926924407E+01  0.26899384151E+02  0.51100000000E-03 0.  1.
         12    1    4    4    0    0  0.81280867103E+01 -0.12567114207E+02 -0.94188348299E+01  0.17683681817E+02  0.00000000000E+00 0. -1.
</event>
<event>
 8    1  0.3137106E-007  0.9118800E+02  0.7816164E-02  0.1184000E+00
        -11   -1    0    0    0    0  0.00000000000E+00  0.00000000000E+00  0.45593999997E+02  0.45594000000E+02  0.51100000000E-03 0. -1.
         11   -1    0    0    0    0 -0.00000000000E+00 -0.00000000000E+00 -0.45593999997E+02  0.45594000000E+02  0.51100000000E-03 0.  1.
         23    2    1    2    0    0 -0.44408920985E-15  0.00000000000E+00 -0.88817841970E-15  0.91188000000E+02  0.91188000000E+02 0.  0.
    9900012    2    3    3    0    0  0.34111994425E+01 -0.36284573134E+02  0.52510583507E+01  0.54367080091E+02  0.39999990684E+02 0.  0.
        -12    1    3    3    0    0 -0.34111994425E+01  0.36284573134E+02 -0.52510583507E+01  0.36820919909E+02  0.00000000000E+00 0.  1.
         11    1    4    4    0    0 -0.82921891300E+00  0.18358162694E+01  0.14335947869E+02  0.14476782341E+02  0.51100000000E-03 0. -1.
        -11    1    4    4    0    0  0.36806075333E+01 -0.91664709167E+01 -0.20364080943E+01  0.10085535140E+02  0.51100000000E-03 0.  1.
        -12    1    4    4    0    0  0.55981082217E+00 -0.28953918486E+02 -0.70484814238E+01  0.29804762610E+02  0.00000000000E+00 0.  1.
</event>
<event>
 8    1  0.3137106E-007  0.9118800E+02  0.7816164E-02  0.1184000E+00
        -11   -1    0    0    0    0  0.00000000000E+00  0.00000000000E+00  0.45593999997E+02  0.45594000000E+02  0.51100000000E-03 0.  1.
         11   -1    0    0    0    0 -0.00000000000E+00 -0.00000000000E+00 -0.45593999997E+02  0.45594000000E+02  0.51100000000E-03 0. -1.
         23    2    1    2    0    0  0.00000000000E+00 -0.35527136788E-14  0.00000000000E+00  0.91188000000E+02  0.91188000000E+02 0.  0.
    9900012    2    3    3    0    0 -0.24539200212E+01 -0.24872267764E+02 -0.27039351709E+02  0.54367109625E+02  0.40000058012E+02 0.  0.
        -12    1    3    3    0    0  0.24539200212E+01  0.24872267764E+02  0.27039351709E+02  0.36820890375E+02  0.00000000000E+00 0.  1.
         11    1    4    4    0    0  0.11821486116E+02 -0.19193467896E+02 -0.15445864443E+02  0.27326021894E+02  0.51100000000E-03 0. -1.
        -11    1    4    4    0    0 -0.55100682446E+01  0.15380038275E+01  0.45466561516E+01  0.73074202189E+01  0.51100000000E-03 0.  1.
        -12    1    4    4    0    0 -0.87653378930E+01 -0.72168036950E+01 -0.16140143418E+02  0.19733667513E+02  0.00000000000E+00 0.  1.
</event>
<event>
 8    1  0.3137106E-007  0.9118800E+02  0.7816164E-02  0.1184000E+00
        -11   -1    0    0    0    0  0.00000000000E+00  0.00000000000E+00  0.45593999997E+02  0.45594000000E+02  0.51100000000E-03 0.  1.
         11   -1    0    0    0    0 -0.00000000000E+00 -0.00000000000E+00 -0.45593999997E+02  0.45594000000E+02  0.51100000000E-03 0. -1.
         23    2    1    2    0    0  0.10547118734E-14  0.00000000000E+00  0.00000000000E+00  0.91188000000E+02  0.91188000000E+02 0.  0.
    9900012    2    3    3    0    0  0.47508956386E+00  0.16499469383E+02  0.32913853230E+02  0.54367082922E+02  0.39999997138E+02 0.  0.
         12    1    3    3    0    0 -0.47508956386E+00 -0.16499469383E+02 -0.32913853230E+02  0.36820917078E+02  0.00000000000E+00 0. -1.
         11    1    4    4    0    0 -0.42407769201E+01  0.71476919659E+01  0.10017446252E+02  0.13016255951E+02  0.51100000000E-03 0. -1.
        -11    1    4    4    0    0  0.98215772119E+01 -0.71624097314E+01  0.20592325955E+02  0.23912494236E+02  0.51100000000E-03 0.  1.
         12    1    4    4    0    0 -0.51057107279E+01  0.16514187149E+02  0.23040810230E+01  0.17438332735E+02  0.00000000000E+00 0. -1.
</event>
<event>
 8    1  0.3137106E-007  0.9118800E+02  0.7816164E-02  0.1184000E+00
        -11   -1    0    0    0    0  0.00000000000E+00  0.00000000000E+00  0.45593999997E+02  0.45594000000E+02  0.51100000000E-03 0. -1.
         11   -1    0    0    0    0 -0.00000000000E+00 -0.00000000000E+00 -0.45593999997E+02  0.45594000000E+02  0.51100000000E-03 0.  1.
         23    2    1    2    0    0  0.44408920985E-15  0.22204460493E-15 -0.71054273576E-14  0.91188000000E+02  0.91188000000E+02 0.  0.
    9900012    2    3    3    0    0 -0.33237495736E+01  0.10151750695E+01  0.36656538765E+02  0.54367085755E+02  0.40000003595E+02 0.  0.
        -12    1    3    3    0    0  0.33237495736E+01 -0.10151750695E+01 -0.36656538765E+02  0.36820914245E+02  0.00000000000E+00 0.  1.
         11    1    4    4    0    0 -0.34997670087E+01 -0.52006813929E+01  0.64495346854E+01  0.89939954405E+01  0.51100000000E-03 0. -1.
        -11    1    4    4    0    0 -0.10969975553E+02  0.15454309333E+02  0.20636825884E+02  0.28018826232E+02  0.51100000000E-03 0.  1.
        -12    1    4    4    0    0  0.11145992988E+02 -0.92384528704E+01  0.95701781960E+01  0.17354264082E+02  0.00000000000E+00 0.  1.
</event>
<event>
 8    1  0.3137106E-007  0.9118800E+02  0.7816164E-02  0.1184000E+00
        -11   -1    0    0    0    0  0.00000000000E+00  0.00000000000E+00  0.45593999997E+02  0.45594000000E+02  0.51100000000E-03 0. -1.
         11   -1    0    0    0    0 -0.00000000000E+00 -0.00000000000E+00 -0.45593999997E+02  0.45594000000E+02  0.51100000000E-03 0.  1.
         23    2    1    2    0    0  0.00000000000E+00  0.00000000000E+00  0.00000000000E+00  0.91188000000E+02  0.91188000000E+02 0.  0.
    9900012    2    3    3    0    0 -0.22699148882E+02  0.22694979140E+02  0.18040712676E+02  0.54367071820E+02  0.39999971829E+02 0.  0.
         12    1    3    3    0    0  0.22699148882E+02 -0.22694979140E+02 -0.18040712676E+02  0.36820928180E+02  0.00000000000E+00 0. -1.
         11    1    4    4    0    0  0.81483801293E-02  0.42895798070E+01  0.13492771040E+02  0.14158228417E+02  0.51100000000E-03 0. -1.
        -11    1    4    4    0    0 -0.29592596392E+01  0.46465022941E+01 -0.10476003433E+02  0.11836124761E+02  0.51100000000E-03 0.  1.
         12    1    4    4    0    0 -0.19748037623E+02  0.13758897039E+02  0.15023945069E+02  0.28372718642E+02  0.00000000000E+00 0. -1.
</event>
<event>
 8    1  0.3137106E-007  0.9118800E+02  0.7816164E-02  0.1184000E+00
        -11   -1    0    0    0    0  0.00000000000E+00  0.00000000000E+00  0.45593999997E+02  0.45594000000E+02  0.51100000000E-03 0. -1.
         11   -1    0    0    0    0 -0.00000000000E+00 -0.00000000000E+00 -0.45593999997E+02  0.45594000000E+02  0.51100000000E-03 0.  1.
         23    2    1    2    0    0 -0.35527136788E-14  0.00000000000E+00  0.22204460493E-15  0.91188000000E+02  0.91188000000E+02 0.  0.
    9900012    2    3    3    0    0 -0.21223116644E+02 -0.30058921882E+02  0.13493367182E+01  0.54367079665E+02  0.39999989711E+02 0.  0.
         12    1    3    3    0    0  0.21223116644E+02  0.30058921882E+02 -0.13493367182E+01  0.36820920335E+02  0.00000000000E+00 0. -1.
         11    1    4    4    0    0 -0.72950844497E+01 -0.70001668845E+01 -0.52624626599E+01  0.11397986973E+02  0.51100000000E-03 0. -1.
        -11    1    4    4    0    0 -0.11537449760E+02  0.32113736722E+01 -0.63747290312E+01  0.13566976019E+02  0.51100000000E-03 0.  1.
         12    1    4    4    0    0 -0.23905824348E+01 -0.26270128669E+02  0.12986528409E+02  0.29402116672E+02  0.00000000000E+00 0. -1.
</event>
<event>
 8    1  0.3137106E-007  0.9118800E+02  0.7816164E-02  0.1184000E+00
        -11   -1    0    0    0    0  0.00000000000E+00  0.00000000000E+00  0.45593999997E+02  0.45594000000E+02  0.51100000000E-03 0. -1.
         11   -1    0    0    0    0 -0.00000000000E+00 -0.00000000000E+00 -0.45593999997E+02  0.45594000000E+02  0.51100000000E-03 0.  1.
         23    2    1    2    0    0  0.35527136788E-14  0.88817841970E-15  0.35527136788E-14  0.91188000000E+02  0.91188000000E+02 0.  0.
    9900012    2    3    3    0    0 -0.28682601128E+02 -0.40552273406E+01 -0.22729793432E+02  0.54367082226E+02  0.39999995551E+02 0.  0.
         12    1    3    3    0    0  0.28682601128E+02  0.40552273406E+01  0.22729793432E+02  0.36820917774E+02  0.00000000000E+00 0. -1.
         11    1    4    4    0    0 -0.77425116602E+01 -0.21110193278E+01 -0.17624455493E+02  0.19365544689E+02  0.51100000000E-03 0. -1.
        -11    1    4    4    0    0 -0.16688929907E+02  0.60464542955E+01 -0.13774772284E+02  0.22468296392E+02  0.51100000000E-03 0.  1.
         12    1    4    4    0    0 -0.42511595605E+01 -0.79906623083E+01  0.86694343458E+01  0.12533241145E+02  0.00000000000E+00 0. -1.
</event>
<event>
 8    1  0.3137106E-007  0.9118800E+02  0.7816164E-02  0.1184000E+00
        -11   -1    0    0    0    0  0.00000000000E+00  0.00000000000E+00  0.45593999997E+02  0.45594000000E+02  0.51100000000E-03 0.  1.
         11   -1    0    0    0    0 -0.00000000000E+00 -0.00000000000E+00 -0.45593999997E+02  0.45594000000E+02  0.51100000000E-03 0. -1.
         23    2    1    2    0    0 -0.35527136788E-14  0.00000000000E+00  0.17763568394E-14  0.91188000000E+02  0.91188000000E+02 0.  0.
    9900012    2    3    3    0    0  0.27998802166E+02  0.18336055581E+02  0.15350442436E+02  0.54367082847E+02  0.39999996966E+02 0.  0.
         12    1    3    3    0    0 -0.27998802166E+02 -0.18336055581E+02 -0.15350442436E+02  0.36820917153E+02  0.00000000000E+00 0. -1.
         11    1    4    4    0    0  0.53293164963E+01  0.17569989932E+02  0.14080838539E+02  0.23138197310E+02  0.51100000000E-03 0. -1.
        -11    1    4    4    0    0  0.12605163125E+02 -0.62456073685E+01  0.90278781102E+01  0.16715272425E+02  0.51100000000E-03 0.  1.
         12    1    4    4    0    0  0.10064322545E+02  0.70116730170E+01 -0.77582742134E+01  0.14513613112E+02  0.00000000000E+00 0. -1.
</event>
<event>
 8    1  0.3137106E-007  0.9118800E+02  0.7816164E-02  0.1184000E+00
        -11   -1    0    0    0    0  0.00000000000E+00  0.00000000000E+00  0.45593999997E+02  0.45594000000E+02  0.51100000000E-03 0.  1.
         11   -1    0    0    0    0 -0.00000000000E+00 -0.00000000000E+00 -0.45593999997E+02  0.45594000000E+02  0.51100000000E-03 0. -1.
         23    2    1    2    0    0  0.00000000000E+00 -0.17763568394E-14  0.00000000000E+00  0.91188000000E+02  0.91188000000E+02 0.  0.
    9900012    2    3    3    0    0  0.15812629127E+02 -0.15202044626E+02  0.29574296243E+02  0.54367076614E+02  0.39999982757E+02 0.  0.
         12    1    3    3    0    0 -0.15812629127E+02  0.15202044626E+02 -0.29574296243E+02  0.36820923386E+02  0.00000000000E+00 0. -1.
         11    1    4    4    0    0 -0.21362831045E+01 -0.40245482176E+01  0.35659816111E+01  0.57859242105E+01  0.51100000000E-03 0. -1.
        -11    1    4    4    0    0  0.11894029546E+02  0.84543506150E+01  0.23801328674E+02  0.27918582164E+02  0.51100000000E-03 0.  1.
         12    1    4    4    0    0  0.60548826849E+01 -0.19631847023E+02  0.22069859586E+01  0.20662570239E+02  0.00000000000E+00 0. -1.
</event>
<event>
 8    1  0.3137106E-007  0.9118800E+02  0.7816164E-02  0.1184000E+00
        -11   -1    0    0    0    0  0.00000000000E+00  0.00000000000E+00  0.45593999997E+02  0.45594000000E+02  0.51100000000E-03 0.  1.
         11   -1    0    0    0    0 -0.00000000000E+00 -0.00000000000E+00 -0.45593999997E+02  0.45594000000E+02  0.51100000000E-03 0. -1.
         23    2    1    2    0    0  0.00000000000E+00 -0.17763568394E-14  0.35527136788E-14  0.91188000000E+02  0.91188000000E+02 0.  0.
    9900012    2    3    3    0    0  0.28200692904E+02  0.10551372515E+02 -0.21193600403E+02  0.54367092348E+02  0.40000018626E+02 0.  0.
         12    1    3    3    0    0 -0.28200692904E+02 -0.10551372515E+02  0.21193600403E+02  0.36820907652E+02  0.00000000000E+00 0. -1.
         11    1    4    4    0    0  0.56606832678E+01 -0.70348704278E+01 -0.66259680070E+01  0.11199829877E+02  0.51100000000E-03 0. -1.
        -11    1    4    4    0    0  0.24277148301E+02  0.17287679904E+02 -0.13514330236E+01  0.29834043936E+02  0.51100000000E-03 0.  1.
         12    1    4    4    0    0 -0.17371386648E+01  0.29856303947E+00 -0.13216199373E+02  0.13333218535E+02  0.00000000000E+00 0. -1.
</event>
<event>
 8    1  0.3137106E-007  0.9118800E+02  0.7816164E-02  0.1184000E+00
        -11   -1    0    0    0    0  0.00000000000E+00  0.00000000000E+00  0.45593999997E+02  0.45594000000E+02  0.51100000000E-03 0. -1.
         11   -1    0    0    0    0 -0.00000000000E+00 -0.00000000000E+00 -0.45593999997E+02  0.45594000000E+02  0.51100000000E-03 0.  1.
         23    2    1    2    0    0  0.17763568394E-14 -0.35527136788E-14  0.35527136788E-14  0.91188000000E+02  0.91188000000E+02 0.  0.
    9900012    2    3    3    0    0  0.12696712881E+02 -0.24947074581E+02 -0.23921060628E+02  0.54367079456E+02  0.39999989236E+02 0.  0.
         12    1    3    3    0    0 -0.12696712881E+02  0.24947074581E+02  0.23921060628E+02  0.36820920544E+02  0.00000000000E+00 0. -1.
         11    1    4    4    0    0 -0.73305519938E+01  0.66514459389E+01 -0.32983293014E+01  0.10433489448E+02  0.51100000000E-03 0. -1.
        -11    1    4    4    0    0  0.16167372534E+02 -0.25311922761E+02 -0.11404378657E+02  0.32126892494E+02  0.51100000000E-03 0.  1.
         12    1    4    4    0    0  0.38598923404E+01 -0.62865977588E+01 -0.92183526695E+01  0.11806697515E+02  0.00000000000E+00 0. -1.
</event>
<event>
 8    1  0.3137106E-007  0.9118800E+02  0.7816164E-02  0.1184000E+00
        -11   -1    0    0    0    0  0.00000000000E+00  0.00000000000E+00  0.45593999997E+02  0.45594000000E+02  0.51100000000E-03 0. -1.
         11   -1    0    0    0    0 -0.00000000000E+00 -0.00000000000E+00 -0.45593999997E+02  0.45594000000E+02  0.51100000000E-03 0.  1.
         23    2    1    2    0    0  0.00000000000E+00  0.00000000000E+00  0.44408920985E-15  0.91188000000E+02  0.91188000000E+02 0.  0.
    9900012    2    3    3    0    0  0.17576653989E+02 -0.32126948241E+02  0.38342094957E+01  0.54367072103E+02  0.39999972472E+02 0.  0.
         12    1    3    3    0    0 -0.17576653989E+02  0.32126948241E+02 -0.38342094957E+01  0.36820927897E+02  0.00000000000E+00 0. -1.
         11    1    4    4    0    0 -0.66748746305E+01 -0.10451855155E+02 -0.10955803487E+02  0.16547654149E+02  0.51100000000E-03 0. -1.
        -11    1    4    4    0    0  0.87179147011E+01 -0.50333265899E+01  0.10698137429E+02  0.14689675218E+02  0.51100000000E-03 0.  1.
         12    1    4    4    0    0  0.15533613918E+02 -0.16641766496E+02  0.40918755532E+01  0.23129742736E+02  0.00000000000E+00 0. -1.
</event>
<event>
 8    1  0.3137106E-007  0.9118800E+02  0.7816164E-02  0.1184000E+00
        -11   -1    0    0    0    0  0.00000000000E+00  0.00000000000E+00  0.45593999997E+02  0.45594000000E+02  0.51100000000E-03 0.  1.
         11   -1    0    0    0    0 -0.00000000000E+00 -0.00000000000E+00 -0.45593999997E+02  0.45594000000E+02  0.51100000000E-03 0. -1.
         23    2    1    2    0    0  0.00000000000E+00  0.00000000000E+00 -0.35527136788E-14  0.91188000000E+02  0.91188000000E+02 0.  0.
    9900012    2    3    3    0    0  0.10656292762E+02 -0.25934879672E+02 -0.23866408125E+02  0.54367082089E+02  0.39999995238E+02 0.  0.
        -12    1    3    3    0    0 -0.10656292762E+02  0.25934879672E+02  0.23866408125E+02  0.36820917911E+02  0.00000000000E+00 0.  1.
         11    1    4    4    0    0  0.57203471708E+00  0.51339097784E+01 -0.97798569302E+01  0.11060282780E+02  0.51100000000E-03 0. -1.
        -11    1    4    4    0    0  0.13575966289E+02 -0.16689944379E+02 -0.17944425858E+02  0.28015415822E+02  0.51100000000E-03 0.  1.
        -12    1    4    4    0    0 -0.34917082438E+01 -0.14378845071E+02  0.38578746632E+01  0.15291383487E+02  0.00000000000E+00 0.  1.
</event>
<event>
 8    1  0.3137106E-007  0.9118800E+02  0.7816164E-02  0.1184000E+00
        -11   -1    0    0    0    0  0.00000000000E+00  0.00000000000E+00  0.45593999997E+02  0.45594000000E+02  0.51100000000E-03 0.  1.
         11   -1    0    0    0    0 -0.00000000000E+00 -0.00000000000E+00 -0.45593999997E+02  0.45594000000E+02  0.51100000000E-03 0. -1.
         23    2    1    2    0    0 -0.17763568394E-14  0.35527136788E-14 -0.35527136788E-14  0.91188000000E+02  0.91188000000E+02 0.  0.
    9900012    2    3    3    0    0 -0.14907388924E+02 -0.15972501160E+02  0.29638289030E+02  0.54367092699E+02  0.40000019426E+02 0.  0.
         12    1    3    3    0    0  0.14907388924E+02  0.15972501160E+02 -0.29638289030E+02  0.36820907301E+02  0.00000000000E+00 0. -1.
         11    1    4    4    0    0  0.10168002528E+00 -0.21677837834E+01  0.16844806482E+02  0.16984025760E+02  0.51100000000E-03 0. -1.
        -11    1    4    4    0    0 -0.18689935700E+02 -0.20322538340E+02  0.94225166863E+01  0.29173671042E+02  0.51100000000E-03 0.  1.
         12    1    4    4    0    0  0.36808667513E+01  0.65178209635E+01  0.33709658618E+01  0.82093958971E+01  0.00000000000E+00 0. -1.
</event>
<event>
 8    1  0.3137106E-007  0.9118800E+02  0.7816164E-02  0.1184000E+00
        -11   -1    0    0    0    0  0.00000000000E+00  0.00000000000E+00  0.45593999997E+02  0.45594000000E+02  0.51100000000E-03 0. -1.
         11   -1    0    0    0    0 -0.00000000000E+00 -0.00000000000E+00 -0.45593999997E+02  0.45594000000E+02  0.51100000000E-03 0.  1.
         23    2    1    2    0    0  0.00000000000E+00  0.00000000000E+00  0.00000000000E+00  0.91188000000E+02  0.91188000000E+02 0.  0.
    9900012    2    3    3    0    0  0.12823557751E+02  0.30230271174E+02 -0.16657368926E+02  0.54367070242E+02  0.39999968232E+02 0.  0.
         12    1    3    3    0    0 -0.12823557751E+02 -0.30230271174E+02  0.16657368926E+02  0.36820929758E+02  0.00000000000E+00 0. -1.
         11    1    4    4    0    0  0.25652334691E+02  0.28597002205E+02 -0.10112195677E+02  0.39725147097E+02  0.51100000000E-03 0.  1.
        -11    1    4    4    0    0 -0.77049554258E+01  0.19916015443E+01 -0.41318421972E+01  0.89668798938E+01  0.51100000000E-03 0. -1.
        -12    1    4    4    0    0 -0.51238215139E+01 -0.35833257508E+00 -0.24133310517E+01  0.56750432514E+01  0.00000000000E+00 0.  1.
</event>
<event>
 8    1  0.3137106E-007  0.9118800E+02  0.7816164E-02  0.1184000E+00
        -11   -1    0    0    0    0  0.00000000000E+00  0.00000000000E+00  0.45593999997E+02  0.45594000000E+02  0.51100000000E-03 0.  1.
         11   -1    0    0    0    0 -0.00000000000E+00 -0.00000000000E+00 -0.45593999997E+02  0.45594000000E+02  0.51100000000E-03 0. -1.
         23    2    1    2    0    0 -0.71054273576E-14 -0.35527136788E-14  0.35527136788E-14  0.91188000000E+02  0.91188000000E+02 0.  0.
    9900012    2    3    3    0    0  0.17423332686E+02  0.21662997098E+02 -0.24143716672E+02  0.54367122499E+02  0.40000087362E+02 0.  0.
        -12    1    3    3    0    0 -0.17423332686E+02 -0.21662997098E+02  0.24143716672E+02  0.36820877501E+02  0.00000000000E+00 0.  1.
         11    1    4    4    0    0  0.15747514515E+00  0.17931525815E+02 -0.15268778204E+02  0.23552070070E+02  0.51100000000E-03 0. -1.
        -11    1    4    4    0    0  0.18648269982E+02 -0.50550969063E+01 -0.17160805516E+01  0.19397342880E+02  0.51100000000E-03 0.  1.
        -12    1    4    4    0    0 -0.13824124411E+01  0.87865681885E+01 -0.71588579172E+01  0.11417709550E+02  0.00000000000E+00 0.  1.
</event>
<event>
 8    1  0.3137106E-007  0.9118800E+02  0.7816164E-02  0.1184000E+00
        -11   -1    0    0    0    0  0.00000000000E+00  0.00000000000E+00  0.45593999997E+02  0.45594000000E+02  0.51100000000E-03 0.  1.
         11   -1    0    0    0    0 -0.00000000000E+00 -0.00000000000E+00 -0.45593999997E+02  0.45594000000E+02  0.51100000000E-03 0. -1.
         23    2    1    2    0    0  0.00000000000E+00  0.00000000000E+00 -0.35527136788E-14  0.91188000000E+02  0.91188000000E+02 0.  0.
    9900012    2    3    3    0    0 -0.10618910204E+02 -0.17389146599E+02  0.30669787813E+02  0.54367088036E+02  0.40000008795E+02 0.  0.
         12    1    3    3    0    0  0.10618910204E+02  0.17389146599E+02 -0.30669787813E+02  0.36820911964E+02  0.00000000000E+00 0. -1.
         11    1    4    4    0    0 -0.11480881879E+02  0.55983352029E+01  0.11147855478E+02  0.16953662961E+02  0.51100000000E-03 0. -1.
        -11    1    4    4    0    0 -0.58153305459E+01 -0.11098705589E+02  0.20189352894E+02  0.23761508909E+02  0.51100000000E-03 0.  1.
        -12    1    4    4    0    0  0.66773022211E+01 -0.11888776213E+02 -0.66742055878E+00  0.13651916166E+02  0.00000000000E+00 0.  1.
</event>
<event>
 8    1  0.3137106E-007  0.9118800E+02  0.7816164E-02  0.1184000E+00
        -11   -1    0    0    0    0  0.00000000000E+00  0.00000000000E+00  0.45593999997E+02  0.45594000000E+02  0.51100000000E-03 0. -1.
         11   -1    0    0    0    0 -0.00000000000E+00 -0.00000000000E+00 -0.45593999997E+02  0.45594000000E+02  0.51100000000E-03 0.  1.
         23    2    1    2    0    0  0.00000000000E+00  0.00000000000E+00  0.35527136788E-14  0.91188000000E+02  0.91188000000E+02 0.  0.
    9900012    2    3    3    0    0  0.33531160089E+02 -0.70614088312E+01 -0.13475136109E+02  0.54367061870E+02  0.39999949146E+02 0.  0.
        -12    1    3    3    0    0 -0.33531160089E+02  0.70614088312E+01  0.13475136109E+02  0.36820938130E+02  0.00000000000E+00 0.  1.
         11    1    4    4    0    0 -0.27628194523E+01 -0.75569949229E+00 -0.12570321473E+02  0.12892526333E+02  0.51100000000E-03 0.  1.
        -11    1    4    4    0    0  0.34675303508E+02 -0.11090882306E+02 -0.53977749462E+00  0.36409829768E+02  0.51100000000E-03 0. -1.
         12    1    4    4    0    0  0.16186760328E+01  0.47851729667E+01 -0.36503714170E+00  0.50647057698E+01  0.00000000000E+00 0. -1.
</event>
<event>
 8    1  0.3137106E-007  0.9118800E+02  0.7816164E-02  0.1184000E+00
        -11   -1    0    0    0    0  0.00000000000E+00  0.00000000000E+00  0.45593999997E+02  0.45594000000E+02  0.51100000000E-03 0.  1.
         11   -1    0    0    0    0 -0.00000000000E+00 -0.00000000000E+00 -0.45593999997E+02  0.45594000000E+02  0.51100000000E-03 0. -1.
         23    2    1    2    0    0 -0.13322676296E-14  0.00000000000E+00  0.88817841970E-15  0.91188000000E+02  0.91188000000E+02 0.  0.
    9900012    2    3    3    0    0 -0.16578200880E+01 -0.36425905794E+02  0.51173066980E+01  0.54367057478E+02  0.39999939133E+02 0.  0.
         12    1    3    3    0    0  0.16578200880E+01  0.36425905794E+02 -0.51173066980E+01  0.36820942522E+02  0.00000000000E+00 0. -1.
         11    1    4    4    0    0  0.44567722168E+01 -0.41072574496E+01  0.10968395663E+02  0.12531483792E+02  0.51100000000E-03 0. -1.
        -11    1    4    4    0    0  0.54054249936E-01 -0.24955603099E+02 -0.14540633631E+02  0.28882781628E+02  0.51100000000E-03 0.  1.
        -12    1    4    4    0    0 -0.61686465548E+01 -0.73630452453E+01  0.86895446659E+01  0.12952792058E+02  0.00000000000E+00 0.  1.
</event>
<event>
 8    1  0.3137106E-007  0.9118800E+02  0.7816164E-02  0.1184000E+00
        -11   -1    0    0    0    0  0.00000000000E+00  0.00000000000E+00  0.45593999997E+02  0.45594000000E+02  0.51100000000E-03 0.  1.
         11   -1    0    0    0    0 -0.00000000000E+00 -0.00000000000E+00 -0.45593999997E+02  0.45594000000E+02  0.51100000000E-03 0. -1.
         23    2    1    2    0    0 -0.88817841970E-15  0.00000000000E+00  0.00000000000E+00  0.91188000000E+02  0.91188000000E+02 0.  0.
    9900012    2    3    3    0    0 -0.68671750142E+01 -0.19725455804E+02  0.30323711795E+02  0.54367092945E+02  0.40000019987E+02 0.  0.
         12    1    3    3    0    0  0.68671750142E+01  0.19725455804E+02 -0.30323711795E+02  0.36820907055E+02  0.00000000000E+00 0. -1.
         11    1    4    4    0    0  0.73196071238E+01 -0.23608349789E+01 -0.41932416296E+01  0.87597640305E+01  0.51100000000E-03 0. -1.
        -11    1    4    4    0    0  0.14469391656E+01 -0.75731225447E+01  0.22007288391E+02  0.23318802727E+02  0.51100000000E-03 0.  1.
         12    1    4    4    0    0 -0.15633721304E+02 -0.97914982800E+01  0.12509665033E+02  0.22288526187E+02  0.00000000000E+00 0. -1.
</event>
<event>
 8    1  0.3137106E-007  0.9118800E+02  0.7816164E-02  0.1184000E+00
        -11   -1    0    0    0    0  0.00000000000E+00  0.00000000000E+00  0.45593999997E+02  0.45594000000E+02  0.51100000000E-03 0.  1.
         11   -1    0    0    0    0 -0.00000000000E+00 -0.00000000000E+00 -0.45593999997E+02  0.45594000000E+02  0.51100000000E-03 0. -1.
         23    2    1    2    0    0 -0.22204460493E-15  0.00000000000E+00  0.00000000000E+00  0.91188000000E+02  0.91188000000E+02 0.  0.
    9900012    2    3    3    0    0 -0.11987119423E+01 -0.27364160219E+02  0.24607894139E+02  0.54367046335E+02  0.39999913730E+02 0.  0.
         12    1    3    3    0    0  0.11987119423E+01  0.27364160219E+02 -0.24607894139E+02  0.36820953665E+02  0.00000000000E+00 0. -1.
         11    1    4    4    0    0  0.73544889600E+01 -0.23992990632E+02  0.94575731404E+01  0.26817863399E+02  0.51100000000E-03 0. -1.
        -11    1    4    4    0    0 -0.16689857474E+01  0.61113980250E+00  0.18739598121E+02  0.18823696323E+02  0.51100000000E-03 0.  1.
        -12    1    4    4    0    0 -0.68842151549E+01 -0.39823093900E+01 -0.35892771218E+01  0.87254866130E+01  0.00000000000E+00 0.  1.
</event>
<event>
 8    1  0.3137106E-007  0.9118800E+02  0.7816164E-02  0.1184000E+00
        -11   -1    0    0    0    0  0.00000000000E+00  0.00000000000E+00  0.45593999997E+02  0.45594000000E+02  0.51100000000E-03 0.  1.
         11   -1    0    0    0    0 -0.00000000000E+00 -0.00000000000E+00 -0.45593999997E+02  0.45594000000E+02  0.51100000000E-03 0. -1.
         23    2    1    2    0    0  0.44408920985E-15  0.00000000000E+00 -0.88817841970E-15  0.91188000000E+02  0.91188000000E+02 0.  0.
    9900012    2    3    3    0    0 -0.86118523111E+00  0.36226375321E+02 -0.65334932833E+01  0.54367103170E+02  0.40000043296E+02 0.  0.
        -12    1    3    3    0    0  0.86118523111E+00 -0.36226375321E+02  0.65334932833E+01  0.36820896830E+02  0.00000000000E+00 0.  1.
         11    1    4    4    0    0  0.10868690264E+02  0.34737035074E+01 -0.10281672736E+02  0.15359291606E+02  0.51100000000E-03 0. -1.
        -11    1    4    4    0    0 -0.29326037996E+01  0.16203547107E+02 -0.64331800698E+01  0.17678826601E+02  0.51100000000E-03 0.  1.
        -12    1    4    4    0    0 -0.87972716960E+01  0.16549124706E+02  0.10181359523E+02  0.21328984963E+02  0.00000000000E+00 0.  1.
</event>
<event>
 8    1  0.3137106E-007  0.9118800E+02  0.7816164E-02  0.1184000E+00
        -11   -1    0    0    0    0  0.00000000000E+00  0.00000000000E+00  0.45593999997E+02  0.45594000000E+02  0.51100000000E-03 0. -1.
         11   -1    0    0    0    0 -0.00000000000E+00 -0.00000000000E+00 -0.45593999997E+02  0.45594000000E+02  0.51100000000E-03 0.  1.
         23    2    1    2    0    0  0.00000000000E+00  0.00000000000E+00  0.00000000000E+00  0.91188000000E+02  0.91188000000E+02 0.  0.
    9900012    2    3    3    0    0  0.10149772121E+02  0.13435193362E+02  0.32745358643E+02  0.54367071067E+02  0.39999970112E+02 0.  0.
        -12    1    3    3    0    0 -0.10149772121E+02 -0.13435193362E+02 -0.32745358643E+02  0.36820928933E+02  0.00000000000E+00 0.  1.
         11    1    4    4    0    0  0.21127910874E+01  0.35000423870E+01 -0.91345773216E+01  0.10007731311E+02  0.51100000000E-03 0.  1.
        -11    1    4    4    0    0  0.27232457626E+01  0.32049651038E+01  0.25755042418E+02  0.26096169815E+02  0.51100000000E-03 0. -1.
        -12    1    4    4    0    0  0.53137352713E+01  0.67301858714E+01  0.16124893547E+02  0.18263169941E+02  0.00000000000E+00 0.  1.
</event>
<event>
 8    1  0.3137106E-007  0.9118800E+02  0.7816164E-02  0.1184000E+00
        -11   -1    0    0    0    0  0.00000000000E+00  0.00000000000E+00  0.45593999997E+02  0.45594000000E+02  0.51100000000E-03 0. -1.
         11   -1    0    0    0    0 -0.00000000000E+00 -0.00000000000E+00 -0.45593999997E+02  0.45594000000E+02  0.51100000000E-03 0.  1.
         23    2    1    2    0    0 -0.17763568394E-14  0.44408920985E-15  0.00000000000E+00  0.91188000000E+02  0.91188000000E+02 0.  0.
    9900012    2    3    3    0    0 -0.15056528263E+02 -0.11359608758E+01 -0.33582599781E+02  0.54367075807E+02  0.39999980916E+02 0.  0.
         12    1    3    3    0    0  0.15056528263E+02  0.11359608758E+01  0.33582599781E+02  0.36820924193E+02  0.00000000000E+00 0. -1.
         11    1    4    4    0    0  0.68804782643E+01 -0.53102616263E+01  0.45626243627E+01  0.98161805720E+01  0.51100000000E-03 0. -1.
        -11    1    4    4    0    0 -0.19242407405E+02  0.52661594278E+01 -0.31345285839E+02  0.37155479037E+02  0.51100000000E-03 0.  1.
         12    1    4    4    0    0 -0.26945991224E+01 -0.10918586773E+01 -0.67999383038E+01  0.73954161977E+01  0.00000000000E+00 0. -1.
</event>
<event>
 8    1  0.3137106E-007  0.9118800E+02  0.7816164E-02  0.1184000E+00
        -11   -1    0    0    0    0  0.00000000000E+00  0.00000000000E+00  0.45593999997E+02  0.45594000000E+02  0.51100000000E-03 0. -1.
         11   -1    0    0    0    0 -0.00000000000E+00 -0.00000000000E+00 -0.45593999997E+02  0.45594000000E+02  0.51100000000E-03 0.  1.
         23    2    1    2    0    0  0.00000000000E+00  0.00000000000E+00  0.44408920985E-15  0.91188000000E+02  0.91188000000E+02 0.  0.
    9900012    2    3    3    0    0 -0.34270678054E+02 -0.13249439738E+02 -0.23986018201E+01  0.54367077709E+02  0.39999985253E+02 0.  0.
         12    1    3    3    0    0  0.34270678054E+02  0.13249439738E+02  0.23986018201E+01  0.36820922291E+02  0.00000000000E+00 0. -1.
         11    1    4    4    0    0 -0.45214095796E+01 -0.24411830180E+01 -0.47694598979E+01  0.70107251474E+01  0.51100000000E-03 0.  1.
        -11    1    4    4    0    0 -0.20836400223E+02  0.85549143917E+01  0.10096362367E+02  0.24683570808E+02  0.51100000000E-03 0. -1.
         12    1    4    4    0    0 -0.89128682516E+01 -0.19363171111E+02 -0.77255042891E+01  0.22672781754E+02  0.00000000000E+00 0. -1.
</event>
<event>
 8    1  0.3137106E-007  0.9118800E+02  0.7816164E-02  0.1184000E+00
        -11   -1    0    0    0    0  0.00000000000E+00  0.00000000000E+00  0.45593999997E+02  0.45594000000E+02  0.51100000000E-03 0.  1.
         11   -1    0    0    0    0 -0.00000000000E+00 -0.00000000000E+00 -0.45593999997E+02  0.45594000000E+02  0.51100000000E-03 0. -1.
         23    2    1    2    0    0  0.35527136788E-14 -0.35527136788E-14 -0.17763568394E-14  0.91188000000E+02  0.91188000000E+02 0.  0.
    9900012    2    3    3    0    0 -0.25880408047E+02  0.22118191515E+02  0.14027438894E+02  0.54367096175E+02  0.40000027349E+02 0.  0.
        -12    1    3    3    0    0  0.25880408047E+02 -0.22118191515E+02 -0.14027438894E+02  0.36820903825E+02  0.00000000000E+00 0.  1.
         11    1    4    4    0    0 -0.46682552885E+00  0.10898594503E+02 -0.77150751363E+01  0.13361125433E+02  0.51100000000E-03 0. -1.
        -11    1    4    4    0    0 -0.25410567854E+02  0.15403114925E+02  0.15562688272E+02  0.33543258258E+02  0.51100000000E-03 0.  1.
         12    1    4    4    0    0 -0.30146642616E-02 -0.41835179123E+01  0.61798257584E+01  0.74627124838E+01  0.00000000000E+00 0. -1.
</event>
<event>
 8    1  0.3137106E-007  0.9118800E+02  0.7816164E-02  0.1184000E+00
        -11   -1    0    0    0    0  0.00000000000E+00  0.00000000000E+00  0.45593999997E+02  0.45594000000E+02  0.51100000000E-03 0.  1.
         11   -1    0    0    0    0 -0.00000000000E+00 -0.00000000000E+00 -0.45593999997E+02  0.45594000000E+02  0.51100000000E-03 0. -1.
         23    2    1    2    0    0  0.00000000000E+00  0.88817841970E-15  0.00000000000E+00  0.91188000000E+02  0.91188000000E+02 0.  0.
    9900012    2    3    3    0    0 -0.19730893859E+02  0.60522877040E+01  0.30493356557E+02  0.54367039216E+02  0.39999897501E+02 0.  0.
         12    1    3    3    0    0  0.19730893859E+02 -0.60522877040E+01 -0.30493356557E+02  0.36820960784E+02  0.00000000000E+00 0. -1.
         11    1    4    4    0    0 -0.14908877514E+02 -0.35577138667E+01  0.12849149687E+02  0.20000815099E+02  0.51100000000E-03 0. -1.
        -11    1    4    4    0    0  0.82949112753E+01 -0.51075453438E+01  0.50517089782E+01  0.10973255504E+02  0.51100000000E-03 0.  1.
        -12    1    4    4    0    0 -0.13116927620E+02  0.14717546914E+02  0.12592497892E+02  0.23392968613E+02  0.00000000000E+00 0.  1.
</event>
<event>
 8    1  0.3137106E-007  0.9118800E+02  0.7816164E-02  0.1184000E+00
        -11   -1    0    0    0    0  0.00000000000E+00  0.00000000000E+00  0.45593999997E+02  0.45594000000E+02  0.51100000000E-03 0.  1.
         11   -1    0    0    0    0 -0.00000000000E+00 -0.00000000000E+00 -0.45593999997E+02  0.45594000000E+02  0.51100000000E-03 0. -1.
         23    2    1    2    0    0  0.88817841970E-15 -0.35527136788E-14  0.00000000000E+00  0.91188000000E+02  0.91188000000E+02 0.  0.
    9900012    2    3    3    0    0 -0.54093863828E+01  0.31196456608E+02  0.18796236509E+02  0.54367097338E+02  0.40000030001E+02 0.  0.
         12    1    3    3    0    0  0.54093863828E+01 -0.31196456608E+02 -0.18796236509E+02  0.36820902662E+02  0.00000000000E+00 0. -1.
         11    1    4    4    0    0 -0.63458037061E+01 -0.30665498286E+01 -0.23116232018E+01  0.74173145151E+01  0.51100000000E-03 0. -1.
        -11    1    4    4    0    0 -0.77048320682E+01  0.17098975516E+01  0.65560726271E+01  0.10260130379E+02  0.51100000000E-03 0.  1.
        -12    1    4    4    0    0  0.86412493915E+01  0.32553108885E+02  0.14551787083E+02  0.36689652444E+02  0.00000000000E+00 0.  1.
</event>
<event>
 8    1  0.3137106E-007  0.9118800E+02  0.7816164E-02  0.1184000E+00
        -11   -1    0    0    0    0  0.00000000000E+00  0.00000000000E+00  0.45593999997E+02  0.45594000000E+02  0.51100000000E-03 0.  1.
         11   -1    0    0    0    0 -0.00000000000E+00 -0.00000000000E+00 -0.45593999997E+02  0.45594000000E+02  0.51100000000E-03 0. -1.
         23    2    1    2    0    0  0.71054273576E-14  0.17763568394E-14  0.17763568394E-14  0.91188000000E+02  0.91188000000E+02 0.  0.
    9900012    2    3    3    0    0  0.33176318356E+02  0.59645955667E+01  0.14816859372E+02  0.54367030138E+02  0.39999876806E+02 0.  0.
         12    1    3    3    0    0 -0.33176318356E+02 -0.59645955667E+01 -0.14816859372E+02  0.36820969862E+02  0.00000000000E+00 0. -1.
         11    1    4    4    0    0  0.13149173072E+02  0.12399671258E+02 -0.37750153954E+01  0.18463567946E+02  0.51100000000E-03 0. -1.
        -11    1    4    4    0    0  0.21135200120E+02  0.35911181731E+00  0.19742634413E+02  0.28923991067E+02  0.51100000000E-03 0.  1.
         12    1    4    4    0    0 -0.11080548364E+01 -0.67941875089E+01 -0.11507596458E+01  0.69794711253E+01  0.00000000000E+00 0. -1.
</event>
<event>
 8    1  0.3137106E-007  0.9118800E+02  0.7816164E-02  0.1184000E+00
        -11   -1    0    0    0    0  0.00000000000E+00  0.00000000000E+00  0.45593999997E+02  0.45594000000E+02  0.51100000000E-03 0.  1.
         11   -1    0    0    0    0 -0.00000000000E+00 -0.00000000000E+00 -0.45593999997E+02  0.45594000000E+02  0.51100000000E-03 0. -1.
         23    2    1    2    0    0 -0.88817841970E-15  0.00000000000E+00 -0.14210854715E-13  0.91188000000E+02  0.91188000000E+02 0.  0.
    9900012    2    3    3    0    0 -0.40321857080E+01  0.56530060659E+01 -0.36160263421E+02  0.54367086787E+02  0.40000005947E+02 0.  0.
        -12    1    3    3    0    0  0.40321857080E+01 -0.56530060659E+01  0.36160263421E+02  0.36820913213E+02  0.00000000000E+00 0.  1.
         11    1    4    4    0    0 -0.47383930576E+01 -0.70979661230E+01 -0.78655358079E+01  0.11606039189E+02  0.51100000000E-03 0. -1.
        -11    1    4    4    0    0  0.51977037515E+00  0.16878534979E+02 -0.32649599136E+02  0.36758011756E+02  0.51100000000E-03 0.  1.
        -12    1    4    4    0    0  0.18643697451E+00 -0.41275627899E+01  0.43548715227E+01  0.60030358411E+01  0.00000000000E+00 0.  1.
</event>
<event>
 8    1  0.3137106E-007  0.9118800E+02  0.7816164E-02  0.1184000E+00
        -11   -1    0    0    0    0  0.00000000000E+00  0.00000000000E+00  0.45593999997E+02  0.45594000000E+02  0.51100000000E-03 0.  1.
         11   -1    0    0    0    0 -0.00000000000E+00 -0.00000000000E+00 -0.45593999997E+02  0.45594000000E+02  0.51100000000E-03 0. -1.
         23    2    1    2    0    0 -0.17763568394E-14  0.88817841970E-15  0.00000000000E+00  0.91188000000E+02  0.91188000000E+02 0.  0.
    9900012    2    3    3    0    0  0.12204955976E+02  0.10224567332E+01 -0.34724263402E+02  0.54367070667E+02  0.39999969200E+02 0.  0.
        -12    1    3    3    0    0 -0.12204955976E+02 -0.10224567332E+01  0.34724263402E+02  0.36820929333E+02  0.00000000000E+00 0.  1.
         11    1    4    4    0    0  0.75379605756E+01 -0.16091081379E+02 -0.25341492589E+02  0.30950524979E+02  0.51100000000E-03 0. -1.
        -11    1    4    4    0    0  0.66455032002E+01  0.14697280271E+02 -0.31349450319E+01  0.16431696223E+02  0.51100000000E-03 0.  1.
        -12    1    4    4    0    0 -0.19785077995E+01  0.24162578408E+01 -0.62478257805E+01  0.69848494651E+01  0.00000000000E+00 0.  1.
</event>
<event>
 8    1  0.3137106E-007  0.9118800E+02  0.7816164E-02  0.1184000E+00
        -11   -1    0    0    0    0  0.00000000000E+00  0.00000000000E+00  0.45593999997E+02  0.45594000000E+02  0.51100000000E-03 0. -1.
         11   -1    0    0    0    0 -0.00000000000E+00 -0.00000000000E+00 -0.45593999997E+02  0.45594000000E+02  0.51100000000E-03 0.  1.
         23    2    1    2    0    0  0.00000000000E+00  0.88817841970E-15  0.00000000000E+00  0.91188000000E+02  0.91188000000E+02 0.  0.
    9900012    2    3    3    0    0 -0.24156942831E+02  0.55811608867E+01 -0.27222647862E+02  0.54367084743E+02  0.40000001288E+02 0.  0.
         12    1    3    3    0    0  0.24156942831E+02 -0.55811608867E+01  0.27222647862E+02  0.36820915257E+02  0.00000000000E+00 0. -1.
         11    1    4    4    0    0 -0.62399161090E+01 -0.43688378527E+01 -0.29478333348E+02  0.30446599719E+02  0.51100000000E-03 0. -1.
        -11    1    4    4    0    0 -0.15850653691E+02  0.85494496505E+01 -0.28535745645E+01  0.18234012170E+02  0.51100000000E-03 0.  1.
         12    1    4    4    0    0 -0.20663730313E+01  0.14005490889E+01  0.51092600503E+01  0.56864728538E+01  0.00000000000E+00 0. -1.
</event>
<event>
 8    1  0.3137106E-007  0.9118800E+02  0.7816164E-02  0.1184000E+00
        -11   -1    0    0    0    0  0.00000000000E+00  0.00000000000E+00  0.45593999997E+02  0.45594000000E+02  0.51100000000E-03 0.  1.
         11   -1    0    0    0    0 -0.00000000000E+00 -0.00000000000E+00 -0.45593999997E+02  0.45594000000E+02  0.51100000000E-03 0. -1.
         23    2    1    2    0    0  0.00000000000E+00 -0.44408920985E-15  0.00000000000E+00  0.91188000000E+02  0.91188000000E+02 0.  0.
    9900012    2    3    3    0    0 -0.27324263218E+02 -0.20228150138E+01 -0.24598207327E+02  0.54367096363E+02  0.40000027778E+02 0.  0.
        -12    1    3    3    0    0  0.27324263218E+02  0.20228150138E+01  0.24598207327E+02  0.36820903637E+02  0.00000000000E+00 0.  1.
         11    1    4    4    0    0 -0.31219667532E+02 -0.20182968368E+01 -0.90215106172E+01  0.32559619424E+02  0.51100000000E-03 0. -1.
        -11    1    4    4    0    0  0.71164010917E+01 -0.24739688459E+01 -0.16041080967E+02  0.17722301351E+02  0.51100000000E-03 0.  1.
         12    1    4    4    0    0 -0.32209967772E+01  0.24694506689E+01  0.46438425659E+00  0.40851755877E+01  0.00000000000E+00 0. -1.
</event>
<event>
 8    1  0.3137106E-007  0.9118800E+02  0.7816164E-02  0.1184000E+00
        -11   -1    0    0    0    0  0.00000000000E+00  0.00000000000E+00  0.45593999997E+02  0.45594000000E+02  0.51100000000E-03 0.  1.
         11   -1    0    0    0    0 -0.00000000000E+00 -0.00000000000E+00 -0.45593999997E+02  0.45594000000E+02  0.51100000000E-03 0. -1.
         23    2    1    2    0    0  0.00000000000E+00  0.17763568394E-14  0.00000000000E+00  0.91188000000E+02  0.91188000000E+02 0.  0.
    9900012    2    3    3    0    0  0.21667964086E+02  0.10956068918E+02 -0.27681111379E+02  0.54367081476E+02  0.39999993841E+02 0.  0.
        -12    1    3    3    0    0 -0.21667964086E+02 -0.10956068918E+02  0.27681111379E+02  0.36820918524E+02  0.00000000000E+00 0.  1.
         11    1    4    4    0    0 -0.27550397889E+01 -0.10960714106E+01 -0.49132809721E+01  0.57386363317E+01  0.51100000000E-03 0. -1.
        -11    1    4    4    0    0  0.55198483569E+01  0.21157020884E+02 -0.97842015550E+01  0.23954516462E+02  0.51100000000E-03 0.  1.
        -12    1    4    4    0    0  0.18903155518E+02 -0.91048805553E+01 -0.12983628852E+02  0.24673928682E+02  0.00000000000E+00 0.  1.
</event>
<event>
 8    1  0.3137106E-007  0.9118800E+02  0.7816164E-02  0.1184000E+00
        -11   -1    0    0    0    0  0.00000000000E+00  0.00000000000E+00  0.45593999997E+02  0.45594000000E+02  0.51100000000E-03 0. -1.
         11   -1    0    0    0    0 -0.00000000000E+00 -0.00000000000E+00 -0.45593999997E+02  0.45594000000E+02  0.51100000000E-03 0.  1.
         23    2    1    2    0    0  0.35527136788E-14  0.44408920985E-15 -0.71054273576E-14  0.91188000000E+02  0.91188000000E+02 0.  0.
    9900012    2    3    3    0    0  0.31629391024E+02  0.21345735523E+01 -0.18730010740E+02  0.54366972269E+02  0.39999744882E+02 0.  0.
         12    1    3    3    0    0 -0.31629391024E+02 -0.21345735523E+01  0.18730010740E+02  0.36821027731E+02  0.00000000000E+00 0. -1.
         11    1    4    4    0    0  0.30889160972E+02 -0.58684371266E+00 -0.54282222495E+01  0.31367981257E+02  0.51100000000E-03 0. -1.
        -11    1    4    4    0    0 -0.15396062314E+01 -0.51484939307E+00 -0.17297980060E+02  0.17373991242E+02  0.51100000000E-03 0.  1.
         12    1    4    4    0    0  0.22798362842E+01  0.32362666580E+01  0.39961915695E+01  0.56249997711E+01  0.00000000000E+00 0. -1.
</event>
<event>
 8    1  0.3137106E-007  0.9118800E+02  0.7816164E-02  0.1184000E+00
        -11   -1    0    0    0    0  0.00000000000E+00  0.00000000000E+00  0.45593999997E+02  0.45594000000E+02  0.51100000000E-03 0.  1.
         11   -1    0    0    0    0 -0.00000000000E+00 -0.00000000000E+00 -0.45593999997E+02  0.45594000000E+02  0.51100000000E-03 0. -1.
         23    2    1    2    0    0  0.88817841970E-15  0.71054273576E-14  0.00000000000E+00  0.91188000000E+02  0.91188000000E+02 0.  0.
    9900012    2    3    3    0    0 -0.44911021603E+01 -0.34691423051E+02 -0.11494130903E+02  0.54367083701E+02  0.39999998913E+02 0.  0.
        -12    1    3    3    0    0  0.44911021603E+01  0.34691423051E+02  0.11494130903E+02  0.36820916299E+02  0.00000000000E+00 0.  1.
         11    1    4    4    0    0  0.53758314889E+01 -0.15550108660E+02 -0.26146020750E+01  0.16659579461E+02  0.51100000000E-03 0. -1.
        -11    1    4    4    0    0 -0.12359982354E+02 -0.18074003164E+02  0.59033578020E+01  0.22677927326E+02  0.51100000000E-03 0.  1.
         12    1    4    4    0    0  0.24930487050E+01 -0.10673112257E+01 -0.14782886630E+02  0.15029576914E+02  0.00000000000E+00 0. -1.
</event>
<event>
 8    1  0.3137106E-007  0.9118800E+02  0.7816164E-02  0.1184000E+00
        -11   -1    0    0    0    0  0.00000000000E+00  0.00000000000E+00  0.45593999997E+02  0.45594000000E+02  0.51100000000E-03 0. -1.
         11   -1    0    0    0    0 -0.00000000000E+00 -0.00000000000E+00 -0.45593999997E+02  0.45594000000E+02  0.51100000000E-03 0.  1.
         23    2    1    2    0    0  0.00000000000E+00  0.35527136788E-14  0.00000000000E+00  0.91188000000E+02  0.91188000000E+02 0.  0.
    9900012    2    3    3    0    0  0.14497436130E+02 -0.31177261262E+02 -0.13175094801E+02  0.54367076639E+02  0.39999982813E+02 0.  0.
         12    1    3    3    0    0 -0.14497436130E+02  0.31177261262E+02  0.13175094801E+02  0.36820923361E+02  0.00000000000E+00 0. -1.
         11    1    4    4    0    0  0.49230667784E+01  0.33788806754E+01 -0.39752839318E+01  0.71733049373E+01  0.51100000000E-03 0. -1.
        -11    1    4    4    0    0 -0.62289944592E+01 -0.26520696485E+02 -0.10988024716E+02  0.29374894067E+02  0.51100000000E-03 0.  1.
         12    1    4    4    0    0  0.15803363811E+02 -0.80354454525E+01  0.17882138477E+01  0.17818877634E+02  0.00000000000E+00 0. -1.
</event>
<event>
 8    1  0.3137106E-007  0.9118800E+02  0.7816164E-02  0.1184000E+00
        -11   -1    0    0    0    0  0.00000000000E+00  0.00000000000E+00  0.45593999997E+02  0.45594000000E+02  0.51100000000E-03 0. -1.
         11   -1    0    0    0    0 -0.00000000000E+00 -0.00000000000E+00 -0.45593999997E+02  0.45594000000E+02  0.51100000000E-03 0.  1.
         23    2    1    2    0    0  0.00000000000E+00  0.11102230246E-15 -0.71054273576E-14  0.91188000000E+02  0.91188000000E+02 0.  0.
    9900012    2    3    3    0    0  0.63284161984E+01 -0.52176811468E+00 -0.36269275688E+02  0.54367062309E+02  0.39999950146E+02 0.  0.
         12    1    3    3    0    0 -0.63284161984E+01  0.52176811468E+00  0.36269275688E+02  0.36820937691E+02  0.00000000000E+00 0. -1.
         11    1    4    4    0    0  0.23517308089E+01 -0.73754845107E+01 -0.17338355268E+01  0.79331327645E+01  0.51100000000E-03 0. -1.
        -11    1    4    4    0    0  0.87346903910E+01  0.74253369990E+01 -0.38527369770E+02  0.40196873852E+02  0.51100000000E-03 0.  1.
         12    1    4    4    0    0 -0.47580050014E+01 -0.57162060303E+00  0.39919296096E+01  0.62370556928E+01  0.00000000000E+00 0. -1.
</event>
<event>
 8    1  0.3137106E-007  0.9118800E+02  0.7816164E-02  0.1184000E+00
        -11   -1    0    0    0    0  0.00000000000E+00  0.00000000000E+00  0.45593999997E+02  0.45594000000E+02  0.51100000000E-03 0. -1.
         11   -1    0    0    0    0 -0.00000000000E+00 -0.00000000000E+00 -0.45593999997E+02  0.45594000000E+02  0.51100000000E-03 0.  1.
         23    2    1    2    0    0 -0.44408920985E-15  0.00000000000E+00  0.35527136788E-14  0.91188000000E+02  0.91188000000E+02 0.  0.
    9900012    2    3    3    0    0 -0.26068475264E+01  0.27530363806E+02 -0.24311812122E+02  0.54367071251E+02  0.39999970530E+02 0.  0.
         12    1    3    3    0    0  0.26068475264E+01 -0.27530363806E+02  0.24311812122E+02  0.36820928749E+02  0.00000000000E+00 0. -1.
         11    1    4    4    0    0  0.58827488675E+01  0.15903743632E+02 -0.16568167864E+02  0.23707382445E+02  0.51100000000E-03 0. -1.
        -11    1    4    4    0    0 -0.87885394513E+01 -0.49650202623E+01 -0.96394750028E+01  0.13957411310E+02  0.51100000000E-03 0.  1.
        -12    1    4    4    0    0  0.29894305738E+00  0.16591640437E+02  0.18958307452E+01  0.16702277496E+02  0.00000000000E+00 0.  1.
</event>
<event>
 8    1  0.3137106E-007  0.9118800E+02  0.7816164E-02  0.1184000E+00
        -11   -1    0    0    0    0  0.00000000000E+00  0.00000000000E+00  0.45593999997E+02  0.45594000000E+02  0.51100000000E-03 0.  1.
         11   -1    0    0    0    0 -0.00000000000E+00 -0.00000000000E+00 -0.45593999997E+02  0.45594000000E+02  0.51100000000E-03 0. -1.
         23    2    1    2    0    0  0.00000000000E+00  0.35527136788E-14  0.35527136788E-14  0.91188000000E+02  0.91188000000E+02 0.  0.
    9900012    2    3    3    0    0 -0.34618780983E+01  0.31501074375E+02  0.18747735932E+02  0.54367083535E+02  0.39999998535E+02 0.  0.
         12    1    3    3    0    0  0.34618780983E+01 -0.31501074375E+02 -0.18747735932E+02  0.36820916465E+02  0.00000000000E+00 0. -1.
         11    1    4    4    0    0 -0.83201500540E+01  0.97440698643E+01  0.12908968644E+02  0.18188272765E+02  0.51100000000E-03 0.  1.
        -11    1    4    4    0    0 -0.52585846659E+00  0.48772498789E+01 -0.10807088324E+02  0.11868329782E+02  0.51100000000E-03 0. -1.
         12    1    4    4    0    0  0.53841304223E+01  0.16879754632E+02  0.16645855612E+02  0.24310480988E+02  0.00000000000E+00 0. -1.
</event>
<event>
 8    1  0.3137106E-007  0.9118800E+02  0.7816164E-02  0.1184000E+00
        -11   -1    0    0    0    0  0.00000000000E+00  0.00000000000E+00  0.45593999997E+02  0.45594000000E+02  0.51100000000E-03 0.  1.
         11   -1    0    0    0    0 -0.00000000000E+00 -0.00000000000E+00 -0.45593999997E+02  0.45594000000E+02  0.51100000000E-03 0. -1.
         23    2    1    2    0    0  0.00000000000E+00  0.35527136788E-14 -0.35527136788E-14  0.91188000000E+02  0.91188000000E+02 0.  0.
    9900012    2    3    3    0    0  0.52399281879E+01 -0.31990890203E+02  0.17461566283E+02  0.54367079311E+02  0.39999988904E+02 0.  0.
         12    1    3    3    0    0 -0.52399281879E+01  0.31990890203E+02 -0.17461566283E+02  0.36820920689E+02  0.00000000000E+00 0. -1.
         11    1    4    4    0    0  0.83163814945E+01  0.31009620332E+01  0.64924946674E+00  0.88994208702E+01  0.51100000000E-03 0. -1.
        -11    1    4    4    0    0  0.15024793736E+01 -0.12491299574E+02 -0.51763890816E+01  0.13604595308E+02  0.51100000000E-03 0.  1.
        -12    1    4    4    0    0 -0.45789326803E+01 -0.22600552662E+02  0.21988705898E+02  0.31863063132E+02  0.00000000000E+00 0.  1.
</event>
<event>
 8    1  0.3137106E-007  0.9118800E+02  0.7816164E-02  0.1184000E+00
        -11   -1    0    0    0    0  0.00000000000E+00  0.00000000000E+00  0.45593999997E+02  0.45594000000E+02  0.51100000000E-03 0.  1.
         11   -1    0    0    0    0 -0.00000000000E+00 -0.00000000000E+00 -0.45593999997E+02  0.45594000000E+02  0.51100000000E-03 0. -1.
         23    2    1    2    0    0 -0.71054273576E-14  0.17763568394E-14  0.00000000000E+00  0.91188000000E+02  0.91188000000E+02 0.  0.
    9900012    2    3    3    0    0  0.31784181246E+02 -0.14716101044E+02 -0.11357026027E+02  0.54367084102E+02  0.39999999827E+02 0.  0.
        -12    1    3    3    0    0 -0.31784181246E+02  0.14716101044E+02  0.11357026027E+02  0.36820915898E+02  0.00000000000E+00 0.  1.
         11    1    4    4    0    0 -0.70620505363E+01  0.16539050981E+01  0.52823864345E+01  0.89728237783E+01  0.51100000000E-03 0.  1.
        -11    1    4    4    0    0  0.32100459255E+02 -0.13262362961E+02 -0.12655641763E+02  0.36966133479E+02  0.51100000000E-03 0. -1.
        -12    1    4    4    0    0  0.67457725272E+01 -0.31076431817E+01 -0.39837706990E+01  0.84281268450E+01  0.00000000000E+00 0.  1.
</event>
<event>
 8    1  0.3137106E-007  0.9118800E+02  0.7816164E-02  0.1184000E+00
        -11   -1    0    0    0    0  0.00000000000E+00  0.00000000000E+00  0.45593999997E+02  0.45594000000E+02  0.51100000000E-03 0.  1.
         11   -1    0    0    0    0 -0.00000000000E+00 -0.00000000000E+00 -0.45593999997E+02  0.45594000000E+02  0.51100000000E-03 0. -1.
         23    2    1    2    0    0 -0.66613381478E-15  0.22204460493E-15  0.00000000000E+00  0.91188000000E+02  0.91188000000E+02 0.  0.
    9900012    2    3    3    0    0 -0.10058357607E+01  0.99064625419E+00 -0.36793842187E+02  0.54367083275E+02  0.39999997943E+02 0.  0.
        -12    1    3    3    0    0  0.10058357607E+01 -0.99064625419E+00  0.36793842187E+02  0.36820916725E+02  0.00000000000E+00 0.  1.
         11    1    4    4    0    0  0.13962737683E+02  0.48764840790E+01 -0.22930912338E+02  0.27286716209E+02  0.51100000000E-03 0. -1.
        -11    1    4    4    0    0 -0.97552140003E+01  0.53630983792E+01 -0.22717738853E+01  0.11361689191E+02  0.51100000000E-03 0.  1.
         12    1    4    4    0    0 -0.52133594432E+01 -0.92489362040E+01 -0.11591155964E+02  0.15718677876E+02  0.00000000000E+00 0. -1.
</event>
<event>
 8    1  0.3137106E-007  0.9118800E+02  0.7816164E-02  0.1184000E+00
        -11   -1    0    0    0    0  0.00000000000E+00  0.00000000000E+00  0.45593999997E+02  0.45594000000E+02  0.51100000000E-03 0.  1.
         11   -1    0    0    0    0 -0.00000000000E+00 -0.00000000000E+00 -0.45593999997E+02  0.45594000000E+02  0.51100000000E-03 0. -1.
         23    2    1    2    0    0 -0.88817841970E-15  0.31086244690E-14  0.00000000000E+00  0.91188000000E+02  0.91188000000E+02 0.  0.
    9900012    2    3    3    0    0  0.70819535883E+01  0.37358114640E+01 -0.35939801004E+02  0.54367086783E+02  0.40000005939E+02 0.  0.
        -12    1    3    3    0    0 -0.70819535883E+01 -0.37358114640E+01  0.35939801004E+02  0.36820913217E+02  0.00000000000E+00 0.  1.
         11    1    4    4    0    0 -0.83360701869E+01 -0.31337533163E+01 -0.17820549124E+02  0.19921908728E+02  0.51100000000E-03 0. -1.
        -11    1    4    4    0    0  0.11138539753E+02 -0.80423638028E+01 -0.94322073948E+01  0.16664729820E+02  0.51100000000E-03 0.  1.
         12    1    4    4    0    0  0.42794840219E+01  0.14911928583E+02 -0.86870444848E+01  0.17780448235E+02  0.00000000000E+00 0. -1.
</event>
<event>
 8    1  0.3137106E-007  0.9118800E+02  0.7816164E-02  0.1184000E+00
        -11   -1    0    0    0    0  0.00000000000E+00  0.00000000000E+00  0.45593999997E+02  0.45594000000E+02  0.51100000000E-03 0. -1.
         11   -1    0    0    0    0 -0.00000000000E+00 -0.00000000000E+00 -0.45593999997E+02  0.45594000000E+02  0.51100000000E-03 0.  1.
         23    2    1    2    0    0  0.00000000000E+00  0.00000000000E+00  0.00000000000E+00  0.91188000000E+02  0.91188000000E+02 0.  0.
    9900012    2    3    3    0    0  0.93212534942E+01 -0.10055596477E+02 -0.34172783006E+02  0.54367083586E+02  0.39999998650E+02 0.  0.
         12    1    3    3    0    0 -0.93212534942E+01  0.10055596477E+02  0.34172783006E+02  0.36820916414E+02  0.00000000000E+00 0. -1.
         11    1    4    4    0    0  0.84760599694E+01 -0.35547961982E+01 -0.51671096831E+01  0.10544154369E+02  0.51100000000E-03 0. -1.
        -11    1    4    4    0    0 -0.73360860047E+01  0.15406395554E+01  0.42688849929E+01  0.86264191559E+01  0.51100000000E-03 0.  1.
        -12    1    4    4    0    0  0.81812795295E+01 -0.80414398343E+01 -0.33274558316E+02  0.35196510061E+02  0.00000000000E+00 0.  1.
</event>
<event>
 8    1  0.3137106E-007  0.9118800E+02  0.7816164E-02  0.1184000E+00
        -11   -1    0    0    0    0  0.00000000000E+00  0.00000000000E+00  0.45593999997E+02  0.45594000000E+02  0.51100000000E-03 0.  1.
         11   -1    0    0    0    0 -0.00000000000E+00 -0.00000000000E+00 -0.45593999997E+02  0.45594000000E+02  0.51100000000E-03 0. -1.
         23    2    1    2    0    0  0.00000000000E+00  0.88817841970E-15  0.35527136788E-14  0.91188000000E+02  0.91188000000E+02 0.  0.
    9900012    2    3    3    0    0  0.18604567936E+02 -0.62839208827E+01  0.31147419005E+02  0.54367091260E+02  0.40000016146E+02 0.  0.
         12    1    3    3    0    0 -0.18604567936E+02  0.62839208827E+01 -0.31147419005E+02  0.36820908740E+02  0.00000000000E+00 0. -1.
         11    1    4    4    0    0  0.39332621292E+01  0.52039435859E+01  0.14709351108E+02  0.16090885311E+02  0.51100000000E-03 0. -1.
        -11    1    4    4    0    0  0.33618505234E+01  0.95466789627E+01  0.81568637903E+01  0.12999059401E+02  0.51100000000E-03 0.  1.
         12    1    4    4    0    0  0.11309455283E+02 -0.21034543431E+02  0.82812041072E+01  0.25277146548E+02  0.00000000000E+00 0. -1.
</event>
<event>
 8    1  0.3137106E-007  0.9118800E+02  0.7816164E-02  0.1184000E+00
        -11   -1    0    0    0    0  0.00000000000E+00  0.00000000000E+00  0.45593999997E+02  0.45594000000E+02  0.51100000000E-03 0. -1.
         11   -1    0    0    0    0 -0.00000000000E+00 -0.00000000000E+00 -0.45593999997E+02  0.45594000000E+02  0.51100000000E-03 0.  1.
         23    2    1    2    0    0 -0.44408920985E-15  0.00000000000E+00  0.00000000000E+00  0.91188000000E+02  0.91188000000E+02 0.  0.
    9900012    2    3    3    0    0  0.21272476318E+01 -0.26710963778E+01  0.36662237862E+02  0.54367087146E+02  0.40000006767E+02 0.  0.
        -12    1    3    3    0    0 -0.21272476318E+01  0.26710963778E+01 -0.36662237862E+02  0.36820912854E+02  0.00000000000E+00 0.  1.
         11    1    4    4    0    0  0.19832080265E+01 -0.77204967844E+01 -0.44825465407E+01  0.91450756380E+01  0.51100000000E-03 0. -1.
        -11    1    4    4    0    0  0.25564778540E+01  0.39628810103E+00 -0.98445252530E+00  0.27679903021E+01  0.51100000000E-03 0.  1.
         12    1    4    4    0    0 -0.24124382487E+01  0.46531123056E+01  0.42129236928E+02  0.42454021206E+02  0.00000000000E+00 0. -1.
</event>
<event>
 8    1  0.3137106E-007  0.9118800E+02  0.7816164E-02  0.1184000E+00
        -11   -1    0    0    0    0  0.00000000000E+00  0.00000000000E+00  0.45593999997E+02  0.45594000000E+02  0.51100000000E-03 0.  1.
         11   -1    0    0    0    0 -0.00000000000E+00 -0.00000000000E+00 -0.45593999997E+02  0.45594000000E+02  0.51100000000E-03 0. -1.
         23    2    1    2    0    0  0.35527136788E-14 -0.66613381478E-15  0.71054273576E-14  0.91188000000E+02  0.91188000000E+02 0.  0.
    9900012    2    3    3    0    0 -0.20189463282E+02 -0.14927463798E+01  0.30756082973E+02  0.54367090733E+02  0.40000014944E+02 0.  0.
         12    1    3    3    0    0  0.20189463282E+02  0.14927463798E+01 -0.30756082973E+02  0.36820909267E+02  0.00000000000E+00 0. -1.
         11    1    4    4    0    0  0.26368931164E+01  0.12384255596E+01 -0.31853383360E+01  0.43166287482E+01  0.51100000000E-03 0. -1.
        -11    1    4    4    0    0 -0.23642821406E+02 -0.67249989403E+01  0.37366223465E+02  0.44726315196E+02  0.51100000000E-03 0.  1.
        -12    1    4    4    0    0  0.81646500726E+00  0.39938270009E+01 -0.34248021555E+01  0.53241467885E+01  0.00000000000E+00 0.  1.
</event>
<event>
 8    1  0.3137106E-007  0.9118800E+02  0.7816164E-02  0.1184000E+00
        -11   -1    0    0    0    0  0.00000000000E+00  0.00000000000E+00  0.45593999997E+02  0.45594000000E+02  0.51100000000E-03 0.  1.
         11   -1    0    0    0    0 -0.00000000000E+00 -0.00000000000E+00 -0.45593999997E+02  0.45594000000E+02  0.51100000000E-03 0. -1.
         23    2    1    2    0    0  0.00000000000E+00 -0.88817841970E-15  0.35527136788E-14  0.91188000000E+02  0.91188000000E+02 0.  0.
    9900012    2    3    3    0    0 -0.34638641274E+02  0.51752546109E+01 -0.11365086415E+02  0.54367028817E+02  0.39999873794E+02 0.  0.
        -12    1    3    3    0    0  0.34638641274E+02 -0.51752546109E+01  0.11365086415E+02  0.36820971183E+02  0.00000000000E+00 0.  1.
         11    1    4    4    0    0 -0.33915764472E+02  0.10067057592E+02 -0.97055933700E+01  0.36685464032E+02  0.51100000000E-03 0. -1.
        -11    1    4    4    0    0  0.53708590159E+01 -0.35702952147E+01 -0.69665526544E+01  0.94934709478E+01  0.51100000000E-03 0.  1.
         12    1    4    4    0    0 -0.60937358180E+01 -0.13215077666E+01  0.53070596093E+01  0.81880938376E+01  0.00000000000E+00 0. -1.
</event>
<event>
 8    1  0.3137106E-007  0.9118800E+02  0.7816164E-02  0.1184000E+00
        -11   -1    0    0    0    0  0.00000000000E+00  0.00000000000E+00  0.45593999997E+02  0.45594000000E+02  0.51100000000E-03 0.  1.
         11   -1    0    0    0    0 -0.00000000000E+00 -0.00000000000E+00 -0.45593999997E+02  0.45594000000E+02  0.51100000000E-03 0. -1.
         23    2    1    2    0    0 -0.88817841970E-15  0.00000000000E+00 -0.88817841970E-15  0.91188000000E+02  0.91188000000E+02 0.  0.
    9900012    2    3    3    0    0 -0.66458509694E+01 -0.36035514420E+02  0.36129614339E+01  0.54367093914E+02  0.40000022197E+02 0.  0.
         12    1    3    3    0    0  0.66458509694E+01  0.36035514420E+02 -0.36129614339E+01  0.36820906086E+02  0.00000000000E+00 0. -1.
         11    1    4    4    0    0  0.57323340487E+00  0.48577336558E-01  0.11921063472E+01  0.13236593588E+01  0.51100000000E-03 0. -1.
        -11    1    4    4    0    0 -0.16478685340E+02 -0.45328066138E+01 -0.75483553182E+01  0.18683443864E+02  0.51100000000E-03 0.  1.
        -12    1    4    4    0    0  0.92596009661E+01 -0.31551285143E+02  0.99692104048E+01  0.34359990692E+02  0.00000000000E+00 0.  1.
</event>
<event>
 8    1  0.3137106E-007  0.9118800E+02  0.7816164E-02  0.1184000E+00
        -11   -1    0    0    0    0  0.00000000000E+00  0.00000000000E+00  0.45593999997E+02  0.45594000000E+02  0.51100000000E-03 0.  1.
         11   -1    0    0    0    0 -0.00000000000E+00 -0.00000000000E+00 -0.45593999997E+02  0.45594000000E+02  0.51100000000E-03 0. -1.
         23    2    1    2    0    0  0.00000000000E+00  0.00000000000E+00  0.00000000000E+00  0.91188000000E+02  0.91188000000E+02 0.  0.
    9900012    2    3    3    0    0 -0.47882439522E+01  0.13500996371E+02  0.33920138336E+02  0.54367082468E+02  0.39999996103E+02 0.  0.
         12    1    3    3    0    0  0.47882439522E+01 -0.13500996371E+02 -0.33920138336E+02  0.36820917532E+02  0.00000000000E+00 0. -1.
         11    1    4    4    0    0  0.85333760538E+01  0.16938563880E+01  0.22783736841E+02  0.24388241451E+02  0.51100000000E-03 0. -1.
        -11    1    4    4    0    0  0.36090374026E+01  0.85444786865E+01 -0.31433651987E+00  0.92807367545E+01  0.51100000000E-03 0.  1.
         12    1    4    4    0    0 -0.16930657409E+02  0.32626612963E+01  0.11450738014E+02  0.20698104263E+02  0.00000000000E+00 0. -1.
</event>
<event>
 8    1  0.3137106E-007  0.9118800E+02  0.7816164E-02  0.1184000E+00
        -11   -1    0    0    0    0  0.00000000000E+00  0.00000000000E+00  0.45593999997E+02  0.45594000000E+02  0.51100000000E-03 0.  1.
         11   -1    0    0    0    0 -0.00000000000E+00 -0.00000000000E+00 -0.45593999997E+02  0.45594000000E+02  0.51100000000E-03 0. -1.
         23    2    1    2    0    0  0.00000000000E+00  0.44408920985E-15  0.00000000000E+00  0.91188000000E+02  0.91188000000E+02 0.  0.
    9900012    2    3    3    0    0  0.36333993827E+02  0.35843721027E+01  0.47722098364E+01  0.54367070931E+02  0.39999969801E+02 0.  0.
         12    1    3    3    0    0 -0.36333993827E+02 -0.35843721027E+01 -0.47722098364E+01  0.36820929069E+02  0.00000000000E+00 0. -1.
         11    1    4    4    0    0  0.10429035963E+02  0.71335443869E+01  0.65304576000E+01  0.14223189634E+02  0.51100000000E-03 0. -1.
        -11    1    4    4    0    0  0.17759678871E+02  0.10867659293E+02  0.62659609559E+01  0.21743377821E+02  0.51100000000E-03 0.  1.
         12    1    4    4    0    0  0.81452789925E+01 -0.14416831577E+02 -0.80242087196E+01  0.18400503476E+02  0.00000000000E+00 0. -1.
</event>
<event>
 8    1  0.3137106E-007  0.9118800E+02  0.7816164E-02  0.1184000E+00
        -11   -1    0    0    0    0  0.00000000000E+00  0.00000000000E+00  0.45593999997E+02  0.45594000000E+02  0.51100000000E-03 0. -1.
         11   -1    0    0    0    0 -0.00000000000E+00 -0.00000000000E+00 -0.45593999997E+02  0.45594000000E+02  0.51100000000E-03 0.  1.
         23    2    1    2    0    0 -0.35527136788E-14  0.35527136788E-14  0.00000000000E+00  0.91188000000E+02  0.91188000000E+02 0.  0.
    9900012    2    3    3    0    0 -0.26481818797E+02 -0.24556782759E+02 -0.71733560234E+01  0.54367090955E+02  0.40000015450E+02 0.  0.
         12    1    3    3    0    0  0.26481818797E+02  0.24556782759E+02  0.71733560234E+01  0.36820909045E+02  0.00000000000E+00 0. -1.
         11    1    4    4    0    0 -0.27553575462E+02 -0.87095031169E+01 -0.15004444403E+02  0.32560533125E+02  0.51100000000E-03 0.  1.
        -11    1    4    4    0    0 -0.28033515126E+01 -0.16156676142E+02  0.56205851499E+01  0.17334588006E+02  0.51100000000E-03 0. -1.
        -12    1    4    4    0    0  0.38751081770E+01  0.30939649978E+00  0.22105032300E+01  0.44719698241E+01  0.00000000000E+00 0.  1.
</event>
<event>
 8    1  0.3137106E-007  0.9118800E+02  0.7816164E-02  0.1184000E+00
        -11   -1    0    0    0    0  0.00000000000E+00  0.00000000000E+00  0.45593999997E+02  0.45594000000E+02  0.51100000000E-03 0.  1.
         11   -1    0    0    0    0 -0.00000000000E+00 -0.00000000000E+00 -0.45593999997E+02  0.45594000000E+02  0.51100000000E-03 0. -1.
         23    2    1    2    0    0  0.88817841970E-15 -0.35527136788E-14  0.35527136788E-14  0.91188000000E+02  0.91188000000E+02 0.  0.
    9900012    2    3    3    0    0  0.31059752189E+01 -0.24728911482E+02  0.27103747674E+02  0.54367091767E+02  0.40000017301E+02 0.  0.
         12    1    3    3    0    0 -0.31059752189E+01  0.24728911482E+02 -0.27103747674E+02  0.36820908233E+02  0.00000000000E+00 0. -1.
         11    1    4    4    0    0  0.95396486317E+00 -0.28328798665E+00  0.14711365545E+02  0.14744984826E+02  0.51100000000E-03 0. -1.
        -11    1    4    4    0    0 -0.11654159016E+02 -0.56403871816E+01 -0.52035950294E+00  0.12957783924E+02  0.51100000000E-03 0.  1.
         12    1    4    4    0    0  0.13806169372E+02 -0.18805236314E+02  0.12912741632E+02  0.26664323018E+02  0.00000000000E+00 0. -1.
</event>
<event>
 8    1  0.3137106E-007  0.9118800E+02  0.7816164E-02  0.1184000E+00
        -11   -1    0    0    0    0  0.00000000000E+00  0.00000000000E+00  0.45593999997E+02  0.45594000000E+02  0.51100000000E-03 0.  1.
         11   -1    0    0    0    0 -0.00000000000E+00 -0.00000000000E+00 -0.45593999997E+02  0.45594000000E+02  0.51100000000E-03 0. -1.
         23    2    1    2    0    0 -0.71054273576E-14  0.17763568394E-14  0.71054273576E-14  0.91188000000E+02  0.91188000000E+02 0.  0.
    9900012    2    3    3    0    0 -0.19445521413E+02  0.97944954713E+01  0.29693693671E+02  0.54367137865E+02  0.40000122390E+02 0.  0.
        -12    1    3    3    0    0  0.19445521413E+02 -0.97944954713E+01 -0.29693693671E+02  0.36820862135E+02  0.00000000000E+00 0.  1.
         11    1    4    4    0    0  0.22033713586E+01  0.14563333795E+02 -0.15752308879E+01  0.14813064814E+02  0.51100000000E-03 0. -1.
        -11    1    4    4    0    0 -0.44419498586E+01 -0.51462495705E+01  0.11343082568E+02  0.13224232514E+02  0.51100000000E-03 0.  1.
         12    1    4    4    0    0 -0.17206942913E+02  0.37741124685E+00  0.19925841991E+02  0.26329840537E+02  0.00000000000E+00 0. -1.
</event>
<event>
 8    1  0.3137106E-007  0.9118800E+02  0.7816164E-02  0.1184000E+00
        -11   -1    0    0    0    0  0.00000000000E+00  0.00000000000E+00  0.45593999997E+02  0.45594000000E+02  0.51100000000E-03 0. -1.
         11   -1    0    0    0    0 -0.00000000000E+00 -0.00000000000E+00 -0.45593999997E+02  0.45594000000E+02  0.51100000000E-03 0.  1.
         23    2    1    2    0    0 -0.88817841970E-15 -0.35527136788E-14  0.00000000000E+00  0.91188000000E+02  0.91188000000E+02 0.  0.
    9900012    2    3    3    0    0  0.44498494983E+01  0.24047796102E+02 -0.27526038827E+02  0.54367075631E+02  0.39999980516E+02 0.  0.
         12    1    3    3    0    0 -0.44498494983E+01 -0.24047796102E+02  0.27526038827E+02  0.36820924369E+02  0.00000000000E+00 0. -1.
         11    1    4    4    0    0 -0.43060947141E+01 -0.48411866916E+01 -0.21917338741E+02  0.22854961782E+02  0.51100000000E-03 0. -1.
        -11    1    4    4    0    0  0.32715993279E+01  0.17991714726E+02 -0.52090489254E+00  0.18294165822E+02  0.51100000000E-03 0.  1.
        -12    1    4    4    0    0  0.54843448845E+01  0.10897268067E+02 -0.50877951928E+01  0.13217948028E+02  0.00000000000E+00 0.  1.
</event>
<event>
 8    1  0.3137106E-007  0.9118800E+02  0.7816164E-02  0.1184000E+00
        -11   -1    0    0    0    0  0.00000000000E+00  0.00000000000E+00  0.45593999997E+02  0.45594000000E+02  0.51100000000E-03 0.  1.
         11   -1    0    0    0    0 -0.00000000000E+00 -0.00000000000E+00 -0.45593999997E+02  0.45594000000E+02  0.51100000000E-03 0. -1.
         23    2    1    2    0    0  0.00000000000E+00 -0.88817841970E-15 -0.88817841970E-15  0.91188000000E+02  0.91188000000E+02 0.  0.
    9900012    2    3    3    0    0  0.36515110970E+02  0.40909362412E+01  0.23854925205E+01  0.54367086608E+02  0.40000005539E+02 0.  0.
        -12    1    3    3    0    0 -0.36515110970E+02 -0.40909362412E+01 -0.23854925205E+01  0.36820913392E+02  0.00000000000E+00 0.  1.
         11    1    4    4    0    0  0.99391652508E+01  0.70153808195E+01 -0.49603309163E+01  0.13138015717E+02  0.51100000000E-03 0. -1.
        -11    1    4    4    0    0  0.32744528631E+02  0.99765741648E+00  0.84607585219E+01  0.33834655468E+02  0.51100000000E-03 0.  1.
        -12    1    4    4    0    0 -0.61685829119E+01 -0.39221019947E+01 -0.11149350851E+01  0.73944154226E+01  0.00000000000E+00 0.  1.
</event>
<event>
 8    1  0.3137106E-007  0.9118800E+02  0.7816164E-02  0.1184000E+00
        -11   -1    0    0    0    0  0.00000000000E+00  0.00000000000E+00  0.45593999997E+02  0.45594000000E+02  0.51100000000E-03 0.  1.
         11   -1    0    0    0    0 -0.00000000000E+00 -0.00000000000E+00 -0.45593999997E+02  0.45594000000E+02  0.51100000000E-03 0. -1.
         23    2    1    2    0    0 -0.44408920985E-15  0.00000000000E+00  0.17763568394E-14  0.91188000000E+02  0.91188000000E+02 0.  0.
    9900012    2    3    3    0    0  0.35142835747E+01  0.36001448907E+02  0.68793788413E+01  0.54367077066E+02  0.39999983788E+02 0.  0.
         12    1    3    3    0    0 -0.35142835747E+01 -0.36001448907E+02 -0.68793788413E+01  0.36820922934E+02  0.00000000000E+00 0. -1.
         11    1    4    4    0    0  0.28434948795E+01  0.45029899640E+01 -0.12751771472E+02  0.13819191643E+02  0.51100000000E-03 0. -1.
        -11    1    4    4    0    0 -0.70317461475E+01  0.87479653226E+01  0.41213988521E+01  0.11956516212E+02  0.51100000000E-03 0.  1.
         12    1    4    4    0    0  0.77025348427E+01  0.22750493620E+02  0.15509751461E+02  0.28591369211E+02  0.00000000000E+00 0. -1.
</event>
<event>
 8    1  0.3137106E-007  0.9118800E+02  0.7816164E-02  0.1184000E+00
        -11   -1    0    0    0    0  0.00000000000E+00  0.00000000000E+00  0.45593999997E+02  0.45594000000E+02  0.51100000000E-03 0. -1.
         11   -1    0    0    0    0 -0.00000000000E+00 -0.00000000000E+00 -0.45593999997E+02  0.45594000000E+02  0.51100000000E-03 0.  1.
         23    2    1    2    0    0 -0.17763568394E-14 -0.71054273576E-14  0.35527136788E-14  0.91188000000E+02  0.91188000000E+02 0.  0.
    9900012    2    3    3    0    0  0.89389681240E+01  0.31463597172E+02 -0.16909020285E+02  0.54367108306E+02  0.40000055005E+02 0.  0.
         12    1    3    3    0    0 -0.89389681240E+01 -0.31463597172E+02  0.16909020285E+02  0.36820891694E+02  0.00000000000E+00 0. -1.
         11    1    4    4    0    0  0.12433683265E+02  0.39154701948E+02 -0.86310792152E+01  0.41978359816E+02  0.51100000000E-03 0. -1.
        -11    1    4    4    0    0 -0.38447268275E+01 -0.62963040061E+01 -0.80730889757E+01  0.10936184636E+02  0.51100000000E-03 0.  1.
        -12    1    4    4    0    0  0.35001168699E+00 -0.13948007702E+01 -0.20485209393E+00  0.14525638540E+01  0.00000000000E+00 0.  1.
</event>
<event>
 8    1  0.3137106E-007  0.9118800E+02  0.7816164E-02  0.1184000E+00
        -11   -1    0    0    0    0  0.00000000000E+00  0.00000000000E+00  0.45593999997E+02  0.45594000000E+02  0.51100000000E-03 0.  1.
         11   -1    0    0    0    0 -0.00000000000E+00 -0.00000000000E+00 -0.45593999997E+02  0.45594000000E+02  0.51100000000E-03 0. -1.
         23    2    1    2    0    0  0.00000000000E+00  0.00000000000E+00  0.00000000000E+00  0.91188000000E+02  0.91188000000E+02 0.  0.
    9900012    2    3    3    0    0 -0.34853163747E+02  0.42064946787E+01 -0.11105953058E+02  0.54367084558E+02  0.40000000866E+02 0.  0.
         12    1    3    3    0    0  0.34853163747E+02 -0.42064946787E+01  0.11105953058E+02  0.36820915442E+02  0.00000000000E+00 0. -1.
         11    1    4    4    0    0 -0.34582816682E+02 -0.32583383482E+01 -0.14460698655E+02  0.37625786162E+02  0.51100000000E-03 0. -1.
        -11    1    4    4    0    0 -0.36960401931E+01 -0.25640884753E+01  0.41411817159E+01  0.61142987401E+01  0.51100000000E-03 0.  1.
        -12    1    4    4    0    0  0.34256931281E+01  0.10028921502E+02 -0.78643611885E+00  0.10626999655E+02  0.00000000000E+00 0.  1.
</event>
<event>
 8    1  0.3137106E-007  0.9118800E+02  0.7816164E-02  0.1184000E+00
        -11   -1    0    0    0    0  0.00000000000E+00  0.00000000000E+00  0.45593999997E+02  0.45594000000E+02  0.51100000000E-03 0.  1.
         11   -1    0    0    0    0 -0.00000000000E+00 -0.00000000000E+00 -0.45593999997E+02  0.45594000000E+02  0.51100000000E-03 0. -1.
         23    2    1    2    0    0 -0.88817841970E-15  0.00000000000E+00  0.00000000000E+00  0.91188000000E+02  0.91188000000E+02 0.  0.
    9900012    2    3    3    0    0  0.31452596948E+01 -0.34611214514E+02 -0.12163507079E+02  0.54367085656E+02  0.40000003370E+02 0.  0.
         12    1    3    3    0    0 -0.31452596948E+01  0.34611214514E+02  0.12163507079E+02  0.36820914344E+02  0.00000000000E+00 0. -1.
         11    1    4    4    0    0  0.64924400973E+01 -0.36595950203E+02 -0.13827038613E+02  0.39656050569E+02  0.51100000000E-03 0. -1.
        -11    1    4    4    0    0  0.31759759691E+01 -0.32543082353E+01 -0.26861456766E+01  0.52813562940E+01  0.51100000000E-03 0.  1.
         12    1    4    4    0    0 -0.65231563716E+01  0.52390439248E+01  0.43496772108E+01  0.94296787926E+01  0.00000000000E+00 0. -1.
</event>
<event>
 8    1  0.3137106E-007  0.9118800E+02  0.7816164E-02  0.1184000E+00
        -11   -1    0    0    0    0  0.00000000000E+00  0.00000000000E+00  0.45593999997E+02  0.45594000000E+02  0.51100000000E-03 0. -1.
         11   -1    0    0    0    0 -0.00000000000E+00 -0.00000000000E+00 -0.45593999997E+02  0.45594000000E+02  0.51100000000E-03 0.  1.
         23    2    1    2    0    0  0.00000000000E+00  0.00000000000E+00  0.00000000000E+00  0.91188000000E+02  0.91188000000E+02 0.  0.
    9900012    2    3    3    0    0  0.29779896065E+01  0.58788948184E+01  0.36226351029E+02  0.54367104638E+02  0.40000046643E+02 0.  0.
        -12    1    3    3    0    0 -0.29779896065E+01 -0.58788948184E+01 -0.36226351029E+02  0.36820895362E+02  0.00000000000E+00 0.  1.
         11    1    4    4    0    0  0.12183471239E+02 -0.12397309787E+02  0.77052171441E+01  0.19013169985E+02  0.51100000000E-03 0.  1.
        -11    1    4    4    0    0 -0.59939551171E+01  0.11804419322E+02  0.21688832117E+02  0.25410180093E+02  0.51100000000E-03 0. -1.
        -12    1    4    4    0    0 -0.32115265155E+01  0.64717852831E+01  0.68323017675E+01  0.99437545602E+01  0.00000000000E+00 0.  1.
</event>
<event>
 8    1  0.3137106E-007  0.9118800E+02  0.7816164E-02  0.1184000E+00
        -11   -1    0    0    0    0  0.00000000000E+00  0.00000000000E+00  0.45593999997E+02  0.45594000000E+02  0.51100000000E-03 0.  1.
         11   -1    0    0    0    0 -0.00000000000E+00 -0.00000000000E+00 -0.45593999997E+02  0.45594000000E+02  0.51100000000E-03 0. -1.
         23    2    1    2    0    0 -0.17763568394E-14  0.00000000000E+00  0.00000000000E+00  0.91188000000E+02  0.91188000000E+02 0.  0.
    9900012    2    3    3    0    0 -0.93201692339E+01  0.90667282016E+01  0.34448648017E+02  0.54367075717E+02  0.39999980712E+02 0.  0.
         12    1    3    3    0    0  0.93201692339E+01 -0.90667282016E+01 -0.34448648017E+02  0.36820924283E+02  0.00000000000E+00 0. -1.
         11    1    4    4    0    0  0.81943663025E+01  0.99696108879E+01  0.46170464289E+01  0.13706126307E+02  0.51100000000E-03 0. -1.
        -11    1    4    4    0    0 -0.62221960443E+01  0.70633745944E+01  0.20525876650E+01  0.96343188996E+01  0.51100000000E-03 0.  1.
         12    1    4    4    0    0 -0.11292339492E+02 -0.79662572808E+01  0.27779013923E+02  0.31026630510E+02  0.00000000000E+00 0. -1.
</event>
<event>
 8    1  0.3137106E-007  0.9118800E+02  0.7816164E-02  0.1184000E+00
        -11   -1    0    0    0    0  0.00000000000E+00  0.00000000000E+00  0.45593999997E+02  0.45594000000E+02  0.51100000000E-03 0.  1.
         11   -1    0    0    0    0 -0.00000000000E+00 -0.00000000000E+00 -0.45593999997E+02  0.45594000000E+02  0.51100000000E-03 0. -1.
         23    2    1    2    0    0 -0.17763568394E-14  0.71054273576E-14  0.00000000000E+00  0.91188000000E+02  0.91188000000E+02 0.  0.
    9900012    2    3    3    0    0 -0.48553276921E+01  0.35104517494E+02  0.99937930656E+01  0.54367119303E+02  0.40000080074E+02 0.  0.
         12    1    3    3    0    0  0.48553276921E+01 -0.35104517494E+02 -0.99937930656E+01  0.36820880697E+02  0.00000000000E+00 0. -1.
         11    1    4    4    0    0 -0.43038503624E+01 -0.38462743389E+00  0.83725864549E+01  0.94218506893E+01  0.51100000000E-03 0. -1.
        -11    1    4    4    0    0  0.58319003370E+01  0.22618618763E+02  0.12896856795E+02  0.26682239257E+02  0.51100000000E-03 0.  1.
        -12    1    4    4    0    0 -0.63833776667E+01  0.12870526165E+02 -0.11275650185E+02  0.18263029356E+02  0.00000000000E+00 0.  1.
</event>
<event>
 8    1  0.3137106E-007  0.9118800E+02  0.7816164E-02  0.1184000E+00
        -11   -1    0    0    0    0  0.00000000000E+00  0.00000000000E+00  0.45593999997E+02  0.45594000000E+02  0.51100000000E-03 0. -1.
         11   -1    0    0    0    0 -0.00000000000E+00 -0.00000000000E+00 -0.45593999997E+02  0.45594000000E+02  0.51100000000E-03 0.  1.
         23    2    1    2    0    0  0.00000000000E+00 -0.35527136788E-14  0.17763568394E-14  0.91188000000E+02  0.91188000000E+02 0.  0.
    9900012    2    3    3    0    0  0.25141413904E+02 -0.25394502987E+02 -0.88773610362E+01  0.54367095421E+02  0.40000025632E+02 0.  0.
        -12    1    3    3    0    0 -0.25141413904E+02  0.25394502987E+02  0.88773610362E+01  0.36820904579E+02  0.00000000000E+00 0.  1.
         11    1    4    4    0    0  0.13836627743E+02 -0.18760626754E+02 -0.55989786714E+01  0.23974193332E+02  0.51100000000E-03 0. -1.
        -11    1    4    4    0    0  0.83735990181E+01  0.94530391823E+01 -0.57135320161E+01  0.13860792137E+02  0.51100000000E-03 0.  1.
        -12    1    4    4    0    0  0.29311871426E+01 -0.16086915416E+02  0.24351496512E+01  0.16532109953E+02  0.00000000000E+00 0.  1.
</event>
<event>
 8    1  0.3137106E-007  0.9118800E+02  0.7816164E-02  0.1184000E+00
        -11   -1    0    0    0    0  0.00000000000E+00  0.00000000000E+00  0.45593999997E+02  0.45594000000E+02  0.51100000000E-03 0. -1.
         11   -1    0    0    0    0 -0.00000000000E+00 -0.00000000000E+00 -0.45593999997E+02  0.45594000000E+02  0.51100000000E-03 0.  1.
         23    2    1    2    0    0 -0.66613381478E-15 -0.17763568394E-14  0.14210854715E-13  0.91188000000E+02  0.91188000000E+02 0.  0.
    9900012    2    3    3    0    0  0.88150511599E+00  0.14807393885E+02 -0.33700802516E+02  0.54367081283E+02  0.39999993400E+02 0.  0.
         12    1    3    3    0    0 -0.88150511599E+00 -0.14807393885E+02  0.33700802516E+02  0.36820918717E+02  0.00000000000E+00 0. -1.
         11    1    4    4    0    0  0.14867271228E+02  0.25895141943E+01 -0.73708365668E+01  0.16794956668E+02  0.51100000000E-03 0. -1.
        -11    1    4    4    0    0 -0.15188667275E+02  0.11410939193E+02 -0.28921729243E+02  0.34603057228E+02  0.51100000000E-03 0.  1.
        -12    1    4    4    0    0  0.12029011633E+01  0.80694049839E+00  0.25917632932E+01  0.29690673863E+01  0.00000000000E+00 0.  1.
</event>
<event>
 8    1  0.3137106E-007  0.9118800E+02  0.7816164E-02  0.1184000E+00
        -11   -1    0    0    0    0  0.00000000000E+00  0.00000000000E+00  0.45593999997E+02  0.45594000000E+02  0.51100000000E-03 0.  1.
         11   -1    0    0    0    0 -0.00000000000E+00 -0.00000000000E+00 -0.45593999997E+02  0.45594000000E+02  0.51100000000E-03 0. -1.
         23    2    1    2    0    0  0.88817841970E-15  0.00000000000E+00 -0.71054273576E-14  0.91188000000E+02  0.91188000000E+02 0.  0.
    9900012    2    3    3    0    0 -0.63489972740E+01 -0.81008696619E+01  0.35353193995E+02  0.54367052412E+02  0.39999927583E+02 0.  0.
         12    1    3    3    0    0  0.63489972740E+01  0.81008696619E+01 -0.35353193995E+02  0.36820947588E+02  0.00000000000E+00 0. -1.
         11    1    4    4    0    0 -0.91415204027E+01 -0.15917073859E+02  0.19973866489E+01  0.18463753388E+02  0.51100000000E-03 0. -1.
        -11    1    4    4    0    0 -0.33358750817E+01  0.39783896777E+01  0.20563191370E+02  0.21208500337E+02  0.51100000000E-03 0.  1.
         12    1    4    4    0    0  0.61283982104E+01  0.38378145190E+01  0.12792615976E+02  0.14694798686E+02  0.00000000000E+00 0. -1.
</event>
<event>
 8    1  0.3137106E-007  0.9118800E+02  0.7816164E-02  0.1184000E+00
        -11   -1    0    0    0    0  0.00000000000E+00  0.00000000000E+00  0.45593999997E+02  0.45594000000E+02  0.51100000000E-03 0. -1.
         11   -1    0    0    0    0 -0.00000000000E+00 -0.00000000000E+00 -0.45593999997E+02  0.45594000000E+02  0.51100000000E-03 0.  1.
         23    2    1    2    0    0  0.44408920985E-15 -0.35527136788E-14  0.00000000000E+00  0.91188000000E+02  0.91188000000E+02 0.  0.
    9900012    2    3    3    0    0 -0.21635989227E+01  0.16803192922E+02  0.32691761189E+02  0.54367086075E+02  0.40000004325E+02 0.  0.
        -12    1    3    3    0    0  0.21635989227E+01 -0.16803192922E+02 -0.32691761189E+02  0.36820913925E+02  0.00000000000E+00 0.  1.
         11    1    4    4    0    0 -0.44239768550E+01  0.21026173384E+02  0.20632030733E+02  0.29788458014E+02  0.51100000000E-03 0. -1.
        -11    1    4    4    0    0 -0.29705217765E+01 -0.55157060511E+01  0.16466398424E+02  0.17617868491E+02  0.51100000000E-03 0.  1.
         12    1    4    4    0    0  0.52308997088E+01  0.12927255887E+01 -0.44066679682E+01  0.69607595701E+01  0.00000000000E+00 0. -1.
</event>
<event>
 8    1  0.3137106E-007  0.9118800E+02  0.7816164E-02  0.1184000E+00
        -11   -1    0    0    0    0  0.00000000000E+00  0.00000000000E+00  0.45593999997E+02  0.45594000000E+02  0.51100000000E-03 0. -1.
         11   -1    0    0    0    0 -0.00000000000E+00 -0.00000000000E+00 -0.45593999997E+02  0.45594000000E+02  0.51100000000E-03 0.  1.
         23    2    1    2    0    0  0.00000000000E+00  0.35527136788E-14 -0.35527136788E-14  0.91188000000E+02  0.91188000000E+02 0.  0.
    9900012    2    3    3    0    0 -0.26755666059E+02 -0.13136520621E+02  0.21618188128E+02  0.54367083414E+02  0.39999998259E+02 0.  0.
        -12    1    3    3    0    0  0.26755666059E+02  0.13136520621E+02 -0.21618188128E+02  0.36820916586E+02  0.00000000000E+00 0.  1.
         11    1    4    4    0    0  0.17059346700E+01  0.29324613654E+01  0.67841105849E+01  0.75850971943E+01  0.51100000000E-03 0. -1.
        -11    1    4    4    0    0 -0.53652688063E+01 -0.89491429102E+01  0.19547320523E+02  0.22157865603E+02  0.51100000000E-03 0.  1.
        -12    1    4    4    0    0 -0.23096331922E+02 -0.71198390767E+01 -0.47132429802E+01  0.24624120616E+02  0.00000000000E+00 0.  1.
</event>
<event>
 8    1  0.3137106E-007  0.9118800E+02  0.7816164E-02  0.1184000E+00
        -11   -1    0    0    0    0  0.00000000000E+00  0.00000000000E+00  0.45593999997E+02  0.45594000000E+02  0.51100000000E-03 0. -1.
         11   -1    0    0    0    0 -0.00000000000E+00 -0.00000000000E+00 -0.45593999997E+02  0.45594000000E+02  0.51100000000E-03 0.  1.
         23    2    1    2    0    0  0.00000000000E+00  0.00000000000E+00  0.00000000000E+00  0.91188000000E+02  0.91188000000E+02 0.  0.
    9900012    2    3    3    0    0  0.80927838775E+01 -0.13184856498E+02  0.33413309255E+02  0.54367043642E+02  0.39999907591E+02 0.  0.
        -12    1    3    3    0    0 -0.80927838775E+01  0.13184856498E+02 -0.33413309255E+02  0.36820956358E+02  0.00000000000E+00 0.  1.
         11    1    4    4    0    0  0.12078559953E+02  0.10178036526E+01  0.83581896561E+01  0.14723683962E+02  0.51100000000E-03 0. -1.
        -11    1    4    4    0    0  0.30366850238E+01 -0.13861767341E+02  0.28482485574E+02  0.31821722682E+02  0.51100000000E-03 0.  1.
        -12    1    4    4    0    0 -0.70224610997E+01 -0.34089280902E+00 -0.34273659750E+01  0.78216369981E+01  0.00000000000E+00 0.  1.
</event>
<event>
 8    1  0.3137106E-007  0.9118800E+02  0.7816164E-02  0.1184000E+00
        -11   -1    0    0    0    0  0.00000000000E+00  0.00000000000E+00  0.45593999997E+02  0.45594000000E+02  0.51100000000E-03 0.  1.
         11   -1    0    0    0    0 -0.00000000000E+00 -0.00000000000E+00 -0.45593999997E+02  0.45594000000E+02  0.51100000000E-03 0. -1.
         23    2    1    2    0    0  0.00000000000E+00 -0.17763568394E-14  0.00000000000E+00  0.91188000000E+02  0.91188000000E+02 0.  0.
    9900012    2    3    3    0    0  0.34894789433E+02 -0.11499234204E+02 -0.24291257034E+01  0.54367090607E+02  0.40000014657E+02 0.  0.
         12    1    3    3    0    0 -0.34894789433E+02  0.11499234204E+02  0.24291257034E+01  0.36820909393E+02  0.00000000000E+00 0. -1.
         11    1    4    4    0    0  0.17270814100E+02 -0.19188539731E+02 -0.48685579256E+01  0.26271351949E+02  0.51100000000E-03 0. -1.
        -11    1    4    4    0    0  0.22910856355E+01  0.30961044561E+01  0.97618638625E+01  0.10494232822E+02  0.51100000000E-03 0.  1.
         12    1    4    4    0    0  0.15332889698E+02  0.45932010716E+01 -0.73224316403E+01  0.17601505836E+02  0.00000000000E+00 0. -1.
</event>
<event>
 8    1  0.3137106E-007  0.9118800E+02  0.7816164E-02  0.1184000E+00
        -11   -1    0    0    0    0  0.00000000000E+00  0.00000000000E+00  0.45593999997E+02  0.45594000000E+02  0.51100000000E-03 0.  1.
         11   -1    0    0    0    0 -0.00000000000E+00 -0.00000000000E+00 -0.45593999997E+02  0.45594000000E+02  0.51100000000E-03 0. -1.
         23    2    1    2    0    0  0.35527136788E-14  0.44408920985E-15  0.00000000000E+00  0.91188000000E+02  0.91188000000E+02 0.  0.
    9900012    2    3    3    0    0 -0.25419584780E+02 -0.36240074346E+00  0.26636315434E+02  0.54367083056E+02  0.39999997442E+02 0.  0.
        -12    1    3    3    0    0  0.25419584780E+02  0.36240074346E+00 -0.26636315434E+02  0.36820916944E+02  0.00000000000E+00 0.  1.
         11    1    4    4    0    0 -0.66556899526E+01  0.11434115696E+02 -0.37090149269E+01  0.13740232985E+02  0.51100000000E-03 0. -1.
        -11    1    4    4    0    0 -0.10240046719E+02 -0.69748808100E+01  0.27908593276E+02  0.30535178041E+02  0.51100000000E-03 0.  1.
         12    1    4    4    0    0 -0.85238481089E+01 -0.48216356295E+01  0.24367370856E+01  0.10091672030E+02  0.00000000000E+00 0. -1.
</event>
<event>
 8    1  0.3137106E-007  0.9118800E+02  0.7816164E-02  0.1184000E+00
        -11   -1    0    0    0    0  0.00000000000E+00  0.00000000000E+00  0.45593999997E+02  0.45594000000E+02  0.51100000000E-03 0.  1.
         11   -1    0    0    0    0 -0.00000000000E+00 -0.00000000000E+00 -0.45593999997E+02  0.45594000000E+02  0.51100000000E-03 0. -1.
         23    2    1    2    0    0 -0.11102230246E-14  0.00000000000E+00  0.00000000000E+00  0.91188000000E+02  0.91188000000E+02 0.  0.
    9900012    2    3    3    0    0 -0.16742998594E+01  0.34090759779E+01  0.36624496754E+02  0.54367097763E+02  0.40000030971E+02 0.  0.
         12    1    3    3    0    0  0.16742998594E+01 -0.34090759779E+01 -0.36624496754E+02  0.36820902237E+02  0.00000000000E+00 0. -1.
         11    1    4    4    0    0 -0.10588132375E+02  0.42483233130E+01 -0.13795180206E+01  0.11491730435E+02  0.51100000000E-03 0. -1.
        -11    1    4    4    0    0 -0.20632437236E+01  0.63642332764E+01  0.11745103506E+02  0.13516948490E+02  0.51100000000E-03 0.  1.
         12    1    4    4    0    0  0.10977076239E+02 -0.72034806115E+01  0.26258911269E+02  0.29358418839E+02  0.00000000000E+00 0. -1.
</event>
<event>
 8    1  0.3137106E-007  0.9118800E+02  0.7816164E-02  0.1184000E+00
        -11   -1    0    0    0    0  0.00000000000E+00  0.00000000000E+00  0.45593999997E+02  0.45594000000E+02  0.51100000000E-03 0. -1.
         11   -1    0    0    0    0 -0.00000000000E+00 -0.00000000000E+00 -0.45593999997E+02  0.45594000000E+02  0.51100000000E-03 0.  1.
         23    2    1    2    0    0  0.00000000000E+00  0.00000000000E+00  0.00000000000E+00  0.91188000000E+02  0.91188000000E+02 0.  0.
    9900012    2    3    3    0    0  0.17128517632E+02 -0.32201874071E+02 -0.50429111880E+01  0.54367112406E+02  0.40000064353E+02 0.  0.
         12    1    3    3    0    0 -0.17128517632E+02  0.32201874071E+02  0.50429111880E+01  0.36820887594E+02  0.00000000000E+00 0. -1.
         11    1    4    4    0    0  0.11614358527E+02  0.25558237947E+00 -0.64777647991E+00  0.11635216413E+02  0.51100000000E-03 0. -1.
        -11    1    4    4    0    0 -0.83141734474E+01 -0.68708681517E+01  0.53743563380E+01  0.12050643783E+02  0.51100000000E-03 0.  1.
        -12    1    4    4    0    0  0.13828332553E+02 -0.25586588298E+02 -0.97694910461E+01  0.30681252211E+02  0.00000000000E+00 0.  1.
</event>
<event>
 8    1  0.3137106E-007  0.9118800E+02  0.7816164E-02  0.1184000E+00
        -11   -1    0    0    0    0  0.00000000000E+00  0.00000000000E+00  0.45593999997E+02  0.45594000000E+02  0.51100000000E-03 0.  1.
         11   -1    0    0    0    0 -0.00000000000E+00 -0.00000000000E+00 -0.45593999997E+02  0.45594000000E+02  0.51100000000E-03 0. -1.
         23    2    1    2    0    0  0.00000000000E+00 -0.35527136788E-14  0.17763568394E-14  0.91188000000E+02  0.91188000000E+02 0.  0.
    9900012    2    3    3    0    0 -0.24180549929E+02  0.26344345749E+02  0.87782696361E+01  0.54367060772E+02  0.39999946642E+02 0.  0.
         12    1    3    3    0    0  0.24180549929E+02 -0.26344345749E+02 -0.87782696361E+01  0.36820939228E+02  0.00000000000E+00 0. -1.
         11    1    4    4    0    0 -0.79707160399E+01  0.11627800165E+02 -0.10827565606E+02  0.17775663928E+02  0.51100000000E-03 0. -1.
        -11    1    4    4    0    0  0.86736481804E+00  0.12983029920E+02  0.46281260636E+01  0.13810537236E+02  0.51100000000E-03 0.  1.
         12    1    4    4    0    0 -0.17077198707E+02  0.17335156640E+01  0.14977709179E+02  0.22780859608E+02  0.00000000000E+00 0. -1.
</event>
<event>
 8    1  0.3137106E-007  0.9118800E+02  0.7816164E-02  0.1184000E+00
        -11   -1    0    0    0    0  0.00000000000E+00  0.00000000000E+00  0.45593999997E+02  0.45594000000E+02  0.51100000000E-03 0.  1.
         11   -1    0    0    0    0 -0.00000000000E+00 -0.00000000000E+00 -0.45593999997E+02  0.45594000000E+02  0.51100000000E-03 0. -1.
         23    2    1    2    0    0  0.00000000000E+00  0.00000000000E+00  0.00000000000E+00  0.91188000000E+02  0.91188000000E+02 0.  0.
    9900012    2    3    3    0    0 -0.17142184755E+01  0.15197726412E+02  0.33494327817E+02  0.54367089786E+02  0.40000012785E+02 0.  0.
         12    1    3    3    0    0  0.17142184755E+01 -0.15197726412E+02 -0.33494327817E+02  0.36820910214E+02  0.00000000000E+00 0. -1.
         11    1    4    4    0    0  0.61587243289E+01  0.16219896500E+02  0.36177045014E+02  0.40122232167E+02  0.51100000000E-03 0.  1.
        -11    1    4    4    0    0 -0.15592840733E+01 -0.58418936632E+01 -0.12192180001E+01  0.61681100174E+01  0.51100000000E-03 0. -1.
        -12    1    4    4    0    0 -0.63136587312E+01  0.48197235753E+01 -0.14634991972E+01  0.80767476014E+01  0.00000000000E+00 0.  1.
</event>
<event>
 8    1  0.3137106E-007  0.9118800E+02  0.7816164E-02  0.1184000E+00
        -11   -1    0    0    0    0  0.00000000000E+00  0.00000000000E+00  0.45593999997E+02  0.45594000000E+02  0.51100000000E-03 0.  1.
         11   -1    0    0    0    0 -0.00000000000E+00 -0.00000000000E+00 -0.45593999997E+02  0.45594000000E+02  0.51100000000E-03 0. -1.
         23    2    1    2    0    0  0.00000000000E+00  0.17763568394E-14 -0.71054273576E-14  0.91188000000E+02  0.91188000000E+02 0.  0.
    9900012    2    3    3    0    0 -0.26627442622E+02 -0.12667717536E+02  0.22051955367E+02  0.54367075192E+02  0.39999979516E+02 0.  0.
         12    1    3    3    0    0  0.26627442622E+02  0.12667717536E+02 -0.22051955367E+02  0.36820924808E+02  0.00000000000E+00 0. -1.
         11    1    4    4    0    0 -0.14544773292E+02 -0.18969937814E+00  0.54716002545E+01  0.15541068997E+02  0.51100000000E-03 0. -1.
        -11    1    4    4    0    0 -0.13653151884E+02 -0.20935422248E+02  0.70109445546E+01  0.25958694206E+02  0.51100000000E-03 0.  1.
        -12    1    4    4    0    0  0.15704825542E+01  0.84574040899E+01  0.95694105582E+01  0.12867311989E+02  0.00000000000E+00 0.  1.
</event>
<event>
 8    1  0.3137106E-007  0.9118800E+02  0.7816164E-02  0.1184000E+00
        -11   -1    0    0    0    0  0.00000000000E+00  0.00000000000E+00  0.45593999997E+02  0.45594000000E+02  0.51100000000E-03 0. -1.
         11   -1    0    0    0    0 -0.00000000000E+00 -0.00000000000E+00 -0.45593999997E+02  0.45594000000E+02  0.51100000000E-03 0.  1.
         23    2    1    2    0    0  0.00000000000E+00 -0.44408920985E-15  0.00000000000E+00  0.91188000000E+02  0.91188000000E+02 0.  0.
    9900012    2    3    3    0    0  0.23449515065E+02 -0.30998337407E+01  0.28218616108E+02  0.54367095325E+02  0.40000025413E+02 0.  0.
        -12    1    3    3    0    0 -0.23449515065E+02  0.30998337407E+01 -0.28218616108E+02  0.36820904675E+02  0.00000000000E+00 0.  1.
         11    1    4    4    0    0 -0.28800220756E+01 -0.29877363249E+01 -0.48647429314E+01  0.63942802216E+01  0.51100000000E-03 0. -1.
        -11    1    4    4    0    0  0.27525768192E+01 -0.16949915396E+00 -0.34964655761E+01  0.44531652670E+01  0.51100000000E-03 0.  1.
         12    1    4    4    0    0  0.23576960321E+02  0.57401738119E-01  0.36579824616E+02  0.43519649836E+02  0.00000000000E+00 0. -1.
</event>
<event>
 8    1  0.3137106E-007  0.9118800E+02  0.7816164E-02  0.1184000E+00
        -11   -1    0    0    0    0  0.00000000000E+00  0.00000000000E+00  0.45593999997E+02  0.45594000000E+02  0.51100000000E-03 0.  1.
         11   -1    0    0    0    0 -0.00000000000E+00 -0.00000000000E+00 -0.45593999997E+02  0.45594000000E+02  0.51100000000E-03 0. -1.
         23    2    1    2    0    0  0.00000000000E+00 -0.86042284408E-15  0.00000000000E+00  0.91188000000E+02  0.91188000000E+02 0.  0.
    9900012    2    3    3    0    0 -0.12068047441E+02 -0.23931962485E+00 -0.34786269966E+02  0.54367087178E+02  0.40000006839E+02 0.  0.
        -12    1    3    3    0    0  0.12068047441E+02  0.23931962485E+00  0.34786269966E+02  0.36820912822E+02  0.00000000000E+00 0.  1.
         11    1    4    4    0    0 -0.16595563786E+01 -0.15964622578E+02 -0.17236355171E+02  0.23552393536E+02  0.51100000000E-03 0. -1.
        -11    1    4    4    0    0 -0.78745278825E+01  0.32285623817E+01 -0.15796990124E+02  0.17943709251E+02  0.51100000000E-03 0.  1.
        -12    1    4    4    0    0 -0.25339631798E+01  0.12496740571E+02 -0.17529246705E+01  0.12870984391E+02  0.00000000000E+00 0.  1.
</event>
<event>
 8    1  0.3137106E-007  0.9118800E+02  0.7816164E-02  0.1184000E+00
        -11   -1    0    0    0    0  0.00000000000E+00  0.00000000000E+00  0.45593999997E+02  0.45594000000E+02  0.51100000000E-03 0.  1.
         11   -1    0    0    0    0 -0.00000000000E+00 -0.00000000000E+00 -0.45593999997E+02  0.45594000000E+02  0.51100000000E-03 0. -1.
         23    2    1    2    0    0  0.00000000000E+00 -0.88817841970E-15  0.00000000000E+00  0.91188000000E+02  0.91188000000E+02 0.  0.
    9900012    2    3    3    0    0 -0.24957194033E+02  0.56151672236E+01 -0.26483702324E+02  0.54367107484E+02  0.40000053130E+02 0.  0.
        -12    1    3    3    0    0  0.24957194033E+02 -0.56151672236E+01  0.26483702324E+02  0.36820892516E+02  0.00000000000E+00 0.  1.
         11    1    4    4    0    0 -0.11735354165E+02 -0.65454688276E+01 -0.80917663527E+01  0.15685610684E+02  0.51100000000E-03 0. -1.
        -11    1    4    4    0    0 -0.16979279726E+02 -0.33305224215E+01 -0.13685582026E+02  0.22060903773E+02  0.51100000000E-03 0.  1.
         12    1    4    4    0    0  0.37574398583E+01  0.15491158473E+02 -0.47063539450E+01  0.16620593027E+02  0.00000000000E+00 0. -1.
</event>
<event>
 8    1  0.3137106E-007  0.9118800E+02  0.7816164E-02  0.1184000E+00
        -11   -1    0    0    0    0  0.00000000000E+00  0.00000000000E+00  0.45593999997E+02  0.45594000000E+02  0.51100000000E-03 0. -1.
         11   -1    0    0    0    0 -0.00000000000E+00 -0.00000000000E+00 -0.45593999997E+02  0.45594000000E+02  0.51100000000E-03 0.  1.
         23    2    1    2    0    0  0.22204460493E-15  0.00000000000E+00  0.00000000000E+00  0.91188000000E+02  0.91188000000E+02 0.  0.
    9900012    2    3    3    0    0 -0.15872259253E+01 -0.32982512287E+02 -0.16291658988E+02  0.54367033751E+02  0.39999885042E+02 0.  0.
         12    1    3    3    0    0  0.15872259253E+01  0.32982512287E+02  0.16291658988E+02  0.36820966249E+02  0.00000000000E+00 0. -1.
         11    1    4    4    0    0  0.84005550850E+01 -0.50868049469E+01 -0.38156012275E+01  0.10535830451E+02  0.51100000000E-03 0. -1.
        -11    1    4    4    0    0 -0.77144500210E+01 -0.21729360135E+02  0.63288747934E+01  0.23910928201E+02  0.51100000000E-03 0.  1.
         12    1    4    4    0    0 -0.22733309894E+01 -0.61663472051E+01 -0.18804932554E+02  0.19920275099E+02  0.00000000000E+00 0. -1.
</event>
<event>
 8    1  0.3137106E-007  0.9118800E+02  0.7816164E-02  0.1184000E+00
        -11   -1    0    0    0    0  0.00000000000E+00  0.00000000000E+00  0.45593999997E+02  0.45594000000E+02  0.51100000000E-03 0.  1.
         11   -1    0    0    0    0 -0.00000000000E+00 -0.00000000000E+00 -0.45593999997E+02  0.45594000000E+02  0.51100000000E-03 0. -1.
         23    2    1    2    0    0 -0.17763568394E-14 -0.71054273576E-14  0.44408920985E-15  0.91188000000E+02  0.91188000000E+02 0.  0.
    9900012    2    3    3    0    0  0.14306143087E+02 -0.33898982892E+02  0.14043400297E+01  0.54367096398E+02  0.40000027858E+02 0.  0.
         12    1    3    3    0    0 -0.14306143087E+02  0.33898982892E+02 -0.14043400297E+01  0.36820903602E+02  0.00000000000E+00 0. -1.
         11    1    4    4    0    0 -0.75493578968E+01 -0.56983414905E+01 -0.56933102729E+01  0.11039822576E+02  0.51100000000E-03 0. -1.
        -11    1    4    4    0    0  0.82045324252E+01 -0.24034983725E+02  0.12193719263E+02  0.28172354973E+02  0.51100000000E-03 0.  1.
        -12    1    4    4    0    0  0.13650968559E+02 -0.41656576765E+01 -0.50960689601E+01  0.15154918849E+02  0.00000000000E+00 0.  1.
</event>
<event>
 8    1  0.3137106E-007  0.9118800E+02  0.7816164E-02  0.1184000E+00
        -11   -1    0    0    0    0  0.00000000000E+00  0.00000000000E+00  0.45593999997E+02  0.45594000000E+02  0.51100000000E-03 0. -1.
         11   -1    0    0    0    0 -0.00000000000E+00 -0.00000000000E+00 -0.45593999997E+02  0.45594000000E+02  0.51100000000E-03 0.  1.
         23    2    1    2    0    0 -0.17763568394E-14  0.00000000000E+00 -0.35527136788E-14  0.91188000000E+02  0.91188000000E+02 0.  0.
    9900012    2    3    3    0    0 -0.97235924755E+01 -0.25297550244E+02 -0.24925053277E+02  0.54367182792E+02  0.40000224811E+02 0.  0.
         12    1    3    3    0    0  0.97235924755E+01  0.25297550244E+02  0.24925053277E+02  0.36820817208E+02  0.00000000000E+00 0. -1.
         11    1    4    4    0    0 -0.18167085947E+02 -0.18152259170E+02 -0.98825848985E+00  0.25700664970E+02  0.51100000000E-03 0. -1.
        -11    1    4    4    0    0  0.56573922509E+01 -0.29033377536E+01 -0.28336252174E+01  0.69616728827E+01  0.51100000000E-03 0.  1.
        -12    1    4    4    0    0  0.27861012206E+01 -0.42419533208E+01 -0.21103169569E+02  0.21704844940E+02  0.00000000000E+00 0.  1.
</event>
<event>
 8    1  0.3137106E-007  0.9118800E+02  0.7816164E-02  0.1184000E+00
        -11   -1    0    0    0    0  0.00000000000E+00  0.00000000000E+00  0.45593999997E+02  0.45594000000E+02  0.51100000000E-03 0. -1.
         11   -1    0    0    0    0 -0.00000000000E+00 -0.00000000000E+00 -0.45593999997E+02  0.45594000000E+02  0.51100000000E-03 0.  1.
         23    2    1    2    0    0 -0.17763568394E-14  0.00000000000E+00  0.17763568394E-14  0.91188000000E+02  0.91188000000E+02 0.  0.
    9900012    2    3    3    0    0 -0.38088516140E+01 -0.35098921304E+02 -0.10456527095E+02  0.54367074072E+02  0.39999976962E+02 0.  0.
         12    1    3    3    0    0  0.38088516140E+01  0.35098921304E+02  0.10456527095E+02  0.36820925928E+02  0.00000000000E+00 0. -1.
         11    1    4    4    0    0  0.39836778317E+01 -0.30667533565E+01 -0.35286388371E+01  0.61421460029E+01  0.51100000000E-03 0. -1.
        -11    1    4    4    0    0  0.97308467422E+01 -0.48444678054E+01  0.70841501976E+01  0.12974722769E+02  0.51100000000E-03 0.  1.
        -12    1    4    4    0    0 -0.17523376188E+02 -0.27187700142E+02 -0.14012038456E+02  0.35250205300E+02  0.00000000000E+00 0.  1.
</event>
<event>
 8    1  0.3137106E-007  0.9118800E+02  0.7816164E-02  0.1184000E+00
        -11   -1    0    0    0    0  0.00000000000E+00  0.00000000000E+00  0.45593999997E+02  0.45594000000E+02  0.51100000000E-03 0. -1.
         11   -1    0    0    0    0 -0.00000000000E+00 -0.00000000000E+00 -0.45593999997E+02  0.45594000000E+02  0.51100000000E-03 0.  1.
         23    2    1    2    0    0  0.00000000000E+00  0.35527136788E-14  0.00000000000E+00  0.91188000000E+02  0.91188000000E+02 0.  0.
    9900012    2    3    3    0    0  0.17089268146E+02 -0.30036842006E+02 -0.12709157780E+02  0.54367113877E+02  0.40000067704E+02 0.  0.
         12    1    3    3    0    0 -0.17089268146E+02  0.30036842006E+02  0.12709157780E+02  0.36820886123E+02  0.00000000000E+00 0. -1.
         11    1    4    4    0    0  0.20397468463E+02  0.20594512799E+00 -0.99141069167E+01  0.22680137771E+02  0.51100000000E-03 0. -1.
        -11    1    4    4    0    0 -0.60002399142E+01 -0.21973564635E+02 -0.95514626888E+00  0.22798086026E+02  0.51100000000E-03 0.  1.
        -12    1    4    4    0    0  0.26920395972E+01 -0.82692224989E+01 -0.18399045941E+01  0.88888900795E+01  0.00000000000E+00 0.  1.
</event>
<event>
 8    1  0.3137106E-007  0.9118800E+02  0.7816164E-02  0.1184000E+00
        -11   -1    0    0    0    0  0.00000000000E+00  0.00000000000E+00  0.45593999997E+02  0.45594000000E+02  0.51100000000E-03 0.  1.
         11   -1    0    0    0    0 -0.00000000000E+00 -0.00000000000E+00 -0.45593999997E+02  0.45594000000E+02  0.51100000000E-03 0. -1.
         23    2    1    2    0    0  0.71054273576E-14  0.00000000000E+00  0.00000000000E+00  0.91188000000E+02  0.91188000000E+02 0.  0.
    9900012    2    3    3    0    0  0.29794907309E+02 -0.45149013718E+01 -0.21157805322E+02  0.54367169455E+02  0.40000194407E+02 0.  0.
        -12    1    3    3    0    0 -0.29794907309E+02  0.45149013718E+01  0.21157805322E+02  0.36820830545E+02  0.00000000000E+00 0.  1.
         11    1    4    4    0    0  0.25810040429E+02 -0.66429754733E+00 -0.37395273286E+01  0.26087996149E+02  0.51100000000E-03 0. -1.
        -11    1    4    4    0    0  0.45580349864E+01  0.52897493851E+01  0.16062758907E+01  0.71650020232E+01  0.51100000000E-03 0.  1.
         12    1    4    4    0    0 -0.57316810626E+00 -0.91403532096E+01 -0.19024553884E+02  0.21114171283E+02  0.00000000000E+00 0. -1.
</event>
<event>
 8    1  0.3137106E-007  0.9118800E+02  0.7816164E-02  0.1184000E+00
        -11   -1    0    0    0    0  0.00000000000E+00  0.00000000000E+00  0.45593999997E+02  0.45594000000E+02  0.51100000000E-03 0.  1.
         11   -1    0    0    0    0 -0.00000000000E+00 -0.00000000000E+00 -0.45593999997E+02  0.45594000000E+02  0.51100000000E-03 0. -1.
         23    2    1    2    0    0  0.00000000000E+00  0.00000000000E+00  0.00000000000E+00  0.91188000000E+02  0.91188000000E+02 0.  0.
    9900012    2    3    3    0    0 -0.18852621578E+02 -0.15574994164E+02 -0.27527774275E+02  0.54367080130E+02  0.39999990771E+02 0.  0.
        -12    1    3    3    0    0  0.18852621578E+02  0.15574994164E+02  0.27527774275E+02  0.36820919870E+02  0.00000000000E+00 0.  1.
         11    1    4    4    0    0  0.77229497820E+00  0.31582291982E+01 -0.17983509881E+02  0.18275050728E+02  0.51100000000E-03 0. -1.
        -11    1    4    4    0    0  0.84624220862E+00 -0.31233035777E+00  0.49086430619E+01  0.49908369136E+01  0.51100000000E-03 0.  1.
         12    1    4    4    0    0 -0.20471158765E+02 -0.18420893005E+02 -0.14452907456E+02  0.31101192488E+02  0.00000000000E+00 0. -1.
</event>
<event>
 8    1  0.3137106E-007  0.9118800E+02  0.7816164E-02  0.1184000E+00
        -11   -1    0    0    0    0  0.00000000000E+00  0.00000000000E+00  0.45593999997E+02  0.45594000000E+02  0.51100000000E-03 0.  1.
         11   -1    0    0    0    0 -0.00000000000E+00 -0.00000000000E+00 -0.45593999997E+02  0.45594000000E+02  0.51100000000E-03 0. -1.
         23    2    1    2    0    0 -0.55511151231E-15  0.00000000000E+00  0.00000000000E+00  0.91188000000E+02  0.91188000000E+02 0.  0.
    9900012    2    3    3    0    0  0.82604797674E+00 -0.32779536383E+02  0.16751094556E+02  0.54367088421E+02  0.40000009673E+02 0.  0.
         12    1    3    3    0    0 -0.82604797674E+00  0.32779536383E+02 -0.16751094556E+02  0.36820911579E+02  0.00000000000E+00 0. -1.
         11    1    4    4    0    0 -0.39685055884E+01  0.10089866519E+01  0.43324471482E+01  0.59613076772E+01  0.51100000000E-03 0. -1.
        -11    1    4    4    0    0 -0.13489254108E+02 -0.14376652529E+02  0.21533714360E+01  0.19831417578E+02  0.51100000000E-03 0.  1.
        -12    1    4    4    0    0  0.18283807674E+02 -0.19411870505E+02  0.10265275971E+02  0.28574363166E+02  0.00000000000E+00 0.  1.
</event>
<event>
 8    1  0.3137106E-007  0.9118800E+02  0.7816164E-02  0.1184000E+00
        -11   -1    0    0    0    0  0.00000000000E+00  0.00000000000E+00  0.45593999997E+02  0.45594000000E+02  0.51100000000E-03 0.  1.
         11   -1    0    0    0    0 -0.00000000000E+00 -0.00000000000E+00 -0.45593999997E+02  0.45594000000E+02  0.51100000000E-03 0. -1.
         23    2    1    2    0    0  0.00000000000E+00 -0.35527136788E-14 -0.35527136788E-14  0.91188000000E+02  0.91188000000E+02 0.  0.
    9900012    2    3    3    0    0 -0.24598265718E+02 -0.16419401864E+02  0.21934201403E+02  0.54367073544E+02  0.39999975758E+02 0.  0.
         12    1    3    3    0    0  0.24598265718E+02  0.16419401864E+02 -0.21934201403E+02  0.36820926456E+02  0.00000000000E+00 0. -1.
         11    1    4    4    0    0 -0.94820900483E+01 -0.24575283377E+02  0.20034513442E+02  0.33094354713E+02  0.51100000000E-03 0. -1.
        -11    1    4    4    0    0 -0.28896093980E+01  0.49852395247E+01 -0.43120298238E+01  0.71969477596E+01  0.51100000000E-03 0.  1.
        -12    1    4    4    0    0 -0.12226566271E+02  0.31706419884E+01  0.62117177851E+01  0.14075771071E+02  0.00000000000E+00 0.  1.
</event>
<event>
 8    1  0.3137106E-007  0.9118800E+02  0.7816164E-02  0.1184000E+00
        -11   -1    0    0    0    0  0.00000000000E+00  0.00000000000E+00  0.45593999997E+02  0.45594000000E+02  0.51100000000E-03 0. -1.
         11   -1    0    0    0    0 -0.00000000000E+00 -0.00000000000E+00 -0.45593999997E+02  0.45594000000E+02  0.51100000000E-03 0.  1.
         23    2    1    2    0    0  0.00000000000E+00  0.17763568394E-14  0.00000000000E+00  0.91188000000E+02  0.91188000000E+02 0.  0.
    9900012    2    3    3    0    0 -0.27355244063E+02  0.11240665859E+02  0.21934366317E+02  0.54367104133E+02  0.40000045493E+02 0.  0.
        -12    1    3    3    0    0  0.27355244063E+02 -0.11240665859E+02 -0.21934366317E+02  0.36820895867E+02  0.00000000000E+00 0.  1.
         11    1    4    4    0    0 -0.11700177097E+02 -0.16842456069E+01  0.97629362410E+01  0.15331201899E+02  0.51100000000E-03 0. -1.
        -11    1    4    4    0    0 -0.21222951421E+02  0.97603929315E+01 -0.20393985579E+01  0.23448626483E+02  0.51100000000E-03 0.  1.
         12    1    4    4    0    0  0.55678844559E+01  0.31645185348E+01  0.14210828634E+02  0.15587275751E+02  0.00000000000E+00 0. -1.
</event>
<event>
 8    1  0.3137106E-007  0.9118800E+02  0.7816164E-02  0.1184000E+00
        -11   -1    0    0    0    0  0.00000000000E+00  0.00000000000E+00  0.45593999997E+02  0.45594000000E+02  0.51100000000E-03 0. -1.
         11   -1    0    0    0    0 -0.00000000000E+00 -0.00000000000E+00 -0.45593999997E+02  0.45594000000E+02  0.51100000000E-03 0.  1.
         23    2    1    2    0    0 -0.17763568394E-14  0.35527136788E-14 -0.35527136788E-14  0.91188000000E+02  0.91188000000E+02 0.  0.
    9900012    2    3    3    0    0 -0.14835843709E+02  0.29087594043E+02 -0.17017298137E+02  0.54367098033E+02  0.40000031586E+02 0.  0.
        -12    1    3    3    0    0  0.14835843709E+02 -0.29087594043E+02  0.17017298137E+02  0.36820901967E+02  0.00000000000E+00 0.  1.
         11    1    4    4    0    0 -0.13352830377E+02  0.15188875233E+01  0.45177287206E+01  0.14177974871E+02  0.51100000000E-03 0. -1.
        -11    1    4    4    0    0 -0.85796896046E+01  0.20724215717E+02 -0.20300712889E+02  0.30252655005E+02  0.51100000000E-03 0.  1.
         12    1    4    4    0    0  0.70966762725E+01  0.68444908027E+01 -0.12343139684E+01  0.99364681571E+01  0.00000000000E+00 0. -1.
</event>
<event>
 8    1  0.3137106E-007  0.9118800E+02  0.7816164E-02  0.1184000E+00
        -11   -1    0    0    0    0  0.00000000000E+00  0.00000000000E+00  0.45593999997E+02  0.45594000000E+02  0.51100000000E-03 0. -1.
         11   -1    0    0    0    0 -0.00000000000E+00 -0.00000000000E+00 -0.45593999997E+02  0.45594000000E+02  0.51100000000E-03 0.  1.
         23    2    1    2    0    0  0.44408920985E-15  0.35527136788E-14 -0.71054273576E-14  0.91188000000E+02  0.91188000000E+02 0.  0.
    9900012    2    3    3    0    0  0.25016329448E+01 -0.31712870531E+02  0.18542250263E+02  0.54367090593E+02  0.40000014626E+02 0.  0.
        -12    1    3    3    0    0 -0.25016329448E+01  0.31712870531E+02 -0.18542250263E+02  0.36820909407E+02  0.00000000000E+00 0.  1.
         11    1    4    4    0    0  0.14746854027E+02 -0.28939423688E+01  0.68088699028E+01  0.16498645876E+02  0.51100000000E-03 0.  1.
        -11    1    4    4    0    0 -0.10967173529E+02 -0.22704009119E+02  0.16393357500E+02  0.30074791698E+02  0.51100000000E-03 0. -1.
        -12    1    4    4    0    0 -0.12780475524E+01 -0.61149190432E+01 -0.46599771395E+01  0.77936530197E+01  0.00000000000E+00 0.  1.
</event>
<event>
 8    1  0.3137106E-007  0.9118800E+02  0.7816164E-02  0.1184000E+00
        -11   -1    0    0    0    0  0.00000000000E+00  0.00000000000E+00  0.45593999997E+02  0.45594000000E+02  0.51100000000E-03 0.  1.
         11   -1    0    0    0    0 -0.00000000000E+00 -0.00000000000E+00 -0.45593999997E+02  0.45594000000E+02  0.51100000000E-03 0. -1.
         23    2    1    2    0    0  0.00000000000E+00  0.00000000000E+00  0.00000000000E+00  0.91188000000E+02  0.91188000000E+02 0.  0.
    9900012    2    3    3    0    0  0.87709125654E+01  0.17746435247E+02  0.31046989991E+02  0.54367075803E+02  0.39999980908E+02 0.  0.
         12    1    3    3    0    0 -0.87709125654E+01 -0.17746435247E+02 -0.31046989991E+02  0.36820924197E+02  0.00000000000E+00 0. -1.
         11    1    4    4    0    0 -0.10721016793E+02  0.13873527505E+02  0.88300716340E+01  0.19631228485E+02  0.51100000000E-03 0. -1.
        -11    1    4    4    0    0  0.14417766573E+02  0.10721631998E+02  0.12968609803E+02  0.22158750554E+02  0.51100000000E-03 0.  1.
        -12    1    4    4    0    0  0.50741627856E+01 -0.68487242555E+01  0.92483085537E+01  0.12577096764E+02  0.00000000000E+00 0.  1.
</event>
<event>
 8    1  0.3137106E-007  0.9118800E+02  0.7816164E-02  0.1184000E+00
        -11   -1    0    0    0    0  0.00000000000E+00  0.00000000000E+00  0.45593999997E+02  0.45594000000E+02  0.51100000000E-03 0. -1.
         11   -1    0    0    0    0 -0.00000000000E+00 -0.00000000000E+00 -0.45593999997E+02  0.45594000000E+02  0.51100000000E-03 0.  1.
         23    2    1    2    0    0  0.17763568394E-14  0.00000000000E+00  0.35527136788E-14  0.91188000000E+02  0.91188000000E+02 0.  0.
    9900012    2    3    3    0    0  0.13356156823E+02 -0.26800737573E+02  0.21426854473E+02  0.54367128852E+02  0.40000101844E+02 0.  0.
        -12    1    3    3    0    0 -0.13356156823E+02  0.26800737573E+02 -0.21426854473E+02  0.36820871148E+02  0.00000000000E+00 0.  1.
         11    1    4    4    0    0  0.15627420912E+02 -0.81990140645E+00  0.10911173957E+01  0.15686907284E+02  0.51100000000E-03 0. -1.
        -11    1    4    4    0    0  0.35360477520E+01 -0.16316093082E+02  0.15449912324E+01  0.16766201875E+02  0.51100000000E-03 0.  1.
         12    1    4    4    0    0 -0.58073118414E+01 -0.96647430844E+01  0.18790745845E+02  0.21914019693E+02  0.00000000000E+00 0. -1.
</event>
<event>
 8    1  0.3137106E-007  0.9118800E+02  0.7816164E-02  0.1184000E+00
        -11   -1    0    0    0    0  0.00000000000E+00  0.00000000000E+00  0.45593999997E+02  0.45594000000E+02  0.51100000000E-03 0.  1.
         11   -1    0    0    0    0 -0.00000000000E+00 -0.00000000000E+00 -0.45593999997E+02  0.45594000000E+02  0.51100000000E-03 0. -1.
         23    2    1    2    0    0 -0.88817841970E-15  0.88817841970E-15  0.00000000000E+00  0.91188000000E+02  0.91188000000E+02 0.  0.
    9900012    2    3    3    0    0  0.44230903656E+01  0.71469756400E+01  0.35848787845E+02  0.54367101326E+02  0.40000039093E+02 0.  0.
         12    1    3    3    0    0 -0.44230903656E+01 -0.71469756400E+01 -0.35848787845E+02  0.36820898674E+02  0.00000000000E+00 0. -1.
         11    1    4    4    0    0 -0.69119158590E+01  0.13344782252E+02  0.14253710222E+02  0.20712944010E+02  0.51100000000E-03 0. -1.
        -11    1    4    4    0    0  0.95337832116E+01 -0.11138741343E+02  0.38678128347E+01  0.15163263416E+02  0.51100000000E-03 0.  1.
         12    1    4    4    0    0  0.18012230130E+01  0.49409347304E+01  0.17727264789E+02  0.18490893901E+02  0.00000000000E+00 0. -1.
</event>
<event>
 8    1  0.3137106E-007  0.9118800E+02  0.7816164E-02  0.1184000E+00
        -11   -1    0    0    0    0  0.00000000000E+00  0.00000000000E+00  0.45593999997E+02  0.45594000000E+02  0.51100000000E-03 0. -1.
         11   -1    0    0    0    0 -0.00000000000E+00 -0.00000000000E+00 -0.45593999997E+02  0.45594000000E+02  0.51100000000E-03 0.  1.
         23    2    1    2    0    0 -0.35527136788E-14  0.00000000000E+00  0.17763568394E-14  0.91188000000E+02  0.91188000000E+02 0.  0.
    9900012    2    3    3    0    0 -0.24151522647E+02  0.26252854983E+02  0.91253642098E+01  0.54367072351E+02  0.39999973039E+02 0.  0.
        -12    1    3    3    0    0  0.24151522647E+02 -0.26252854983E+02 -0.91253642098E+01  0.36820927649E+02  0.00000000000E+00 0.  1.
         11    1    4    4    0    0 -0.68644366370E-01 -0.16666551365E+01  0.17112525469E+01  0.23897357455E+01  0.51100000000E-03 0. -1.
        -11    1    4    4    0    0 -0.26717897215E+00 -0.15052520625E+01 -0.10136905006E+02  0.10251537043E+02  0.51100000000E-03 0.  1.
        -12    1    4    4    0    0 -0.23815699308E+02  0.29424762182E+02  0.17551016669E+02  0.41725799563E+02  0.00000000000E+00 0.  1.
</event>
<event>
 8    1  0.3137106E-007  0.9118800E+02  0.7816164E-02  0.1184000E+00
        -11   -1    0    0    0    0  0.00000000000E+00  0.00000000000E+00  0.45593999997E+02  0.45594000000E+02  0.51100000000E-03 0.  1.
         11   -1    0    0    0    0 -0.00000000000E+00 -0.00000000000E+00 -0.45593999997E+02  0.45594000000E+02  0.51100000000E-03 0. -1.
         23    2    1    2    0    0 -0.44408920985E-15  0.00000000000E+00  0.00000000000E+00  0.91188000000E+02  0.91188000000E+02 0.  0.
    9900012    2    3    3    0    0  0.32339629439E+01 -0.20436158542E+02 -0.30457962229E+02  0.54367047331E+02  0.39999916001E+02 0.  0.
        -12    1    3    3    0    0 -0.32339629439E+01  0.20436158542E+02  0.30457962229E+02  0.36820952669E+02  0.00000000000E+00 0.  1.
         11    1    4    4    0    0 -0.88408931890E+01 -0.89625595135E+01 -0.12570999073E+02  0.17790977583E+02  0.51100000000E-03 0. -1.
        -11    1    4    4    0    0 -0.11998156197E+01  0.66652097889E+01  0.14497153299E+01  0.69257673834E+01  0.51100000000E-03 0.  1.
         12    1    4    4    0    0  0.13274671753E+02 -0.18138808817E+02 -0.19336678487E+02  0.29650302365E+02  0.00000000000E+00 0. -1.
</event>
<event>
 8    1  0.3137106E-007  0.9118800E+02  0.7816164E-02  0.1184000E+00
        -11   -1    0    0    0    0  0.00000000000E+00  0.00000000000E+00  0.45593999997E+02  0.45594000000E+02  0.51100000000E-03 0.  1.
         11   -1    0    0    0    0 -0.00000000000E+00 -0.00000000000E+00 -0.45593999997E+02  0.45594000000E+02  0.51100000000E-03 0. -1.
         23    2    1    2    0    0  0.71054273576E-14 -0.88817841970E-15  0.83266726847E-16  0.91188000000E+02  0.91188000000E+02 0.  0.
    9900012    2    3    3    0    0  0.36163733276E+02 -0.69238271547E+01 -0.17597930272E+00  0.54367001159E+02  0.39999810742E+02 0.  0.
        -12    1    3    3    0    0 -0.36163733276E+02  0.69238271547E+01  0.17597930272E+00  0.36820998841E+02  0.00000000000E+00 0.  1.
         11    1    4    4    0    0  0.19716024368E+02 -0.20389188211E+02 -0.57647515523E+00  0.28368520170E+02  0.51100000000E-03 0.  1.
        -11    1    4    4    0    0  0.19086936984E+02  0.10110768060E+02  0.12916462916E+01  0.21638094754E+02  0.51100000000E-03 0. -1.
        -12    1    4    4    0    0 -0.26392280756E+01  0.33545929966E+01 -0.89115043912E+00  0.43603862344E+01  0.00000000000E+00 0.  1.
</event>
<event>
 8    1  0.3137106E-007  0.9118800E+02  0.7816164E-02  0.1184000E+00
        -11   -1    0    0    0    0  0.00000000000E+00  0.00000000000E+00  0.45593999997E+02  0.45594000000E+02  0.51100000000E-03 0.  1.
         11   -1    0    0    0    0 -0.00000000000E+00 -0.00000000000E+00 -0.45593999997E+02  0.45594000000E+02  0.51100000000E-03 0. -1.
         23    2    1    2    0    0  0.00000000000E+00  0.88817841970E-15  0.71054273576E-14  0.91188000000E+02  0.91188000000E+02 0.  0.
    9900012    2    3    3    0    0  0.12293252505E+02 -0.21919485763E+01  0.34638942381E+02  0.54367013796E+02  0.39999839551E+02 0.  0.
         12    1    3    3    0    0 -0.12293252505E+02  0.21919485763E+01 -0.34638942381E+02  0.36820986204E+02  0.00000000000E+00 0. -1.
         11    1    4    4    0    0  0.12106632108E+02  0.10877529148E+02  0.17443343689E+02  0.23857104197E+02  0.51100000000E-03 0.  1.
        -11    1    4    4    0    0 -0.50015595377E+01 -0.72221818418E+00 -0.32934356353E+01  0.60319081110E+01  0.51100000000E-03 0. -1.
         12    1    4    4    0    0  0.51881799349E+01 -0.12347259540E+02  0.20489034327E+02  0.24478001488E+02  0.00000000000E+00 0. -1.
</event>
<event>
 8    1  0.3137106E-007  0.9118800E+02  0.7816164E-02  0.1184000E+00
        -11   -1    0    0    0    0  0.00000000000E+00  0.00000000000E+00  0.45593999997E+02  0.45594000000E+02  0.51100000000E-03 0.  1.
         11   -1    0    0    0    0 -0.00000000000E+00 -0.00000000000E+00 -0.45593999997E+02  0.45594000000E+02  0.51100000000E-03 0. -1.
         23    2    1    2    0    0 -0.44408920985E-15  0.00000000000E+00 -0.35527136788E-14  0.91188000000E+02  0.91188000000E+02 0.  0.
    9900012    2    3    3    0    0 -0.23039819876E+01  0.18458430094E+02 -0.31776681515E+02  0.54367089329E+02  0.40000011743E+02 0.  0.
        -12    1    3    3    0    0  0.23039819876E+01 -0.18458430094E+02  0.31776681515E+02  0.36820910671E+02  0.00000000000E+00 0.  1.
         11    1    4    4    0    0 -0.18997577945E+01  0.16809781216E+02 -0.68653077244E+01  0.18256787083E+02  0.51100000000E-03 0. -1.
        -11    1    4    4    0    0 -0.29572673703E+01 -0.77875998983E+01  0.10248548025E+01  0.83930012571E+01  0.51100000000E-03 0.  1.
         12    1    4    4    0    0  0.25530431772E+01  0.94362487765E+01 -0.25936228593E+02  0.27717300988E+02  0.00000000000E+00 0. -1.
</event>
<event>
 8    1  0.3137106E-007  0.9118800E+02  0.7816164E-02  0.1184000E+00
        -11   -1    0    0    0    0  0.00000000000E+00  0.00000000000E+00  0.45593999997E+02  0.45594000000E+02  0.51100000000E-03 0.  1.
         11   -1    0    0    0    0 -0.00000000000E+00 -0.00000000000E+00 -0.45593999997E+02  0.45594000000E+02  0.51100000000E-03 0. -1.
         23    2    1    2    0    0  0.00000000000E+00  0.00000000000E+00  0.00000000000E+00  0.91188000000E+02  0.91188000000E+02 0.  0.
    9900012    2    3    3    0    0 -0.97280033010E+01 -0.31631367443E+02  0.16143109637E+02  0.54367116750E+02  0.40000074254E+02 0.  0.
         12    1    3    3    0    0  0.97280033010E+01  0.31631367443E+02 -0.16143109637E+02  0.36820883250E+02  0.00000000000E+00 0. -1.
         11    1    4    4    0    0 -0.10713260601E+02 -0.14087623373E+02  0.29165963521E+01  0.17937157510E+02  0.51100000000E-03 0. -1.
        -11    1    4    4    0    0  0.70848266630E+01 -0.26627299603E+01 -0.71903393722E+01  0.10439630273E+02  0.51100000000E-03 0.  1.
         12    1    4    4    0    0 -0.60995693626E+01 -0.14881014110E+02  0.20416852657E+02  0.25990328967E+02  0.00000000000E+00 0. -1.
</event>
<event>
 8    1  0.3137106E-007  0.9118800E+02  0.7816164E-02  0.1184000E+00
        -11   -1    0    0    0    0  0.00000000000E+00  0.00000000000E+00  0.45593999997E+02  0.45594000000E+02  0.51100000000E-03 0.  1.
         11   -1    0    0    0    0 -0.00000000000E+00 -0.00000000000E+00 -0.45593999997E+02  0.45594000000E+02  0.51100000000E-03 0. -1.
         23    2    1    2    0    0  0.00000000000E+00  0.35527136788E-14  0.71054273576E-14  0.91188000000E+02  0.91188000000E+02 0.  0.
    9900012    2    3    3    0    0  0.27690603528E+01 -0.16957515455E+02 -0.32566167394E+02  0.54367078170E+02  0.39999986305E+02 0.  0.
        -12    1    3    3    0    0 -0.27690603528E+01  0.16957515455E+02  0.32566167394E+02  0.36820921830E+02  0.00000000000E+00 0.  1.
         11    1    4    4    0    0 -0.88344943251E+00 -0.20467468374E+02 -0.26106432745E+02  0.33184990214E+02  0.51100000000E-03 0. -1.
        -11    1    4    4    0    0 -0.59502904918E+01  0.74019691396E+01 -0.12327277643E+01  0.95767803610E+01  0.51100000000E-03 0.  1.
        -12    1    4    4    0    0  0.96028002771E+01 -0.38920162197E+01 -0.52270068846E+01  0.11605307596E+02  0.00000000000E+00 0.  1.
</event>
<event>
 8    1  0.3137106E-007  0.9118800E+02  0.7816164E-02  0.1184000E+00
        -11   -1    0    0    0    0  0.00000000000E+00  0.00000000000E+00  0.45593999997E+02  0.45594000000E+02  0.51100000000E-03 0.  1.
         11   -1    0    0    0    0 -0.00000000000E+00 -0.00000000000E+00 -0.45593999997E+02  0.45594000000E+02  0.51100000000E-03 0. -1.
         23    2    1    2    0    0 -0.88817841970E-15  0.00000000000E+00 -0.35527136788E-14  0.91188000000E+02  0.91188000000E+02 0.  0.
    9900012    2    3    3    0    0 -0.76428894257E+01 -0.22225347829E+02 -0.28344309519E+02  0.54367085740E+02  0.40000003561E+02 0.  0.
        -12    1    3    3    0    0  0.76428894257E+01  0.22225347829E+02  0.28344309519E+02  0.36820914260E+02  0.00000000000E+00 0.  1.
         11    1    4    4    0    0 -0.68943676248E+01 -0.10177677337E+02  0.53455027277E+01  0.13404917776E+02  0.51100000000E-03 0.  1.
        -11    1    4    4    0    0  0.36854589919E+01 -0.14236396485E+02 -0.32789405558E+02  0.35936092024E+02  0.51100000000E-03 0. -1.
         12    1    4    4    0    0 -0.44339807928E+01  0.21887259929E+01 -0.90040668808E+00  0.50260759393E+01  0.00000000000E+00 0. -1.
</event>
<event>
 8    1  0.3137106E-007  0.9118800E+02  0.7816164E-02  0.1184000E+00
        -11   -1    0    0    0    0  0.00000000000E+00  0.00000000000E+00  0.45593999997E+02  0.45594000000E+02  0.51100000000E-03 0.  1.
         11   -1    0    0    0    0 -0.00000000000E+00 -0.00000000000E+00 -0.45593999997E+02  0.45594000000E+02  0.51100000000E-03 0. -1.
         23    2    1    2    0    0  0.00000000000E+00  0.44408920985E-15  0.17763568394E-14  0.91188000000E+02  0.91188000000E+02 0.  0.
    9900012    2    3    3    0    0  0.33791295469E+02 -0.28511919188E+01 -0.14345687725E+02  0.54367086091E+02  0.40000004361E+02 0.  0.
         12    1    3    3    0    0 -0.33791295469E+02  0.28511919188E+01  0.14345687725E+02  0.36820913909E+02  0.00000000000E+00 0. -1.
         11    1    4    4    0    0  0.85770052032E+00  0.52822640947E+01  0.29420553665E+01  0.61068530513E+01  0.51100000000E-03 0.  1.
        -11    1    4    4    0    0  0.34665834857E+02 -0.12986752695E+02 -0.83581928854E+01  0.37950431361E+02  0.51100000000E-03 0. -1.
        -12    1    4    4    0    0 -0.17322399088E+01  0.48532966810E+01 -0.89295502058E+01  0.10309801679E+02  0.00000000000E+00 0.  1.
</event>
<event>
 8    1  0.3137106E-007  0.9118800E+02  0.7816164E-02  0.1184000E+00
        -11   -1    0    0    0    0  0.00000000000E+00  0.00000000000E+00  0.45593999997E+02  0.45594000000E+02  0.51100000000E-03 0.  1.
         11   -1    0    0    0    0 -0.00000000000E+00 -0.00000000000E+00 -0.45593999997E+02  0.45594000000E+02  0.51100000000E-03 0. -1.
         23    2    1    2    0    0  0.17763568394E-14 -0.71054273576E-14 -0.17763568394E-14  0.91188000000E+02  0.91188000000E+02 0.  0.
    9900012    2    3    3    0    0 -0.90065709017E+01  0.32375603085E+02  0.15049280818E+02  0.54367097681E+02  0.40000030782E+02 0.  0.
         12    1    3    3    0    0  0.90065709017E+01 -0.32375603085E+02 -0.15049280818E+02  0.36820902319E+02  0.00000000000E+00 0. -1.
         11    1    4    4    0    0 -0.61420236099E+01  0.20878103238E+02  0.21871770081E+02  0.30854399615E+02  0.51100000000E-03 0.  1.
        -11    1    4    4    0    0 -0.19169450848E+01  0.57040064668E+01 -0.13404419592E+02  0.14693155995E+02  0.51100000000E-03 0. -1.
         12    1    4    4    0    0 -0.94760220700E+00  0.57934933795E+01  0.65819303291E+01  0.88195420708E+01  0.00000000000E+00 0. -1.
</event>
<event>
 8    1  0.3137106E-007  0.9118800E+02  0.7816164E-02  0.1184000E+00
        -11   -1    0    0    0    0  0.00000000000E+00  0.00000000000E+00  0.45593999997E+02  0.45594000000E+02  0.51100000000E-03 0.  1.
         11   -1    0    0    0    0 -0.00000000000E+00 -0.00000000000E+00 -0.45593999997E+02  0.45594000000E+02  0.51100000000E-03 0. -1.
         23    2    1    2    0    0  0.61062266354E-15  0.35527136788E-14  0.71054273576E-14  0.91188000000E+02  0.91188000000E+02 0.  0.
    9900012    2    3    3    0    0  0.37034902521E+00 -0.17193523466E+02 -0.32558028711E+02  0.54367086905E+02  0.40000006218E+02 0.  0.
        -12    1    3    3    0    0 -0.37034902521E+00  0.17193523466E+02  0.32558028711E+02  0.36820913095E+02  0.00000000000E+00 0.  1.
         11    1    4    4    0    0 -0.95240323568E+00 -0.10005299747E+02 -0.39081106839E+02  0.40352769508E+02  0.51100000000E-03 0. -1.
        -11    1    4    4    0    0  0.55057738033E+01 -0.22990271408E+01  0.29918101688E+01  0.66745785871E+01  0.51100000000E-03 0.  1.
         12    1    4    4    0    0 -0.41830215424E+01 -0.48891965776E+01  0.35312679590E+01  0.73397388099E+01  0.00000000000E+00 0. -1.
</event>
<event>
 8    1  0.3137106E-007  0.9118800E+02  0.7816164E-02  0.1184000E+00
        -11   -1    0    0    0    0  0.00000000000E+00  0.00000000000E+00  0.45593999997E+02  0.45594000000E+02  0.51100000000E-03 0. -1.
         11   -1    0    0    0    0 -0.00000000000E+00 -0.00000000000E+00 -0.45593999997E+02  0.45594000000E+02  0.51100000000E-03 0.  1.
         23    2    1    2    0    0 -0.66613381478E-15  0.17763568394E-14  0.00000000000E+00  0.91188000000E+02  0.91188000000E+02 0.  0.
    9900012    2    3    3    0    0 -0.19447247226E+01 -0.82547569911E+01 -0.35830947619E+02  0.54367085094E+02  0.40000002088E+02 0.  0.
         12    1    3    3    0    0  0.19447247226E+01  0.82547569911E+01  0.35830947619E+02  0.36820914906E+02  0.00000000000E+00 0. -1.
         11    1    4    4    0    0  0.38107284711E+01  0.50508935063E+01  0.46861488946E+01  0.78735740561E+01  0.51100000000E-03 0. -1.
        -11    1    4    4    0    0 -0.78002260754E+01 -0.21094631569E+01 -0.57676837928E+01  0.99277156604E+01  0.51100000000E-03 0.  1.
        -12    1    4    4    0    0  0.20447728816E+01 -0.11196187341E+02 -0.34749412721E+02  0.36565795377E+02  0.00000000000E+00 0.  1.
</event>
<event>
 8    1  0.3137106E-007  0.9118800E+02  0.7816164E-02  0.1184000E+00
        -11   -1    0    0    0    0  0.00000000000E+00  0.00000000000E+00  0.45593999997E+02  0.45594000000E+02  0.51100000000E-03 0.  1.
         11   -1    0    0    0    0 -0.00000000000E+00 -0.00000000000E+00 -0.45593999997E+02  0.45594000000E+02  0.51100000000E-03 0. -1.
         23    2    1    2    0    0  0.17763568394E-14  0.35527136788E-14  0.00000000000E+00  0.91188000000E+02  0.91188000000E+02 0.  0.
    9900012    2    3    3    0    0 -0.13242181805E+02 -0.27284756039E+02  0.20879805402E+02  0.54367087943E+02  0.40000008583E+02 0.  0.
         12    1    3    3    0    0  0.13242181805E+02  0.27284756039E+02 -0.20879805402E+02  0.36820912057E+02  0.00000000000E+00 0. -1.
         11    1    4    4    0    0  0.24323395574E+01 -0.61060681960E+01  0.39402837306E+01  0.76633008995E+01  0.51100000000E-03 0. -1.
        -11    1    4    4    0    0 -0.12574247523E+02 -0.30683282225E+02  0.15498589587E+02  0.36603029770E+02  0.51100000000E-03 0.  1.
        -12    1    4    4    0    0 -0.31002738392E+01  0.95045943814E+01  0.14409320843E+01  0.10100757274E+02  0.00000000000E+00 0.  1.
</event>
<event>
 8    1  0.3137106E-007  0.9118800E+02  0.7816164E-02  0.1184000E+00
        -11   -1    0    0    0    0  0.00000000000E+00  0.00000000000E+00  0.45593999997E+02  0.45594000000E+02  0.51100000000E-03 0.  1.
         11   -1    0    0    0    0 -0.00000000000E+00 -0.00000000000E+00 -0.45593999997E+02  0.45594000000E+02  0.51100000000E-03 0. -1.
         23    2    1    2    0    0  0.00000000000E+00  0.00000000000E+00  0.00000000000E+00  0.91188000000E+02  0.91188000000E+02 0.  0.
    9900012    2    3    3    0    0  0.21728001144E+01 -0.32571292443E+02 -0.17034384064E+02  0.54367076706E+02  0.39999982967E+02 0.  0.
        -12    1    3    3    0    0 -0.21728001144E+01  0.32571292443E+02  0.17034384064E+02  0.36820923294E+02  0.00000000000E+00 0.  1.
         11    1    4    4    0    0  0.85808783477E+01 -0.49929615403E+01  0.47054536078E+01  0.10986465859E+02  0.51100000000E-03 0.  1.
        -11    1    4    4    0    0  0.94134270295E+01 -0.80860320982E+01 -0.79465274288E+01  0.14735800690E+02  0.51100000000E-03 0. -1.
         12    1    4    4    0    0 -0.15821505263E+02 -0.19492298805E+02 -0.13793310243E+02  0.28644810157E+02  0.00000000000E+00 0. -1.
</event>
<event>
 8    1  0.3137106E-007  0.9118800E+02  0.7816164E-02  0.1184000E+00
        -11   -1    0    0    0    0  0.00000000000E+00  0.00000000000E+00  0.45593999997E+02  0.45594000000E+02  0.51100000000E-03 0.  1.
         11   -1    0    0    0    0 -0.00000000000E+00 -0.00000000000E+00 -0.45593999997E+02  0.45594000000E+02  0.51100000000E-03 0. -1.
         23    2    1    2    0    0  0.17763568394E-14 -0.35527136788E-14  0.35527136788E-14  0.91188000000E+02  0.91188000000E+02 0.  0.
    9900012    2    3    3    0    0  0.40741608266E+01  0.28994282768E+02 -0.22327392813E+02  0.54367086249E+02  0.40000004722E+02 0.  0.
        -12    1    3    3    0    0 -0.40741608266E+01 -0.28994282768E+02  0.22327392813E+02  0.36820913751E+02  0.00000000000E+00 0.  1.
         11    1    4    4    0    0  0.18121623440E+02  0.20420789675E+02 -0.70679717984E+01  0.28202094118E+02  0.51100000000E-03 0. -1.
        -11    1    4    4    0    0 -0.10986145868E+02  0.11823473316E+02 -0.90093104304E+01  0.18483982173E+02  0.51100000000E-03 0.  1.
         12    1    4    4    0    0 -0.30613167450E+01 -0.32499802226E+01 -0.62501105840E+01  0.76810099578E+01  0.00000000000E+00 0. -1.
</event>
<event>
 8    1  0.3137106E-007  0.9118800E+02  0.7816164E-02  0.1184000E+00
        -11   -1    0    0    0    0  0.00000000000E+00  0.00000000000E+00  0.45593999997E+02  0.45594000000E+02  0.51100000000E-03 0.  1.
         11   -1    0    0    0    0 -0.00000000000E+00 -0.00000000000E+00 -0.45593999997E+02  0.45594000000E+02  0.51100000000E-03 0. -1.
         23    2    1    2    0    0  0.17763568394E-14 -0.17763568394E-14  0.00000000000E+00  0.91188000000E+02  0.91188000000E+02 0.  0.
    9900012    2    3    3    0    0  0.15151861265E+02 -0.73165987624E+01  0.32751624329E+02  0.54367076418E+02  0.39999982309E+02 0.  0.
         12    1    3    3    0    0 -0.15151861265E+02  0.73165987624E+01 -0.32751624329E+02  0.36820923582E+02  0.00000000000E+00 0. -1.
         11    1    4    4    0    0  0.88927750524E+01 -0.31673082075E+01 -0.17706272275E+01  0.96046036073E+01  0.51100000000E-03 0. -1.
        -11    1    4    4    0    0  0.32056076015E+01 -0.91552225819E+01  0.37107312408E+02  0.38354226038E+02  0.51100000000E-03 0.  1.
         12    1    4    4    0    0  0.30534786113E+01  0.50059320269E+01 -0.25850608509E+01  0.64082467720E+01  0.00000000000E+00 0. -1.
</event>
<event>
 8    1  0.3137106E-007  0.9118800E+02  0.7816164E-02  0.1184000E+00
        -11   -1    0    0    0    0  0.00000000000E+00  0.00000000000E+00  0.45593999997E+02  0.45594000000E+02  0.51100000000E-03 0.  1.
         11   -1    0    0    0    0 -0.00000000000E+00 -0.00000000000E+00 -0.45593999997E+02  0.45594000000E+02  0.51100000000E-03 0. -1.
         23    2    1    2    0    0  0.00000000000E+00  0.00000000000E+00  0.00000000000E+00  0.91188000000E+02  0.91188000000E+02 0.  0.
    9900012    2    3    3    0    0 -0.33090810865E+02  0.12380298578E+02 -0.10368532610E+02  0.54367081692E+02  0.39999994333E+02 0.  0.
        -12    1    3    3    0    0  0.33090810865E+02 -0.12380298578E+02  0.10368532610E+02  0.36820918308E+02  0.00000000000E+00 0.  1.
         11    1    4    4    0    0 -0.50503330770E+01  0.12885254406E+01 -0.67453160003E+01  0.85244032169E+01  0.51100000000E-03 0.  1.
        -11    1    4    4    0    0 -0.33665824060E+02  0.14030258715E+02  0.30916053847E+01  0.36603195125E+02  0.51100000000E-03 0. -1.
         12    1    4    4    0    0  0.56253462717E+01 -0.29384855775E+01 -0.67148219941E+01  0.92394833502E+01  0.00000000000E+00 0. -1.
</event>
<event>
 8    1  0.3137106E-007  0.9118800E+02  0.7816164E-02  0.1184000E+00
        -11   -1    0    0    0    0  0.00000000000E+00  0.00000000000E+00  0.45593999997E+02  0.45594000000E+02  0.51100000000E-03 0. -1.
         11   -1    0    0    0    0 -0.00000000000E+00 -0.00000000000E+00 -0.45593999997E+02  0.45594000000E+02  0.51100000000E-03 0.  1.
         23    2    1    2    0    0  0.71054273576E-14  0.11102230246E-14  0.35527136788E-14  0.91188000000E+02  0.91188000000E+02 0.  0.
    9900012    2    3    3    0    0  0.30471406224E+02 -0.12488494453E+01  0.20632838448E+02  0.54367078710E+02  0.39999987535E+02 0.  0.
        -12    1    3    3    0    0 -0.30471406224E+02  0.12488494453E+01 -0.20632838448E+02  0.36820921290E+02  0.00000000000E+00 0.  1.
         11    1    4    4    0    0 -0.64068321803E+01 -0.11869375368E+01  0.21492820326E+01  0.68611757608E+01  0.51100000000E-03 0. -1.
        -11    1    4    4    0    0  0.32178964351E+02  0.85530201897E+01  0.10676938667E+02  0.34966225428E+02  0.51100000000E-03 0.  1.
        -12    1    4    4    0    0  0.46992740533E+01 -0.86149320982E+01  0.78066177479E+01  0.12539677522E+02  0.00000000000E+00 0.  1.
</event>
<event>
 8    1  0.3137106E-007  0.9118800E+02  0.7816164E-02  0.1184000E+00
        -11   -1    0    0    0    0  0.00000000000E+00  0.00000000000E+00  0.45593999997E+02  0.45594000000E+02  0.51100000000E-03 0.  1.
         11   -1    0    0    0    0 -0.00000000000E+00 -0.00000000000E+00 -0.45593999997E+02  0.45594000000E+02  0.51100000000E-03 0. -1.
         23    2    1    2    0    0  0.17763568394E-14  0.00000000000E+00  0.00000000000E+00  0.91188000000E+02  0.91188000000E+02 0.  0.
    9900012    2    3    3    0    0  0.13548425473E+02 -0.21088466630E+02 -0.26972113803E+02  0.54367106738E+02  0.40000051430E+02 0.  0.
        -12    1    3    3    0    0 -0.13548425473E+02  0.21088466630E+02  0.26972113803E+02  0.36820893262E+02  0.00000000000E+00 0.  1.
         11    1    4    4    0    0 -0.10078939725E+02  0.10445127741E+01 -0.74908905619E+01  0.12601169572E+02  0.51100000000E-03 0. -1.
        -11    1    4    4    0    0  0.76887419810E+00 -0.46215707729E+01 -0.10669314933E+02  0.11652654863E+02  0.51100000000E-03 0.  1.
        -12    1    4    4    0    0  0.22858491000E+02 -0.17511408631E+02 -0.88119083082E+01  0.30113282303E+02  0.00000000000E+00 0.  1.
</event>
<event>
 8    1  0.3137106E-007  0.9118800E+02  0.7816164E-02  0.1184000E+00
        -11   -1    0    0    0    0  0.00000000000E+00  0.00000000000E+00  0.45593999997E+02  0.45594000000E+02  0.51100000000E-03 0.  1.
         11   -1    0    0    0    0 -0.00000000000E+00 -0.00000000000E+00 -0.45593999997E+02  0.45594000000E+02  0.51100000000E-03 0. -1.
         23    2    1    2    0    0  0.17763568394E-14 -0.88817841970E-15  0.00000000000E+00  0.91188000000E+02  0.91188000000E+02 0.  0.
    9900012    2    3    3    0    0 -0.11946981321E+02  0.14513551752E+01  0.34798622030E+02  0.54367069950E+02  0.39999967565E+02 0.  0.
         12    1    3    3    0    0  0.11946981321E+02 -0.14513551752E+01 -0.34798622030E+02  0.36820930050E+02  0.00000000000E+00 0. -1.
         11    1    4    4    0    0  0.12241732766E+02  0.29576319442E+01  0.15152189908E+02  0.19702702025E+02  0.51100000000E-03 0. -1.
        -11    1    4    4    0    0 -0.96692860390E+01  0.63980250384E+01  0.51879969143E+01  0.12702170253E+02  0.51100000000E-03 0.  1.
         12    1    4    4    0    0 -0.14519428048E+02 -0.79043018074E+01  0.14458435208E+02  0.21962197672E+02  0.00000000000E+00 0. -1.
</event>
<event>
 8    1  0.3137106E-007  0.9118800E+02  0.7816164E-02  0.1184000E+00
        -11   -1    0    0    0    0  0.00000000000E+00  0.00000000000E+00  0.45593999997E+02  0.45594000000E+02  0.51100000000E-03 0. -1.
         11   -1    0    0    0    0 -0.00000000000E+00 -0.00000000000E+00 -0.45593999997E+02  0.45594000000E+02  0.51100000000E-03 0.  1.
         23    2    1    2    0    0  0.00000000000E+00  0.00000000000E+00  0.88817841970E-15  0.91188000000E+02  0.91188000000E+02 0.  0.
    9900012    2    3    3    0    0 -0.96504600217E+01 -0.35224047965E+02 -0.46818078366E+01  0.54367024208E+02  0.39999863287E+02 0.  0.
         12    1    3    3    0    0  0.96504600217E+01  0.35224047965E+02  0.46818078366E+01  0.36820975792E+02  0.00000000000E+00 0. -1.
         11    1    4    4    0    0 -0.64734753557E+01  0.41866308256E+01  0.18273507530E+01  0.79229395988E+01  0.51100000000E-03 0. -1.
        -11    1    4    4    0    0  0.94634623432E+01 -0.90669253857E+01 -0.22567183015E+01  0.13298835785E+02  0.51100000000E-03 0.  1.
         12    1    4    4    0    0 -0.12640447009E+02 -0.30343753404E+02 -0.42524402881E+01  0.33145248825E+02  0.00000000000E+00 0. -1.
</event>
<event>
 8    1  0.3137106E-007  0.9118800E+02  0.7816164E-02  0.1184000E+00
        -11   -1    0    0    0    0  0.00000000000E+00  0.00000000000E+00  0.45593999997E+02  0.45594000000E+02  0.51100000000E-03 0.  1.
         11   -1    0    0    0    0 -0.00000000000E+00 -0.00000000000E+00 -0.45593999997E+02  0.45594000000E+02  0.51100000000E-03 0. -1.
         23    2    1    2    0    0  0.35527136788E-14  0.00000000000E+00 -0.35527136788E-14  0.91188000000E+02  0.91188000000E+02 0.  0.
    9900012    2    3    3    0    0 -0.20501885038E+02  0.16293869262E+02  0.25883637408E+02  0.54367079980E+02  0.39999990431E+02 0.  0.
         12    1    3    3    0    0  0.20501885038E+02 -0.16293869262E+02 -0.25883637408E+02  0.36820920020E+02  0.00000000000E+00 0. -1.
         11    1    4    4    0    0  0.10032511448E+01 -0.76247998131E+01  0.55707919006E+01  0.94961996457E+01  0.51100000000E-03 0. -1.
        -11    1    4    4    0    0 -0.51810292726E+01  0.13549061879E+02 -0.27588903801E+01  0.14765893759E+02  0.51100000000E-03 0.  1.
        -12    1    4    4    0    0 -0.16324106910E+02  0.10369607196E+02  0.23071735887E+02  0.30104986575E+02  0.00000000000E+00 0.  1.
</event>
<event>
 8    1  0.3137106E-007  0.9118800E+02  0.7816164E-02  0.1184000E+00
        -11   -1    0    0    0    0  0.00000000000E+00  0.00000000000E+00  0.45593999997E+02  0.45594000000E+02  0.51100000000E-03 0.  1.
         11   -1    0    0    0    0 -0.00000000000E+00 -0.00000000000E+00 -0.45593999997E+02  0.45594000000E+02  0.51100000000E-03 0. -1.
         23    2    1    2    0    0  0.71054273576E-14  0.00000000000E+00  0.17763568394E-14  0.91188000000E+02  0.91188000000E+02 0.  0.
    9900012    2    3    3    0    0  0.34054930284E+02  0.78258344856E+01  0.11610246263E+02  0.54367085015E+02  0.40000001909E+02 0.  0.
        -12    1    3    3    0    0 -0.34054930284E+02 -0.78258344856E+01 -0.11610246263E+02  0.36820914985E+02  0.00000000000E+00 0.  1.
         11    1    4    4    0    0  0.33173689927E+02  0.12792766153E+02 -0.33845814134E+01  0.35715598284E+02  0.51100000000E-03 0. -1.
        -11    1    4    4    0    0 -0.11859206654E+01 -0.72819594918E+01  0.74118860034E+01  0.10457982418E+02  0.51100000000E-03 0.  1.
         12    1    4    4    0    0  0.20671610225E+01  0.23150278248E+01  0.75829416726E+01  0.81935043134E+01  0.00000000000E+00 0. -1.
</event>
<event>
 8    1  0.3137106E-007  0.9118800E+02  0.7816164E-02  0.1184000E+00
        -11   -1    0    0    0    0  0.00000000000E+00  0.00000000000E+00  0.45593999997E+02  0.45594000000E+02  0.51100000000E-03 0. -1.
         11   -1    0    0    0    0 -0.00000000000E+00 -0.00000000000E+00 -0.45593999997E+02  0.45594000000E+02  0.51100000000E-03 0.  1.
         23    2    1    2    0    0  0.13322676296E-14  0.00000000000E+00  0.00000000000E+00  0.91188000000E+02  0.91188000000E+02 0.  0.
    9900012    2    3    3    0    0  0.30620884040E+01 -0.35832593683E+02  0.79010550477E+01  0.54367111549E+02  0.40000062398E+02 0.  0.
        -12    1    3    3    0    0 -0.30620884040E+01  0.35832593683E+02 -0.79010550477E+01  0.36820888451E+02  0.00000000000E+00 0.  1.
         11    1    4    4    0    0  0.11106173544E+02 -0.15003478079E+02  0.67011128660E+01  0.19833213536E+02  0.51100000000E-03 0. -1.
        -11    1    4    4    0    0 -0.79905621884E+01 -0.14313876964E+01 -0.94070998229E+01  0.12425436900E+02  0.51100000000E-03 0.  1.
         12    1    4    4    0    0 -0.53522951499E-01 -0.19397727907E+02  0.10607042005E+02  0.22108461113E+02  0.00000000000E+00 0. -1.
</event>
<event>
 8    1  0.3137106E-007  0.9118800E+02  0.7816164E-02  0.1184000E+00
        -11   -1    0    0    0    0  0.00000000000E+00  0.00000000000E+00  0.45593999997E+02  0.45594000000E+02  0.51100000000E-03 0.  1.
         11   -1    0    0    0    0 -0.00000000000E+00 -0.00000000000E+00 -0.45593999997E+02  0.45594000000E+02  0.51100000000E-03 0. -1.
         23    2    1    2    0    0  0.00000000000E+00  0.35527136788E-14  0.17763568394E-14  0.91188000000E+02  0.91188000000E+02 0.  0.
    9900012    2    3    3    0    0 -0.22127570541E+02  0.27469134539E+02  0.10563969282E+02  0.54367079623E+02  0.39999989617E+02 0.  0.
         12    1    3    3    0    0  0.22127570541E+02 -0.27469134539E+02 -0.10563969282E+02  0.36820920377E+02  0.00000000000E+00 0. -1.
         11    1    4    4    0    0 -0.12468544255E+02  0.32360430333E+01  0.54342871642E+00  0.12893094485E+02  0.51100000000E-03 0. -1.
        -11    1    4    4    0    0 -0.19122649346E+02  0.77014789499E+01  0.87115066647E+01  0.22380322711E+02  0.51100000000E-03 0.  1.
        -12    1    4    4    0    0  0.94636230600E+01  0.16531612556E+02  0.13090339014E+01  0.19093662427E+02  0.00000000000E+00 0.  1.
</event>
<event>
 8    1  0.3137106E-007  0.9118800E+02  0.7816164E-02  0.1184000E+00
        -11   -1    0    0    0    0  0.00000000000E+00  0.00000000000E+00  0.45593999997E+02  0.45594000000E+02  0.51100000000E-03 0.  1.
         11   -1    0    0    0    0 -0.00000000000E+00 -0.00000000000E+00 -0.45593999997E+02  0.45594000000E+02  0.51100000000E-03 0. -1.
         23    2    1    2    0    0  0.00000000000E+00  0.00000000000E+00 -0.88817841970E-15  0.91188000000E+02  0.91188000000E+02 0.  0.
    9900012    2    3    3    0    0 -0.30338470208E+02  0.20310093517E+02  0.47809737078E+01  0.54367076833E+02  0.39999983257E+02 0.  0.
        -12    1    3    3    0    0  0.30338470208E+02 -0.20310093517E+02 -0.47809737078E+01  0.36820923167E+02  0.00000000000E+00 0.  1.
         11    1    4    4    0    0  0.53964760143E+01 -0.51860458988E+01  0.67967830872E+00  0.75152503818E+01  0.51100000000E-03 0.  1.
        -11    1    4    4    0    0 -0.72730777971E+01  0.14296349795E+02  0.42672147276E+00  0.16045727456E+02  0.51100000000E-03 0. -1.
         12    1    4    4    0    0 -0.28461868425E+02  0.11199789621E+02  0.36745739263E+01  0.30806098996E+02  0.00000000000E+00 0. -1.
</event>
<event>
 8    1  0.3137106E-007  0.9118800E+02  0.7816164E-02  0.1184000E+00
        -11   -1    0    0    0    0  0.00000000000E+00  0.00000000000E+00  0.45593999997E+02  0.45594000000E+02  0.51100000000E-03 0. -1.
         11   -1    0    0    0    0 -0.00000000000E+00 -0.00000000000E+00 -0.45593999997E+02  0.45594000000E+02  0.51100000000E-03 0.  1.
         23    2    1    2    0    0  0.00000000000E+00 -0.19984014443E-14  0.00000000000E+00  0.91188000000E+02  0.91188000000E+02 0.  0.
    9900012    2    3    3    0    0  0.27863101385E+02  0.12431217136E+01 -0.24039177676E+02  0.54367084290E+02  0.40000000256E+02 0.  0.
         12    1    3    3    0    0 -0.27863101385E+02 -0.12431217136E+01  0.24039177676E+02  0.36820915710E+02  0.00000000000E+00 0. -1.
         11    1    4    4    0    0 -0.18300695760E+01 -0.43728354714E+01  0.25927120236E+01  0.54030547482E+01  0.51100000000E-03 0. -1.
        -11    1    4    4    0    0  0.17425628561E+02  0.16073126985E+02 -0.97822714222E+01  0.25645482571E+02  0.51100000000E-03 0.  1.
        -12    1    4    4    0    0  0.12267542399E+02 -0.10457169800E+02 -0.16849618277E+02  0.23318546971E+02  0.00000000000E+00 0.  1.
</event>
<event>
 8    1  0.3137106E-007  0.9118800E+02  0.7816164E-02  0.1184000E+00
        -11   -1    0    0    0    0  0.00000000000E+00  0.00000000000E+00  0.45593999997E+02  0.45594000000E+02  0.51100000000E-03 0. -1.
         11   -1    0    0    0    0 -0.00000000000E+00 -0.00000000000E+00 -0.45593999997E+02  0.45594000000E+02  0.51100000000E-03 0.  1.
         23    2    1    2    0    0  0.35527136788E-14  0.44408920985E-15  0.35527136788E-14  0.91188000000E+02  0.91188000000E+02 0.  0.
    9900012    2    3    3    0    0 -0.31361702173E+02 -0.10677006124E+01 -0.19263537437E+02  0.54367079013E+02  0.39999988225E+02 0.  0.
         12    1    3    3    0    0  0.31361702173E+02  0.10677006124E+01  0.19263537437E+02  0.36820920987E+02  0.00000000000E+00 0. -1.
         11    1    4    4    0    0 -0.11175239682E+02 -0.51706700261E+01 -0.20466305354E+02  0.23884963168E+02  0.51100000000E-03 0. -1.
        -11    1    4    4    0    0 -0.22992123682E+02  0.83983190694E+01 -0.17887008809E+01  0.24543206100E+02  0.51100000000E-03 0.  1.
         12    1    4    4    0    0  0.28056611908E+01 -0.42953496557E+01  0.29914687973E+01  0.59389097440E+01  0.00000000000E+00 0. -1.
</event>
<event>
 8    1  0.3137106E-007  0.9118800E+02  0.7816164E-02  0.1184000E+00
        -11   -1    0    0    0    0  0.00000000000E+00  0.00000000000E+00  0.45593999997E+02  0.45594000000E+02  0.51100000000E-03 0. -1.
         11   -1    0    0    0    0 -0.00000000000E+00 -0.00000000000E+00 -0.45593999997E+02  0.45594000000E+02  0.51100000000E-03 0.  1.
         23    2    1    2    0    0 -0.71054273576E-14  0.17763568394E-14  0.00000000000E+00  0.91188000000E+02  0.91188000000E+02 0.  0.
    9900012    2    3    3    0    0  0.28644419647E+02 -0.10333290280E+02  0.20700359336E+02  0.54367020361E+02  0.39999854517E+02 0.  0.
        -12    1    3    3    0    0 -0.28644419647E+02  0.10333290280E+02 -0.20700359336E+02  0.36820979639E+02  0.00000000000E+00 0.  1.
         11    1    4    4    0    0  0.54589700634E+01 -0.68683098262E+00  0.25774789313E+02  0.26355490042E+02  0.51100000000E-03 0. -1.
        -11    1    4    4    0    0  0.22707906660E+02 -0.84837259769E+01 -0.74193781770E+01  0.25350933003E+02  0.51100000000E-03 0.  1.
         12    1    4    4    0    0  0.47754292381E+00 -0.11627333202E+01  0.23449481996E+01  0.26605973158E+01  0.00000000000E+00 0. -1.
</event>
<event>
 8    1  0.3137106E-007  0.9118800E+02  0.7816164E-02  0.1184000E+00
        -11   -1    0    0    0    0  0.00000000000E+00  0.00000000000E+00  0.45593999997E+02  0.45594000000E+02  0.51100000000E-03 0.  1.
         11   -1    0    0    0    0 -0.00000000000E+00 -0.00000000000E+00 -0.45593999997E+02  0.45594000000E+02  0.51100000000E-03 0. -1.
         23    2    1    2    0    0  0.88817841970E-15  0.16653345369E-14 -0.71054273576E-14  0.91188000000E+02  0.91188000000E+02 0.  0.
    9900012    2    3    3    0    0  0.11953433666E+01 -0.30996025444E+00  0.36800202845E+02  0.54367084062E+02  0.39999999736E+02 0.  0.
         12    1    3    3    0    0 -0.11953433666E+01  0.30996025444E+00 -0.36800202845E+02  0.36820915938E+02  0.00000000000E+00 0. -1.
         11    1    4    4    0    0  0.11465449311E+02 -0.14000030868E+02  0.19537265802E+02  0.26630098525E+02  0.51100000000E-03 0. -1.
        -11    1    4    4    0    0 -0.70107983857E+01  0.95477072998E+00  0.11229682093E+02  0.13272853548E+02  0.51100000000E-03 0.  1.
         12    1    4    4    0    0 -0.32593075588E+01  0.12735299883E+02  0.60332549501E+01  0.14464131988E+02  0.00000000000E+00 0. -1.
</event>
<event>
 8    1  0.3137106E-007  0.9118800E+02  0.7816164E-02  0.1184000E+00
        -11   -1    0    0    0    0  0.00000000000E+00  0.00000000000E+00  0.45593999997E+02  0.45594000000E+02  0.51100000000E-03 0.  1.
         11   -1    0    0    0    0 -0.00000000000E+00 -0.00000000000E+00 -0.45593999997E+02  0.45594000000E+02  0.51100000000E-03 0. -1.
         23    2    1    2    0    0  0.00000000000E+00 -0.35527136788E-14  0.00000000000E+00  0.91188000000E+02  0.91188000000E+02 0.  0.
    9900012    2    3    3    0    0  0.18452934170E+02  0.11411199263E+02 -0.29749804779E+02  0.54367120971E+02  0.40000083877E+02 0.  0.
        -12    1    3    3    0    0 -0.18452934170E+02 -0.11411199263E+02  0.29749804779E+02  0.36820879029E+02  0.00000000000E+00 0.  1.
         11    1    4    4    0    0  0.80768944292E+01 -0.13031552565E+01  0.50027385583E+00  0.81966280527E+01  0.51100000000E-03 0. -1.
        -11    1    4    4    0    0  0.68438161643E+01 -0.98059590375E+01 -0.12311919943E+02  0.17163275482E+02  0.51100000000E-03 0.  1.
         12    1    4    4    0    0  0.35322235763E+01  0.22520313557E+02 -0.17938158692E+02  0.29007217436E+02  0.00000000000E+00 0. -1.
</event>
<event>
 8    1  0.3137106E-007  0.9118800E+02  0.7816164E-02  0.1184000E+00
        -11   -1    0    0    0    0  0.00000000000E+00  0.00000000000E+00  0.45593999997E+02  0.45594000000E+02  0.51100000000E-03 0. -1.
         11   -1    0    0    0    0 -0.00000000000E+00 -0.00000000000E+00 -0.45593999997E+02  0.45594000000E+02  0.51100000000E-03 0.  1.
         23    2    1    2    0    0  0.00000000000E+00  0.88817841970E-15 -0.35527136788E-14  0.91188000000E+02  0.91188000000E+02 0.  0.
    9900012    2    3    3    0    0  0.32008635944E+02  0.69059954478E+01 -0.16838523902E+02  0.54367062542E+02  0.39999950676E+02 0.  0.
         12    1    3    3    0    0 -0.32008635944E+02 -0.69059954478E+01  0.16838523902E+02  0.36820937458E+02  0.00000000000E+00 0. -1.
         11    1    4    4    0    0  0.30105316879E+01  0.11351621602E+02 -0.56913242923E+01  0.13050432426E+02  0.51100000000E-03 0. -1.
        -11    1    4    4    0    0  0.23525601072E+02 -0.14995820750E+02 -0.79410872929E+01  0.29006713247E+02  0.51100000000E-03 0.  1.
         12    1    4    4    0    0  0.54725031846E+01  0.10550194596E+02 -0.32061123168E+01  0.12309916869E+02  0.00000000000E+00 0. -1.
</event>
<event>
 8    1  0.3137106E-007  0.9118800E+02  0.7816164E-02  0.1184000E+00
        -11   -1    0    0    0    0  0.00000000000E+00  0.00000000000E+00  0.45593999997E+02  0.45594000000E+02  0.51100000000E-03 0.  1.
         11   -1    0    0    0    0 -0.00000000000E+00 -0.00000000000E+00 -0.45593999997E+02  0.45594000000E+02  0.51100000000E-03 0. -1.
         23    2    1    2    0    0  0.00000000000E+00  0.00000000000E+00 -0.35527136788E-14  0.91188000000E+02  0.91188000000E+02 0.  0.
    9900012    2    3    3    0    0 -0.16115661668E+02  0.10752881268E+02 -0.31312001860E+02  0.54367075690E+02  0.39999980651E+02 0.  0.
        -12    1    3    3    0    0  0.16115661668E+02 -0.10752881268E+02  0.31312001860E+02  0.36820924310E+02  0.00000000000E+00 0.  1.
         11    1    4    4    0    0  0.69648763098E+01  0.38628613917E+00 -0.20289293718E+02  0.21454933205E+02  0.51100000000E-03 0. -1.
        -11    1    4    4    0    0  0.15678791531E+01 -0.25741502420E+01 -0.12636560418E+00  0.30166973720E+01  0.51100000000E-03 0.  1.
         12    1    4    4    0    0 -0.24648417131E+02  0.12940745370E+02 -0.10896342537E+02  0.29895445113E+02  0.00000000000E+00 0. -1.
</event>
<event>
 8    1  0.3137106E-007  0.9118800E+02  0.7816164E-02  0.1184000E+00
        -11   -1    0    0    0    0  0.00000000000E+00  0.00000000000E+00  0.45593999997E+02  0.45594000000E+02  0.51100000000E-03 0.  1.
         11   -1    0    0    0    0 -0.00000000000E+00 -0.00000000000E+00 -0.45593999997E+02  0.45594000000E+02  0.51100000000E-03 0. -1.
         23    2    1    2    0    0 -0.35527136788E-14  0.00000000000E+00  0.00000000000E+00  0.91188000000E+02  0.91188000000E+02 0.  0.
    9900012    2    3    3    0    0 -0.23057227859E+02 -0.21443028152E+02 -0.19087740447E+02  0.54367067798E+02  0.39999962658E+02 0.  0.
        -12    1    3    3    0    0  0.23057227859E+02  0.21443028152E+02  0.19087740447E+02  0.36820932202E+02  0.00000000000E+00 0.  1.
         11    1    4    4    0    0 -0.20798344083E+02 -0.11900264731E+02 -0.66864380178E+01  0.24877617870E+02  0.51100000000E-03 0. -1.
        -11    1    4    4    0    0 -0.10028765199E+02  0.42399347710E+01 -0.42195050985E+01  0.11677217212E+02  0.51100000000E-03 0.  1.
        -12    1    4    4    0    0  0.77698814223E+01 -0.13782698192E+02 -0.81817973304E+01  0.17812232716E+02  0.00000000000E+00 0.  1.
</event>
<event>
 8    1  0.3137106E-007  0.9118800E+02  0.7816164E-02  0.1184000E+00
        -11   -1    0    0    0    0  0.00000000000E+00  0.00000000000E+00  0.45593999997E+02  0.45594000000E+02  0.51100000000E-03 0.  1.
         11   -1    0    0    0    0 -0.00000000000E+00 -0.00000000000E+00 -0.45593999997E+02  0.45594000000E+02  0.51100000000E-03 0. -1.
         23    2    1    2    0    0  0.00000000000E+00  0.35527136788E-14 -0.35527136788E-14  0.91188000000E+02  0.91188000000E+02 0.  0.
    9900012    2    3    3    0    0 -0.42680123097E+01 -0.25530801985E+02  0.26186679680E+02  0.54367082416E+02  0.39999995984E+02 0.  0.
         12    1    3    3    0    0  0.42680123097E+01  0.25530801985E+02 -0.26186679680E+02  0.36820917584E+02  0.00000000000E+00 0. -1.
         11    1    4    4    0    0 -0.50921358408E-01 -0.18788334387E+02  0.24368165036E+02  0.30770303370E+02  0.51100000000E-03 0. -1.
        -11    1    4    4    0    0 -0.12681555742E+02 -0.78717349572E+01  0.19734292176E+01  0.15055912141E+02  0.51100000000E-03 0.  1.
         12    1    4    4    0    0  0.84644647904E+01  0.11292673592E+01 -0.15491457392E+00  0.85408669046E+01  0.00000000000E+00 0. -1.
</event>
<event>
 8    1  0.3137106E-007  0.9118800E+02  0.7816164E-02  0.1184000E+00
        -11   -1    0    0    0    0  0.00000000000E+00  0.00000000000E+00  0.45593999997E+02  0.45594000000E+02  0.51100000000E-03 0.  1.
         11   -1    0    0    0    0 -0.00000000000E+00 -0.00000000000E+00 -0.45593999997E+02  0.45594000000E+02  0.51100000000E-03 0. -1.
         23    2    1    2    0    0  0.00000000000E+00  0.00000000000E+00 -0.13322676296E-14  0.91188000000E+02  0.91188000000E+02 0.  0.
    9900012    2    3    3    0    0  0.25202697614E+02 -0.26816563090E+02 -0.12144816046E+01  0.54367095767E+02  0.40000026421E+02 0.  0.
        -12    1    3    3    0    0 -0.25202697614E+02  0.26816563090E+02  0.12144816046E+01  0.36820904233E+02  0.00000000000E+00 0.  1.
         11    1    4    4    0    0  0.18615868651E+02 -0.20964125770E+02  0.46993625751E+01  0.28427612348E+02  0.51100000000E-03 0. -1.
        -11    1    4    4    0    0  0.10837737062E+01 -0.11580613392E+02  0.48164533933E+01  0.12589018847E+02  0.51100000000E-03 0.  1.
        -12    1    4    4    0    0  0.55030552568E+01  0.57281760728E+01 -0.10730297573E+02  0.13350464572E+02  0.00000000000E+00 0.  1.
</event>
<event>
 8    1  0.3137106E-007  0.9118800E+02  0.7816164E-02  0.1184000E+00
        -11   -1    0    0    0    0  0.00000000000E+00  0.00000000000E+00  0.45593999997E+02  0.45594000000E+02  0.51100000000E-03 0. -1.
         11   -1    0    0    0    0 -0.00000000000E+00 -0.00000000000E+00 -0.45593999997E+02  0.45594000000E+02  0.51100000000E-03 0.  1.
         23    2    1    2    0    0  0.00000000000E+00  0.17763568394E-14 -0.71054273576E-14  0.91188000000E+02  0.91188000000E+02 0.  0.
    9900012    2    3    3    0    0 -0.16119147740E+02 -0.84629575137E+01  0.32005129125E+02  0.54367124616E+02  0.40000092187E+02 0.  0.
        -12    1    3    3    0    0  0.16119147740E+02  0.84629575137E+01 -0.32005129125E+02  0.36820875384E+02  0.00000000000E+00 0.  1.
         11    1    4    4    0    0  0.51644506792E+01  0.37961254597E+01  0.90971610941E+01  0.11128362843E+02  0.51100000000E-03 0. -1.
        -11    1    4    4    0    0 -0.23225737429E+02 -0.89307236687E+01  0.27603913015E+02  0.37164078334E+02  0.51100000000E-03 0.  1.
        -12    1    4    4    0    0  0.19421390098E+01 -0.33283593047E+01 -0.46959449844E+01  0.60746834396E+01  0.00000000000E+00 0.  1.
</event>
<event>
 8    1  0.3137106E-007  0.9118800E+02  0.7816164E-02  0.1184000E+00
        -11   -1    0    0    0    0  0.00000000000E+00  0.00000000000E+00  0.45593999997E+02  0.45594000000E+02  0.51100000000E-03 0.  1.
         11   -1    0    0    0    0 -0.00000000000E+00 -0.00000000000E+00 -0.45593999997E+02  0.45594000000E+02  0.51100000000E-03 0. -1.
         23    2    1    2    0    0 -0.11102230246E-15  0.00000000000E+00  0.00000000000E+00  0.91188000000E+02  0.91188000000E+02 0.  0.
    9900012    2    3    3    0    0  0.80363153559E+00 -0.12575095074E+02  0.34597700644E+02  0.54367085703E+02  0.40000003478E+02 0.  0.
         12    1    3    3    0    0 -0.80363153559E+00  0.12575095074E+02 -0.34597700644E+02  0.36820914297E+02  0.00000000000E+00 0. -1.
         11    1    4    4    0    0  0.57675221059E+00  0.39093623237E+01  0.82189147577E+00  0.40362436435E+01  0.51100000000E-03 0. -1.
        -11    1    4    4    0    0  0.47170957507E+01  0.85034681030E+01  0.24862828405E+01  0.10037009750E+02  0.51100000000E-03 0.  1.
        -12    1    4    4    0    0 -0.44902164257E+01 -0.24987925501E+02  0.31289526328E+02  0.40293832310E+02  0.00000000000E+00 0.  1.
</event>
<event>
 8    1  0.3137106E-007  0.9118800E+02  0.7816164E-02  0.1184000E+00
        -11   -1    0    0    0    0  0.00000000000E+00  0.00000000000E+00  0.45593999997E+02  0.45594000000E+02  0.51100000000E-03 0.  1.
         11   -1    0    0    0    0 -0.00000000000E+00 -0.00000000000E+00 -0.45593999997E+02  0.45594000000E+02  0.51100000000E-03 0. -1.
         23    2    1    2    0    0 -0.17763568394E-14  0.00000000000E+00 -0.71054273576E-14  0.91188000000E+02  0.91188000000E+02 0.  0.
    9900012    2    3    3    0    0  0.12587689003E+02  0.11201338121E+02  0.32739280117E+02  0.54367077242E+02  0.39999984189E+02 0.  0.
         12    1    3    3    0    0 -0.12587689003E+02 -0.11201338121E+02 -0.32739280117E+02  0.36820922758E+02  0.00000000000E+00 0. -1.
         11    1    4    4    0    0  0.32470428692E+01 -0.13203372828E+01  0.31523474632E+02  0.31717755769E+02  0.51100000000E-03 0. -1.
        -11    1    4    4    0    0 -0.39375435534E+01  0.13478274227E+01  0.31052774354E+01  0.51926521362E+01  0.51100000000E-03 0.  1.
        -12    1    4    4    0    0  0.13278189687E+02  0.11173847981E+02 -0.18894719495E+01  0.17456669336E+02  0.00000000000E+00 0.  1.
</event>
<event>
 8    1  0.3137106E-007  0.9118800E+02  0.7816164E-02  0.1184000E+00
        -11   -1    0    0    0    0  0.00000000000E+00  0.00000000000E+00  0.45593999997E+02  0.45594000000E+02  0.51100000000E-03 0. -1.
         11   -1    0    0    0    0 -0.00000000000E+00 -0.00000000000E+00 -0.45593999997E+02  0.45594000000E+02  0.51100000000E-03 0.  1.
         23    2    1    2    0    0  0.00000000000E+00  0.00000000000E+00  0.00000000000E+00  0.91188000000E+02  0.91188000000E+02 0.  0.
    9900012    2    3    3    0    0  0.25499377014E+02 -0.26307090324E+02  0.36754067587E+01  0.54366948355E+02  0.39999690363E+02 0.  0.
         12    1    3    3    0    0 -0.25499377014E+02  0.26307090324E+02 -0.36754067587E+01  0.36821051645E+02  0.00000000000E+00 0. -1.
         11    1    4    4    0    0  0.11774521548E+02  0.46863286242E+01  0.74098268924E+01  0.14680141978E+02  0.51100000000E-03 0. -1.
        -11    1    4    4    0    0  0.91522450374E+01 -0.46159919115E+01 -0.74328872619E+01  0.12661705409E+02  0.51100000000E-03 0.  1.
         12    1    4    4    0    0  0.45726104289E+01 -0.26377427037E+02  0.36984671282E+01  0.27025100968E+02  0.00000000000E+00 0. -1.
</event>
<event>
 8    1  0.3137106E-007  0.9118800E+02  0.7816164E-02  0.1184000E+00
        -11   -1    0    0    0    0  0.00000000000E+00  0.00000000000E+00  0.45593999997E+02  0.45594000000E+02  0.51100000000E-03 0.  1.
         11   -1    0    0    0    0 -0.00000000000E+00 -0.00000000000E+00 -0.45593999997E+02  0.45594000000E+02  0.51100000000E-03 0. -1.
         23    2    1    2    0    0  0.00000000000E+00  0.00000000000E+00  0.00000000000E+00  0.91188000000E+02  0.91188000000E+02 0.  0.
    9900012    2    3    3    0    0 -0.14408025445E+02 -0.11541798652E+02 -0.31858686802E+02  0.54367078799E+02  0.39999987739E+02 0.  0.
        -12    1    3    3    0    0  0.14408025445E+02  0.11541798652E+02  0.31858686802E+02  0.36820921201E+02  0.00000000000E+00 0.  1.
         11    1    4    4    0    0 -0.82387867851E+01 -0.19252031045E+02 -0.20842460689E+02  0.29545329155E+02  0.51100000000E-03 0. -1.
        -11    1    4    4    0    0  0.13968514301E+01 -0.93014702986E+00  0.49085950241E+01  0.51875497865E+01  0.51100000000E-03 0.  1.
         12    1    4    4    0    0 -0.75660900903E+01  0.86403794227E+01 -0.15924821137E+02  0.19634199858E+02  0.00000000000E+00 0. -1.
</event>
<event>
 8    1  0.3137106E-007  0.9118800E+02  0.7816164E-02  0.1184000E+00
        -11   -1    0    0    0    0  0.00000000000E+00  0.00000000000E+00  0.45593999997E+02  0.45594000000E+02  0.51100000000E-03 0. -1.
         11   -1    0    0    0    0 -0.00000000000E+00 -0.00000000000E+00 -0.45593999997E+02  0.45594000000E+02  0.51100000000E-03 0.  1.
         23    2    1    2    0    0  0.26645352591E-14  0.00000000000E+00  0.00000000000E+00  0.91188000000E+02  0.91188000000E+02 0.  0.
    9900012    2    3    3    0    0 -0.64099722096E+01 -0.36179373071E+02 -0.23948515700E+01  0.54367216554E+02  0.40000301777E+02 0.  0.
         12    1    3    3    0    0  0.64099722096E+01  0.36179373071E+02  0.23948515700E+01  0.36820783446E+02  0.00000000000E+00 0. -1.
         11    1    4    4    0    0 -0.12482037542E+02 -0.36612954229E+02 -0.54030621667E+01  0.39057685026E+02  0.51100000000E-03 0. -1.
        -11    1    4    4    0    0  0.27967079608E+01 -0.33430057256E+01  0.74440410096E+01  0.86261816299E+01  0.51100000000E-03 0.  1.
        -12    1    4    4    0    0  0.32753573716E+01  0.37765868835E+01 -0.44358304129E+01  0.66833498975E+01  0.00000000000E+00 0.  1.
</event>
<event>
 8    1  0.3137106E-007  0.9118800E+02  0.7816164E-02  0.1184000E+00
        -11   -1    0    0    0    0  0.00000000000E+00  0.00000000000E+00  0.45593999997E+02  0.45594000000E+02  0.51100000000E-03 0.  1.
         11   -1    0    0    0    0 -0.00000000000E+00 -0.00000000000E+00 -0.45593999997E+02  0.45594000000E+02  0.51100000000E-03 0. -1.
         23    2    1    2    0    0  0.17763568394E-14 -0.88817841970E-15  0.00000000000E+00  0.91188000000E+02  0.91188000000E+02 0.  0.
    9900012    2    3    3    0    0  0.12742080604E+02  0.22405246850E+01  0.34473155002E+02  0.54367095818E+02  0.40000026537E+02 0.  0.
         12    1    3    3    0    0 -0.12742080604E+02 -0.22405246850E+01 -0.34473155002E+02  0.36820904182E+02  0.00000000000E+00 0. -1.
         11    1    4    4    0    0 -0.70642063833E+01  0.25480632065E+01  0.83012207066E+01  0.11194011944E+02  0.51100000000E-03 0. -1.
        -11    1    4    4    0    0  0.75955008424E+01  0.13742998036E+02  0.12680822241E+02  0.20183282216E+02  0.51100000000E-03 0.  1.
        -12    1    4    4    0    0  0.12210786145E+02 -0.14050536557E+02  0.13491112054E+02  0.22989801658E+02  0.00000000000E+00 0.  1.
</event>
<event>
 8    1  0.3137106E-007  0.9118800E+02  0.7816164E-02  0.1184000E+00
        -11   -1    0    0    0    0  0.00000000000E+00  0.00000000000E+00  0.45593999997E+02  0.45594000000E+02  0.51100000000E-03 0. -1.
         11   -1    0    0    0    0 -0.00000000000E+00 -0.00000000000E+00 -0.45593999997E+02  0.45594000000E+02  0.51100000000E-03 0.  1.
         23    2    1    2    0    0  0.22204460493E-15  0.00000000000E+00  0.00000000000E+00  0.91188000000E+02  0.91188000000E+02 0.  0.
    9900012    2    3    3    0    0  0.13861591973E+01 -0.15472085724E+02 -0.33383706556E+02  0.54367099177E+02  0.40000034194E+02 0.  0.
         12    1    3    3    0    0 -0.13861591973E+01  0.15472085724E+02  0.33383706556E+02  0.36820900823E+02  0.00000000000E+00 0. -1.
         11    1    4    4    0    0 -0.96362136244E+01 -0.14621272112E+01 -0.20640706496E+02  0.22826151535E+02  0.51100000000E-03 0.  1.
        -11    1    4    4    0    0  0.27297513894E+01 -0.14791954965E+01  0.64542746267E+01  0.71622079824E+01  0.51100000000E-03 0. -1.
         12    1    4    4    0    0  0.82926214323E+01 -0.12530763016E+02 -0.19197274687E+02  0.24378739660E+02  0.00000000000E+00 0. -1.
</event>
<event>
 8    1  0.3137106E-007  0.9118800E+02  0.7816164E-02  0.1184000E+00
        -11   -1    0    0    0    0  0.00000000000E+00  0.00000000000E+00  0.45593999997E+02  0.45594000000E+02  0.51100000000E-03 0. -1.
         11   -1    0    0    0    0 -0.00000000000E+00 -0.00000000000E+00 -0.45593999997E+02  0.45594000000E+02  0.51100000000E-03 0.  1.
         23    2    1    2    0    0  0.35527136788E-14  0.88817841970E-15  0.00000000000E+00  0.91188000000E+02  0.91188000000E+02 0.  0.
    9900012    2    3    3    0    0  0.29686585386E+02  0.45791654007E+01 -0.21295947033E+02  0.54367089260E+02  0.40000011587E+02 0.  0.
         12    1    3    3    0    0 -0.29686585386E+02 -0.45791654007E+01  0.21295947033E+02  0.36820910740E+02  0.00000000000E+00 0. -1.
         11    1    4    4    0    0  0.31418526255E+02  0.10892680082E+02 -0.72158940337E+01  0.34027098001E+02  0.51100000000E-03 0. -1.
        -11    1    4    4    0    0 -0.67517423624E+00  0.38179580904E+01 -0.15104086164E+01  0.41610093341E+01  0.51100000000E-03 0.  1.
         12    1    4    4    0    0 -0.10567666328E+01 -0.10131472771E+02 -0.12569644382E+02  0.16178981925E+02  0.00000000000E+00 0. -1.
</event>
<event>
 8    1  0.3137106E-007  0.9118800E+02  0.7816164E-02  0.1184000E+00
        -11   -1    0    0    0    0  0.00000000000E+00  0.00000000000E+00  0.45593999997E+02  0.45594000000E+02  0.51100000000E-03 0.  1.
         11   -1    0    0    0    0 -0.00000000000E+00 -0.00000000000E+00 -0.45593999997E+02  0.45594000000E+02  0.51100000000E-03 0. -1.
         23    2    1    2    0    0  0.00000000000E+00  0.00000000000E+00  0.35527136788E-14  0.91188000000E+02  0.91188000000E+02 0.  0.
    9900012    2    3    3    0    0 -0.16473215549E+02 -0.25590123306E+02 -0.20725759926E+02  0.54367104223E+02  0.40000045696E+02 0.  0.
        -12    1    3    3    0    0  0.16473215549E+02  0.25590123306E+02  0.20725759926E+02  0.36820895777E+02  0.00000000000E+00 0.  1.
         11    1    4    4    0    0  0.55761686949E+01 -0.95311408604E+01 -0.11995752939E+02  0.16304428608E+02  0.51100000000E-03 0. -1.
        -11    1    4    4    0    0 -0.86281566387E+01 -0.27258785439E+01 -0.15518060563E+02  0.17963454699E+02  0.51100000000E-03 0.  1.
         12    1    4    4    0    0 -0.13421227605E+02 -0.13333103902E+02  0.67880535754E+01  0.20099220916E+02  0.00000000000E+00 0. -1.
</event>
<event>
 8    1  0.3137106E-007  0.9118800E+02  0.7816164E-02  0.1184000E+00
        -11   -1    0    0    0    0  0.00000000000E+00  0.00000000000E+00  0.45593999997E+02  0.45594000000E+02  0.51100000000E-03 0. -1.
         11   -1    0    0    0    0 -0.00000000000E+00 -0.00000000000E+00 -0.45593999997E+02  0.45594000000E+02  0.51100000000E-03 0.  1.
         23    2    1    2    0    0  0.00000000000E+00  0.00000000000E+00  0.35527136788E-14  0.91188000000E+02  0.91188000000E+02 0.  0.
    9900012    2    3    3    0    0 -0.49947989945E+01  0.21762976457E+02  0.29278066138E+02  0.54367077713E+02  0.39999985263E+02 0.  0.
        -12    1    3    3    0    0  0.49947989945E+01 -0.21762976457E+02 -0.29278066138E+02  0.36820922287E+02  0.00000000000E+00 0.  1.
         11    1    4    4    0    0  0.16862816853E+02  0.90603293595E+01  0.11403792552E+02  0.22282070037E+02  0.51100000000E-03 0.  1.
        -11    1    4    4    0    0 -0.49365208860E+01  0.13144367575E+00  0.64029404645E+01  0.80860474121E+01  0.51100000000E-03 0. -1.
        -12    1    4    4    0    0 -0.16921094961E+02  0.12571203422E+02  0.11471333121E+02  0.23998960264E+02  0.00000000000E+00 0.  1.
</event>
<event>
 8    1  0.3137106E-007  0.9118800E+02  0.7816164E-02  0.1184000E+00
        -11   -1    0    0    0    0  0.00000000000E+00  0.00000000000E+00  0.45593999997E+02  0.45594000000E+02  0.51100000000E-03 0. -1.
         11   -1    0    0    0    0 -0.00000000000E+00 -0.00000000000E+00 -0.45593999997E+02  0.45594000000E+02  0.51100000000E-03 0.  1.
         23    2    1    2    0    0  0.88817841970E-15  0.35527136788E-14  0.35527136788E-14  0.91188000000E+02  0.91188000000E+02 0.  0.
    9900012    2    3    3    0    0 -0.53838568434E+01 -0.28848445746E+02 -0.22238724518E+02  0.54367087401E+02  0.40000007348E+02 0.  0.
         12    1    3    3    0    0  0.53838568434E+01  0.28848445746E+02  0.22238724518E+02  0.36820912599E+02  0.00000000000E+00 0. -1.
         11    1    4    4    0    0  0.96639185664E+01 -0.58130952653E+00  0.84518149447E+00  0.97182084174E+01  0.51100000000E-03 0. -1.
        -11    1    4    4    0    0 -0.17153580472E+02 -0.19530401602E+02 -0.81898553478E+01  0.27253543634E+02  0.51100000000E-03 0.  1.
         12    1    4    4    0    0  0.21058050621E+01 -0.87367346170E+01 -0.14894050664E+02  0.17395335349E+02  0.00000000000E+00 0. -1.
</event>
<event>
 8    1  0.3137106E-007  0.9118800E+02  0.7816164E-02  0.1184000E+00
        -11   -1    0    0    0    0  0.00000000000E+00  0.00000000000E+00  0.45593999997E+02  0.45594000000E+02  0.51100000000E-03 0.  1.
         11   -1    0    0    0    0 -0.00000000000E+00 -0.00000000000E+00 -0.45593999997E+02  0.45594000000E+02  0.51100000000E-03 0. -1.
         23    2    1    2    0    0  0.00000000000E+00  0.00000000000E+00  0.00000000000E+00  0.91188000000E+02  0.91188000000E+02 0.  0.
    9900012    2    3    3    0    0  0.27571243425E+02  0.23304040708E+02 -0.72475450950E+01  0.54367099859E+02  0.40000035748E+02 0.  0.
         12    1    3    3    0    0 -0.27571243425E+02 -0.23304040708E+02  0.72475450950E+01  0.36820900141E+02  0.00000000000E+00 0. -1.
         11    1    4    4    0    0  0.20381164034E+02  0.21930534031E+02 -0.79025179815E+00  0.29949368415E+02  0.51100000000E-03 0. -1.
        -11    1    4    4    0    0 -0.63123372063E+01  0.49306512351E+00  0.38480422943E+01  0.74091932072E+01  0.51100000000E-03 0.  1.
         12    1    4    4    0    0  0.13502416597E+02  0.88044155294E+00 -0.10305335591E+02  0.17008538236E+02  0.00000000000E+00 0. -1.
</event>
<event>
 8    1  0.3137106E-007  0.9118800E+02  0.7816164E-02  0.1184000E+00
        -11   -1    0    0    0    0  0.00000000000E+00  0.00000000000E+00  0.45593999997E+02  0.45594000000E+02  0.51100000000E-03 0.  1.
         11   -1    0    0    0    0 -0.00000000000E+00 -0.00000000000E+00 -0.45593999997E+02  0.45594000000E+02  0.51100000000E-03 0. -1.
         23    2    1    2    0    0  0.00000000000E+00  0.00000000000E+00  0.17763568394E-14  0.91188000000E+02  0.91188000000E+02 0.  0.
    9900012    2    3    3    0    0  0.75354536224E+01 -0.33185340242E+02  0.14061613537E+02  0.54367097736E+02  0.40000030908E+02 0.  0.
         12    1    3    3    0    0 -0.75354536224E+01  0.33185340242E+02 -0.14061613537E+02  0.36820902264E+02  0.00000000000E+00 0. -1.
         11    1    4    4    0    0  0.70169640839E+01 -0.27117221842E+02  0.12623855103E+02  0.30723659015E+02  0.51100000000E-03 0.  1.
        -11    1    4    4    0    0 -0.10203249575E+02 -0.19697452375E+01  0.51259218088E+01  0.11587116675E+02  0.51100000000E-03 0. -1.
         12    1    4    4    0    0  0.10721739113E+02 -0.40983731632E+01 -0.36881633746E+01  0.12056322046E+02  0.00000000000E+00 0. -1.
</event>
<event>
 8    1  0.3137106E-007  0.9118800E+02  0.7816164E-02  0.1184000E+00
        -11   -1    0    0    0    0  0.00000000000E+00  0.00000000000E+00  0.45593999997E+02  0.45594000000E+02  0.51100000000E-03 0.  1.
         11   -1    0    0    0    0 -0.00000000000E+00 -0.00000000000E+00 -0.45593999997E+02  0.45594000000E+02  0.51100000000E-03 0. -1.
         23    2    1    2    0    0  0.00000000000E+00  0.88817841970E-15  0.17763568394E-14  0.91188000000E+02  0.91188000000E+02 0.  0.
    9900012    2    3    3    0    0  0.32956087421E+02 -0.57319689717E+01  0.15388972411E+02  0.54367086945E+02  0.40000006308E+02 0.  0.
        -12    1    3    3    0    0 -0.32956087421E+02  0.57319689717E+01 -0.15388972411E+02  0.36820913055E+02  0.00000000000E+00 0.  1.
         11    1    4    4    0    0 -0.75370581655E+00 -0.14121096960E+02  0.41609792952E+01  0.14740664868E+02  0.51100000000E-03 0.  1.
        -11    1    4    4    0    0  0.24671236178E+02 -0.10705714626E+01  0.93660724811E+01  0.26410969914E+02  0.51100000000E-03 0. -1.
         12    1    4    4    0    0  0.90385570594E+01  0.94596994508E+01  0.18619206344E+01  0.13215452163E+02  0.00000000000E+00 0. -1.
</event>
<event>
 8    1  0.3137106E-007  0.9118800E+02  0.7816164E-02  0.1184000E+00
        -11   -1    0    0    0    0  0.00000000000E+00  0.00000000000E+00  0.45593999997E+02  0.45594000000E+02  0.51100000000E-03 0.  1.
         11   -1    0    0    0    0 -0.00000000000E+00 -0.00000000000E+00 -0.45593999997E+02  0.45594000000E+02  0.51100000000E-03 0. -1.
         23    2    1    2    0    0  0.00000000000E+00  0.00000000000E+00  0.35527136788E-14  0.91188000000E+02  0.91188000000E+02 0.  0.
    9900012    2    3    3    0    0  0.25487376699E+02 -0.18594650876E+02 -0.18984451328E+02  0.54367125425E+02  0.40000094032E+02 0.  0.
        -12    1    3    3    0    0 -0.25487376699E+02  0.18594650876E+02  0.18984451328E+02  0.36820874575E+02  0.00000000000E+00 0.  1.
         11    1    4    4    0    0  0.17389559596E+01 -0.74331780099E+01 -0.16940932813E+02  0.18581477552E+02  0.51100000000E-03 0. -1.
        -11    1    4    4    0    0  0.16900404967E+01 -0.13002454940E+02  0.20622445312E+01  0.13273014884E+02  0.51100000000E-03 0.  1.
        -12    1    4    4    0    0  0.22058380243E+02  0.18409820735E+01 -0.41057630461E+01  0.22512632990E+02  0.00000000000E+00 0.  1.
</event>
<event>
 8    1  0.3137106E-007  0.9118800E+02  0.7816164E-02  0.1184000E+00
        -11   -1    0    0    0    0  0.00000000000E+00  0.00000000000E+00  0.45593999997E+02  0.45594000000E+02  0.51100000000E-03 0.  1.
         11   -1    0    0    0    0 -0.00000000000E+00 -0.00000000000E+00 -0.45593999997E+02  0.45594000000E+02  0.51100000000E-03 0. -1.
         23    2    1    2    0    0  0.00000000000E+00 -0.71054273576E-14 -0.17763568394E-14  0.91188000000E+02  0.91188000000E+02 0.  0.
    9900012    2    3    3    0    0  0.72067678937E+01  0.35552931906E+02  0.63118509623E+01  0.54366974306E+02  0.39999749524E+02 0.  0.
        -12    1    3    3    0    0 -0.72067678937E+01 -0.35552931906E+02 -0.63118509623E+01  0.36821025694E+02  0.00000000000E+00 0.  1.
         11    1    4    4    0    0  0.15908747063E+01  0.33761841280E+02  0.18115891199E+02  0.38348120203E+02  0.51100000000E-03 0. -1.
        -11    1    4    4    0    0  0.12279944014E+01 -0.35822657843E+01 -0.52652005960E+01  0.64855944968E+01  0.51100000000E-03 0.  1.
         12    1    4    4    0    0  0.43878987859E+01  0.53733564108E+01 -0.65388396405E+01  0.95332596061E+01  0.00000000000E+00 0. -1.
</event>
<event>
 8    1  0.3137106E-007  0.9118800E+02  0.7816164E-02  0.1184000E+00
        -11   -1    0    0    0    0  0.00000000000E+00  0.00000000000E+00  0.45593999997E+02  0.45594000000E+02  0.51100000000E-03 0.  1.
         11   -1    0    0    0    0 -0.00000000000E+00 -0.00000000000E+00 -0.45593999997E+02  0.45594000000E+02  0.51100000000E-03 0. -1.
         23    2    1    2    0    0  0.00000000000E+00  0.17763568394E-14 -0.71054273576E-14  0.91188000000E+02  0.91188000000E+02 0.  0.
    9900012    2    3    3    0    0  0.12279075049E+02 -0.10056571253E+02 -0.33224544386E+02  0.54367073083E+02  0.39999974706E+02 0.  0.
        -12    1    3    3    0    0 -0.12279075049E+02  0.10056571253E+02  0.33224544386E+02  0.36820926917E+02  0.00000000000E+00 0.  1.
         11    1    4    4    0    0 -0.15350026999E+01 -0.57634279563E+01 -0.42961474952E+01  0.73505250600E+01  0.51100000000E-03 0. -1.
        -11    1    4    4    0    0  0.11698105140E+02 -0.18754973179E+02 -0.14232101461E+02  0.26289682293E+02  0.51100000000E-03 0.  1.
        -12    1    4    4    0    0  0.21159726087E+01  0.14461829882E+02 -0.14696295429E+02  0.20726865729E+02  0.00000000000E+00 0.  1.
</event>
<event>
 8    1  0.3137106E-007  0.9118800E+02  0.7816164E-02  0.1184000E+00
        -11   -1    0    0    0    0  0.00000000000E+00  0.00000000000E+00  0.45593999997E+02  0.45594000000E+02  0.51100000000E-03 0. -1.
         11   -1    0    0    0    0 -0.00000000000E+00 -0.00000000000E+00 -0.45593999997E+02  0.45594000000E+02  0.51100000000E-03 0.  1.
         23    2    1    2    0    0 -0.17763568394E-14  0.31086244690E-14  0.00000000000E+00  0.91188000000E+02  0.91188000000E+02 0.  0.
    9900012    2    3    3    0    0 -0.10695359273E+02  0.13587013685E+01 -0.35207121154E+02  0.54367107027E+02  0.40000052089E+02 0.  0.
         12    1    3    3    0    0  0.10695359273E+02 -0.13587013685E+01  0.35207121154E+02  0.36820892973E+02  0.00000000000E+00 0. -1.
         11    1    4    4    0    0  0.52484088569E+01  0.11031680562E+02 -0.17969156981E+02  0.21728653304E+02  0.51100000000E-03 0. -1.
        -11    1    4    4    0    0 -0.61267821021E+01  0.30904274545E+01 -0.14851881550E+02  0.16360519142E+02  0.51100000000E-03 0.  1.
         12    1    4    4    0    0 -0.98169860274E+01 -0.12763406648E+02 -0.23860826237E+01  0.16277934580E+02  0.00000000000E+00 0. -1.
</event>
<event>
 8    1  0.3137106E-007  0.9118800E+02  0.7816164E-02  0.1184000E+00
        -11   -1    0    0    0    0  0.00000000000E+00  0.00000000000E+00  0.45593999997E+02  0.45594000000E+02  0.51100000000E-03 0.  1.
         11   -1    0    0    0    0 -0.00000000000E+00 -0.00000000000E+00 -0.45593999997E+02  0.45594000000E+02  0.51100000000E-03 0. -1.
         23    2    1    2    0    0  0.13322676296E-14  0.00000000000E+00  0.00000000000E+00  0.91188000000E+02  0.91188000000E+02 0.  0.
    9900012    2    3    3    0    0  0.34861513066E+01 -0.10916846544E+02  0.34992128034E+02  0.54367084561E+02  0.40000000874E+02 0.  0.
         12    1    3    3    0    0 -0.34861513066E+01  0.10916846544E+02 -0.34992128034E+02  0.36820915439E+02  0.00000000000E+00 0. -1.
         11    1    4    4    0    0 -0.87976405959E+01 -0.24177945325E+01  0.41128302004E+01  0.10007975968E+02  0.51100000000E-03 0. -1.
        -11    1    4    4    0    0 -0.77369500143E+01  0.31643888538E+01  0.11094225676E+02  0.13890845761E+02  0.51100000000E-03 0.  1.
        -12    1    4    4    0    0  0.20020741917E+02 -0.11663440865E+02  0.19785072158E+02  0.30468262832E+02  0.00000000000E+00 0.  1.
</event>
<event>
 8    1  0.3137106E-007  0.9118800E+02  0.7816164E-02  0.1184000E+00
        -11   -1    0    0    0    0  0.00000000000E+00  0.00000000000E+00  0.45593999997E+02  0.45594000000E+02  0.51100000000E-03 0. -1.
         11   -1    0    0    0    0 -0.00000000000E+00 -0.00000000000E+00 -0.45593999997E+02  0.45594000000E+02  0.51100000000E-03 0.  1.
         23    2    1    2    0    0  0.00000000000E+00 -0.35527136788E-14  0.44408920985E-15  0.91188000000E+02  0.91188000000E+02 0.  0.
    9900012    2    3    3    0    0 -0.22488552862E+02 -0.29028317784E+02  0.27205729126E+01  0.54367085289E+02  0.40000002532E+02 0.  0.
         12    1    3    3    0    0  0.22488552862E+02  0.29028317784E+02 -0.27205729126E+01  0.36820914711E+02  0.00000000000E+00 0. -1.
         11    1    4    4    0    0  0.37793424815E+01 -0.10216147000E+02 -0.24843572956E+01  0.11172516304E+02  0.51100000000E-03 0. -1.
        -11    1    4    4    0    0 -0.12888816232E+02 -0.24931500721E+02  0.19983128904E+01  0.28137067487E+02  0.51100000000E-03 0.  1.
        -12    1    4    4    0    0 -0.13379079112E+02  0.61193299372E+01  0.32066173177E+01  0.15057501499E+02  0.00000000000E+00 0.  1.
</event>
<event>
 8    1  0.3137106E-007  0.9118800E+02  0.7816164E-02  0.1184000E+00
        -11   -1    0    0    0    0  0.00000000000E+00  0.00000000000E+00  0.45593999997E+02  0.45594000000E+02  0.51100000000E-03 0. -1.
         11   -1    0    0    0    0 -0.00000000000E+00 -0.00000000000E+00 -0.45593999997E+02  0.45594000000E+02  0.51100000000E-03 0.  1.
         23    2    1    2    0    0  0.00000000000E+00  0.00000000000E+00  0.00000000000E+00  0.91188000000E+02  0.91188000000E+02 0.  0.
    9900012    2    3    3    0    0  0.30052875885E+02 -0.19614207571E+02  0.82397097117E+01  0.54367010011E+02  0.39999830922E+02 0.  0.
        -12    1    3    3    0    0 -0.30052875885E+02  0.19614207571E+02 -0.82397097117E+01  0.36820989989E+02  0.00000000000E+00 0.  1.
         11    1    4    4    0    0 -0.61661318903E+01 -0.69091611922E+01  0.61519820427E+00  0.92809568451E+01  0.51100000000E-03 0. -1.
        -11    1    4    4    0    0  0.18015646754E+02  0.51015188150E+01  0.55892520083E+01  0.19540439106E+02  0.51100000000E-03 0.  1.
         12    1    4    4    0    0  0.18203361021E+02 -0.17806565193E+02  0.20352594991E+01  0.25545614060E+02  0.00000000000E+00 0. -1.
</event>
<event>
 8    1  0.3137106E-007  0.9118800E+02  0.7816164E-02  0.1184000E+00
        -11   -1    0    0    0    0  0.00000000000E+00  0.00000000000E+00  0.45593999997E+02  0.45594000000E+02  0.51100000000E-03 0. -1.
         11   -1    0    0    0    0 -0.00000000000E+00 -0.00000000000E+00 -0.45593999997E+02  0.45594000000E+02  0.51100000000E-03 0.  1.
         23    2    1    2    0    0  0.00000000000E+00  0.00000000000E+00  0.00000000000E+00  0.91188000000E+02  0.91188000000E+02 0.  0.
    9900012    2    3    3    0    0 -0.15023089433E+02  0.90625888834E+01 -0.32372077180E+02  0.54367148376E+02  0.40000146353E+02 0.  0.
         12    1    3    3    0    0  0.15023089433E+02 -0.90625888834E+01  0.32372077180E+02  0.36820851624E+02  0.00000000000E+00 0. -1.
         11    1    4    4    0    0 -0.94690652167E+01  0.82975075521E+01 -0.39514044264E+02  0.41471333738E+02  0.51100000000E-03 0.  1.
        -11    1    4    4    0    0 -0.12126177740E+01  0.13825590524E+01  0.81844424512E+01  0.83885046281E+01  0.51100000000E-03 0. -1.
        -12    1    4    4    0    0 -0.43414064426E+01 -0.61747772105E+00 -0.10424753668E+01  0.45073100100E+01  0.00000000000E+00 0.  1.
</event>
<event>
 8    1  0.3137106E-007  0.9118800E+02  0.7816164E-02  0.1184000E+00
        -11   -1    0    0    0    0  0.00000000000E+00  0.00000000000E+00  0.45593999997E+02  0.45594000000E+02  0.51100000000E-03 0.  1.
         11   -1    0    0    0    0 -0.00000000000E+00 -0.00000000000E+00 -0.45593999997E+02  0.45594000000E+02  0.51100000000E-03 0. -1.
         23    2    1    2    0    0  0.35527136788E-14 -0.88817841970E-15  0.71054273576E-14  0.91188000000E+02  0.91188000000E+02 0.  0.
    9900012    2    3    3    0    0 -0.22628741661E+02 -0.39914317299E+01 -0.28771300956E+02  0.54367092418E+02  0.40000018786E+02 0.  0.
        -12    1    3    3    0    0  0.22628741661E+02  0.39914317299E+01  0.28771300956E+02  0.36820907582E+02  0.00000000000E+00 0.  1.
         11    1    4    4    0    0 -0.45949058487E+01 -0.65865144223E+01  0.93340051678E+00  0.80849594173E+01  0.51100000000E-03 0.  1.
        -11    1    4    4    0    0 -0.17682055316E+02 -0.10284442776E+02 -0.25581352768E+02  0.32754090632E+02  0.51100000000E-03 0. -1.
         12    1    4    4    0    0 -0.35178049621E+00  0.12879525468E+02 -0.41233487054E+01  0.13528042369E+02  0.00000000000E+00 0. -1.
</event>
<event>
 8    1  0.3137106E-007  0.9118800E+02  0.7816164E-02  0.1184000E+00
        -11   -1    0    0    0    0  0.00000000000E+00  0.00000000000E+00  0.45593999997E+02  0.45594000000E+02  0.51100000000E-03 0. -1.
         11   -1    0    0    0    0 -0.00000000000E+00 -0.00000000000E+00 -0.45593999997E+02  0.45594000000E+02  0.51100000000E-03 0.  1.
         23    2    1    2    0    0  0.88817841970E-15  0.00000000000E+00  0.00000000000E+00  0.91188000000E+02  0.91188000000E+02 0.  0.
    9900012    2    3    3    0    0 -0.78593594638E+01 -0.84172845708E+01  0.34973689779E+02  0.54367093066E+02  0.40000020262E+02 0.  0.
        -12    1    3    3    0    0  0.78593594638E+01  0.84172845708E+01 -0.34973689779E+02  0.36820906934E+02  0.00000000000E+00 0.  1.
         11    1    4    4    0    0 -0.32308234448E+01 -0.13220183340E+02  0.26996622616E+02  0.30232914193E+02  0.51100000000E-03 0. -1.
        -11    1    4    4    0    0 -0.40409914445E+00  0.12911449173E+02  0.16664946001E+01  0.13024823238E+02  0.51100000000E-03 0.  1.
         12    1    4    4    0    0 -0.42244368745E+01 -0.81085504039E+01  0.63105725625E+01  0.11109355635E+02  0.00000000000E+00 0. -1.
</event>
<event>
 8    1  0.3137106E-007  0.9118800E+02  0.7816164E-02  0.1184000E+00
        -11   -1    0    0    0    0  0.00000000000E+00  0.00000000000E+00  0.45593999997E+02  0.45594000000E+02  0.51100000000E-03 0.  1.
         11   -1    0    0    0    0 -0.00000000000E+00 -0.00000000000E+00 -0.45593999997E+02  0.45594000000E+02  0.51100000000E-03 0. -1.
         23    2    1    2    0    0  0.00000000000E+00  0.44408920985E-15 -0.35527136788E-14  0.91188000000E+02  0.91188000000E+02 0.  0.
    9900012    2    3    3    0    0 -0.28295173361E+02 -0.24589342765E+01 -0.23433257481E+02  0.54367071855E+02  0.39999971909E+02 0.  0.
        -12    1    3    3    0    0  0.28295173361E+02  0.24589342765E+01  0.23433257481E+02  0.36820928145E+02  0.00000000000E+00 0.  1.
         11    1    4    4    0    0 -0.31497798516E+02 -0.60380587616E+01 -0.56224499364E+01  0.32560427032E+02  0.51100000000E-03 0. -1.
        -11    1    4    4    0    0  0.23697269396E+01  0.67362824216E+01 -0.53435186101E+01  0.89188731368E+01  0.51100000000E-03 0.  1.
         12    1    4    4    0    0  0.83289821600E+00 -0.31571579365E+01 -0.12467288934E+02  0.12887771686E+02  0.00000000000E+00 0. -1.
</event>
<event>
 8    1  0.3137106E-007  0.9118800E+02  0.7816164E-02  0.1184000E+00
        -11   -1    0    0    0    0  0.00000000000E+00  0.00000000000E+00  0.45593999997E+02  0.45594000000E+02  0.51100000000E-03 0.  1.
         11   -1    0    0    0    0 -0.00000000000E+00 -0.00000000000E+00 -0.45593999997E+02  0.45594000000E+02  0.51100000000E-03 0. -1.
         23    2    1    2    0    0  0.35527136788E-14  0.00000000000E+00 -0.35527136788E-14  0.91188000000E+02  0.91188000000E+02 0.  0.
    9900012    2    3    3    0    0  0.20469429358E+02 -0.10531484365E+02  0.28737945226E+02  0.54367092936E+02  0.40000019967E+02 0.  0.
         12    1    3    3    0    0 -0.20469429358E+02  0.10531484365E+02 -0.28737945226E+02  0.36820907064E+02  0.00000000000E+00 0. -1.
         11    1    4    4    0    0 -0.91066586875E+00  0.39275420025E+01  0.31325647252E+01  0.51056694493E+01  0.51100000000E-03 0. -1.
        -11    1    4    4    0    0  0.23658572785E+02 -0.85983559772E+01  0.31717246020E+02  0.40492511494E+02  0.51100000000E-03 0.  1.
        -12    1    4    4    0    0 -0.22784775583E+01 -0.58606703908E+01 -0.61118655192E+01  0.87689119928E+01  0.00000000000E+00 0.  1.
</event>
<event>
 8    1  0.3137106E-007  0.9118800E+02  0.7816164E-02  0.1184000E+00
        -11   -1    0    0    0    0  0.00000000000E+00  0.00000000000E+00  0.45593999997E+02  0.45594000000E+02  0.51100000000E-03 0. -1.
         11   -1    0    0    0    0 -0.00000000000E+00 -0.00000000000E+00 -0.45593999997E+02  0.45594000000E+02  0.51100000000E-03 0.  1.
         23    2    1    2    0    0  0.00000000000E+00  0.00000000000E+00  0.00000000000E+00  0.91188000000E+02  0.91188000000E+02 0.  0.
    9900012    2    3    3    0    0  0.17555788001E+02 -0.72397630885E+01 -0.31546154396E+02  0.54367085846E+02  0.40000003804E+02 0.  0.
         12    1    3    3    0    0 -0.17555788001E+02  0.72397630885E+01  0.31546154396E+02  0.36820914154E+02  0.00000000000E+00 0. -1.
         11    1    4    4    0    0 -0.77818030950E+01 -0.42999992977E-01 -0.36652134566E+01  0.86018659808E+01  0.51100000000E-03 0. -1.
        -11    1    4    4    0    0  0.12731162505E+02 -0.45372005111E+01  0.15826228646E+01  0.13607842687E+02  0.51100000000E-03 0.  1.
        -12    1    4    4    0    0  0.12606428591E+02 -0.26595625844E+01 -0.29463563804E+02  0.32157377179E+02  0.00000000000E+00 0.  1.
</event>
<event>
 8    1  0.3137106E-007  0.9118800E+02  0.7816164E-02  0.1184000E+00
        -11   -1    0    0    0    0  0.00000000000E+00  0.00000000000E+00  0.45593999997E+02  0.45594000000E+02  0.51100000000E-03 0.  1.
         11   -1    0    0    0    0 -0.00000000000E+00 -0.00000000000E+00 -0.45593999997E+02  0.45594000000E+02  0.51100000000E-03 0. -1.
         23    2    1    2    0    0  0.28449465006E-15  0.71054273576E-14 -0.17763568394E-14  0.91188000000E+02  0.91188000000E+02 0.  0.
    9900012    2    3    3    0    0 -0.60160576037E-01  0.36211778619E+02  0.66695476495E+01  0.54367090235E+02  0.40000013810E+02 0.  0.
        -12    1    3    3    0    0  0.60160576037E-01 -0.36211778619E+02 -0.66695476495E+01  0.36820909765E+02  0.00000000000E+00 0.  1.
         11    1    4    4    0    0 -0.42992115092E+01  0.21591616919E+01 -0.20464515195E+01  0.52281127470E+01  0.51100000000E-03 0. -1.
        -11    1    4    4    0    0  0.90949709488E+01  0.16526057742E+02  0.20193412788E+02  0.27633367535E+02  0.51100000000E-03 0.  1.
        -12    1    4    4    0    0 -0.48559200156E+01  0.17526559186E+02 -0.11477413619E+02  0.21505609953E+02  0.00000000000E+00 0.  1.
</event>
<event>
 8    1  0.3137106E-007  0.9118800E+02  0.7816164E-02  0.1184000E+00
        -11   -1    0    0    0    0  0.00000000000E+00  0.00000000000E+00  0.45593999997E+02  0.45594000000E+02  0.51100000000E-03 0. -1.
         11   -1    0    0    0    0 -0.00000000000E+00 -0.00000000000E+00 -0.45593999997E+02  0.45594000000E+02  0.51100000000E-03 0.  1.
         23    2    1    2    0    0 -0.17763568394E-14  0.00000000000E+00  0.00000000000E+00  0.91188000000E+02  0.91188000000E+02 0.  0.
    9900012    2    3    3    0    0 -0.11599577038E+02  0.32094179225E+02  0.13827269961E+02  0.54367083089E+02  0.39999997518E+02 0.  0.
        -12    1    3    3    0    0  0.11599577038E+02 -0.32094179225E+02 -0.13827269961E+02  0.36820916911E+02  0.00000000000E+00 0.  1.
         11    1    4    4    0    0  0.31399458876E+01  0.88285754037E+01 -0.11458247653E+02  0.14801839189E+02  0.51100000000E-03 0.  1.
        -11    1    4    4    0    0 -0.11224244323E+02  0.17440740165E+02  0.10406774658E+02  0.23204827885E+02  0.51100000000E-03 0. -1.
        -12    1    4    4    0    0 -0.35152786028E+01  0.58248636566E+01  0.14878742956E+02  0.16360416016E+02  0.00000000000E+00 0.  1.
</event>
<event>
 8    1  0.3137106E-007  0.9118800E+02  0.7816164E-02  0.1184000E+00
        -11   -1    0    0    0    0  0.00000000000E+00  0.00000000000E+00  0.45593999997E+02  0.45594000000E+02  0.51100000000E-03 0. -1.
         11   -1    0    0    0    0 -0.00000000000E+00 -0.00000000000E+00 -0.45593999997E+02  0.45594000000E+02  0.51100000000E-03 0.  1.
         23    2    1    2    0    0  0.00000000000E+00  0.00000000000E+00 -0.44408920985E-15  0.91188000000E+02  0.91188000000E+02 0.  0.
    9900012    2    3    3    0    0  0.33689430606E+02  0.14649810588E+02  0.24870001114E+01  0.54367084010E+02  0.39999999617E+02 0.  0.
        -12    1    3    3    0    0 -0.33689430606E+02 -0.14649810588E+02 -0.24870001114E+01  0.36820915990E+02  0.00000000000E+00 0.  1.
         11    1    4    4    0    0  0.18262172113E+02  0.34158112376E+01  0.45131670205E+01  0.19119188621E+02  0.51100000000E-03 0. -1.
        -11    1    4    4    0    0 -0.25776688608E+01 -0.67682738107E+01 -0.60925210535E+01  0.94642865648E+01  0.51100000000E-03 0.  1.
        -12    1    4    4    0    0  0.18004927354E+02  0.18002273161E+02  0.40663541444E+01  0.25783608824E+02  0.00000000000E+00 0.  1.
</event>
<event>
 8    1  0.3137106E-007  0.9118800E+02  0.7816164E-02  0.1184000E+00
        -11   -1    0    0    0    0  0.00000000000E+00  0.00000000000E+00  0.45593999997E+02  0.45594000000E+02  0.51100000000E-03 0. -1.
         11   -1    0    0    0    0 -0.00000000000E+00 -0.00000000000E+00 -0.45593999997E+02  0.45594000000E+02  0.51100000000E-03 0.  1.
         23    2    1    2    0    0  0.00000000000E+00  0.00000000000E+00 -0.17763568394E-14  0.91188000000E+02  0.91188000000E+02 0.  0.
    9900012    2    3    3    0    0 -0.92882010267E+01  0.35464577787E+02  0.34311832437E+01  0.54367082380E+02  0.39999995902E+02 0.  0.
        -12    1    3    3    0    0  0.92882010267E+01 -0.35464577787E+02 -0.34311832437E+01  0.36820917620E+02  0.00000000000E+00 0.  1.
         11    1    4    4    0    0 -0.37904297338E+01 -0.85247567548E+00  0.63277857535E+01  0.74252909133E+01  0.51100000000E-03 0.  1.
        -11    1    4    4    0    0  0.72701897090E+01  0.15936004426E+02 -0.11993577878E+02  0.21228702411E+02  0.51100000000E-03 0. -1.
         12    1    4    4    0    0 -0.12767961002E+02  0.20381049036E+02  0.90969753680E+01  0.25713089056E+02  0.00000000000E+00 0. -1.
</event>
<event>
 8    1  0.3137106E-007  0.9118800E+02  0.7816164E-02  0.1184000E+00
        -11   -1    0    0    0    0  0.00000000000E+00  0.00000000000E+00  0.45593999997E+02  0.45594000000E+02  0.51100000000E-03 0.  1.
         11   -1    0    0    0    0 -0.00000000000E+00 -0.00000000000E+00 -0.45593999997E+02  0.45594000000E+02  0.51100000000E-03 0. -1.
         23    2    1    2    0    0 -0.35527136788E-14 -0.17763568394E-14  0.00000000000E+00  0.91188000000E+02  0.91188000000E+02 0.  0.
    9900012    2    3    3    0    0  0.31489100337E+02  0.11356802260E+02 -0.15337537394E+02  0.54367075909E+02  0.39999981150E+02 0.  0.
        -12    1    3    3    0    0 -0.31489100337E+02 -0.11356802260E+02  0.15337537394E+02  0.36820924091E+02  0.00000000000E+00 0.  1.
         11    1    4    4    0    0 -0.54982255478E+00 -0.66009339848E-01 -0.12892666341E+02  0.12904553759E+02  0.51100000000E-03 0. -1.
        -11    1    4    4    0    0 -0.60131389558E+00  0.76900688470E+01 -0.37643184854E+01  0.85830548870E+01  0.51100000000E-03 0.  1.
        -12    1    4    4    0    0  0.32640236787E+02  0.37327427527E+01  0.13194474326E+01  0.32879467263E+02  0.00000000000E+00 0.  1.
</event>
<event>
 8    1  0.3137106E-007  0.9118800E+02  0.7816164E-02  0.1184000E+00
        -11   -1    0    0    0    0  0.00000000000E+00  0.00000000000E+00  0.45593999997E+02  0.45594000000E+02  0.51100000000E-03 0. -1.
         11   -1    0    0    0    0 -0.00000000000E+00 -0.00000000000E+00 -0.45593999997E+02  0.45594000000E+02  0.51100000000E-03 0.  1.
         23    2    1    2    0    0  0.35527136788E-14  0.00000000000E+00  0.88817841970E-15  0.91188000000E+02  0.91188000000E+02 0.  0.
    9900012    2    3    3    0    0  0.31688620027E+02  0.18064379238E+02  0.50290598097E+01  0.54367056516E+02  0.39999936940E+02 0.  0.
         12    1    3    3    0    0 -0.31688620027E+02 -0.18064379238E+02 -0.50290598097E+01  0.36820943484E+02  0.00000000000E+00 0. -1.
         11    1    4    4    0    0  0.47579923804E+01  0.21854235189E+01  0.63791710103E+01  0.82527807731E+01  0.51100000000E-03 0. -1.
        -11    1    4    4    0    0  0.11517709446E+02  0.64365245339E+01 -0.17471687050E+02  0.21893979254E+02  0.51100000000E-03 0.  1.
        -12    1    4    4    0    0  0.15412918201E+02  0.94424311854E+01  0.16121575849E+02  0.24220296489E+02  0.00000000000E+00 0.  1.
</event>
<event>
 8    1  0.3137106E-007  0.9118800E+02  0.7816164E-02  0.1184000E+00
        -11   -1    0    0    0    0  0.00000000000E+00  0.00000000000E+00  0.45593999997E+02  0.45594000000E+02  0.51100000000E-03 0.  1.
         11   -1    0    0    0    0 -0.00000000000E+00 -0.00000000000E+00 -0.45593999997E+02  0.45594000000E+02  0.51100000000E-03 0. -1.
         23    2    1    2    0    0  0.14432899320E-14  0.71054273576E-14  0.00000000000E+00  0.91188000000E+02  0.91188000000E+02 0.  0.
    9900012    2    3    3    0    0 -0.38119398134E+00  0.35823186492E+02  0.85051530028E+01  0.54367032781E+02  0.39999882832E+02 0.  0.
         12    1    3    3    0    0  0.38119398134E+00 -0.35823186492E+02 -0.85051530028E+01  0.36820967219E+02  0.00000000000E+00 0. -1.
         11    1    4    4    0    0 -0.20698838643E+01  0.11236523507E+02  0.13736070252E+02  0.17866826969E+02  0.51100000000E-03 0. -1.
        -11    1    4    4    0    0  0.10691459558E+02  0.69760022566E+01  0.56114394121E+01  0.13944897544E+02  0.51100000000E-03 0.  1.
         12    1    4    4    0    0 -0.90027696750E+01  0.17610660729E+02 -0.10842356661E+02  0.22555308268E+02  0.00000000000E+00 0. -1.
</event>
<event>
 8    1  0.3137106E-007  0.9118800E+02  0.7816164E-02  0.1184000E+00
        -11   -1    0    0    0    0  0.00000000000E+00  0.00000000000E+00  0.45593999997E+02  0.45594000000E+02  0.51100000000E-03 0.  1.
         11   -1    0    0    0    0 -0.00000000000E+00 -0.00000000000E+00 -0.45593999997E+02  0.45594000000E+02  0.51100000000E-03 0. -1.
         23    2    1    2    0    0 -0.26645352591E-14  0.00000000000E+00  0.22204460493E-15  0.91188000000E+02  0.91188000000E+02 0.  0.
    9900012    2    3    3    0    0 -0.73606424380E+01 -0.36060773993E+02  0.11054662706E+01  0.54367074784E+02  0.39999978586E+02 0.  0.
         12    1    3    3    0    0  0.73606424380E+01  0.36060773993E+02 -0.11054662706E+01  0.36820925216E+02  0.00000000000E+00 0. -1.
         11    1    4    4    0    0  0.68903793214E+01 -0.17762561083E+02 -0.13344765079E+01  0.19098867276E+02  0.51100000000E-03 0. -1.
        -11    1    4    4    0    0 -0.19377090467E+02 -0.84567134910E+01  0.83077861573E+01  0.22715786342E+02  0.51100000000E-03 0.  1.
        -12    1    4    4    0    0  0.51260687080E+01 -0.98414994187E+01 -0.58678433787E+01  0.12552421166E+02  0.00000000000E+00 0.  1.
</event>
<event>
 8    1  0.3137106E-007  0.9118800E+02  0.7816164E-02  0.1184000E+00
        -11   -1    0    0    0    0  0.00000000000E+00  0.00000000000E+00  0.45593999997E+02  0.45594000000E+02  0.51100000000E-03 0.  1.
         11   -1    0    0    0    0 -0.00000000000E+00 -0.00000000000E+00 -0.45593999997E+02  0.45594000000E+02  0.51100000000E-03 0. -1.
         23    2    1    2    0    0  0.00000000000E+00  0.00000000000E+00  0.00000000000E+00  0.91188000000E+02  0.91188000000E+02 0.  0.
    9900012    2    3    3    0    0 -0.28985110230E+02 -0.21379184118E+02  0.76534387124E+01  0.54367065021E+02  0.39999956329E+02 0.  0.
         12    1    3    3    0    0  0.28985110230E+02  0.21379184118E+02 -0.76534387124E+01  0.36820934979E+02  0.00000000000E+00 0. -1.
         11    1    4    4    0    0 -0.24151938523E+02 -0.93022281301E+01  0.16982661042E+01  0.25937071744E+02  0.51100000000E-03 0. -1.
        -11    1    4    4    0    0 -0.82892346722E+01 -0.23951265401E+01  0.13259067066E+02  0.15819320539E+02  0.51100000000E-03 0.  1.
        -12    1    4    4    0    0  0.34560629656E+01 -0.96818294476E+01 -0.73038944575E+01  0.12610672739E+02  0.00000000000E+00 0.  1.
</event>
<event>
 8    1  0.3137106E-007  0.9118800E+02  0.7816164E-02  0.1184000E+00
        -11   -1    0    0    0    0  0.00000000000E+00  0.00000000000E+00  0.45593999997E+02  0.45594000000E+02  0.51100000000E-03 0.  1.
         11   -1    0    0    0    0 -0.00000000000E+00 -0.00000000000E+00 -0.45593999997E+02  0.45594000000E+02  0.51100000000E-03 0. -1.
         23    2    1    2    0    0  0.44408920985E-15  0.00000000000E+00 -0.35527136788E-14  0.91188000000E+02  0.91188000000E+02 0.  0.
    9900012    2    3    3    0    0 -0.28428635091E+01 -0.18441100683E+02  0.31743092528E+02  0.54367082161E+02  0.39999995401E+02 0.  0.
         12    1    3    3    0    0  0.28428635091E+01  0.18441100683E+02 -0.31743092528E+02  0.36820917839E+02  0.00000000000E+00 0. -1.
         11    1    4    4    0    0 -0.87537039721E+00 -0.47274609511E+01  0.67857992240E+01  0.83163833333E+01  0.51100000000E-03 0. -1.
        -11    1    4    4    0    0 -0.46183251865E+01  0.85393254046E+01 -0.30546725062E+01  0.10177427488E+02  0.51100000000E-03 0.  1.
         12    1    4    4    0    0  0.26508320746E+01 -0.22252965136E+02  0.28011965810E+02  0.35873271339E+02  0.00000000000E+00 0. -1.
</event>
<event>
 8    1  0.3137106E-007  0.9118800E+02  0.7816164E-02  0.1184000E+00
        -11   -1    0    0    0    0  0.00000000000E+00  0.00000000000E+00  0.45593999997E+02  0.45594000000E+02  0.51100000000E-03 0. -1.
         11   -1    0    0    0    0 -0.00000000000E+00 -0.00000000000E+00 -0.45593999997E+02  0.45594000000E+02  0.51100000000E-03 0.  1.
         23    2    1    2    0    0  0.00000000000E+00  0.00000000000E+00  0.00000000000E+00  0.91188000000E+02  0.91188000000E+02 0.  0.
    9900012    2    3    3    0    0  0.33815406385E+02 -0.11051533894E+02 -0.94957496966E+01  0.54366981917E+02  0.39999766876E+02 0.  0.
         12    1    3    3    0    0 -0.33815406385E+02  0.11051533894E+02  0.94957496966E+01  0.36821018083E+02  0.00000000000E+00 0. -1.
         11    1    4    4    0    0 -0.49446730253E+01 -0.77769498272E+00  0.20195720844E+01  0.53975246622E+01  0.51100000000E-03 0.  1.
        -11    1    4    4    0    0  0.15789603724E+02  0.49551577634E+01  0.44265629950E+01  0.17130663572E+02  0.51100000000E-03 0. -1.
        -12    1    4    4    0    0  0.22970475686E+02 -0.15228996675E+02 -0.15941884776E+02  0.31838793683E+02  0.00000000000E+00 0.  1.
</event>
<event>
 8    1  0.3137106E-007  0.9118800E+02  0.7816164E-02  0.1184000E+00
        -11   -1    0    0    0    0  0.00000000000E+00  0.00000000000E+00  0.45593999997E+02  0.45594000000E+02  0.51100000000E-03 0. -1.
         11   -1    0    0    0    0 -0.00000000000E+00 -0.00000000000E+00 -0.45593999997E+02  0.45594000000E+02  0.51100000000E-03 0.  1.
         23    2    1    2    0    0 -0.88817841970E-15  0.00000000000E+00  0.00000000000E+00  0.91188000000E+02  0.91188000000E+02 0.  0.
    9900012    2    3    3    0    0  0.66780206136E+01  0.96222942168E+01 -0.34908399219E+02  0.54367070607E+02  0.39999969062E+02 0.  0.
         12    1    3    3    0    0 -0.66780206136E+01 -0.96222942168E+01  0.34908399219E+02  0.36820929393E+02  0.00000000000E+00 0. -1.
         11    1    4    4    0    0  0.16600862297E+02  0.10042477851E+02 -0.13711578560E+02  0.23758101297E+02  0.51100000000E-03 0.  1.
        -11    1    4    4    0    0  0.13467105365E+01 -0.77010789857E+01 -0.12074775114E+02  0.14384729442E+02  0.51100000000E-03 0. -1.
        -12    1    4    4    0    0 -0.11269552219E+02  0.72808953512E+01 -0.91220455457E+01  0.16224239868E+02  0.00000000000E+00 0.  1.
</event>
<event>
 8    1  0.3137106E-007  0.9118800E+02  0.7816164E-02  0.1184000E+00
        -11   -1    0    0    0    0  0.00000000000E+00  0.00000000000E+00  0.45593999997E+02  0.45594000000E+02  0.51100000000E-03 0.  1.
         11   -1    0    0    0    0 -0.00000000000E+00 -0.00000000000E+00 -0.45593999997E+02  0.45594000000E+02  0.51100000000E-03 0. -1.
         23    2    1    2    0    0  0.88817841970E-15  0.00000000000E+00  0.17763568394E-14  0.91188000000E+02  0.91188000000E+02 0.  0.
    9900012    2    3    3    0    0  0.45881204566E+01  0.34990518670E+02  0.10506766163E+02  0.54367090434E+02  0.40000014261E+02 0.  0.
         12    1    3    3    0    0 -0.45881204566E+01 -0.34990518670E+02 -0.10506766163E+02  0.36820909566E+02  0.00000000000E+00 0. -1.
         11    1    4    4    0    0 -0.31207062690E+00 -0.12304061536E+01 -0.62037965015E+01  0.63323280610E+01  0.51100000000E-03 0. -1.
        -11    1    4    4    0    0 -0.56832044880E+01  0.64474842338E+01  0.13859201073E+02  0.16307860707E+02  0.51100000000E-03 0.  1.
        -12    1    4    4    0    0  0.10583395571E+02  0.29773440589E+02  0.28513615913E+01  0.31726901665E+02  0.00000000000E+00 0.  1.
</event>
<event>
 8    1  0.3137106E-007  0.9118800E+02  0.7816164E-02  0.1184000E+00
        -11   -1    0    0    0    0  0.00000000000E+00  0.00000000000E+00  0.45593999997E+02  0.45594000000E+02  0.51100000000E-03 0.  1.
         11   -1    0    0    0    0 -0.00000000000E+00 -0.00000000000E+00 -0.45593999997E+02  0.45594000000E+02  0.51100000000E-03 0. -1.
         23    2    1    2    0    0  0.00000000000E+00  0.00000000000E+00  0.00000000000E+00  0.91188000000E+02  0.91188000000E+02 0.  0.
    9900012    2    3    3    0    0 -0.20328187333E+02  0.95149658053E+01 -0.29189195406E+02  0.54367096929E+02  0.40000029070E+02 0.  0.
        -12    1    3    3    0    0  0.20328187333E+02 -0.95149658053E+01  0.29189195406E+02  0.36820903071E+02  0.00000000000E+00 0.  1.
         11    1    4    4    0    0  0.78011960229E+00  0.16051872873E+02 -0.10085247015E+02  0.18973228954E+02  0.51100000000E-03 0. -1.
        -11    1    4    4    0    0  0.37363797383E+01  0.75166261908E+00 -0.34303872808E+01  0.51276785585E+01  0.51100000000E-03 0.  1.
         12    1    4    4    0    0 -0.24844686673E+02 -0.72885696867E+01 -0.15673561110E+02  0.30266189417E+02  0.00000000000E+00 0. -1.
</event>
<event>
 8    1  0.3137106E-007  0.9118800E+02  0.7816164E-02  0.1184000E+00
        -11   -1    0    0    0    0  0.00000000000E+00  0.00000000000E+00  0.45593999997E+02  0.45594000000E+02  0.51100000000E-03 0.  1.
         11   -1    0    0    0    0 -0.00000000000E+00 -0.00000000000E+00 -0.45593999997E+02  0.45594000000E+02  0.51100000000E-03 0. -1.
         23    2    1    2    0    0 -0.17763568394E-14  0.11102230246E-15  0.00000000000E+00  0.91188000000E+02  0.91188000000E+02 0.  0.
    9900012    2    3    3    0    0 -0.12125807968E+02  0.81342889544E+00  0.34757483027E+02  0.54367088661E+02  0.40000010221E+02 0.  0.
         12    1    3    3    0    0  0.12125807968E+02 -0.81342889544E+00 -0.34757483027E+02  0.36820911339E+02  0.00000000000E+00 0. -1.
         11    1    4    4    0    0 -0.10697102927E+02  0.12622168403E+02  0.24615576168E+02  0.29659294269E+02  0.51100000000E-03 0. -1.
        -11    1    4    4    0    0  0.79752099747E+01 -0.29273468302E+01  0.38244007578E+00  0.85040927957E+01  0.51100000000E-03 0.  1.
        -12    1    4    4    0    0 -0.94039150162E+01 -0.88813926773E+01  0.97594667836E+01  0.16203701596E+02  0.00000000000E+00 0.  1.
</event>
<event>
 8    1  0.3137106E-007  0.9118800E+02  0.7816164E-02  0.1184000E+00
        -11   -1    0    0    0    0  0.00000000000E+00  0.00000000000E+00  0.45593999997E+02  0.45594000000E+02  0.51100000000E-03 0.  1.
         11   -1    0    0    0    0 -0.00000000000E+00 -0.00000000000E+00 -0.45593999997E+02  0.45594000000E+02  0.51100000000E-03 0. -1.
         23    2    1    2    0    0  0.00000000000E+00 -0.88817841970E-15 -0.17763568394E-14  0.91188000000E+02  0.91188000000E+02 0.  0.
    9900012    2    3    3    0    0  0.34132976410E+02 -0.75633947884E+01 -0.11554841332E+02  0.54367090485E+02  0.40000014379E+02 0.  0.
        -12    1    3    3    0    0 -0.34132976410E+02  0.75633947884E+01  0.11554841332E+02  0.36820909515E+02  0.00000000000E+00 0.  1.
         11    1    4    4    0    0  0.30891753240E+02 -0.10686460199E+02  0.47435178899E+01  0.33030316561E+02  0.51100000000E-03 0. -1.
        -11    1    4    4    0    0  0.59818840941E+01  0.29987596093E+01 -0.17194499101E+02  0.18450644870E+02  0.51100000000E-03 0.  1.
         12    1    4    4    0    0 -0.27406609250E+01  0.12430580136E+00  0.89613987889E+00  0.28861290547E+01  0.00000000000E+00 0. -1.
</event>
<event>
 8    1  0.3137106E-007  0.9118800E+02  0.7816164E-02  0.1184000E+00
        -11   -1    0    0    0    0  0.00000000000E+00  0.00000000000E+00  0.45593999997E+02  0.45594000000E+02  0.51100000000E-03 0. -1.
         11   -1    0    0    0    0 -0.00000000000E+00 -0.00000000000E+00 -0.45593999997E+02  0.45594000000E+02  0.51100000000E-03 0.  1.
         23    2    1    2    0    0 -0.35527136788E-14  0.71054273576E-14  0.17763568394E-14  0.91188000000E+02  0.91188000000E+02 0.  0.
    9900012    2    3    3    0    0 -0.16020045426E+02  0.32053501684E+02 -0.84682260476E+01  0.54367086404E+02  0.40000005075E+02 0.  0.
         12    1    3    3    0    0  0.16020045426E+02 -0.32053501684E+02  0.84682260476E+01  0.36820913596E+02  0.00000000000E+00 0. -1.
         11    1    4    4    0    0 -0.10373496385E+02  0.59927597371E+01  0.96339644541E+01  0.15373219178E+02  0.51100000000E-03 0. -1.
        -11    1    4    4    0    0  0.36151709532E+01  0.22209506047E+02 -0.18234390198E+02  0.28962468921E+02  0.51100000000E-03 0.  1.
        -12    1    4    4    0    0 -0.92617199935E+01  0.38512359006E+01  0.13219969577E+00  0.10031398305E+02  0.00000000000E+00 0.  1.
</event>
<event>
 8    1  0.3137106E-007  0.9118800E+02  0.7816164E-02  0.1184000E+00
        -11   -1    0    0    0    0  0.00000000000E+00  0.00000000000E+00  0.45593999997E+02  0.45594000000E+02  0.51100000000E-03 0.  1.
         11   -1    0    0    0    0 -0.00000000000E+00 -0.00000000000E+00 -0.45593999997E+02  0.45594000000E+02  0.51100000000E-03 0. -1.
         23    2    1    2    0    0  0.00000000000E+00 -0.35527136788E-14 -0.17763568394E-14  0.91188000000E+02  0.91188000000E+02 0.  0.
    9900012    2    3    3    0    0 -0.21699985555E+02  0.28975904162E+02 -0.67296071584E+01  0.54367081929E+02  0.39999994873E+02 0.  0.
         12    1    3    3    0    0  0.21699985555E+02 -0.28975904162E+02  0.67296071584E+01  0.36820918071E+02  0.00000000000E+00 0. -1.
         11    1    4    4    0    0 -0.11633111630E+02  0.22789876741E+01  0.10968877916E+02  0.16150521788E+02  0.51100000000E-03 0. -1.
        -11    1    4    4    0    0 -0.60155816892E+01  0.10195981333E+02 -0.17617356110E+02  0.21225373848E+02  0.51100000000E-03 0.  1.
        -12    1    4    4    0    0 -0.40512922356E+01  0.16500935155E+02 -0.81128964191E-01  0.16991186294E+02  0.00000000000E+00 0.  1.
</event>
<event>
 8    1  0.3137106E-007  0.9118800E+02  0.7816164E-02  0.1184000E+00
        -11   -1    0    0    0    0  0.00000000000E+00  0.00000000000E+00  0.45593999997E+02  0.45594000000E+02  0.51100000000E-03 0.  1.
         11   -1    0    0    0    0 -0.00000000000E+00 -0.00000000000E+00 -0.45593999997E+02  0.45594000000E+02  0.51100000000E-03 0. -1.
         23    2    1    2    0    0 -0.35527136788E-14  0.17763568394E-14  0.00000000000E+00  0.91188000000E+02  0.91188000000E+02 0.  0.
    9900012    2    3    3    0    0 -0.31802783767E+02 -0.81023225620E+01  0.16694759981E+02  0.54367086146E+02  0.40000004487E+02 0.  0.
         12    1    3    3    0    0  0.31802783767E+02  0.81023225620E+01 -0.16694759981E+02  0.36820913854E+02  0.00000000000E+00 0. -1.
         11    1    4    4    0    0  0.39751210923E+01  0.37223607313E+01  0.35708042890E+01  0.65121579099E+01  0.51100000000E-03 0. -1.
        -11    1    4    4    0    0 -0.28208446212E+02 -0.36088069336E+01  0.19972839858E+02  0.34751320226E+02  0.51100000000E-03 0.  1.
         12    1    4    4    0    0 -0.75694586471E+01 -0.82158763597E+01 -0.68488841657E+01  0.13103608010E+02  0.00000000000E+00 0. -1.
</event>
<event>
 8    1  0.3137106E-007  0.9118800E+02  0.7816164E-02  0.1184000E+00
        -11   -1    0    0    0    0  0.00000000000E+00  0.00000000000E+00  0.45593999997E+02  0.45594000000E+02  0.51100000000E-03 0. -1.
         11   -1    0    0    0    0 -0.00000000000E+00 -0.00000000000E+00 -0.45593999997E+02  0.45594000000E+02  0.51100000000E-03 0.  1.
         23    2    1    2    0    0  0.35527136788E-14  0.35527136788E-14 -0.44408920985E-14  0.91188000000E+02  0.91188000000E+02 0.  0.
    9900012    2    3    3    0    0  0.27805847403E+02  0.23432866351E+02 -0.57893309763E+01  0.54367072141E+02  0.39999972561E+02 0.  0.
         12    1    3    3    0    0 -0.27805847403E+02 -0.23432866351E+02  0.57893309763E+01  0.36820927859E+02  0.00000000000E+00 0. -1.
         11    1    4    4    0    0  0.44115228974E+01  0.12781871488E+02 -0.12342211633E+02  0.18307592995E+02  0.51100000000E-03 0. -1.
        -11    1    4    4    0    0  0.77482078689E+01  0.13130626879E+02 -0.54429134381E+01  0.16188681057E+02  0.51100000000E-03 0.  1.
         12    1    4    4    0    0  0.15646116637E+02 -0.24796320157E+01  0.11995794095E+02  0.19870798089E+02  0.00000000000E+00 0. -1.
</event>
<event>
 8    1  0.3137106E-007  0.9118800E+02  0.7816164E-02  0.1184000E+00
        -11   -1    0    0    0    0  0.00000000000E+00  0.00000000000E+00  0.45593999997E+02  0.45594000000E+02  0.51100000000E-03 0. -1.
         11   -1    0    0    0    0 -0.00000000000E+00 -0.00000000000E+00 -0.45593999997E+02  0.45594000000E+02  0.51100000000E-03 0.  1.
         23    2    1    2    0    0 -0.88817841970E-15 -0.35527136788E-14  0.35527136788E-14  0.91188000000E+02  0.91188000000E+02 0.  0.
    9900012    2    3    3    0    0 -0.51687135941E+01  0.18963334240E+02 -0.31136079529E+02  0.54367094333E+02  0.40000023152E+02 0.  0.
        -12    1    3    3    0    0  0.51687135941E+01 -0.18963334240E+02  0.31136079529E+02  0.36820905667E+02  0.00000000000E+00 0.  1.
         11    1    4    4    0    0  0.14824568394E+02 -0.10718701052E+01 -0.75972844362E+01  0.16692377441E+02  0.51100000000E-03 0.  1.
        -11    1    4    4    0    0 -0.14608289652E+02  0.18685077664E+02 -0.20479133889E+02  0.31335749216E+02  0.51100000000E-03 0. -1.
        -12    1    4    4    0    0 -0.53849923360E+01  0.13501266804E+01 -0.30596612038E+01  0.63389676758E+01  0.00000000000E+00 0.  1.
</event>
<event>
 8    1  0.3137106E-007  0.9118800E+02  0.7816164E-02  0.1184000E+00
        -11   -1    0    0    0    0  0.00000000000E+00  0.00000000000E+00  0.45593999997E+02  0.45594000000E+02  0.51100000000E-03 0.  1.
         11   -1    0    0    0    0 -0.00000000000E+00 -0.00000000000E+00 -0.45593999997E+02  0.45594000000E+02  0.51100000000E-03 0. -1.
         23    2    1    2    0    0  0.00000000000E+00  0.13322676296E-14  0.00000000000E+00  0.91188000000E+02  0.91188000000E+02 0.  0.
    9900012    2    3    3    0    0  0.27718319466E+02 -0.32591535423E+01 -0.24017655815E+02  0.54367148480E+02  0.40000146589E+02 0.  0.
        -12    1    3    3    0    0 -0.27718319466E+02  0.32591535423E+01  0.24017655815E+02  0.36820851520E+02  0.00000000000E+00 0.  1.
         11    1    4    4    0    0  0.80483489935E+01  0.68197773350E+01  0.82976531892E+01  0.13421487739E+02  0.51100000000E-03 0. -1.
        -11    1    4    4    0    0  0.11561818059E+02 -0.12081477610E+02 -0.20073810148E+02  0.26126530428E+02  0.51100000000E-03 0.  1.
         12    1    4    4    0    0  0.81081524133E+01  0.20025467327E+01 -0.12241498857E+02  0.14819130313E+02  0.00000000000E+00 0. -1.
</event>
<event>
 8    1  0.3137106E-007  0.9118800E+02  0.7816164E-02  0.1184000E+00
        -11   -1    0    0    0    0  0.00000000000E+00  0.00000000000E+00  0.45593999997E+02  0.45594000000E+02  0.51100000000E-03 0.  1.
         11   -1    0    0    0    0 -0.00000000000E+00 -0.00000000000E+00 -0.45593999997E+02  0.45594000000E+02  0.51100000000E-03 0. -1.
         23    2    1    2    0    0  0.44408920985E-15  0.00000000000E+00 -0.88817841970E-15  0.91188000000E+02  0.91188000000E+02 0.  0.
    9900012    2    3    3    0    0 -0.32214324481E+01 -0.36392519511E+02  0.45811727208E+01  0.54367078680E+02  0.39999987467E+02 0.  0.
         12    1    3    3    0    0  0.32214324481E+01  0.36392519511E+02 -0.45811727208E+01  0.36820921320E+02  0.00000000000E+00 0. -1.
         11    1    4    4    0    0 -0.96068986418E+01  0.18799901733E+01  0.77888340384E+01  0.12509708250E+02  0.51100000000E-03 0. -1.
        -11    1    4    4    0    0 -0.24264247772E+01 -0.10275106265E+02  0.45525666083E+01  0.11497443582E+02  0.51100000000E-03 0.  1.
         12    1    4    4    0    0  0.88118909708E+01 -0.27997403419E+02 -0.77602279259E+01  0.30359926847E+02  0.00000000000E+00 0. -1.
</event>
<event>
 8    1  0.3137106E-007  0.9118800E+02  0.7816164E-02  0.1184000E+00
        -11   -1    0    0    0    0  0.00000000000E+00  0.00000000000E+00  0.45593999997E+02  0.45594000000E+02  0.51100000000E-03 0. -1.
         11   -1    0    0    0    0 -0.00000000000E+00 -0.00000000000E+00 -0.45593999997E+02  0.45594000000E+02  0.51100000000E-03 0.  1.
         23    2    1    2    0    0  0.00000000000E+00  0.00000000000E+00  0.00000000000E+00  0.91188000000E+02  0.91188000000E+02 0.  0.
    9900012    2    3    3    0    0  0.21995115894E+02 -0.23772919009E+02 -0.17516918000E+02  0.54367092656E+02  0.40000019328E+02 0.  0.
         12    1    3    3    0    0 -0.21995115894E+02  0.23772919009E+02  0.17516918000E+02  0.36820907344E+02  0.00000000000E+00 0. -1.
         11    1    4    4    0    0  0.79598204698E+01 -0.10716514180E+02  0.19641022924E+00  0.13350692691E+02  0.51100000000E-03 0. -1.
        -11    1    4    4    0    0 -0.19404996852E+01  0.71783561356E+01  0.29263773545E+01  0.79911213556E+01  0.51100000000E-03 0.  1.
        -12    1    4    4    0    0  0.15975795109E+02 -0.20234760965E+02 -0.20639705584E+02  0.33025278610E+02  0.00000000000E+00 0.  1.
</event>
<event>
 8    1  0.3137106E-007  0.9118800E+02  0.7816164E-02  0.1184000E+00
        -11   -1    0    0    0    0  0.00000000000E+00  0.00000000000E+00  0.45593999997E+02  0.45594000000E+02  0.51100000000E-03 0.  1.
         11   -1    0    0    0    0 -0.00000000000E+00 -0.00000000000E+00 -0.45593999997E+02  0.45594000000E+02  0.51100000000E-03 0. -1.
         23    2    1    2    0    0  0.00000000000E+00  0.00000000000E+00 -0.17763568394E-14  0.91188000000E+02  0.91188000000E+02 0.  0.
    9900012    2    3    3    0    0  0.32401363587E+02  0.73927885733E+01 -0.15851768768E+02  0.54367078525E+02  0.39999987114E+02 0.  0.
        -12    1    3    3    0    0 -0.32401363587E+02 -0.73927885733E+01  0.15851768768E+02  0.36820921475E+02  0.00000000000E+00 0.  1.
         11    1    4    4    0    0  0.11086911690E+02  0.77980726495E+00 -0.34646234910E+01  0.11641792233E+02  0.51100000000E-03 0. -1.
        -11    1    4    4    0    0 -0.82976107318E+01  0.51305794472E+00 -0.90802648757E+01  0.12311164965E+02  0.51100000000E-03 0.  1.
        -12    1    4    4    0    0  0.29612062629E+02  0.60999233636E+01 -0.33068804010E+01  0.30414121328E+02  0.00000000000E+00 0.  1.
</event>
<event>
 8    1  0.3137106E-007  0.9118800E+02  0.7816164E-02  0.1184000E+00
        -11   -1    0    0    0    0  0.00000000000E+00  0.00000000000E+00  0.45593999997E+02  0.45594000000E+02  0.51100000000E-03 0.  1.
         11   -1    0    0    0    0 -0.00000000000E+00 -0.00000000000E+00 -0.45593999997E+02  0.45594000000E+02  0.51100000000E-03 0. -1.
         23    2    1    2    0    0  0.00000000000E+00  0.35527136788E-14  0.00000000000E+00  0.91188000000E+02  0.91188000000E+02 0.  0.
    9900012    2    3    3    0    0 -0.16520641700E+02  0.31310477401E+02  0.10124320246E+02  0.54367089396E+02  0.40000011897E+02 0.  0.
         12    1    3    3    0    0  0.16520641700E+02 -0.31310477401E+02 -0.10124320246E+02  0.36820910604E+02  0.00000000000E+00 0. -1.
         11    1    4    4    0    0 -0.12253624191E+02  0.11669441054E+02  0.10797345564E+01  0.16955618163E+02  0.51100000000E-03 0. -1.
        -11    1    4    4    0    0 -0.16542204846E+02  0.15120942176E+02  0.18637187432E+01  0.22489128068E+02  0.51100000000E-03 0.  1.
        -12    1    4    4    0    0  0.12275187336E+02  0.45200941712E+01  0.71808669460E+01  0.14922343165E+02  0.00000000000E+00 0.  1.
</event>
<event>
 8    1  0.3137106E-007  0.9118800E+02  0.7816164E-02  0.1184000E+00
        -11   -1    0    0    0    0  0.00000000000E+00  0.00000000000E+00  0.45593999997E+02  0.45594000000E+02  0.51100000000E-03 0.  1.
         11   -1    0    0    0    0 -0.00000000000E+00 -0.00000000000E+00 -0.45593999997E+02  0.45594000000E+02  0.51100000000E-03 0. -1.
         23    2    1    2    0    0  0.44408920985E-15 -0.71054273576E-14  0.00000000000E+00  0.91188000000E+02  0.91188000000E+02 0.  0.
    9900012    2    3    3    0    0  0.22328244838E+01  0.36698655039E+02 -0.20006944812E+01  0.54367087936E+02  0.40000008567E+02 0.  0.
        -12    1    3    3    0    0 -0.22328244838E+01 -0.36698655039E+02  0.20006944812E+01  0.36820912064E+02  0.00000000000E+00 0.  1.
         11    1    4    4    0    0  0.23356630659E+01  0.32569818555E+02 -0.99807019321E+01  0.34144733327E+02  0.51100000000E-03 0. -1.
        -11    1    4    4    0    0  0.58592214690E+01  0.93501112221E+00 -0.35067917118E+01  0.68921919875E+01  0.51100000000E-03 0.  1.
        -12    1    4    4    0    0 -0.59620600511E+01  0.31938253619E+01  0.11486799163E+02  0.13330162621E+02  0.00000000000E+00 0.  1.
</event>
<event>
 8    1  0.3137106E-007  0.9118800E+02  0.7816164E-02  0.1184000E+00
        -11   -1    0    0    0    0  0.00000000000E+00  0.00000000000E+00  0.45593999997E+02  0.45594000000E+02  0.51100000000E-03 0. -1.
         11   -1    0    0    0    0 -0.00000000000E+00 -0.00000000000E+00 -0.45593999997E+02  0.45594000000E+02  0.51100000000E-03 0.  1.
         23    2    1    2    0    0  0.00000000000E+00  0.35527136788E-14  0.00000000000E+00  0.91188000000E+02  0.91188000000E+02 0.  0.
    9900012    2    3    3    0    0  0.93194796827E+01 -0.26063051603E+02 -0.24282556112E+02  0.54367110660E+02  0.40000060372E+02 0.  0.
         12    1    3    3    0    0 -0.93194796827E+01  0.26063051603E+02  0.24282556112E+02  0.36820889340E+02  0.00000000000E+00 0. -1.
         11    1    4    4    0    0 -0.26492256858E+01  0.30702291981E+01 -0.17637539603E+02  0.18097721060E+02  0.51100000000E-03 0. -1.
        -11    1    4    4    0    0  0.36099593094E+01 -0.26633786928E+02 -0.41552589264E+01  0.27196628272E+02  0.51100000000E-03 0.  1.
        -12    1    4    4    0    0  0.83587460591E+01 -0.24994938736E+01 -0.24897575834E+01  0.90727613288E+01  0.00000000000E+00 0.  1.
</event>
<event>
 8    1  0.3137106E-007  0.9118800E+02  0.7816164E-02  0.1184000E+00
        -11   -1    0    0    0    0  0.00000000000E+00  0.00000000000E+00  0.45593999997E+02  0.45594000000E+02  0.51100000000E-03 0. -1.
         11   -1    0    0    0    0 -0.00000000000E+00 -0.00000000000E+00 -0.45593999997E+02  0.45594000000E+02  0.51100000000E-03 0.  1.
         23    2    1    2    0    0  0.00000000000E+00  0.00000000000E+00  0.35527136788E-14  0.91188000000E+02  0.91188000000E+02 0.  0.
    9900012    2    3    3    0    0  0.23769894755E+02 -0.51722726842E+01 -0.27640892965E+02  0.54367092009E+02  0.40000017854E+02 0.  0.
         12    1    3    3    0    0 -0.23769894755E+02  0.51722726842E+01  0.27640892965E+02  0.36820907991E+02  0.00000000000E+00 0. -1.
         11    1    4    4    0    0  0.14666330478E+01  0.14455611913E+02 -0.71272050008E+01  0.16183719586E+02  0.51100000000E-03 0. -1.
        -11    1    4    4    0    0  0.99002396808E+01 -0.11750200706E+01 -0.65151593363E+01  0.11909774110E+02  0.51100000000E-03 0.  1.
         12    1    4    4    0    0  0.12403022026E+02 -0.18452864526E+02 -0.13998528628E+02  0.26273598314E+02  0.00000000000E+00 0. -1.
</event>
<event>
 8    1  0.3137106E-007  0.9118800E+02  0.7816164E-02  0.1184000E+00
        -11   -1    0    0    0    0  0.00000000000E+00  0.00000000000E+00  0.45593999997E+02  0.45594000000E+02  0.51100000000E-03 0.  1.
         11   -1    0    0    0    0 -0.00000000000E+00 -0.00000000000E+00 -0.45593999997E+02  0.45594000000E+02  0.51100000000E-03 0. -1.
         23    2    1    2    0    0  0.00000000000E+00 -0.35527136788E-14  0.00000000000E+00  0.91188000000E+02  0.91188000000E+02 0.  0.
    9900012    2    3    3    0    0  0.10715397730E+02  0.25372792052E+02 -0.24437293528E+02  0.54367086921E+02  0.40000006254E+02 0.  0.
        -12    1    3    3    0    0 -0.10715397730E+02 -0.25372792052E+02  0.24437293528E+02  0.36820913079E+02  0.00000000000E+00 0.  1.
         11    1    4    4    0    0  0.11911812013E+02 -0.64920935240E+01 -0.45489904076E+01  0.14308454066E+02  0.51100000000E-03 0. -1.
        -11    1    4    4    0    0 -0.51812534051E+01  0.39750431519E+01 -0.27777595563E+01  0.70966402840E+01  0.51100000000E-03 0.  1.
         12    1    4    4    0    0  0.39848391216E+01  0.27889842424E+02 -0.17110543564E+02  0.32961992572E+02  0.00000000000E+00 0. -1.
</event>
<event>
 8    1  0.3137106E-007  0.9118800E+02  0.7816164E-02  0.1184000E+00
        -11   -1    0    0    0    0  0.00000000000E+00  0.00000000000E+00  0.45593999997E+02  0.45594000000E+02  0.51100000000E-03 0.  1.
         11   -1    0    0    0    0 -0.00000000000E+00 -0.00000000000E+00 -0.45593999997E+02  0.45594000000E+02  0.51100000000E-03 0. -1.
         23    2    1    2    0    0  0.00000000000E+00  0.35527136788E-14  0.35527136788E-14  0.91188000000E+02  0.91188000000E+02 0.  0.
    9900012    2    3    3    0    0 -0.64116589413E+01 -0.24543605952E+02 -0.26688698563E+02  0.54367019642E+02  0.39999852878E+02 0.  0.
        -12    1    3    3    0    0  0.64116589413E+01  0.24543605952E+02  0.26688698563E+02  0.36820980358E+02  0.00000000000E+00 0.  1.
         11    1    4    4    0    0  0.47610565062E+01 -0.92979327200E+01 -0.26539392708E+02  0.28521195233E+02  0.51100000000E-03 0. -1.
        -11    1    4    4    0    0 -0.51926818652E+01 -0.18339264684E+02 -0.83253496244E+00  0.19078408970E+02  0.51100000000E-03 0.  1.
         12    1    4    4    0    0 -0.59800335824E+01  0.30935914521E+01  0.68322910741E+00  0.67674154396E+01  0.00000000000E+00 0. -1.
</event>
<event>
 8    1  0.3137106E-007  0.9118800E+02  0.7816164E-02  0.1184000E+00
        -11   -1    0    0    0    0  0.00000000000E+00  0.00000000000E+00  0.45593999997E+02  0.45594000000E+02  0.51100000000E-03 0.  1.
         11   -1    0    0    0    0 -0.00000000000E+00 -0.00000000000E+00 -0.45593999997E+02  0.45594000000E+02  0.51100000000E-03 0. -1.
         23    2    1    2    0    0  0.00000000000E+00  0.00000000000E+00  0.00000000000E+00  0.91188000000E+02  0.91188000000E+02 0.  0.
    9900012    2    3    3    0    0  0.51302510978E+01 -0.30507164957E+02 -0.19969323756E+02  0.54367075496E+02  0.39999980209E+02 0.  0.
        -12    1    3    3    0    0 -0.51302510978E+01  0.30507164957E+02  0.19969323756E+02  0.36820924504E+02  0.00000000000E+00 0.  1.
         11    1    4    4    0    0 -0.67694575191E+01  0.38560551281E+01 -0.33192524126E+01  0.84683028461E+01  0.51100000000E-03 0. -1.
        -11    1    4    4    0    0 -0.37671666068E+01 -0.71133712712E+01  0.32672525976E+01  0.86871476840E+01  0.51100000000E-03 0.  1.
         12    1    4    4    0    0  0.15666875224E+02 -0.27249848814E+02 -0.19917323941E+02  0.37211624966E+02  0.00000000000E+00 0. -1.
</event>
<event>
 8    1  0.3137106E-007  0.9118800E+02  0.7816164E-02  0.1184000E+00
        -11   -1    0    0    0    0  0.00000000000E+00  0.00000000000E+00  0.45593999997E+02  0.45594000000E+02  0.51100000000E-03 0. -1.
         11   -1    0    0    0    0 -0.00000000000E+00 -0.00000000000E+00 -0.45593999997E+02  0.45594000000E+02  0.51100000000E-03 0.  1.
         23    2    1    2    0    0  0.00000000000E+00 -0.17763568394E-14  0.00000000000E+00  0.91188000000E+02  0.91188000000E+02 0.  0.
    9900012    2    3    3    0    0 -0.27191943374E+02  0.15837787050E+02 -0.19119212806E+02  0.54367060558E+02  0.39999946154E+02 0.  0.
         12    1    3    3    0    0  0.27191943374E+02 -0.15837787050E+02  0.19119212806E+02  0.36820939442E+02  0.00000000000E+00 0. -1.
         11    1    4    4    0    0 -0.16958242995E+02  0.14009389608E+02 -0.43407625980E+01  0.22420687386E+02  0.51100000000E-03 0. -1.
        -11    1    4    4    0    0 -0.17938631777E+02  0.68696913599E+00 -0.35796696389E+01  0.18305203403E+02  0.51100000000E-03 0.  1.
         12    1    4    4    0    0  0.77049313988E+01  0.11414283061E+01 -0.11198780569E+02  0.13641169769E+02  0.00000000000E+00 0. -1.
</event>
<event>
 8    1  0.3137106E-007  0.9118800E+02  0.7816164E-02  0.1184000E+00
        -11   -1    0    0    0    0  0.00000000000E+00  0.00000000000E+00  0.45593999997E+02  0.45594000000E+02  0.51100000000E-03 0. -1.
         11   -1    0    0    0    0 -0.00000000000E+00 -0.00000000000E+00 -0.45593999997E+02  0.45594000000E+02  0.51100000000E-03 0.  1.
         23    2    1    2    0    0  0.00000000000E+00  0.00000000000E+00  0.00000000000E+00  0.91188000000E+02  0.91188000000E+02 0.  0.
    9900012    2    3    3    0    0  0.16243621072E+02  0.28564473378E+02  0.16613136072E+02  0.54367073138E+02  0.39999974832E+02 0.  0.
        -12    1    3    3    0    0 -0.16243621072E+02 -0.28564473378E+02 -0.16613136072E+02  0.36820926862E+02  0.00000000000E+00 0.  1.
         11    1    4    4    0    0  0.90309932741E+01 -0.34240617053E+01  0.15984586641E+01  0.97896939912E+01  0.51100000000E-03 0.  1.
        -11    1    4    4    0    0 -0.28904165080E+01  0.36100473122E+01  0.13662311493E+02  0.14423789543E+02  0.51100000000E-03 0. -1.
         12    1    4    4    0    0  0.10103044305E+02  0.28378487771E+02  0.13523659147E+01  0.30153589603E+02  0.00000000000E+00 0. -1.
</event>
<event>
 8    1  0.3137106E-007  0.9118800E+02  0.7816164E-02  0.1184000E+00
        -11   -1    0    0    0    0  0.00000000000E+00  0.00000000000E+00  0.45593999997E+02  0.45594000000E+02  0.51100000000E-03 0. -1.
         11   -1    0    0    0    0 -0.00000000000E+00 -0.00000000000E+00 -0.45593999997E+02  0.45594000000E+02  0.51100000000E-03 0.  1.
         23    2    1    2    0    0  0.00000000000E+00  0.00000000000E+00  0.00000000000E+00  0.91188000000E+02  0.91188000000E+02 0.  0.
    9900012    2    3    3    0    0  0.32474704966E+02  0.65330798378E+01 -0.16077729073E+02  0.54367068902E+02  0.39999965175E+02 0.  0.
        -12    1    3    3    0    0 -0.32474704966E+02 -0.65330798378E+01  0.16077729073E+02  0.36820931098E+02  0.00000000000E+00 0.  1.
         11    1    4    4    0    0  0.35068144232E+01  0.16543065694E+01  0.53737477449E+01  0.66265860525E+01  0.51100000000E-03 0. -1.
        -11    1    4    4    0    0  0.61530627380E+01 -0.11796351191E+01 -0.23237719141E+02  0.24067474135E+02  0.51100000000E-03 0.  1.
        -12    1    4    4    0    0  0.22814827805E+02  0.60584083876E+01  0.17862423237E+01  0.23673008715E+02  0.00000000000E+00 0.  1.
</event>
<event>
 8    1  0.3137106E-007  0.9118800E+02  0.7816164E-02  0.1184000E+00
        -11   -1    0    0    0    0  0.00000000000E+00  0.00000000000E+00  0.45593999997E+02  0.45594000000E+02  0.51100000000E-03 0. -1.
         11   -1    0    0    0    0 -0.00000000000E+00 -0.00000000000E+00 -0.45593999997E+02  0.45594000000E+02  0.51100000000E-03 0.  1.
         23    2    1    2    0    0  0.00000000000E+00 -0.17763568394E-14  0.35527136788E-14  0.91188000000E+02  0.91188000000E+02 0.  0.
    9900012    2    3    3    0    0 -0.27749347485E+02  0.80147925386E+01  0.22836784805E+02  0.54367055886E+02  0.39999935503E+02 0.  0.
        -12    1    3    3    0    0  0.27749347485E+02 -0.80147925386E+01 -0.22836784805E+02  0.36820944114E+02  0.00000000000E+00 0.  1.
         11    1    4    4    0    0 -0.56923478510E+01 -0.29623705599E+01  0.11925885208E+02  0.13542717661E+02  0.51100000000E-03 0. -1.
        -11    1    4    4    0    0 -0.18495249153E+02 -0.78169965881E+01  0.39212452209E+01  0.20458637326E+02  0.51100000000E-03 0.  1.
         12    1    4    4    0    0 -0.35617504809E+01  0.18794159687E+02  0.69896543753E+01  0.20365700899E+02  0.00000000000E+00 0. -1.
</event>
<event>
 8    1  0.3137106E-007  0.9118800E+02  0.7816164E-02  0.1184000E+00
        -11   -1    0    0    0    0  0.00000000000E+00  0.00000000000E+00  0.45593999997E+02  0.45594000000E+02  0.51100000000E-03 0. -1.
         11   -1    0    0    0    0 -0.00000000000E+00 -0.00000000000E+00 -0.45593999997E+02  0.45594000000E+02  0.51100000000E-03 0.  1.
         23    2    1    2    0    0  0.35527136788E-14  0.00000000000E+00 -0.35527136788E-14  0.91188000000E+02  0.91188000000E+02 0.  0.
    9900012    2    3    3    0    0 -0.24986837902E+02  0.17415811179E+02  0.20691217987E+02  0.54367094944E+02  0.40000024544E+02 0.  0.
        -12    1    3    3    0    0  0.24986837902E+02 -0.17415811179E+02 -0.20691217987E+02  0.36820905056E+02  0.00000000000E+00 0.  1.
         11    1    4    4    0    0 -0.24148192584E+02  0.92482729790E+01  0.18878722754E+02  0.32016744545E+02  0.51100000000E-03 0. -1.
        -11    1    4    4    0    0 -0.62183415818E+01  0.25110122441E+01 -0.75909664414E+01  0.10128954847E+02  0.51100000000E-03 0.  1.
         12    1    4    4    0    0  0.53796962642E+01  0.56565259557E+01  0.94034616746E+01  0.12221395552E+02  0.00000000000E+00 0. -1.
</event>
<event>
 8    1  0.3137106E-007  0.9118800E+02  0.7816164E-02  0.1184000E+00
        -11   -1    0    0    0    0  0.00000000000E+00  0.00000000000E+00  0.45593999997E+02  0.45594000000E+02  0.51100000000E-03 0.  1.
         11   -1    0    0    0    0 -0.00000000000E+00 -0.00000000000E+00 -0.45593999997E+02  0.45594000000E+02  0.51100000000E-03 0. -1.
         23    2    1    2    0    0 -0.35527136788E-14 -0.88817841970E-15  0.00000000000E+00  0.91188000000E+02  0.91188000000E+02 0.  0.
    9900012    2    3    3    0    0  0.30203388431E+02  0.48797130614E+01  0.20487228311E+02  0.54367044062E+02  0.39999908549E+02 0.  0.
         12    1    3    3    0    0 -0.30203388431E+02 -0.48797130614E+01 -0.20487228311E+02  0.36820955938E+02  0.00000000000E+00 0. -1.
         11    1    4    4    0    0  0.16778418945E+02  0.15062359538E+02  0.16498268311E+02  0.27938913270E+02  0.51100000000E-03 0. -1.
        -11    1    4    4    0    0  0.90221883599E+01  0.65496381755E+00 -0.61577186029E+01  0.10942867954E+02  0.51100000000E-03 0.  1.
         12    1    4    4    0    0  0.44027811263E+01 -0.10837610294E+02  0.10146678602E+02  0.15485262839E+02  0.00000000000E+00 0. -1.
</event>
<event>
 8    1  0.3137106E-007  0.9118800E+02  0.7816164E-02  0.1184000E+00
        -11   -1    0    0    0    0  0.00000000000E+00  0.00000000000E+00  0.45593999997E+02  0.45594000000E+02  0.51100000000E-03 0. -1.
         11   -1    0    0    0    0 -0.00000000000E+00 -0.00000000000E+00 -0.45593999997E+02  0.45594000000E+02  0.51100000000E-03 0.  1.
         23    2    1    2    0    0 -0.35527136788E-14  0.00000000000E+00  0.00000000000E+00  0.91188000000E+02  0.91188000000E+02 0.  0.
    9900012    2    3    3    0    0 -0.23319916872E+02  0.84468623082E+01 -0.27214263866E+02  0.54367025494E+02  0.39999866219E+02 0.  0.
         12    1    3    3    0    0  0.23319916872E+02 -0.84468623082E+01  0.27214263866E+02  0.36820974506E+02  0.00000000000E+00 0. -1.
         11    1    4    4    0    0 -0.10775247160E+02 -0.45255476043E+01 -0.55251976727E+01  0.12927271254E+02  0.51100000000E-03 0. -1.
        -11    1    4    4    0    0  0.14150981543E+01  0.12295498521E+02  0.32989249066E+01  0.12808774042E+02  0.51100000000E-03 0.  1.
         12    1    4    4    0    0 -0.13959767866E+02  0.67691139139E+00 -0.24987991100E+02  0.28630980198E+02  0.00000000000E+00 0. -1.
</event>
<event>
 8    1  0.3137106E-007  0.9118800E+02  0.7816164E-02  0.1184000E+00
        -11   -1    0    0    0    0  0.00000000000E+00  0.00000000000E+00  0.45593999997E+02  0.45594000000E+02  0.51100000000E-03 0. -1.
         11   -1    0    0    0    0 -0.00000000000E+00 -0.00000000000E+00 -0.45593999997E+02  0.45594000000E+02  0.51100000000E-03 0.  1.
         23    2    1    2    0    0 -0.35527136788E-14  0.00000000000E+00 -0.35527136788E-14  0.91188000000E+02  0.91188000000E+02 0.  0.
    9900012    2    3    3    0    0  0.16724223341E+02 -0.24279149059E+02  0.22059091156E+02  0.54367078935E+02  0.39999988049E+02 0.  0.
        -12    1    3    3    0    0 -0.16724223341E+02  0.24279149059E+02 -0.22059091156E+02  0.36820921065E+02  0.00000000000E+00 0.  1.
         11    1    4    4    0    0  0.10800900520E+02 -0.24980270870E+02  0.70448403055E+01  0.28112331102E+02  0.51100000000E-03 0. -1.
        -11    1    4    4    0    0 -0.48948361880E+01  0.60202365895E+00  0.14619514793E+02  0.15428936024E+02  0.51100000000E-03 0.  1.
         12    1    4    4    0    0  0.10818159009E+02  0.99098151633E-01  0.39473605794E+00  0.10825811810E+02  0.00000000000E+00 0. -1.
</event>
<event>
 8    1  0.3137106E-007  0.9118800E+02  0.7816164E-02  0.1184000E+00
        -11   -1    0    0    0    0  0.00000000000E+00  0.00000000000E+00  0.45593999997E+02  0.45594000000E+02  0.51100000000E-03 0.  1.
         11   -1    0    0    0    0 -0.00000000000E+00 -0.00000000000E+00 -0.45593999997E+02  0.45594000000E+02  0.51100000000E-03 0. -1.
         23    2    1    2    0    0 -0.88817841970E-15 -0.16653345369E-15  0.00000000000E+00  0.91188000000E+02  0.91188000000E+02 0.  0.
    9900012    2    3    3    0    0 -0.64265449506E+01  0.30131461814E+00  0.36254503078E+02  0.54367078448E+02  0.39999986937E+02 0.  0.
         12    1    3    3    0    0  0.64265449506E+01 -0.30131461814E+00 -0.36254503078E+02  0.36820921552E+02  0.00000000000E+00 0. -1.
         11    1    4    4    0    0 -0.49899322192E+01 -0.80811566155E+01 -0.17237535132E+00  0.94991699279E+01  0.51100000000E-03 0. -1.
        -11    1    4    4    0    0 -0.64043572082E+00  0.15406136098E+02  0.12292456846E+02  0.19719626846E+02  0.51100000000E-03 0.  1.
        -12    1    4    4    0    0 -0.79617701064E+00 -0.70236648643E+01  0.24134421584E+02  0.25148281674E+02  0.00000000000E+00 0.  1.
</event>
<event>
 8    1  0.3137106E-007  0.9118800E+02  0.7816164E-02  0.1184000E+00
        -11   -1    0    0    0    0  0.00000000000E+00  0.00000000000E+00  0.45593999997E+02  0.45594000000E+02  0.51100000000E-03 0.  1.
         11   -1    0    0    0    0 -0.00000000000E+00 -0.00000000000E+00 -0.45593999997E+02  0.45594000000E+02  0.51100000000E-03 0. -1.
         23    2    1    2    0    0 -0.35527136788E-14  0.35527136788E-14 -0.35527136788E-14  0.91188000000E+02  0.91188000000E+02 0.  0.
    9900012    2    3    3    0    0 -0.19956180090E+02 -0.17879104585E+02  0.25256046122E+02  0.54367090583E+02  0.40000014602E+02 0.  0.
         12    1    3    3    0    0  0.19956180090E+02  0.17879104585E+02 -0.25256046122E+02  0.36820909417E+02  0.00000000000E+00 0. -1.
         11    1    4    4    0    0  0.40778125984E+01  0.35623569534E+01  0.20896061721E+02  0.21586207132E+02  0.51100000000E-03 0. -1.
        -11    1    4    4    0    0 -0.21829344485E+02 -0.18213628890E+02  0.27825046608E+01  0.28565694292E+02  0.51100000000E-03 0.  1.
        -12    1    4    4    0    0 -0.22046482040E+01 -0.32278326485E+01  0.15774797410E+01  0.42151891587E+01  0.00000000000E+00 0.  1.
</event>
<event>
 8    1  0.3137106E-007  0.9118800E+02  0.7816164E-02  0.1184000E+00
        -11   -1    0    0    0    0  0.00000000000E+00  0.00000000000E+00  0.45593999997E+02  0.45594000000E+02  0.51100000000E-03 0. -1.
         11   -1    0    0    0    0 -0.00000000000E+00 -0.00000000000E+00 -0.45593999997E+02  0.45594000000E+02  0.51100000000E-03 0.  1.
         23    2    1    2    0    0  0.71054273576E-14  0.00000000000E+00  0.17763568394E-14  0.91188000000E+02  0.91188000000E+02 0.  0.
    9900012    2    3    3    0    0 -0.34847613782E+02  0.33704759108E+01 -0.11404550381E+02  0.54367081169E+02  0.39999993141E+02 0.  0.
         12    1    3    3    0    0  0.34847613782E+02 -0.33704759108E+01  0.11404550381E+02  0.36820918831E+02  0.00000000000E+00 0. -1.
         11    1    4    4    0    0 -0.86444798234E+01 -0.13628188397E+02 -0.72899890237E+01  0.17708712280E+02  0.51100000000E-03 0.  1.
        -11    1    4    4    0    0 -0.50433175941E+00  0.27509823318E-01 -0.57937584087E+01  0.58157324624E+01  0.51100000000E-03 0. -1.
        -12    1    4    4    0    0 -0.25698802199E+02  0.16971154484E+02  0.16791970519E+01  0.30842636427E+02  0.00000000000E+00 0.  1.
</event>
<event>
 8    1  0.3137106E-007  0.9118800E+02  0.7816164E-02  0.1184000E+00
        -11   -1    0    0    0    0  0.00000000000E+00  0.00000000000E+00  0.45593999997E+02  0.45594000000E+02  0.51100000000E-03 0.  1.
         11   -1    0    0    0    0 -0.00000000000E+00 -0.00000000000E+00 -0.45593999997E+02  0.45594000000E+02  0.51100000000E-03 0. -1.
         23    2    1    2    0    0  0.00000000000E+00 -0.88817841970E-15  0.35527136788E-14  0.91188000000E+02  0.91188000000E+02 0.  0.
    9900012    2    3    3    0    0  0.21121457832E+02 -0.65056788921E+01 -0.29450597698E+02  0.54367115389E+02  0.40000071152E+02 0.  0.
         12    1    3    3    0    0 -0.21121457832E+02  0.65056788921E+01  0.29450597698E+02  0.36820884611E+02  0.00000000000E+00 0. -1.
         11    1    4    4    0    0  0.51300760284E+01 -0.91569777903E+01 -0.21110862230E+02  0.23576183462E+02  0.51100000000E-03 0. -1.
        -11    1    4    4    0    0  0.43161016520E+01 -0.29881055752E+01 -0.15229006650E+02  0.16108387635E+02  0.51100000000E-03 0.  1.
        -12    1    4    4    0    0  0.11675280152E+02  0.56394044735E+01  0.68892711824E+01  0.14682544291E+02  0.00000000000E+00 0.  1.
</event>
<event>
 8    1  0.3137106E-007  0.9118800E+02  0.7816164E-02  0.1184000E+00
        -11   -1    0    0    0    0  0.00000000000E+00  0.00000000000E+00  0.45593999997E+02  0.45594000000E+02  0.51100000000E-03 0.  1.
         11   -1    0    0    0    0 -0.00000000000E+00 -0.00000000000E+00 -0.45593999997E+02  0.45594000000E+02  0.51100000000E-03 0. -1.
         23    2    1    2    0    0 -0.44408920985E-15  0.00000000000E+00  0.00000000000E+00  0.91188000000E+02  0.91188000000E+02 0.  0.
    9900012    2    3    3    0    0 -0.25859009728E+01  0.35169634247E+02  0.10591965478E+02  0.54367084889E+02  0.40000001621E+02 0.  0.
         12    1    3    3    0    0  0.25859009728E+01 -0.35169634247E+02 -0.10591965478E+02  0.36820915111E+02  0.00000000000E+00 0. -1.
         11    1    4    4    0    0  0.58671716857E+00  0.23552432070E+01  0.16571948078E+02  0.16748757296E+02  0.51100000000E-03 0. -1.
        -11    1    4    4    0    0 -0.86015200984E+01  0.12926563830E+02  0.16981541882E+01  0.15619408707E+02  0.51100000000E-03 0.  1.
        -12    1    4    4    0    0  0.54289019571E+01  0.19887827210E+02 -0.76781367881E+01  0.21998918886E+02  0.00000000000E+00 0.  1.
</event>
<event>
 8    1  0.3137106E-007  0.9118800E+02  0.7816164E-02  0.1184000E+00
        -11   -1    0    0    0    0  0.00000000000E+00  0.00000000000E+00  0.45593999997E+02  0.45594000000E+02  0.51100000000E-03 0. -1.
         11   -1    0    0    0    0 -0.00000000000E+00 -0.00000000000E+00 -0.45593999997E+02  0.45594000000E+02  0.51100000000E-03 0.  1.
         23    2    1    2    0    0  0.00000000000E+00  0.00000000000E+00  0.00000000000E+00  0.91188000000E+02  0.91188000000E+02 0.  0.
    9900012    2    3    3    0    0 -0.26645340728E+02 -0.24755559565E+02  0.57418453124E+01  0.54367072534E+02  0.39999973456E+02 0.  0.
         12    1    3    3    0    0  0.26645340728E+02  0.24755559565E+02 -0.57418453124E+01  0.36820927466E+02  0.00000000000E+00 0. -1.
         11    1    4    4    0    0 -0.21642474610E+02 -0.51043986290E+01  0.97430319395E+01  0.24277114002E+02  0.51100000000E-03 0.  1.
        -11    1    4    4    0    0  0.64096019474E+01 -0.25051083643E+01 -0.63446486038E+01  0.93601886310E+01  0.51100000000E-03 0. -1.
        -12    1    4    4    0    0 -0.11412468065E+02 -0.17146052571E+02  0.23434619767E+01  0.20729769901E+02  0.00000000000E+00 0.  1.
</event>
<event>
 8    1  0.3137106E-007  0.9118800E+02  0.7816164E-02  0.1184000E+00
        -11   -1    0    0    0    0  0.00000000000E+00  0.00000000000E+00  0.45593999997E+02  0.45594000000E+02  0.51100000000E-03 0. -1.
         11   -1    0    0    0    0 -0.00000000000E+00 -0.00000000000E+00 -0.45593999997E+02  0.45594000000E+02  0.51100000000E-03 0.  1.
         23    2    1    2    0    0  0.00000000000E+00  0.71054273576E-14  0.00000000000E+00  0.91188000000E+02  0.91188000000E+02 0.  0.
    9900012    2    3    3    0    0 -0.95865507224E+01  0.31100617103E+02  0.17222866091E+02  0.54367116586E+02  0.40000073882E+02 0.  0.
        -12    1    3    3    0    0  0.95865507224E+01 -0.31100617103E+02 -0.17222866091E+02  0.36820883414E+02  0.00000000000E+00 0.  1.
         11    1    4    4    0    0  0.24532826547E+01  0.20005090387E+01  0.11708184028E+01  0.33751219520E+01  0.51100000000E-03 0. -1.
        -11    1    4    4    0    0  0.51238719813E+01 -0.55088776152E+01  0.89863044464E+01  0.11719874766E+02  0.51100000000E-03 0.  1.
        -12    1    4    4    0    0 -0.17163705358E+02  0.34608985680E+02  0.70657432418E+01  0.39272119869E+02  0.00000000000E+00 0.  1.
</event>
<event>
 8    1  0.3137106E-007  0.9118800E+02  0.7816164E-02  0.1184000E+00
        -11   -1    0    0    0    0  0.00000000000E+00  0.00000000000E+00  0.45593999997E+02  0.45594000000E+02  0.51100000000E-03 0. -1.
         11   -1    0    0    0    0 -0.00000000000E+00 -0.00000000000E+00 -0.45593999997E+02  0.45594000000E+02  0.51100000000E-03 0.  1.
         23    2    1    2    0    0 -0.44408920985E-15  0.00000000000E+00  0.00000000000E+00  0.91188000000E+02  0.91188000000E+02 0.  0.
    9900012    2    3    3    0    0  0.25091251818E+01  0.55228314220E+01 -0.36317793599E+02  0.54367088713E+02  0.40000010339E+02 0.  0.
         12    1    3    3    0    0 -0.25091251818E+01 -0.55228314220E+01  0.36317793599E+02  0.36820911287E+02  0.00000000000E+00 0. -1.
         11    1    4    4    0    0 -0.62369275086E+01  0.29317835403E+01 -0.30274370338E+01  0.75272833565E+01  0.51100000000E-03 0. -1.
        -11    1    4    4    0    0 -0.71814629255E+01  0.27687293691E+00 -0.29421551594E+02  0.30286593847E+02  0.51100000000E-03 0.  1.
        -12    1    4    4    0    0  0.15927515616E+02  0.23141749448E+01 -0.38688049713E+01  0.16553211509E+02  0.00000000000E+00 0.  1.
</event>
<event>
 8    1  0.3137106E-007  0.9118800E+02  0.7816164E-02  0.1184000E+00
        -11   -1    0    0    0    0  0.00000000000E+00  0.00000000000E+00  0.45593999997E+02  0.45594000000E+02  0.51100000000E-03 0.  1.
         11   -1    0    0    0    0 -0.00000000000E+00 -0.00000000000E+00 -0.45593999997E+02  0.45594000000E+02  0.51100000000E-03 0. -1.
         23    2    1    2    0    0  0.00000000000E+00 -0.17763568394E-14  0.35527136788E-14  0.91188000000E+02  0.91188000000E+02 0.  0.
    9900012    2    3    3    0    0 -0.19831873877E+02  0.10259140045E+02 -0.29278428648E+02  0.54367088006E+02  0.40000008728E+02 0.  0.
         12    1    3    3    0    0  0.19831873877E+02 -0.10259140045E+02  0.29278428648E+02  0.36820911994E+02  0.00000000000E+00 0. -1.
         11    1    4    4    0    0 -0.48030022265E+01 -0.88550893064E+01  0.44641523849E+01  0.11018624859E+02  0.51100000000E-03 0. -1.
        -11    1    4    4    0    0 -0.13585018464E+01  0.19589345834E+01  0.72583760806E+00  0.24919455177E+01  0.51100000000E-03 0.  1.
         12    1    4    4    0    0 -0.13670369804E+02  0.17155294768E+02 -0.34468418641E+02  0.40856517629E+02  0.00000000000E+00 0. -1.
</event>
<event>
 8    1  0.3137106E-007  0.9118800E+02  0.7816164E-02  0.1184000E+00
        -11   -1    0    0    0    0  0.00000000000E+00  0.00000000000E+00  0.45593999997E+02  0.45594000000E+02  0.51100000000E-03 0. -1.
         11   -1    0    0    0    0 -0.00000000000E+00 -0.00000000000E+00 -0.45593999997E+02  0.45594000000E+02  0.51100000000E-03 0.  1.
         23    2    1    2    0    0  0.00000000000E+00  0.35527136788E-14  0.44408920985E-15  0.91188000000E+02  0.91188000000E+02 0.  0.
    9900012    2    3    3    0    0  0.19847047612E+02 -0.30815803018E+02 -0.35016541648E+01  0.54367073933E+02  0.39999976645E+02 0.  0.
        -12    1    3    3    0    0 -0.19847047612E+02  0.30815803018E+02  0.35016541648E+01  0.36820926067E+02  0.00000000000E+00 0.  1.
         11    1    4    4    0    0  0.52917214090E+00 -0.10197349709E+02  0.47924492544E+01  0.11279784323E+02  0.51100000000E-03 0. -1.
        -11    1    4    4    0    0  0.23744756671E+02 -0.26031285481E+02 -0.60973882388E+01  0.35757788477E+02  0.51100000000E-03 0.  1.
        -12    1    4    4    0    0 -0.44268812002E+01  0.54128321720E+01 -0.21967151804E+01  0.73295011335E+01  0.00000000000E+00 0.  1.
</event>
<event>
 8    1  0.3137106E-007  0.9118800E+02  0.7816164E-02  0.1184000E+00
        -11   -1    0    0    0    0  0.00000000000E+00  0.00000000000E+00  0.45593999997E+02  0.45594000000E+02  0.51100000000E-03 0. -1.
         11   -1    0    0    0    0 -0.00000000000E+00 -0.00000000000E+00 -0.45593999997E+02  0.45594000000E+02  0.51100000000E-03 0.  1.
         23    2    1    2    0    0  0.00000000000E+00 -0.35527136788E-14  0.35527136788E-14  0.91188000000E+02  0.91188000000E+02 0.  0.
    9900012    2    3    3    0    0 -0.18932245336E+02  0.25900566587E+02 -0.18069590360E+02  0.54367090740E+02  0.40000014959E+02 0.  0.
        -12    1    3    3    0    0  0.18932245336E+02 -0.25900566587E+02  0.18069590360E+02  0.36820909260E+02  0.00000000000E+00 0.  1.
         11    1    4    4    0    0 -0.58611713658E+01  0.23943687058E+00  0.42075092109E+01  0.72189884205E+01  0.51100000000E-03 0. -1.
        -11    1    4    4    0    0  0.35295099732E+01  0.20402997740E+02 -0.25940574702E+01  0.20867891409E+02  0.51100000000E-03 0.  1.
         12    1    4    4    0    0 -0.16600583944E+02  0.52581319761E+01 -0.19683042101E+02  0.26280210910E+02  0.00000000000E+00 0. -1.
</event>
<event>
 8    1  0.3137106E-007  0.9118800E+02  0.7816164E-02  0.1184000E+00
        -11   -1    0    0    0    0  0.00000000000E+00  0.00000000000E+00  0.45593999997E+02  0.45594000000E+02  0.51100000000E-03 0.  1.
         11   -1    0    0    0    0 -0.00000000000E+00 -0.00000000000E+00 -0.45593999997E+02  0.45594000000E+02  0.51100000000E-03 0. -1.
         23    2    1    2    0    0  0.00000000000E+00  0.17763568394E-14  0.00000000000E+00  0.91188000000E+02  0.91188000000E+02 0.  0.
    9900012    2    3    3    0    0  0.30103707891E+02  0.82349318392E+01 -0.19537993904E+02  0.54367074740E+02  0.39999978484E+02 0.  0.
        -12    1    3    3    0    0 -0.30103707891E+02 -0.82349318392E+01  0.19537993904E+02  0.36820925260E+02  0.00000000000E+00 0.  1.
         11    1    4    4    0    0  0.92628713123E+01  0.89966949438E+01 -0.22178173347E+02  0.25663450239E+02  0.51100000000E-03 0. -1.
        -11    1    4    4    0    0  0.19717518191E+01 -0.75647459182E+01  0.36343706943E+01  0.86210113472E+01  0.51100000000E-03 0.  1.
        -12    1    4    4    0    0  0.18869084760E+02  0.68029828136E+01 -0.99419125128E+00  0.20082613154E+02  0.00000000000E+00 0.  1.
</event>
<event>
 8    1  0.3137106E-007  0.9118800E+02  0.7816164E-02  0.1184000E+00
        -11   -1    0    0    0    0  0.00000000000E+00  0.00000000000E+00  0.45593999997E+02  0.45594000000E+02  0.51100000000E-03 0.  1.
         11   -1    0    0    0    0 -0.00000000000E+00 -0.00000000000E+00 -0.45593999997E+02  0.45594000000E+02  0.51100000000E-03 0. -1.
         23    2    1    2    0    0  0.00000000000E+00 -0.71054273576E-14 -0.88817841970E-15  0.91188000000E+02  0.91188000000E+02 0.  0.
    9900012    2    3    3    0    0  0.15807036388E+02 -0.32499490170E+02  0.70499363488E+01  0.54367070310E+02  0.39999968386E+02 0.  0.
        -12    1    3    3    0    0 -0.15807036388E+02  0.32499490170E+02 -0.70499363488E+01  0.36820929690E+02  0.00000000000E+00 0.  1.
         11    1    4    4    0    0  0.13956649528E+02 -0.92131765523E+01 -0.80348857122E+01  0.18553438412E+02  0.51100000000E-03 0. -1.
        -11    1    4    4    0    0  0.80209835905E+01 -0.12693037326E+02  0.17769375993E+02  0.23263707739E+02  0.51100000000E-03 0.  1.
        -12    1    4    4    0    0 -0.61705967300E+01 -0.10593276292E+02 -0.26845539322E+01  0.12549924160E+02  0.00000000000E+00 0.  1.
</event>
<event>
 8    1  0.3137106E-007  0.9118800E+02  0.7816164E-02  0.1184000E+00
        -11   -1    0    0    0    0  0.00000000000E+00  0.00000000000E+00  0.45593999997E+02  0.45594000000E+02  0.51100000000E-03 0.  1.
         11   -1    0    0    0    0 -0.00000000000E+00 -0.00000000000E+00 -0.45593999997E+02  0.45594000000E+02  0.51100000000E-03 0. -1.
         23    2    1    2    0    0 -0.35527136788E-14  0.00000000000E+00 -0.17763568394E-14  0.91188000000E+02  0.91188000000E+02 0.  0.
    9900012    2    3    3    0    0 -0.31849311535E+02 -0.11857142524E+02 -0.14170718208E+02  0.54367085717E+02  0.40000003509E+02 0.  0.
        -12    1    3    3    0    0  0.31849311535E+02  0.11857142524E+02  0.14170718208E+02  0.36820914283E+02  0.00000000000E+00 0.  1.
         11    1    4    4    0    0 -0.20574590737E+02 -0.66988242391E+01 -0.25372166664E+01  0.21785901378E+02  0.51100000000E-03 0. -1.
        -11    1    4    4    0    0 -0.18869285967E+02 -0.14562287639E+01 -0.93450692228E+00  0.18948452670E+02  0.51100000000E-03 0.  1.
         12    1    4    4    0    0  0.75945651684E+01 -0.37020895213E+01 -0.10698994619E+02  0.13632731670E+02  0.00000000000E+00 0. -1.
</event>
<event>
 8    1  0.3137106E-007  0.9118800E+02  0.7816164E-02  0.1184000E+00
        -11   -1    0    0    0    0  0.00000000000E+00  0.00000000000E+00  0.45593999997E+02  0.45594000000E+02  0.51100000000E-03 0.  1.
         11   -1    0    0    0    0 -0.00000000000E+00 -0.00000000000E+00 -0.45593999997E+02  0.45594000000E+02  0.51100000000E-03 0. -1.
         23    2    1    2    0    0 -0.26645352591E-14  0.00000000000E+00  0.00000000000E+00  0.91188000000E+02  0.91188000000E+02 0.  0.
    9900012    2    3    3    0    0  0.23633519196E+01 -0.28412996521E+02  0.23300136378E+02  0.54367079875E+02  0.39999990191E+02 0.  0.
         12    1    3    3    0    0 -0.23633519196E+01  0.28412996521E+02 -0.23300136378E+02  0.36820920125E+02  0.00000000000E+00 0. -1.
         11    1    4    4    0    0 -0.11388013609E+02 -0.16044338002E+02 -0.21404899246E+01  0.19791142798E+02  0.51100000000E-03 0. -1.
        -11    1    4    4    0    0  0.23924725020E+00 -0.32825558026E+01 -0.10727981401E+01  0.34616914874E+01  0.51100000000E-03 0.  1.
        -12    1    4    4    0    0  0.13512118278E+02 -0.90861027166E+01  0.26513424443E+02  0.31114245590E+02  0.00000000000E+00 0.  1.
</event>
<event>
 8    1  0.3137106E-007  0.9118800E+02  0.7816164E-02  0.1184000E+00
        -11   -1    0    0    0    0  0.00000000000E+00  0.00000000000E+00  0.45593999997E+02  0.45594000000E+02  0.51100000000E-03 0.  1.
         11   -1    0    0    0    0 -0.00000000000E+00 -0.00000000000E+00 -0.45593999997E+02  0.45594000000E+02  0.51100000000E-03 0. -1.
         23    2    1    2    0    0  0.00000000000E+00  0.12212453271E-14  0.17763568394E-14  0.91188000000E+02  0.91188000000E+02 0.  0.
    9900012    2    3    3    0    0  0.35418823822E+02  0.87703516777E+00 -0.10025891131E+02  0.54367071650E+02  0.39999971440E+02 0.  0.
        -12    1    3    3    0    0 -0.35418823822E+02 -0.87703516777E+00  0.10025891131E+02  0.36820928350E+02  0.00000000000E+00 0.  1.
         11    1    4    4    0    0  0.83121144046E+01 -0.11717426222E+02 -0.13069922645E+02  0.19421951534E+02  0.51100000000E-03 0. -1.
        -11    1    4    4    0    0  0.16159779117E+02 -0.22879969361E+01  0.19633189297E+01  0.16438613463E+02  0.51100000000E-03 0.  1.
        -12    1    4    4    0    0  0.10946930300E+02  0.14882458326E+02  0.10807125851E+01  0.18506506654E+02  0.00000000000E+00 0.  1.
</event>
<event>
 8    1  0.3137106E-007  0.9118800E+02  0.7816164E-02  0.1184000E+00
        -11   -1    0    0    0    0  0.00000000000E+00  0.00000000000E+00  0.45593999997E+02  0.45594000000E+02  0.51100000000E-03 0.  1.
         11   -1    0    0    0    0 -0.00000000000E+00 -0.00000000000E+00 -0.45593999997E+02  0.45594000000E+02  0.51100000000E-03 0. -1.
         23    2    1    2    0    0  0.00000000000E+00  0.00000000000E+00  0.17763568394E-14  0.91188000000E+02  0.91188000000E+02 0.  0.
    9900012    2    3    3    0    0 -0.94795231858E+01  0.33759039963E+02 -0.11235905618E+02  0.54367085914E+02  0.40000003958E+02 0.  0.
        -12    1    3    3    0    0  0.94795231858E+01 -0.33759039963E+02  0.11235905618E+02  0.36820914086E+02  0.00000000000E+00 0.  1.
         11    1    4    4    0    0  0.29907378893E+01  0.19373895428E+02 -0.42208971205E+01  0.20052638479E+02  0.51100000000E-03 0. -1.
        -11    1    4    4    0    0 -0.14733769427E+02  0.20967948180E+02 -0.88560958809E+01  0.27114004627E+02  0.51100000000E-03 0.  1.
        -12    1    4    4    0    0  0.22635083514E+01 -0.65828036452E+01  0.18410873830E+01  0.72004428086E+01  0.00000000000E+00 0.  1.
</event>
<event>
 8    1  0.3137106E-007  0.9118800E+02  0.7816164E-02  0.1184000E+00
        -11   -1    0    0    0    0  0.00000000000E+00  0.00000000000E+00  0.45593999997E+02  0.45594000000E+02  0.51100000000E-03 0. -1.
         11   -1    0    0    0    0 -0.00000000000E+00 -0.00000000000E+00 -0.45593999997E+02  0.45594000000E+02  0.51100000000E-03 0.  1.
         23    2    1    2    0    0  0.00000000000E+00  0.71054273576E-14  0.17763568394E-14  0.91188000000E+02  0.91188000000E+02 0.  0.
    9900012    2    3    3    0    0  0.89333242052E+01 -0.34113552296E+02 -0.10594362022E+02  0.54367092376E+02  0.40000018690E+02 0.  0.
         12    1    3    3    0    0 -0.89333242052E+01  0.34113552296E+02  0.10594362022E+02  0.36820907624E+02  0.00000000000E+00 0. -1.
         11    1    4    4    0    0 -0.54036128276E+01 -0.10857234608E+02 -0.83239879252E+01  0.14709430654E+02  0.51100000000E-03 0.  1.
        -11    1    4    4    0    0  0.36585210946E+00 -0.25417890036E+02 -0.22549513285E+01  0.25520340660E+02  0.51100000000E-03 0. -1.
         12    1    4    4    0    0  0.13971084923E+02  0.21615723480E+01 -0.15422768179E-01  0.14137321062E+02  0.00000000000E+00 0. -1.
</event>
<event>
 8    1  0.3137106E-007  0.9118800E+02  0.7816164E-02  0.1184000E+00
        -11   -1    0    0    0    0  0.00000000000E+00  0.00000000000E+00  0.45593999997E+02  0.45594000000E+02  0.51100000000E-03 0.  1.
         11   -1    0    0    0    0 -0.00000000000E+00 -0.00000000000E+00 -0.45593999997E+02  0.45594000000E+02  0.51100000000E-03 0. -1.
         23    2    1    2    0    0  0.00000000000E+00 -0.35527136788E-14 -0.71054273576E-14  0.91188000000E+02  0.91188000000E+02 0.  0.
    9900012    2    3    3    0    0  0.95116689655E+01 -0.16132090479E+02 -0.31702726822E+02  0.54367094556E+02  0.40000023660E+02 0.  0.
        -12    1    3    3    0    0 -0.95116689655E+01  0.16132090479E+02  0.31702726822E+02  0.36820905444E+02  0.00000000000E+00 0.  1.
         11    1    4    4    0    0  0.57560913411E+01 -0.78939619289E+01 -0.18072271131E+02  0.20543957909E+02  0.51100000000E-03 0. -1.
        -11    1    4    4    0    0  0.51397674357E+01 -0.54415416814E+01 -0.22873764461E+02  0.24067336497E+02  0.51100000000E-03 0.  1.
        -12    1    4    4    0    0 -0.13841898113E+01 -0.27965868686E+01  0.92433087705E+01  0.97558001504E+01  0.00000000000E+00 0.  1.
</event>
<event>
 8    1  0.3137106E-007  0.9118800E+02  0.7816164E-02  0.1184000E+00
        -11   -1    0    0    0    0  0.00000000000E+00  0.00000000000E+00  0.45593999997E+02  0.45594000000E+02  0.51100000000E-03 0.  1.
         11   -1    0    0    0    0 -0.00000000000E+00 -0.00000000000E+00 -0.45593999997E+02  0.45594000000E+02  0.51100000000E-03 0. -1.
         23    2    1    2    0    0  0.00000000000E+00  0.00000000000E+00  0.00000000000E+00  0.91188000000E+02  0.91188000000E+02 0.  0.
    9900012    2    3    3    0    0 -0.24814049119E+02  0.94178914226E+01 -0.25521461547E+02  0.54367099522E+02  0.40000034980E+02 0.  0.
        -12    1    3    3    0    0  0.24814049119E+02 -0.94178914226E+01  0.25521461547E+02  0.36820900478E+02  0.00000000000E+00 0.  1.
         11    1    4    4    0    0 -0.12935262598E+02  0.16730987521E+02 -0.20565884871E+02  0.29499196306E+02  0.51100000000E-03 0. -1.
        -11    1    4    4    0    0 -0.81424997057E+01 -0.10507680087E+02 -0.10873956695E+02  0.17174241664E+02  0.51100000000E-03 0.  1.
        -12    1    4    4    0    0 -0.37362868149E+01  0.31945839886E+01  0.59183800189E+01  0.76936615517E+01  0.00000000000E+00 0.  1.
</event>
<event>
 8    1  0.3137106E-007  0.9118800E+02  0.7816164E-02  0.1184000E+00
        -11   -1    0    0    0    0  0.00000000000E+00  0.00000000000E+00  0.45593999997E+02  0.45594000000E+02  0.51100000000E-03 0. -1.
         11   -1    0    0    0    0 -0.00000000000E+00 -0.00000000000E+00 -0.45593999997E+02  0.45594000000E+02  0.51100000000E-03 0.  1.
         23    2    1    2    0    0 -0.17763568394E-14  0.00000000000E+00  0.71054273576E-14  0.91188000000E+02  0.91188000000E+02 0.  0.
    9900012    2    3    3    0    0  0.41274070712E+01  0.10116394624E+02 -0.35162529089E+02  0.54367076855E+02  0.39999983305E+02 0.  0.
         12    1    3    3    0    0 -0.41274070712E+01 -0.10116394624E+02  0.35162529089E+02  0.36820923145E+02  0.00000000000E+00 0. -1.
         11    1    4    4    0    0 -0.14716399011E+00  0.43255249688E+01 -0.26534872845E+02  0.26885522139E+02  0.51100000000E-03 0. -1.
        -11    1    4    4    0    0  0.11371665764E+02  0.28166780187E+01 -0.13881193086E+02  0.18164139921E+02  0.51100000000E-03 0.  1.
         12    1    4    4    0    0 -0.70970947028E+01  0.29741916362E+01  0.52535368420E+01  0.93174147949E+01  0.00000000000E+00 0. -1.
</event>
<event>
 8    1  0.3137106E-007  0.9118800E+02  0.7816164E-02  0.1184000E+00
        -11   -1    0    0    0    0  0.00000000000E+00  0.00000000000E+00  0.45593999997E+02  0.45594000000E+02  0.51100000000E-03 0.  1.
         11   -1    0    0    0    0 -0.00000000000E+00 -0.00000000000E+00 -0.45593999997E+02  0.45594000000E+02  0.51100000000E-03 0. -1.
         23    2    1    2    0    0  0.00000000000E+00  0.35527136788E-14  0.00000000000E+00  0.91188000000E+02  0.91188000000E+02 0.  0.
    9900012    2    3    3    0    0  0.12914679156E+02  0.25726751992E+02  0.22959207487E+02  0.54367083197E+02  0.39999997765E+02 0.  0.
         12    1    3    3    0    0 -0.12914679156E+02 -0.25726751992E+02 -0.22959207487E+02  0.36820916803E+02  0.00000000000E+00 0. -1.
         11    1    4    4    0    0  0.10940226017E+01 -0.22943264083E+01  0.45828948867E+01  0.52405863150E+01  0.51100000000E-03 0. -1.
        -11    1    4    4    0    0 -0.70469851487E+01  0.18823044343E+01  0.15042413580E+02  0.16717573875E+02  0.51100000000E-03 0.  1.
        -12    1    4    4    0    0  0.18867641703E+02  0.26138773966E+02  0.33338990201E+01  0.32408923008E+02  0.00000000000E+00 0.  1.
</event>
<event>
 8    1  0.3137106E-007  0.9118800E+02  0.7816164E-02  0.1184000E+00
        -11   -1    0    0    0    0  0.00000000000E+00  0.00000000000E+00  0.45593999997E+02  0.45594000000E+02  0.51100000000E-03 0. -1.
         11   -1    0    0    0    0 -0.00000000000E+00 -0.00000000000E+00 -0.45593999997E+02  0.45594000000E+02  0.51100000000E-03 0.  1.
         23    2    1    2    0    0 -0.17763568394E-14  0.00000000000E+00  0.88817841970E-15  0.91188000000E+02  0.91188000000E+02 0.  0.
    9900012    2    3    3    0    0 -0.99339890318E+01 -0.35002775384E+02  0.56481689662E+01  0.54367078836E+02  0.39999987823E+02 0.  0.
        -12    1    3    3    0    0  0.99339890318E+01  0.35002775384E+02 -0.56481689662E+01  0.36820921164E+02  0.00000000000E+00 0.  1.
         11    1    4    4    0    0 -0.13251895568E+02 -0.17548674676E+02  0.53792871940E+01  0.22638583215E+02  0.51100000000E-03 0. -1.
        -11    1    4    4    0    0 -0.15801813229E+01 -0.12806246656E+02  0.12367460699E+02  0.17873192520E+02  0.51100000000E-03 0.  1.
        -12    1    4    4    0    0  0.48980878591E+01 -0.46478540520E+01 -0.12098578927E+02  0.13855303101E+02  0.00000000000E+00 0.  1.
</event>
<event>
 8    1  0.3137106E-007  0.9118800E+02  0.7816164E-02  0.1184000E+00
        -11   -1    0    0    0    0  0.00000000000E+00  0.00000000000E+00  0.45593999997E+02  0.45594000000E+02  0.51100000000E-03 0. -1.
         11   -1    0    0    0    0 -0.00000000000E+00 -0.00000000000E+00 -0.45593999997E+02  0.45594000000E+02  0.51100000000E-03 0.  1.
         23    2    1    2    0    0  0.35527136788E-14  0.00000000000E+00  0.44408920985E-15  0.91188000000E+02  0.91188000000E+02 0.  0.
    9900012    2    3    3    0    0  0.31327740270E+02  0.19098711289E+02 -0.30969052735E+01  0.54367096893E+02  0.40000028987E+02 0.  0.
         12    1    3    3    0    0 -0.31327740270E+02 -0.19098711289E+02  0.30969052735E+01  0.36820903107E+02  0.00000000000E+00 0. -1.
         11    1    4    4    0    0  0.82254210445E+01  0.98899428345E+01 -0.44844339883E+01  0.13622726199E+02  0.51100000000E-03 0.  1.
        -11    1    4    4    0    0  0.18400386159E+02 -0.95520583278E+01  0.43339621791E+01  0.21180161887E+02  0.51100000000E-03 0. -1.
         12    1    4    4    0    0  0.47019330661E+01  0.18760826782E+02 -0.29464334643E+01  0.19564208808E+02  0.00000000000E+00 0. -1.
</event>
<event>
 8    1  0.3137106E-007  0.9118800E+02  0.7816164E-02  0.1184000E+00
        -11   -1    0    0    0    0  0.00000000000E+00  0.00000000000E+00  0.45593999997E+02  0.45594000000E+02  0.51100000000E-03 0.  1.
         11   -1    0    0    0    0 -0.00000000000E+00 -0.00000000000E+00 -0.45593999997E+02  0.45594000000E+02  0.51100000000E-03 0. -1.
         23    2    1    2    0    0  0.83266726847E-16  0.00000000000E+00  0.35527136788E-14  0.91188000000E+02  0.91188000000E+02 0.  0.
    9900012    2    3    3    0    0  0.24903701284E+00 -0.18830614088E+02 -0.31640547111E+02  0.54367105554E+02  0.40000048731E+02 0.  0.
        -12    1    3    3    0    0 -0.24903701284E+00  0.18830614088E+02  0.31640547111E+02  0.36820894446E+02  0.00000000000E+00 0.  1.
         11    1    4    4    0    0  0.10611868154E+01 -0.76631509403E+01 -0.18596208890E+02  0.20141226008E+02  0.51100000000E-03 0. -1.
        -11    1    4    4    0    0 -0.36823603532E+01 -0.20973154431E+02 -0.10255954713E+02  0.23635092382E+02  0.51100000000E-03 0.  1.
        -12    1    4    4    0    0  0.28702105506E+01  0.98056912835E+01 -0.27883835081E+01  0.10590787163E+02  0.00000000000E+00 0.  1.
</event>
<event>
 8    1  0.3137106E-007  0.9118800E+02  0.7816164E-02  0.1184000E+00
        -11   -1    0    0    0    0  0.00000000000E+00  0.00000000000E+00  0.45593999997E+02  0.45594000000E+02  0.51100000000E-03 0.  1.
         11   -1    0    0    0    0 -0.00000000000E+00 -0.00000000000E+00 -0.45593999997E+02  0.45594000000E+02  0.51100000000E-03 0. -1.
         23    2    1    2    0    0 -0.22204460493E-15  0.00000000000E+00 -0.35527136788E-14  0.91188000000E+02  0.91188000000E+02 0.  0.
    9900012    2    3    3    0    0  0.10541885006E+01 -0.25409352611E+02 -0.26627569421E+02  0.54367163959E+02  0.40000181876E+02 0.  0.
        -12    1    3    3    0    0 -0.10541885006E+01  0.25409352611E+02  0.26627569421E+02  0.36820836041E+02  0.00000000000E+00 0.  1.
         11    1    4    4    0    0 -0.53294984959E+01 -0.51354317777E+00  0.68247624651E+01  0.86743682063E+01  0.51100000000E-03 0. -1.
        -11    1    4    4    0    0  0.53096310323E+00  0.95577330312E+00  0.14816793756E+01  0.18414120824E+01  0.51100000000E-03 0.  1.
         12    1    4    4    0    0  0.58527238933E+01 -0.25851582736E+02 -0.34934011262E+02  0.43851383670E+02  0.00000000000E+00 0. -1.
</event>
<event>
 8    1  0.3137106E-007  0.9118800E+02  0.7816164E-02  0.1184000E+00
        -11   -1    0    0    0    0  0.00000000000E+00  0.00000000000E+00  0.45593999997E+02  0.45594000000E+02  0.51100000000E-03 0.  1.
         11   -1    0    0    0    0 -0.00000000000E+00 -0.00000000000E+00 -0.45593999997E+02  0.45594000000E+02  0.51100000000E-03 0. -1.
         23    2    1    2    0    0  0.00000000000E+00  0.35527136788E-14  0.00000000000E+00  0.91188000000E+02  0.91188000000E+02 0.  0.
    9900012    2    3    3    0    0  0.28187519011E+02  0.12850919188E+02  0.19902192896E+02  0.54367087002E+02  0.40000006439E+02 0.  0.
         12    1    3    3    0    0 -0.28187519011E+02 -0.12850919188E+02 -0.19902192896E+02  0.36820912998E+02  0.00000000000E+00 0. -1.
         11    1    4    4    0    0  0.31998538369E+02  0.17441201497E+02  0.10748356549E+02  0.37995119900E+02  0.51100000000E-03 0. -1.
        -11    1    4    4    0    0  0.60315246651E+00 -0.12855642580E+01 -0.28378096475E+01  0.31732683807E+01  0.51100000000E-03 0.  1.
         12    1    4    4    0    0 -0.44141718249E+01 -0.33047180515E+01  0.11991645994E+02  0.13198698722E+02  0.00000000000E+00 0. -1.
</event>
<event>
 8    1  0.3137106E-007  0.9118800E+02  0.7816164E-02  0.1184000E+00
        -11   -1    0    0    0    0  0.00000000000E+00  0.00000000000E+00  0.45593999997E+02  0.45594000000E+02  0.51100000000E-03 0. -1.
         11   -1    0    0    0    0 -0.00000000000E+00 -0.00000000000E+00 -0.45593999997E+02  0.45594000000E+02  0.51100000000E-03 0.  1.
         23    2    1    2    0    0 -0.35527136788E-14  0.00000000000E+00  0.00000000000E+00  0.91188000000E+02  0.91188000000E+02 0.  0.
    9900012    2    3    3    0    0  0.26319963268E+02 -0.16585237181E+02  0.19696959856E+02  0.54367071355E+02  0.39999970767E+02 0.  0.
        -12    1    3    3    0    0 -0.26319963268E+02  0.16585237181E+02 -0.19696959856E+02  0.36820928645E+02  0.00000000000E+00 0.  1.
         11    1    4    4    0    0 -0.16752780064E+01 -0.51502584164E+01 -0.54680227221E+00  0.54434098817E+01  0.51100000000E-03 0. -1.
        -11    1    4    4    0    0  0.13938897456E+02 -0.15095438150E+02 -0.37401187372E+01  0.20884290835E+02  0.51100000000E-03 0.  1.
        -12    1    4    4    0    0  0.14056343818E+02  0.36604593856E+01  0.23983880865E+02  0.28039370638E+02  0.00000000000E+00 0.  1.
</event>
<event>
 8    1  0.3137106E-007  0.9118800E+02  0.7816164E-02  0.1184000E+00
        -11   -1    0    0    0    0  0.00000000000E+00  0.00000000000E+00  0.45593999997E+02  0.45594000000E+02  0.51100000000E-03 0.  1.
         11   -1    0    0    0    0 -0.00000000000E+00 -0.00000000000E+00 -0.45593999997E+02  0.45594000000E+02  0.51100000000E-03 0. -1.
         23    2    1    2    0    0  0.00000000000E+00  0.35527136788E-14  0.00000000000E+00  0.91188000000E+02  0.91188000000E+02 0.  0.
    9900012    2    3    3    0    0  0.25900715172E+02 -0.22442898119E+02  0.13462934695E+02  0.54367063931E+02  0.39999953844E+02 0.  0.
         12    1    3    3    0    0 -0.25900715172E+02  0.22442898119E+02 -0.13462934695E+02  0.36820936069E+02  0.00000000000E+00 0. -1.
         11    1    4    4    0    0  0.72904364216E+01  0.83624249034E+01  0.10812689417E+01  0.11146737472E+02  0.51100000000E-03 0. -1.
        -11    1    4    4    0    0  0.16972241274E+01  0.29481671828E+01 -0.24600165753E+00  0.34106856426E+01  0.51100000000E-03 0.  1.
         12    1    4    4    0    0  0.16913054623E+02 -0.33753490205E+02  0.12627667411E+02  0.39809640817E+02  0.00000000000E+00 0. -1.
</event>
<event>
 8    1  0.3137106E-007  0.9118800E+02  0.7816164E-02  0.1184000E+00
        -11   -1    0    0    0    0  0.00000000000E+00  0.00000000000E+00  0.45593999997E+02  0.45594000000E+02  0.51100000000E-03 0. -1.
         11   -1    0    0    0    0 -0.00000000000E+00 -0.00000000000E+00 -0.45593999997E+02  0.45594000000E+02  0.51100000000E-03 0.  1.
         23    2    1    2    0    0  0.00000000000E+00 -0.88817841970E-15 -0.17763568394E-14  0.91188000000E+02  0.91188000000E+02 0.  0.
    9900012    2    3    3    0    0 -0.32685295841E+02  0.75910241624E+01  0.15160053811E+02  0.54367089588E+02  0.40000012333E+02 0.  0.
        -12    1    3    3    0    0  0.32685295841E+02 -0.75910241624E+01 -0.15160053811E+02  0.36820910412E+02  0.00000000000E+00 0.  1.
         11    1    4    4    0    0 -0.22540635953E+01 -0.98983779408E+01  0.10015814810E+02  0.14260968941E+02  0.51100000000E-03 0. -1.
        -11    1    4    4    0    0 -0.24770088978E+01  0.56169110494E+01  0.74433760572E+01  0.96482698038E+01  0.51100000000E-03 0.  1.
        -12    1    4    4    0    0 -0.27954223348E+02  0.11872491054E+02 -0.22991370562E+01  0.30457850843E+02  0.00000000000E+00 0.  1.
</event>
<event>
 8    1  0.3137106E-007  0.9118800E+02  0.7816164E-02  0.1184000E+00
        -11   -1    0    0    0    0  0.00000000000E+00  0.00000000000E+00  0.45593999997E+02  0.45594000000E+02  0.51100000000E-03 0. -1.
         11   -1    0    0    0    0 -0.00000000000E+00 -0.00000000000E+00 -0.45593999997E+02  0.45594000000E+02  0.51100000000E-03 0.  1.
         23    2    1    2    0    0  0.00000000000E+00 -0.35527136788E-14 -0.35527136788E-14  0.91188000000E+02  0.91188000000E+02 0.  0.
    9900012    2    3    3    0    0  0.21042329986E+02  0.18028947853E+02  0.24247803307E+02  0.54367101353E+02  0.40000039155E+02 0.  0.
        -12    1    3    3    0    0 -0.21042329986E+02 -0.18028947853E+02 -0.24247803307E+02  0.36820898647E+02  0.00000000000E+00 0.  1.
         11    1    4    4    0    0  0.75256347639E+01 -0.88961595001E+01  0.53778635693E+01  0.12833481573E+02  0.51100000000E-03 0. -1.
        -11    1    4    4    0    0  0.19069165689E+02  0.17036871373E+02  0.11735338890E+02  0.28135497959E+02  0.51100000000E-03 0.  1.
        -12    1    4    4    0    0 -0.55524704671E+01  0.98882359802E+01  0.71346008481E+01  0.13398121822E+02  0.00000000000E+00 0.  1.
</event>
<event>
 8    1  0.3137106E-007  0.9118800E+02  0.7816164E-02  0.1184000E+00
        -11   -1    0    0    0    0  0.00000000000E+00  0.00000000000E+00  0.45593999997E+02  0.45594000000E+02  0.51100000000E-03 0.  1.
         11   -1    0    0    0    0 -0.00000000000E+00 -0.00000000000E+00 -0.45593999997E+02  0.45594000000E+02  0.51100000000E-03 0. -1.
         23    2    1    2    0    0  0.88817841970E-15  0.00000000000E+00 -0.35527136788E-14  0.91188000000E+02  0.91188000000E+02 0.  0.
    9900012    2    3    3    0    0  0.61751097836E+01  0.31598729150E+02 -0.17865282648E+02  0.54367082184E+02  0.39999995454E+02 0.  0.
        -12    1    3    3    0    0 -0.61751097836E+01 -0.31598729150E+02  0.17865282648E+02  0.36820917816E+02  0.00000000000E+00 0.  1.
         11    1    4    4    0    0 -0.23957347677E+01  0.28243717485E+02  0.17348636331E+01  0.28398184353E+02  0.51100000000E-03 0. -1.
        -11    1    4    4    0    0  0.10774162923E+02  0.59893922555E+01 -0.10330013770E+02  0.16083052914E+02  0.51100000000E-03 0.  1.
        -12    1    4    4    0    0 -0.22033183716E+01 -0.26343805909E+01 -0.92701325112E+01  0.98858449168E+01  0.00000000000E+00 0.  1.
</event>
<event>
 8    1  0.3137106E-007  0.9118800E+02  0.7816164E-02  0.1184000E+00
        -11   -1    0    0    0    0  0.00000000000E+00  0.00000000000E+00  0.45593999997E+02  0.45594000000E+02  0.51100000000E-03 0. -1.
         11   -1    0    0    0    0 -0.00000000000E+00 -0.00000000000E+00 -0.45593999997E+02  0.45594000000E+02  0.51100000000E-03 0.  1.
         23    2    1    2    0    0  0.00000000000E+00  0.35527136788E-14  0.17763568394E-14  0.91188000000E+02  0.91188000000E+02 0.  0.
    9900012    2    3    3    0    0 -0.26756916787E+02 -0.20467438219E+02 -0.14863773677E+02  0.54367076721E+02  0.39999983001E+02 0.  0.
        -12    1    3    3    0    0  0.26756916787E+02  0.20467438219E+02  0.14863773677E+02  0.36820923279E+02  0.00000000000E+00 0.  1.
         11    1    4    4    0    0 -0.16398571636E+02 -0.11869290343E+02  0.47362051603E+01  0.20790017906E+02  0.51100000000E-03 0. -1.
        -11    1    4    4    0    0 -0.95619053940E+01 -0.16632063763E+02 -0.13508258703E+02  0.23463346590E+02  0.51100000000E-03 0.  1.
         12    1    4    4    0    0 -0.79643975698E+00  0.80339158870E+01 -0.60917201347E+01  0.10113712225E+02  0.00000000000E+00 0. -1.
</event>
<event>
 8    1  0.3137106E-007  0.9118800E+02  0.7816164E-02  0.1184000E+00
        -11   -1    0    0    0    0  0.00000000000E+00  0.00000000000E+00  0.45593999997E+02  0.45594000000E+02  0.51100000000E-03 0. -1.
         11   -1    0    0    0    0 -0.00000000000E+00 -0.00000000000E+00 -0.45593999997E+02  0.45594000000E+02  0.51100000000E-03 0.  1.
         23    2    1    2    0    0  0.00000000000E+00  0.00000000000E+00  0.00000000000E+00  0.91188000000E+02  0.91188000000E+02 0.  0.
    9900012    2    3    3    0    0  0.24245885762E+02  0.13642736971E+02 -0.24120391570E+02  0.54367074728E+02  0.39999978457E+02 0.  0.
         12    1    3    3    0    0 -0.24245885762E+02 -0.13642736971E+02  0.24120391570E+02  0.36820925272E+02  0.00000000000E+00 0. -1.
         11    1    4    4    0    0  0.86810193220E+01 -0.10909699337E+02 -0.11835800360E+02  0.18288461021E+02  0.51100000000E-03 0. -1.
        -11    1    4    4    0    0  0.87499076138E+01  0.85497004347E+01  0.33578354043E+01  0.12685949694E+02  0.51100000000E-03 0.  1.
        -12    1    4    4    0    0  0.68149588257E+01  0.16002735874E+02 -0.15642426614E+02  0.23392664013E+02  0.00000000000E+00 0.  1.
</event>
<event>
 8    1  0.3137106E-007  0.9118800E+02  0.7816164E-02  0.1184000E+00
        -11   -1    0    0    0    0  0.00000000000E+00  0.00000000000E+00  0.45593999997E+02  0.45594000000E+02  0.51100000000E-03 0. -1.
         11   -1    0    0    0    0 -0.00000000000E+00 -0.00000000000E+00 -0.45593999997E+02  0.45594000000E+02  0.51100000000E-03 0.  1.
         23    2    1    2    0    0  0.00000000000E+00  0.00000000000E+00  0.00000000000E+00  0.91188000000E+02  0.91188000000E+02 0.  0.
    9900012    2    3    3    0    0  0.13937290981E+02 -0.12487969108E+02  0.31710898201E+02  0.54367102170E+02  0.40000041016E+02 0.  0.
        -12    1    3    3    0    0 -0.13937290981E+02  0.12487969108E+02 -0.31710898201E+02  0.36820897830E+02  0.00000000000E+00 0.  1.
         11    1    4    4    0    0 -0.64293788020E+01 -0.70824027768E+01  0.12059679158E+02  0.15392634684E+02  0.51100000000E-03 0. -1.
        -11    1    4    4    0    0  0.79557446986E+01 -0.11946494300E+02 -0.56859242109E+00  0.14364396868E+02  0.51100000000E-03 0.  1.
        -12    1    4    4    0    0  0.12410925085E+02  0.65409279690E+01  0.20219811464E+02  0.24610070618E+02  0.00000000000E+00 0.  1.
</event>
<event>
 8    1  0.3137106E-007  0.9118800E+02  0.7816164E-02  0.1184000E+00
        -11   -1    0    0    0    0  0.00000000000E+00  0.00000000000E+00  0.45593999997E+02  0.45594000000E+02  0.51100000000E-03 0.  1.
         11   -1    0    0    0    0 -0.00000000000E+00 -0.00000000000E+00 -0.45593999997E+02  0.45594000000E+02  0.51100000000E-03 0. -1.
         23    2    1    2    0    0  0.15543122345E-14  0.35527136788E-14  0.71054273576E-14  0.91188000000E+02  0.91188000000E+02 0.  0.
    9900012    2    3    3    0    0 -0.18596638722E+01 -0.68623335773E+01 -0.36127963966E+02  0.54367085397E+02  0.40000002780E+02 0.  0.
        -12    1    3    3    0    0  0.18596638722E+01  0.68623335773E+01  0.36127963966E+02  0.36820914603E+02  0.00000000000E+00 0.  1.
         11    1    4    4    0    0  0.25056444415E+01 -0.55517834715E+01 -0.90248638619E+01  0.10888008163E+02  0.51100000000E-03 0. -1.
        -11    1    4    4    0    0 -0.92696016959E+01 -0.15942572042E+02 -0.12897392253E+02  0.22504085098E+02  0.51100000000E-03 0.  1.
        -12    1    4    4    0    0  0.49042933822E+01  0.14632021936E+02 -0.14205707851E+02  0.20974992135E+02  0.00000000000E+00 0.  1.
</event>
<event>
 8    1  0.3137106E-007  0.9118800E+02  0.7816164E-02  0.1184000E+00
        -11   -1    0    0    0    0  0.00000000000E+00  0.00000000000E+00  0.45593999997E+02  0.45594000000E+02  0.51100000000E-03 0.  1.
         11   -1    0    0    0    0 -0.00000000000E+00 -0.00000000000E+00 -0.45593999997E+02  0.45594000000E+02  0.51100000000E-03 0. -1.
         23    2    1    2    0    0  0.00000000000E+00 -0.88817841970E-15  0.00000000000E+00  0.91188000000E+02  0.91188000000E+02 0.  0.
    9900012    2    3    3    0    0  0.36245930021E+02  0.46599801481E+01 -0.45050848247E+01  0.54367100400E+02  0.40000036982E+02 0.  0.
        -12    1    3    3    0    0 -0.36245930021E+02 -0.46599801481E+01  0.45050848247E+01  0.36820899600E+02  0.00000000000E+00 0.  1.
         11    1    4    4    0    0  0.14191012601E+02  0.57953165184E+01  0.27217824923E+01  0.15568514136E+02  0.51100000000E-03 0. -1.
        -11    1    4    4    0    0  0.28201013294E+02 -0.43283682376E+01  0.34969886807E+00  0.28533387671E+02  0.51100000000E-03 0.  1.
        -12    1    4    4    0    0 -0.61460958742E+01  0.31930318673E+01 -0.75765661850E+01  0.10265198593E+02  0.00000000000E+00 0.  1.
</event>
<event>
 8    1  0.3137106E-007  0.9118800E+02  0.7816164E-02  0.1184000E+00
        -11   -1    0    0    0    0  0.00000000000E+00  0.00000000000E+00  0.45593999997E+02  0.45594000000E+02  0.51100000000E-03 0.  1.
         11   -1    0    0    0    0 -0.00000000000E+00 -0.00000000000E+00 -0.45593999997E+02  0.45594000000E+02  0.51100000000E-03 0. -1.
         23    2    1    2    0    0  0.00000000000E+00 -0.35527136788E-14  0.00000000000E+00  0.91188000000E+02  0.91188000000E+02 0.  0.
    9900012    2    3    3    0    0 -0.13053803002E+02 -0.23423713000E+02  0.25233044919E+02  0.54367100237E+02  0.40000036610E+02 0.  0.
         12    1    3    3    0    0  0.13053803002E+02  0.23423713000E+02 -0.25233044919E+02  0.36820899763E+02  0.00000000000E+00 0. -1.
         11    1    4    4    0    0  0.10860038344E+01 -0.26418979785E+02  0.11988064863E+02  0.29031975417E+02  0.51100000000E-03 0.  1.
        -11    1    4    4    0    0 -0.11219386626E+02  0.86857333651E+01  0.12474847567E+02  0.18892814042E+02  0.51100000000E-03 0. -1.
         12    1    4    4    0    0 -0.29204202105E+01 -0.56904665801E+01  0.77013248850E+00  0.64423107776E+01  0.00000000000E+00 0. -1.
</event>
<event>
 8    1  0.3137106E-007  0.9118800E+02  0.7816164E-02  0.1184000E+00
        -11   -1    0    0    0    0  0.00000000000E+00  0.00000000000E+00  0.45593999997E+02  0.45594000000E+02  0.51100000000E-03 0. -1.
         11   -1    0    0    0    0 -0.00000000000E+00 -0.00000000000E+00 -0.45593999997E+02  0.45594000000E+02  0.51100000000E-03 0.  1.
         23    2    1    2    0    0 -0.17763568394E-14 -0.17763568394E-14 -0.35527136788E-14  0.91188000000E+02  0.91188000000E+02 0.  0.
    9900012    2    3    3    0    0 -0.15628453979E+02 -0.13962096203E+02 -0.30275230764E+02  0.54367105090E+02  0.40000047674E+02 0.  0.
         12    1    3    3    0    0  0.15628453979E+02  0.13962096203E+02  0.30275230764E+02  0.36820894910E+02  0.00000000000E+00 0. -1.
         11    1    4    4    0    0  0.34366097028E+01 -0.82578876807E+01 -0.88765036862E+00  0.89883768632E+01  0.51100000000E-03 0.  1.
        -11    1    4    4    0    0 -0.93677193893E+01 -0.14369225393E+02 -0.27250474395E+02  0.32199645339E+02  0.51100000000E-03 0. -1.
         12    1    4    4    0    0 -0.96973442928E+01  0.86650168712E+01 -0.21371059999E+01  0.13179082888E+02  0.00000000000E+00 0. -1.
</event>
<event>
 8    1  0.3137106E-007  0.9118800E+02  0.7816164E-02  0.1184000E+00
        -11   -1    0    0    0    0  0.00000000000E+00  0.00000000000E+00  0.45593999997E+02  0.45594000000E+02  0.51100000000E-03 0.  1.
         11   -1    0    0    0    0 -0.00000000000E+00 -0.00000000000E+00 -0.45593999997E+02  0.45594000000E+02  0.51100000000E-03 0. -1.
         23    2    1    2    0    0  0.00000000000E+00 -0.44408920985E-15  0.00000000000E+00  0.91188000000E+02  0.91188000000E+02 0.  0.
    9900012    2    3    3    0    0  0.33801487024E+02  0.22742311083E+01 -0.14424560714E+02  0.54367073830E+02  0.39999976411E+02 0.  0.
         12    1    3    3    0    0 -0.33801487024E+02 -0.22742311083E+01  0.14424560714E+02  0.36820926170E+02  0.00000000000E+00 0. -1.
         11    1    4    4    0    0 -0.23822116670E+01  0.60256362967E+00 -0.35954425554E+01  0.43549078962E+01  0.51100000000E-03 0. -1.
        -11    1    4    4    0    0  0.21801277001E+01 -0.76804040006E+01  0.68891229330E+01  0.10545215856E+02  0.51100000000E-03 0.  1.
         12    1    4    4    0    0  0.34003570991E+02  0.93520714792E+01 -0.17718241092E+02  0.39466950078E+02  0.00000000000E+00 0. -1.
</event>
<event>
 8    1  0.3137106E-007  0.9118800E+02  0.7816164E-02  0.1184000E+00
        -11   -1    0    0    0    0  0.00000000000E+00  0.00000000000E+00  0.45593999997E+02  0.45594000000E+02  0.51100000000E-03 0. -1.
         11   -1    0    0    0    0 -0.00000000000E+00 -0.00000000000E+00 -0.45593999997E+02  0.45594000000E+02  0.51100000000E-03 0.  1.
         23    2    1    2    0    0  0.00000000000E+00  0.00000000000E+00  0.35527136788E-14  0.91188000000E+02  0.91188000000E+02 0.  0.
    9900012    2    3    3    0    0  0.17277840260E+02  0.27520197888E+02 -0.17317474420E+02  0.54367082356E+02  0.39999995847E+02 0.  0.
         12    1    3    3    0    0 -0.17277840260E+02 -0.27520197888E+02  0.17317474420E+02  0.36820917644E+02  0.00000000000E+00 0. -1.
         11    1    4    4    0    0  0.19856738008E+02  0.25779464676E+02 -0.20268731096E+02  0.38336566145E+02  0.51100000000E-03 0.  1.
        -11    1    4    4    0    0  0.28983391988E+01 -0.52475739338E+01 -0.13797899857E+01  0.61515220041E+01  0.51100000000E-03 0. -1.
         12    1    4    4    0    0 -0.54772369474E+01  0.69883071463E+01  0.43310466618E+01  0.98789942066E+01  0.00000000000E+00 0. -1.
</event>
<event>
 8    1  0.3137106E-007  0.9118800E+02  0.7816164E-02  0.1184000E+00
        -11   -1    0    0    0    0  0.00000000000E+00  0.00000000000E+00  0.45593999997E+02  0.45594000000E+02  0.51100000000E-03 0. -1.
         11   -1    0    0    0    0 -0.00000000000E+00 -0.00000000000E+00 -0.45593999997E+02  0.45594000000E+02  0.51100000000E-03 0.  1.
         23    2    1    2    0    0  0.00000000000E+00 -0.17763568394E-14  0.00000000000E+00  0.91188000000E+02  0.91188000000E+02 0.  0.
    9900012    2    3    3    0    0  0.25273428681E+02 -0.14699147717E+02 -0.22382356840E+02  0.54367067928E+02  0.39999962956E+02 0.  0.
         12    1    3    3    0    0 -0.25273428681E+02  0.14699147717E+02  0.22382356840E+02  0.36820932072E+02  0.00000000000E+00 0. -1.
         11    1    4    4    0    0 -0.49265487790E+01 -0.14088634335E+01 -0.12554818788E+02  0.13560208483E+02  0.51100000000E-03 0. -1.
        -11    1    4    4    0    0 -0.31683011880E+01 -0.27297890356E+01 -0.30020121693E+01  0.51480052372E+01  0.51100000000E-03 0.  1.
         12    1    4    4    0    0  0.33368278648E+02 -0.10560495248E+02 -0.68255258825E+01  0.35658854208E+02  0.00000000000E+00 0. -1.
</event>
<event>
 8    1  0.3137106E-007  0.9118800E+02  0.7816164E-02  0.1184000E+00
        -11   -1    0    0    0    0  0.00000000000E+00  0.00000000000E+00  0.45593999997E+02  0.45594000000E+02  0.51100000000E-03 0. -1.
         11   -1    0    0    0    0 -0.00000000000E+00 -0.00000000000E+00 -0.45593999997E+02  0.45594000000E+02  0.51100000000E-03 0.  1.
         23    2    1    2    0    0  0.00000000000E+00 -0.35527136788E-14  0.35527136788E-14  0.91188000000E+02  0.91188000000E+02 0.  0.
    9900012    2    3    3    0    0 -0.19095468607E+02  0.23786637627E+02 -0.20623710185E+02  0.54367102771E+02  0.40000042388E+02 0.  0.
         12    1    3    3    0    0  0.19095468607E+02 -0.23786637627E+02  0.20623710185E+02  0.36820897229E+02  0.00000000000E+00 0. -1.
         11    1    4    4    0    0 -0.30185370928E+02  0.23599196781E+02 -0.15519432330E+02  0.41339224556E+02  0.51100000000E-03 0. -1.
        -11    1    4    4    0    0  0.83210261653E+01  0.16784288003E+01 -0.50609162766E+01  0.98827867275E+01  0.51100000000E-03 0.  1.
         12    1    4    4    0    0  0.27688761551E+01 -0.14909879543E+01 -0.43361578637E-01  0.31450914881E+01  0.00000000000E+00 0. -1.
</event>
<event>
 8    1  0.3137106E-007  0.9118800E+02  0.7816164E-02  0.1184000E+00
        -11   -1    0    0    0    0  0.00000000000E+00  0.00000000000E+00  0.45593999997E+02  0.45594000000E+02  0.51100000000E-03 0.  1.
         11   -1    0    0    0    0 -0.00000000000E+00 -0.00000000000E+00 -0.45593999997E+02  0.45594000000E+02  0.51100000000E-03 0. -1.
         23    2    1    2    0    0  0.00000000000E+00 -0.35527136788E-14  0.35527136788E-14  0.91188000000E+02  0.91188000000E+02 0.  0.
    9900012    2    3    3    0    0  0.17983750550E+02  0.18445418450E+02 -0.26308266761E+02  0.54367168320E+02  0.40000191818E+02 0.  0.
        -12    1    3    3    0    0 -0.17983750550E+02 -0.18445418450E+02  0.26308266761E+02  0.36820831680E+02  0.00000000000E+00 0.  1.
         11    1    4    4    0    0 -0.38851261515E+01 -0.33214324422E+01  0.17753976214E+01  0.54109292785E+01  0.51100000000E-03 0.  1.
        -11    1    4    4    0    0 -0.46091755332E+01  0.67013800272E+01 -0.12029022366E+02  0.14520687749E+02  0.51100000000E-03 0. -1.
         12    1    4    4    0    0  0.26478052234E+02  0.15065470865E+02 -0.16054642017E+02  0.34435551292E+02  0.00000000000E+00 0. -1.
</event>
<event>
 8    1  0.3137106E-007  0.9118800E+02  0.7816164E-02  0.1184000E+00
        -11   -1    0    0    0    0  0.00000000000E+00  0.00000000000E+00  0.45593999997E+02  0.45594000000E+02  0.51100000000E-03 0.  1.
         11   -1    0    0    0    0 -0.00000000000E+00 -0.00000000000E+00 -0.45593999997E+02  0.45594000000E+02  0.51100000000E-03 0. -1.
         23    2    1    2    0    0  0.00000000000E+00  0.71054273576E-14  0.00000000000E+00  0.91188000000E+02  0.91188000000E+02 0.  0.
    9900012    2    3    3    0    0  0.18453693850E+02 -0.18315072787E+02 -0.26072960979E+02  0.54367082003E+02  0.39999995043E+02 0.  0.
         12    1    3    3    0    0 -0.18453693850E+02  0.18315072787E+02  0.26072960979E+02  0.36820917997E+02  0.00000000000E+00 0. -1.
         11    1    4    4    0    0 -0.57163488839E+01 -0.16364933589E+02 -0.21933843246E+02  0.27956773343E+02  0.51100000000E-03 0. -1.
        -11    1    4    4    0    0  0.82989336135E+00 -0.18744110605E+01  0.13225603822E+01  0.24395298811E+01  0.51100000000E-03 0.  1.
        -12    1    4    4    0    0  0.23340149372E+02 -0.75728137560E-01 -0.54616781153E+01  0.23970778780E+02  0.00000000000E+00 0.  1.
</event>
<event>
 8    1  0.3137106E-007  0.9118800E+02  0.7816164E-02  0.1184000E+00
        -11   -1    0    0    0    0  0.00000000000E+00  0.00000000000E+00  0.45593999997E+02  0.45594000000E+02  0.51100000000E-03 0.  1.
         11   -1    0    0    0    0 -0.00000000000E+00 -0.00000000000E+00 -0.45593999997E+02  0.45594000000E+02  0.51100000000E-03 0. -1.
         23    2    1    2    0    0  0.00000000000E+00 -0.17763568394E-14  0.71054273576E-14  0.91188000000E+02  0.91188000000E+02 0.  0.
    9900012    2    3    3    0    0 -0.43419105886E+01  0.10965288359E+02  0.34881098514E+02  0.54367071578E+02  0.39999971276E+02 0.  0.
         12    1    3    3    0    0  0.43419105886E+01 -0.10965288359E+02 -0.34881098514E+02  0.36820928422E+02  0.00000000000E+00 0. -1.
         11    1    4    4    0    0 -0.55578976710E+01  0.24144626032E+02  0.19275890970E+02  0.31391291240E+02  0.51100000000E-03 0. -1.
        -11    1    4    4    0    0  0.24886717212E+01 -0.31978276851E+01 -0.39841467571E+00  0.40716487268E+01  0.51100000000E-03 0.  1.
        -12    1    4    4    0    0 -0.12726846388E+01 -0.99815099883E+01  0.16003622220E+02  0.18904131612E+02  0.00000000000E+00 0.  1.
</event>
<event>
 8    1  0.3137106E-007  0.9118800E+02  0.7816164E-02  0.1184000E+00
        -11   -1    0    0    0    0  0.00000000000E+00  0.00000000000E+00  0.45593999997E+02  0.45594000000E+02  0.51100000000E-03 0.  1.
         11   -1    0    0    0    0 -0.00000000000E+00 -0.00000000000E+00 -0.45593999997E+02  0.45594000000E+02  0.51100000000E-03 0. -1.
         23    2    1    2    0    0  0.17763568394E-14  0.00000000000E+00  0.00000000000E+00  0.91188000000E+02  0.91188000000E+02 0.  0.
    9900012    2    3    3    0    0  0.96382118438E+01 -0.55280996994E+01  0.35104485076E+02  0.54367083576E+02  0.39999998629E+02 0.  0.
         12    1    3    3    0    0 -0.96382118438E+01  0.55280996994E+01 -0.35104485076E+02  0.36820916424E+02  0.00000000000E+00 0. -1.
         11    1    4    4    0    0  0.59321363908E+01  0.67651209274E+01  0.43779700535E+01  0.10006184356E+02  0.51100000000E-03 0. -1.
        -11    1    4    4    0    0  0.14924953399E+02 -0.10743201939E+01  0.20879013822E+02  0.25687382433E+02  0.51100000000E-03 0.  1.
         12    1    4    4    0    0 -0.11218877946E+02 -0.11218900433E+02  0.98475012006E+01  0.18673516787E+02  0.00000000000E+00 0. -1.
</event>
<event>
 8    1  0.3137106E-007  0.9118800E+02  0.7816164E-02  0.1184000E+00
        -11   -1    0    0    0    0  0.00000000000E+00  0.00000000000E+00  0.45593999997E+02  0.45594000000E+02  0.51100000000E-03 0. -1.
         11   -1    0    0    0    0 -0.00000000000E+00 -0.00000000000E+00 -0.45593999997E+02  0.45594000000E+02  0.51100000000E-03 0.  1.
         23    2    1    2    0    0  0.35527136788E-14  0.00000000000E+00 -0.17763568394E-14  0.91188000000E+02  0.91188000000E+02 0.  0.
    9900012    2    3    3    0    0 -0.31466667104E+02 -0.17328360569E+02 -0.80843393907E+01  0.54367085264E+02  0.40000002476E+02 0.  0.
         12    1    3    3    0    0  0.31466667104E+02  0.17328360569E+02  0.80843393907E+01  0.36820914736E+02  0.00000000000E+00 0. -1.
         11    1    4    4    0    0  0.60723396702E+01 -0.20823944678E+01 -0.98745205504E+00  0.64949778762E+01  0.51100000000E-03 0. -1.
        -11    1    4    4    0    0 -0.19048403448E+00  0.20149160028E+01 -0.64102013254E+01  0.67221166279E+01  0.51100000000E-03 0.  1.
        -12    1    4    4    0    0 -0.37348522740E+02 -0.17260882104E+02 -0.68668601033E+00  0.41149990760E+02  0.00000000000E+00 0.  1.
</event>
<event>
 8    1  0.3137106E-007  0.9118800E+02  0.7816164E-02  0.1184000E+00
        -11   -1    0    0    0    0  0.00000000000E+00  0.00000000000E+00  0.45593999997E+02  0.45594000000E+02  0.51100000000E-03 0.  1.
         11   -1    0    0    0    0 -0.00000000000E+00 -0.00000000000E+00 -0.45593999997E+02  0.45594000000E+02  0.51100000000E-03 0. -1.
         23    2    1    2    0    0 -0.35527136788E-14  0.17763568394E-14 -0.17763568394E-14  0.91188000000E+02  0.91188000000E+02 0.  0.
    9900012    2    3    3    0    0  0.31490603284E+02 -0.15111464961E+02  0.11651870880E+02  0.54367074381E+02  0.39999977665E+02 0.  0.
        -12    1    3    3    0    0 -0.31490603284E+02  0.15111464961E+02 -0.11651870880E+02  0.36820925619E+02  0.00000000000E+00 0.  1.
         11    1    4    4    0    0  0.14340895194E+02 -0.49647515042E+01  0.22741387394E+01  0.15345414290E+02  0.51100000000E-03 0. -1.
        -11    1    4    4    0    0  0.93561412009E+01  0.60989139346E+01  0.16266368889E+02  0.19731418764E+02  0.51100000000E-03 0.  1.
         12    1    4    4    0    0  0.77935668893E+01 -0.16245627391E+02 -0.68886367481E+01  0.19290241326E+02  0.00000000000E+00 0. -1.
</event>
<event>
 8    1  0.3137106E-007  0.9118800E+02  0.7816164E-02  0.1184000E+00
        -11   -1    0    0    0    0  0.00000000000E+00  0.00000000000E+00  0.45593999997E+02  0.45594000000E+02  0.51100000000E-03 0.  1.
         11   -1    0    0    0    0 -0.00000000000E+00 -0.00000000000E+00 -0.45593999997E+02  0.45594000000E+02  0.51100000000E-03 0. -1.
         23    2    1    2    0    0  0.00000000000E+00 -0.17763568394E-14  0.00000000000E+00  0.91188000000E+02  0.91188000000E+02 0.  0.
    9900012    2    3    3    0    0 -0.13777718491E+01  0.13151486174E+02 -0.34364513223E+02  0.54367087288E+02  0.40000007091E+02 0.  0.
        -12    1    3    3    0    0  0.13777718491E+01 -0.13151486174E+02  0.34364513223E+02  0.36820912712E+02  0.00000000000E+00 0.  1.
         11    1    4    4    0    0  0.55456719276E+01  0.83746101358E+01  0.18259611517E+01  0.10208952270E+02  0.51100000000E-03 0. -1.
        -11    1    4    4    0    0 -0.75294337528E+01 -0.76249597645E+01 -0.80586989138E+01  0.13408020454E+02  0.51100000000E-03 0.  1.
         12    1    4    4    0    0  0.60598997614E+00  0.12401835803E+02 -0.28131775461E+02  0.30750114565E+02  0.00000000000E+00 0. -1.
</event>
<event>
 8    1  0.3137106E-007  0.9118800E+02  0.7816164E-02  0.1184000E+00
        -11   -1    0    0    0    0  0.00000000000E+00  0.00000000000E+00  0.45593999997E+02  0.45594000000E+02  0.51100000000E-03 0.  1.
         11   -1    0    0    0    0 -0.00000000000E+00 -0.00000000000E+00 -0.45593999997E+02  0.45594000000E+02  0.51100000000E-03 0. -1.
         23    2    1    2    0    0  0.17763568394E-14  0.53290705182E-14 -0.71054273576E-14  0.91188000000E+02  0.91188000000E+02 0.  0.
    9900012    2    3    3    0    0  0.11473137434E+02  0.63476850172E+01 -0.34407162494E+02  0.54367098075E+02  0.40000031682E+02 0.  0.
        -12    1    3    3    0    0 -0.11473137434E+02 -0.63476850172E+01  0.34407162494E+02  0.36820901925E+02  0.00000000000E+00 0.  1.
         11    1    4    4    0    0 -0.24632784456E+01  0.10139509773E+02 -0.14533408526E+02  0.17891264986E+02  0.51100000000E-03 0. -1.
        -11    1    4    4    0    0 -0.39223692234E+01  0.75782619067E+01 -0.99091447328E+01  0.13076933259E+02  0.51100000000E-03 0.  1.
         12    1    4    4    0    0  0.17858785103E+02 -0.11370086663E+02 -0.99646092357E+01  0.23398899831E+02  0.00000000000E+00 0. -1.
</event>
<event>
 8    1  0.3137106E-007  0.9118800E+02  0.7816164E-02  0.1184000E+00
        -11   -1    0    0    0    0  0.00000000000E+00  0.00000000000E+00  0.45593999997E+02  0.45594000000E+02  0.51100000000E-03 0. -1.
         11   -1    0    0    0    0 -0.00000000000E+00 -0.00000000000E+00 -0.45593999997E+02  0.45594000000E+02  0.51100000000E-03 0.  1.
         23    2    1    2    0    0  0.53290705182E-14  0.71054273576E-14  0.66613381478E-15  0.91188000000E+02  0.91188000000E+02 0.  0.
    9900012    2    3    3    0    0 -0.12704512872E+02 -0.34513275505E+02  0.17915869859E+01  0.54367073649E+02  0.39999975998E+02 0.  0.
        -12    1    3    3    0    0  0.12704512872E+02  0.34513275505E+02 -0.17915869859E+01  0.36820926351E+02  0.00000000000E+00 0.  1.
         11    1    4    4    0    0 -0.13661677137E+02 -0.74568853514E+01  0.25316286128E+01  0.15768820660E+02  0.51100000000E-03 0. -1.
        -11    1    4    4    0    0 -0.46103684209E+01 -0.22749130334E+02  0.10388531889E+02  0.25430297344E+02  0.51100000000E-03 0.  1.
        -12    1    4    4    0    0  0.55675326857E+01 -0.43072598196E+01 -0.11128573516E+02  0.13167955644E+02  0.00000000000E+00 0.  1.
</event>
<event>
 8    1  0.3137106E-007  0.9118800E+02  0.7816164E-02  0.1184000E+00
        -11   -1    0    0    0    0  0.00000000000E+00  0.00000000000E+00  0.45593999997E+02  0.45594000000E+02  0.51100000000E-03 0. -1.
         11   -1    0    0    0    0 -0.00000000000E+00 -0.00000000000E+00 -0.45593999997E+02  0.45594000000E+02  0.51100000000E-03 0.  1.
         23    2    1    2    0    0  0.00000000000E+00  0.35527136788E-14 -0.35527136788E-14  0.91188000000E+02  0.91188000000E+02 0.  0.
    9900012    2    3    3    0    0 -0.87404303322E+01 -0.16143395536E+02  0.31918264965E+02  0.54367082301E+02  0.39999995722E+02 0.  0.
        -12    1    3    3    0    0  0.87404303322E+01  0.16143395536E+02 -0.31918264965E+02  0.36820917699E+02  0.00000000000E+00 0.  1.
         11    1    4    4    0    0 -0.19191980422E+02 -0.16887917597E+02  0.15050155705E+02  0.29665486011E+02  0.51100000000E-03 0. -1.
        -11    1    4    4    0    0  0.11837078716E+02 -0.25178278738E+01  0.17319409119E+02  0.21128601994E+02  0.51100000000E-03 0.  1.
        -12    1    4    4    0    0 -0.13855286264E+01  0.32623499349E+01 -0.45129985922E+00  0.35729942955E+01  0.00000000000E+00 0.  1.
</event>
<event>
 8    1  0.3137106E-007  0.9118800E+02  0.7816164E-02  0.1184000E+00
        -11   -1    0    0    0    0  0.00000000000E+00  0.00000000000E+00  0.45593999997E+02  0.45594000000E+02  0.51100000000E-03 0. -1.
         11   -1    0    0    0    0 -0.00000000000E+00 -0.00000000000E+00 -0.45593999997E+02  0.45594000000E+02  0.51100000000E-03 0.  1.
         23    2    1    2    0    0  0.88817841970E-15  0.00000000000E+00 -0.35527136788E-14  0.91188000000E+02  0.91188000000E+02 0.  0.
    9900012    2    3    3    0    0  0.70662376115E+01 -0.24480054618E+02  0.26581472817E+02  0.54367089023E+02  0.40000011046E+02 0.  0.
        -12    1    3    3    0    0 -0.70662376115E+01  0.24480054618E+02 -0.26581472817E+02  0.36820910977E+02  0.00000000000E+00 0.  1.
         11    1    4    4    0    0  0.26984610754E+01 -0.13788835836E+02  0.59486544232E+01  0.15257790653E+02  0.51100000000E-03 0. -1.
        -11    1    4    4    0    0  0.74982570460E+01  0.69007381055E+01  0.18491018513E+02  0.21113072042E+02  0.51100000000E-03 0.  1.
        -12    1    4    4    0    0 -0.31304805099E+01 -0.17591956887E+02  0.21417998799E+01  0.17996226329E+02  0.00000000000E+00 0.  1.
</event>
<event>
 8    1  0.3137106E-007  0.9118800E+02  0.7816164E-02  0.1184000E+00
        -11   -1    0    0    0    0  0.00000000000E+00  0.00000000000E+00  0.45593999997E+02  0.45594000000E+02  0.51100000000E-03 0. -1.
         11   -1    0    0    0    0 -0.00000000000E+00 -0.00000000000E+00 -0.45593999997E+02  0.45594000000E+02  0.51100000000E-03 0.  1.
         23    2    1    2    0    0  0.00000000000E+00 -0.35527136788E-14  0.26645352591E-14  0.91188000000E+02  0.91188000000E+02 0.  0.
    9900012    2    3    3    0    0 -0.25115928757E+02  0.26323103870E+02  0.56621785935E+01  0.54367137149E+02  0.40000120758E+02 0.  0.
        -12    1    3    3    0    0  0.25115928757E+02 -0.26323103870E+02 -0.56621785935E+01  0.36820862851E+02  0.00000000000E+00 0.  1.
         11    1    4    4    0    0 -0.15642637708E+01  0.18127578670E+02 -0.26760949432E+01  0.18390690960E+02  0.51100000000E-03 0. -1.
        -11    1    4    4    0    0 -0.10425372229E+02  0.34687831385E+01 -0.86571673713E+01  0.13988116018E+02  0.51100000000E-03 0.  1.
        -12    1    4    4    0    0 -0.13126292757E+02  0.47267420616E+01  0.16995440908E+02  0.21988330171E+02  0.00000000000E+00 0.  1.
</event>
<event>
 8    1  0.3137106E-007  0.9118800E+02  0.7816164E-02  0.1184000E+00
        -11   -1    0    0    0    0  0.00000000000E+00  0.00000000000E+00  0.45593999997E+02  0.45594000000E+02  0.51100000000E-03 0.  1.
         11   -1    0    0    0    0 -0.00000000000E+00 -0.00000000000E+00 -0.45593999997E+02  0.45594000000E+02  0.51100000000E-03 0. -1.
         23    2    1    2    0    0  0.00000000000E+00  0.35527136788E-14  0.00000000000E+00  0.91188000000E+02  0.91188000000E+02 0.  0.
    9900012    2    3    3    0    0 -0.21868520481E+02  0.18650392798E+02 -0.23015449969E+02  0.54367078274E+02  0.39999986541E+02 0.  0.
        -12    1    3    3    0    0  0.21868520481E+02 -0.18650392798E+02  0.23015449969E+02  0.36820921726E+02  0.00000000000E+00 0.  1.
         11    1    4    4    0    0 -0.25807108614E+01 -0.28261999913E+01  0.16844719774E+01  0.41814974644E+01  0.51100000000E-03 0. -1.
        -11    1    4    4    0    0  0.29451115865E+01  0.94797843964E+01  0.50655161601E+01  0.11144480638E+02  0.51100000000E-03 0.  1.
         12    1    4    4    0    0 -0.22232921206E+02  0.11996808392E+02 -0.29765438106E+02  0.39041100171E+02  0.00000000000E+00 0. -1.
</event>
<event>
 8    1  0.3137106E-007  0.9118800E+02  0.7816164E-02  0.1184000E+00
        -11   -1    0    0    0    0  0.00000000000E+00  0.00000000000E+00  0.45593999997E+02  0.45594000000E+02  0.51100000000E-03 0.  1.
         11   -1    0    0    0    0 -0.00000000000E+00 -0.00000000000E+00 -0.45593999997E+02  0.45594000000E+02  0.51100000000E-03 0. -1.
         23    2    1    2    0    0  0.00000000000E+00  0.35527136788E-14  0.00000000000E+00  0.91188000000E+02  0.91188000000E+02 0.  0.
    9900012    2    3    3    0    0  0.22233485348E+02  0.26648439501E+02  0.12300907696E+02  0.54367088432E+02  0.40000009698E+02 0.  0.
        -12    1    3    3    0    0 -0.22233485348E+02 -0.26648439501E+02 -0.12300907696E+02  0.36820911568E+02  0.00000000000E+00 0.  1.
         11    1    4    4    0    0 -0.42350969129E+00  0.38854318825E+01 -0.43929777224E+01  0.58799825597E+01  0.51100000000E-03 0. -1.
        -11    1    4    4    0    0  0.25398886724E+02  0.12838425833E+02  0.22844253062E+02  0.36493677848E+02  0.51100000000E-03 0.  1.
         12    1    4    4    0    0 -0.27418916842E+01  0.99245817853E+01 -0.61503676433E+01  0.11993428024E+02  0.00000000000E+00 0. -1.
</event>
<event>
 8    1  0.3137106E-007  0.9118800E+02  0.7816164E-02  0.1184000E+00
        -11   -1    0    0    0    0  0.00000000000E+00  0.00000000000E+00  0.45593999997E+02  0.45594000000E+02  0.51100000000E-03 0. -1.
         11   -1    0    0    0    0 -0.00000000000E+00 -0.00000000000E+00 -0.45593999997E+02  0.45594000000E+02  0.51100000000E-03 0.  1.
         23    2    1    2    0    0  0.00000000000E+00  0.00000000000E+00 -0.35527136788E-14  0.91188000000E+02  0.91188000000E+02 0.  0.
    9900012    2    3    3    0    0  0.25490029867E+02  0.92437434419E+01  0.24911691755E+02  0.54367071148E+02  0.39999970295E+02 0.  0.
         12    1    3    3    0    0 -0.25490029867E+02 -0.92437434419E+01 -0.24911691755E+02  0.36820928852E+02  0.00000000000E+00 0. -1.
         11    1    4    4    0    0 -0.30387070878E+01 -0.37346419896E+01 -0.20639081800E+01  0.52384166303E+01  0.51100000000E-03 0. -1.
        -11    1    4    4    0    0  0.42663834153E+01  0.10502377317E+01 -0.53917900677E+01  0.69553164655E+01  0.51100000000E-03 0.  1.
        -12    1    4    4    0    0  0.24262353540E+02  0.11928147700E+02  0.32367390003E+02  0.42173338052E+02  0.00000000000E+00 0.  1.
</event>
<event>
 8    1  0.3137106E-007  0.9118800E+02  0.7816164E-02  0.1184000E+00
        -11   -1    0    0    0    0  0.00000000000E+00  0.00000000000E+00  0.45593999997E+02  0.45594000000E+02  0.51100000000E-03 0.  1.
         11   -1    0    0    0    0 -0.00000000000E+00 -0.00000000000E+00 -0.45593999997E+02  0.45594000000E+02  0.51100000000E-03 0. -1.
         23    2    1    2    0    0  0.35527136788E-14  0.00000000000E+00  0.00000000000E+00  0.91188000000E+02  0.91188000000E+02 0.  0.
    9900012    2    3    3    0    0  0.31003935695E+02  0.14738516771E+02  0.13315868296E+02  0.54367078588E+02  0.39999987256E+02 0.  0.
         12    1    3    3    0    0 -0.31003935695E+02 -0.14738516771E+02 -0.13315868296E+02  0.36820921412E+02  0.00000000000E+00 0. -1.
         11    1    4    4    0    0  0.22723142775E+02  0.34892571472E+01  0.10675209617E+02  0.25347114898E+02  0.51100000000E-03 0.  1.
        -11    1    4    4    0    0  0.14839489504E+01 -0.80697410335E+01 -0.83474974864E+00  0.82474015447E+01  0.51100000000E-03 0. -1.
        -12    1    4    4    0    0  0.67968439690E+01  0.19319000657E+02  0.34754084281E+01  0.20772562145E+02  0.00000000000E+00 0.  1.
</event>
<event>
 8    1  0.3137106E-007  0.9118800E+02  0.7816164E-02  0.1184000E+00
        -11   -1    0    0    0    0  0.00000000000E+00  0.00000000000E+00  0.45593999997E+02  0.45594000000E+02  0.51100000000E-03 0. -1.
         11   -1    0    0    0    0 -0.00000000000E+00 -0.00000000000E+00 -0.45593999997E+02  0.45594000000E+02  0.51100000000E-03 0.  1.
         23    2    1    2    0    0  0.17763568394E-14 -0.17763568394E-14  0.00000000000E+00  0.91188000000E+02  0.91188000000E+02 0.  0.
    9900012    2    3    3    0    0  0.12939087622E+02 -0.11026513076E+02  0.32661514251E+02  0.54367102506E+02  0.40000041783E+02 0.  0.
        -12    1    3    3    0    0 -0.12939087622E+02  0.11026513076E+02 -0.32661514251E+02  0.36820897494E+02  0.00000000000E+00 0.  1.
         11    1    4    4    0    0  0.13826826151E+02 -0.87130841513E+01  0.85364639822E+01  0.18438280138E+02  0.51100000000E-03 0. -1.
        -11    1    4    4    0    0 -0.63392939827E+01 -0.76588463476E+01 -0.68980708320E+00  0.99659625550E+01  0.51100000000E-03 0.  1.
         12    1    4    4    0    0  0.54515554529E+01  0.53454174233E+01  0.24814857352E+02  0.25962859813E+02  0.00000000000E+00 0. -1.
</event>
<event>
 8    1  0.3137106E-007  0.9118800E+02  0.7816164E-02  0.1184000E+00
        -11   -1    0    0    0    0  0.00000000000E+00  0.00000000000E+00  0.45593999997E+02  0.45594000000E+02  0.51100000000E-03 0.  1.
         11   -1    0    0    0    0 -0.00000000000E+00 -0.00000000000E+00 -0.45593999997E+02  0.45594000000E+02  0.51100000000E-03 0. -1.
         23    2    1    2    0    0  0.17763568394E-14  0.71054273576E-14  0.00000000000E+00  0.91188000000E+02  0.91188000000E+02 0.  0.
    9900012    2    3    3    0    0 -0.13742055975E+02 -0.33746714919E+02 -0.53001640386E+01  0.54367128078E+02  0.40000100079E+02 0.  0.
         12    1    3    3    0    0  0.13742055975E+02  0.33746714919E+02  0.53001640386E+01  0.36820871922E+02  0.00000000000E+00 0. -1.
         11    1    4    4    0    0 -0.17852528144E+02 -0.84573433650E+00 -0.43715767261E+01  0.18399421487E+02  0.51100000000E-03 0. -1.
        -11    1    4    4    0    0  0.17122452935E+01 -0.28414644726E+02  0.41645207428E+01  0.28769203189E+02  0.51100000000E-03 0.  1.
         12    1    4    4    0    0  0.23982268754E+01 -0.44863358568E+01 -0.50931080553E+01  0.71985034020E+01  0.00000000000E+00 0. -1.
</event>
<event>
 8    1  0.3137106E-007  0.9118800E+02  0.7816164E-02  0.1184000E+00
        -11   -1    0    0    0    0  0.00000000000E+00  0.00000000000E+00  0.45593999997E+02  0.45594000000E+02  0.51100000000E-03 0.  1.
         11   -1    0    0    0    0 -0.00000000000E+00 -0.00000000000E+00 -0.45593999997E+02  0.45594000000E+02  0.51100000000E-03 0. -1.
         23    2    1    2    0    0  0.00000000000E+00  0.00000000000E+00 -0.44408920985E-15  0.91188000000E+02  0.91188000000E+02 0.  0.
    9900012    2    3    3    0    0 -0.13119755072E+02  0.34334772350E+02  0.21851264967E+01  0.54367090950E+02  0.40000015439E+02 0.  0.
         12    1    3    3    0    0  0.13119755072E+02 -0.34334772350E+02 -0.21851264967E+01  0.36820909050E+02  0.00000000000E+00 0. -1.
         11    1    4    4    0    0 -0.46174065618E+01  0.27092277700E+02 -0.96182787787E+01  0.29117404438E+02  0.51100000000E-03 0. -1.
        -11    1    4    4    0    0 -0.21593573618E+01  0.11910086887E+02  0.12429568032E+02  0.17349557792E+02  0.51100000000E-03 0.  1.
        -12    1    4    4    0    0 -0.63429911484E+01 -0.46675922366E+01 -0.62616275610E+00  0.79001287200E+01  0.00000000000E+00 0.  1.
</event>
<event>
 8    1  0.3137106E-007  0.9118800E+02  0.7816164E-02  0.1184000E+00
        -11   -1    0    0    0    0  0.00000000000E+00  0.00000000000E+00  0.45593999997E+02  0.45594000000E+02  0.51100000000E-03 0.  1.
         11   -1    0    0    0    0 -0.00000000000E+00 -0.00000000000E+00 -0.45593999997E+02  0.45594000000E+02  0.51100000000E-03 0. -1.
         23    2    1    2    0    0  0.17763568394E-14 -0.35527136788E-14  0.35527136788E-14  0.91188000000E+02  0.91188000000E+02 0.  0.
    9900012    2    3    3    0    0 -0.14161522712E+02  0.29474278595E+02 -0.16926309922E+02  0.54367057701E+02  0.39999939640E+02 0.  0.
         12    1    3    3    0    0  0.14161522712E+02 -0.29474278595E+02  0.16926309922E+02  0.36820942299E+02  0.00000000000E+00 0. -1.
         11    1    4    4    0    0 -0.97927575919E+01  0.11485102704E+01 -0.13365957548E+00  0.98607830439E+01  0.51100000000E-03 0. -1.
        -11    1    4    4    0    0  0.73789747730E+01  0.97563821535E+01  0.53138531536E+01  0.13336914824E+02  0.51100000000E-03 0.  1.
         12    1    4    4    0    0 -0.11747739893E+02  0.18569386171E+02 -0.22106503501E+02  0.31169359833E+02  0.00000000000E+00 0. -1.
</event>
<event>
 8    1  0.3137106E-007  0.9118800E+02  0.7816164E-02  0.1184000E+00
        -11   -1    0    0    0    0  0.00000000000E+00  0.00000000000E+00  0.45593999997E+02  0.45594000000E+02  0.51100000000E-03 0. -1.
         11   -1    0    0    0    0 -0.00000000000E+00 -0.00000000000E+00 -0.45593999997E+02  0.45594000000E+02  0.51100000000E-03 0.  1.
         23    2    1    2    0    0  0.00000000000E+00  0.44408920985E-15  0.00000000000E+00  0.91188000000E+02  0.91188000000E+02 0.  0.
    9900012    2    3    3    0    0 -0.11949702167E+02  0.88562187697E+00  0.34816682875E+02  0.54367066899E+02  0.39999960610E+02 0.  0.
        -12    1    3    3    0    0  0.11949702167E+02 -0.88562187697E+00 -0.34816682875E+02  0.36820933101E+02  0.00000000000E+00 0.  1.
         11    1    4    4    0    0 -0.34826666799E+01 -0.99790118964E+01  0.26456182941E+01  0.10895363328E+02  0.51100000000E-03 0. -1.
        -11    1    4    4    0    0 -0.13405904443E+02  0.10405843695E+02  0.79363634838E+01  0.18734612955E+02  0.51100000000E-03 0.  1.
        -12    1    4    4    0    0  0.49388689564E+01  0.45879007798E+00  0.24234701097E+02  0.24737090617E+02  0.00000000000E+00 0.  1.
</event>
<event>
 8    1  0.3137106E-007  0.9118800E+02  0.7816164E-02  0.1184000E+00
        -11   -1    0    0    0    0  0.00000000000E+00  0.00000000000E+00  0.45593999997E+02  0.45594000000E+02  0.51100000000E-03 0.  1.
         11   -1    0    0    0    0 -0.00000000000E+00 -0.00000000000E+00 -0.45593999997E+02  0.45594000000E+02  0.51100000000E-03 0. -1.
         23    2    1    2    0    0 -0.35527136788E-14  0.00000000000E+00  0.35527136788E-14  0.91188000000E+02  0.91188000000E+02 0.  0.
    9900012    2    3    3    0    0 -0.26567340043E+02  0.10664574133E+02  0.23156482319E+02  0.54367090563E+02  0.40000014557E+02 0.  0.
         12    1    3    3    0    0  0.26567340043E+02 -0.10664574133E+02 -0.23156482319E+02  0.36820909437E+02  0.00000000000E+00 0. -1.
         11    1    4    4    0    0 -0.10942270612E+02 -0.52689221374E+01 -0.87208504256E+01  0.14951523636E+02  0.51100000000E-03 0. -1.
        -11    1    4    4    0    0 -0.13673225033E+01  0.46974046525E+01  0.86299986369E+01  0.99202851789E+01  0.51100000000E-03 0.  1.
        -12    1    4    4    0    0 -0.14257746927E+02  0.11236091618E+02  0.23247334107E+02  0.29495281748E+02  0.00000000000E+00 0.  1.
</event>
<event>
 8    1  0.3137106E-007  0.9118800E+02  0.7816164E-02  0.1184000E+00
        -11   -1    0    0    0    0  0.00000000000E+00  0.00000000000E+00  0.45593999997E+02  0.45594000000E+02  0.51100000000E-03 0. -1.
         11   -1    0    0    0    0 -0.00000000000E+00 -0.00000000000E+00 -0.45593999997E+02  0.45594000000E+02  0.51100000000E-03 0.  1.
         23    2    1    2    0    0 -0.17763568394E-14  0.00000000000E+00 -0.11102230246E-15  0.91188000000E+02  0.91188000000E+02 0.  0.
    9900012    2    3    3    0    0  0.15045259788E+02 -0.33606825865E+02 -0.78594467979E-01  0.54367017342E+02  0.39999847634E+02 0.  0.
         12    1    3    3    0    0 -0.15045259788E+02  0.33606825865E+02  0.78594467979E-01  0.36820982658E+02  0.00000000000E+00 0. -1.
         11    1    4    4    0    0  0.13295451773E+02 -0.14163960182E+02  0.71127053440E+01  0.20687614252E+02  0.51100000000E-03 0.  1.
        -11    1    4    4    0    0 -0.38906441351E+00 -0.25361811357E+02 -0.18628195140E+01  0.25433107227E+02  0.51100000000E-03 0. -1.
         12    1    4    4    0    0  0.21388724284E+01  0.59189456742E+01 -0.53284802979E+01  0.82462958621E+01  0.00000000000E+00 0. -1.
</event>
<event>
 8    1  0.3137106E-007  0.9118800E+02  0.7816164E-02  0.1184000E+00
        -11   -1    0    0    0    0  0.00000000000E+00  0.00000000000E+00  0.45593999997E+02  0.45594000000E+02  0.51100000000E-03 0. -1.
         11   -1    0    0    0    0 -0.00000000000E+00 -0.00000000000E+00 -0.45593999997E+02  0.45594000000E+02  0.51100000000E-03 0.  1.
         23    2    1    2    0    0 -0.35527136788E-14  0.00000000000E+00  0.17763568394E-14  0.91188000000E+02  0.91188000000E+02 0.  0.
    9900012    2    3    3    0    0  0.25386021944E+02  0.21361993324E+02 -0.15968509448E+02  0.54367106979E+02  0.40000051979E+02 0.  0.
         12    1    3    3    0    0 -0.25386021944E+02 -0.21361993324E+02  0.15968509448E+02  0.36820893021E+02  0.00000000000E+00 0. -1.
         11    1    4    4    0    0  0.43973487106E+01 -0.52284250248E+01 -0.18983433674E+02  0.20175327958E+02  0.51100000000E-03 0. -1.
        -11    1    4    4    0    0  0.16491948043E+02  0.22115652109E+02  0.35970351686E+01  0.27821306237E+02  0.51100000000E-03 0.  1.
         12    1    4    4    0    0  0.44967251901E+01  0.44747662392E+01 -0.58211094279E+00  0.63704727831E+01  0.00000000000E+00 0. -1.
</event>
<event>
 8    1  0.3137106E-007  0.9118800E+02  0.7816164E-02  0.1184000E+00
        -11   -1    0    0    0    0  0.00000000000E+00  0.00000000000E+00  0.45593999997E+02  0.45594000000E+02  0.51100000000E-03 0. -1.
         11   -1    0    0    0    0 -0.00000000000E+00 -0.00000000000E+00 -0.45593999997E+02  0.45594000000E+02  0.51100000000E-03 0.  1.
         23    2    1    2    0    0  0.00000000000E+00  0.00000000000E+00  0.35527136788E-14  0.91188000000E+02  0.91188000000E+02 0.  0.
    9900012    2    3    3    0    0  0.98213490178E+01  0.30047043714E+02 -0.18881094904E+02  0.54367089131E+02  0.40000011291E+02 0.  0.
         12    1    3    3    0    0 -0.98213490178E+01 -0.30047043714E+02  0.18881094904E+02  0.36820910869E+02  0.00000000000E+00 0. -1.
         11    1    4    4    0    0 -0.12845685487E+02  0.15064218764E+02 -0.11531726963E+02  0.22911199218E+02  0.51100000000E-03 0. -1.
        -11    1    4    4    0    0  0.13186639406E+02  0.88721911989E+01 -0.11304207990E+02  0.19503547217E+02  0.51100000000E-03 0.  1.
         12    1    4    4    0    0  0.94803950995E+01  0.61106337516E+01  0.39548400499E+01  0.11952342695E+02  0.00000000000E+00 0. -1.
</event>
<event>
 8    1  0.3137106E-007  0.9118800E+02  0.7816164E-02  0.1184000E+00
        -11   -1    0    0    0    0  0.00000000000E+00  0.00000000000E+00  0.45593999997E+02  0.45594000000E+02  0.51100000000E-03 0.  1.
         11   -1    0    0    0    0 -0.00000000000E+00 -0.00000000000E+00 -0.45593999997E+02  0.45594000000E+02  0.51100000000E-03 0. -1.
         23    2    1    2    0    0 -0.71054273576E-14 -0.35527136788E-14 -0.16653345369E-15  0.91188000000E+02  0.91188000000E+02 0.  0.
    9900012    2    3    3    0    0  0.30229170292E+02  0.21018627052E+02 -0.44001786661E+00  0.54367095130E+02  0.40000024968E+02 0.  0.
        -12    1    3    3    0    0 -0.30229170292E+02 -0.21018627052E+02  0.44001786661E+00  0.36820904870E+02  0.00000000000E+00 0.  1.
         11    1    4    4    0    0 -0.11373891210E+01  0.77981055172E+01 -0.76448343209E+01  0.10979416912E+02  0.51100000000E-03 0. -1.
        -11    1    4    4    0    0  0.14438435487E+02  0.10887791775E+02  0.16020814706E+02  0.24159448114E+02  0.51100000000E-03 0.  1.
         12    1    4    4    0    0  0.16928123926E+02  0.23327297603E+01 -0.88159982517E+01  0.19228230105E+02  0.00000000000E+00 0. -1.
</event>
<event>
 8    1  0.3137106E-007  0.9118800E+02  0.7816164E-02  0.1184000E+00
        -11   -1    0    0    0    0  0.00000000000E+00  0.00000000000E+00  0.45593999997E+02  0.45594000000E+02  0.51100000000E-03 0.  1.
         11   -1    0    0    0    0 -0.00000000000E+00 -0.00000000000E+00 -0.45593999997E+02  0.45594000000E+02  0.51100000000E-03 0. -1.
         23    2    1    2    0    0  0.35527136788E-14 -0.13322676296E-14  0.00000000000E+00  0.91188000000E+02  0.91188000000E+02 0.  0.
    9900012    2    3    3    0    0 -0.26913927589E+02  0.31598609888E+01 -0.24928594866E+02  0.54367094774E+02  0.40000024155E+02 0.  0.
        -12    1    3    3    0    0  0.26913927589E+02 -0.31598609888E+01  0.24928594866E+02  0.36820905226E+02  0.00000000000E+00 0.  1.
         11    1    4    4    0    0 -0.19253114624E+02  0.74884050759E+01 -0.88755495969E+01  0.22484083575E+02  0.51100000000E-03 0. -1.
        -11    1    4    4    0    0 -0.30975324905E+00  0.15147619952E+01  0.69064280261E+01  0.70773723456E+01  0.51100000000E-03 0.  1.
         12    1    4    4    0    0 -0.73510597158E+01 -0.58433060822E+01 -0.22959473295E+02  0.24805638853E+02  0.00000000000E+00 0. -1.
</event>
<event>
 8    1  0.3137106E-007  0.9118800E+02  0.7816164E-02  0.1184000E+00
        -11   -1    0    0    0    0  0.00000000000E+00  0.00000000000E+00  0.45593999997E+02  0.45594000000E+02  0.51100000000E-03 0. -1.
         11   -1    0    0    0    0 -0.00000000000E+00 -0.00000000000E+00 -0.45593999997E+02  0.45594000000E+02  0.51100000000E-03 0.  1.
         23    2    1    2    0    0  0.00000000000E+00  0.35527136788E-14  0.00000000000E+00  0.91188000000E+02  0.91188000000E+02 0.  0.
    9900012    2    3    3    0    0  0.27777993609E+02  0.21704567242E+02 -0.10633476595E+02  0.54367136450E+02  0.40000119164E+02 0.  0.
         12    1    3    3    0    0 -0.27777993609E+02 -0.21704567242E+02  0.10633476595E+02  0.36820863550E+02  0.00000000000E+00 0. -1.
         11    1    4    4    0    0  0.10194187398E+02  0.18168958457E+02 -0.11333472547E+02  0.23716663095E+02  0.51100000000E-03 0.  1.
        -11    1    4    4    0    0  0.70984836374E+01 -0.10619909396E+02  0.22346543768E+01  0.12967830427E+02  0.51100000000E-03 0. -1.
         12    1    4    4    0    0  0.10485322573E+02  0.14155518181E+02 -0.15346584253E+01  0.17682642928E+02  0.00000000000E+00 0. -1.
</event>
<event>
 8    1  0.3137106E-007  0.9118800E+02  0.7816164E-02  0.1184000E+00
        -11   -1    0    0    0    0  0.00000000000E+00  0.00000000000E+00  0.45593999997E+02  0.45594000000E+02  0.51100000000E-03 0.  1.
         11   -1    0    0    0    0 -0.00000000000E+00 -0.00000000000E+00 -0.45593999997E+02  0.45594000000E+02  0.51100000000E-03 0. -1.
         23    2    1    2    0    0  0.00000000000E+00  0.00000000000E+00  0.00000000000E+00  0.91188000000E+02  0.91188000000E+02 0.  0.
    9900012    2    3    3    0    0  0.15609657954E+02 -0.95014498190E+01  0.31966224628E+02  0.54367102576E+02  0.40000041943E+02 0.  0.
         12    1    3    3    0    0 -0.15609657954E+02  0.95014498190E+01 -0.31966224628E+02  0.36820897424E+02  0.00000000000E+00 0. -1.
         11    1    4    4    0    0  0.11587283100E+01 -0.10379454751E+02  0.10812108500E+02  0.15032545450E+02  0.51100000000E-03 0. -1.
        -11    1    4    4    0    0  0.11170720726E+02 -0.60635842294E+01  0.26895525697E+02  0.29747627772E+02  0.51100000000E-03 0.  1.
        -12    1    4    4    0    0  0.32802089172E+01  0.69415891613E+01 -0.57414095685E+01  0.95869293550E+01  0.00000000000E+00 0.  1.
</event>
<event>
 8    1  0.3137106E-007  0.9118800E+02  0.7816164E-02  0.1184000E+00
        -11   -1    0    0    0    0  0.00000000000E+00  0.00000000000E+00  0.45593999997E+02  0.45594000000E+02  0.51100000000E-03 0.  1.
         11   -1    0    0    0    0 -0.00000000000E+00 -0.00000000000E+00 -0.45593999997E+02  0.45594000000E+02  0.51100000000E-03 0. -1.
         23    2    1    2    0    0 -0.71054273576E-14  0.88817841970E-15 -0.17763568394E-14  0.91188000000E+02  0.91188000000E+02 0.  0.
    9900012    2    3    3    0    0 -0.34879727042E+02  0.40235225364E+01 -0.11090255760E+02  0.54367111024E+02  0.40000061202E+02 0.  0.
        -12    1    3    3    0    0  0.34879727042E+02 -0.40235225364E+01  0.11090255760E+02  0.36820888976E+02  0.00000000000E+00 0.  1.
         11    1    4    4    0    0 -0.13268628654E+02 -0.25101862009E+01  0.27696553475E+01  0.13785083682E+02  0.51100000000E-03 0. -1.
        -11    1    4    4    0    0 -0.16985617871E+02  0.17394517720E+02 -0.29188829899E+01  0.24486738030E+02  0.51100000000E-03 0.  1.
         12    1    4    4    0    0 -0.46254805169E+01 -0.10860808983E+02 -0.10941028117E+02  0.16095289312E+02  0.00000000000E+00 0. -1.
</event>
<event>
 8    1  0.3137106E-007  0.9118800E+02  0.7816164E-02  0.1184000E+00
        -11   -1    0    0    0    0  0.00000000000E+00  0.00000000000E+00  0.45593999997E+02  0.45594000000E+02  0.51100000000E-03 0.  1.
         11   -1    0    0    0    0 -0.00000000000E+00 -0.00000000000E+00 -0.45593999997E+02  0.45594000000E+02  0.51100000000E-03 0. -1.
         23    2    1    2    0    0  0.00000000000E+00  0.35527136788E-14  0.00000000000E+00  0.91188000000E+02  0.91188000000E+02 0.  0.
    9900012    2    3    3    0    0  0.18824398685E+02 -0.13198305090E+02  0.28761540875E+02  0.54367089139E+02  0.40000011310E+02 0.  0.
         12    1    3    3    0    0 -0.18824398685E+02  0.13198305090E+02 -0.28761540875E+02  0.36820910861E+02  0.00000000000E+00 0. -1.
         11    1    4    4    0    0 -0.41082924664E+01 -0.94938653881E+01 -0.34454614029E+01  0.10903336716E+02  0.51100000000E-03 0. -1.
        -11    1    4    4    0    0  0.96426115198E+01 -0.93647885152E+01  0.91674956478E+01  0.16270285725E+02  0.51100000000E-03 0.  1.
         12    1    4    4    0    0  0.13290079632E+02  0.56603488131E+01  0.23039506630E+02  0.27193466698E+02  0.00000000000E+00 0. -1.
</event>
<event>
 8    1  0.3137106E-007  0.9118800E+02  0.7816164E-02  0.1184000E+00
        -11   -1    0    0    0    0  0.00000000000E+00  0.00000000000E+00  0.45593999997E+02  0.45594000000E+02  0.51100000000E-03 0.  1.
         11   -1    0    0    0    0 -0.00000000000E+00 -0.00000000000E+00 -0.45593999997E+02  0.45594000000E+02  0.51100000000E-03 0. -1.
         23    2    1    2    0    0  0.88817841970E-15  0.00000000000E+00  0.00000000000E+00  0.91188000000E+02  0.91188000000E+02 0.  0.
    9900012    2    3    3    0    0  0.60833882137E+01 -0.11341040891E+02 -0.34498589293E+02  0.54367089041E+02  0.40000011088E+02 0.  0.
        -12    1    3    3    0    0 -0.60833882137E+01  0.11341040891E+02  0.34498589293E+02  0.36820910959E+02  0.00000000000E+00 0.  1.
         11    1    4    4    0    0  0.95481940766E+01 -0.11624404382E+02 -0.36250788651E+01  0.15473719152E+02  0.51100000000E-03 0. -1.
        -11    1    4    4    0    0  0.96894565291E+01  0.22796922058E+01 -0.97819467545E+01  0.13955968148E+02  0.51100000000E-03 0.  1.
        -12    1    4    4    0    0 -0.13154262392E+02 -0.19963287143E+01 -0.21091563673E+02  0.24937401741E+02  0.00000000000E+00 0.  1.
</event>
<event>
 8    1  0.3137106E-007  0.9118800E+02  0.7816164E-02  0.1184000E+00
        -11   -1    0    0    0    0  0.00000000000E+00  0.00000000000E+00  0.45593999997E+02  0.45594000000E+02  0.51100000000E-03 0.  1.
         11   -1    0    0    0    0 -0.00000000000E+00 -0.00000000000E+00 -0.45593999997E+02  0.45594000000E+02  0.51100000000E-03 0. -1.
         23    2    1    2    0    0  0.88817841970E-15  0.00000000000E+00  0.00000000000E+00  0.91188000000E+02  0.91188000000E+02 0.  0.
    9900012    2    3    3    0    0  0.74581118395E+01 -0.28305696854E+02 -0.22336993354E+02  0.54367120343E+02  0.40000082446E+02 0.  0.
        -12    1    3    3    0    0 -0.74581118395E+01  0.28305696854E+02  0.22336993354E+02  0.36820879657E+02  0.00000000000E+00 0.  1.
         11    1    4    4    0    0  0.10973975965E+02 -0.41346191423E+01  0.39962685389E+01  0.12389244789E+02  0.51100000000E-03 0. -1.
        -11    1    4    4    0    0 -0.73877418105E+01 -0.23541856647E+02 -0.12618675814E+02  0.27713331143E+02  0.51100000000E-03 0.  1.
         12    1    4    4    0    0  0.38718776848E+01 -0.62922106488E+00 -0.13714586079E+02  0.14264544412E+02  0.00000000000E+00 0. -1.
</event>
<event>
 8    1  0.3137106E-007  0.9118800E+02  0.7816164E-02  0.1184000E+00
        -11   -1    0    0    0    0  0.00000000000E+00  0.00000000000E+00  0.45593999997E+02  0.45594000000E+02  0.51100000000E-03 0.  1.
         11   -1    0    0    0    0 -0.00000000000E+00 -0.00000000000E+00 -0.45593999997E+02  0.45594000000E+02  0.51100000000E-03 0. -1.
         23    2    1    2    0    0  0.88817841970E-15  0.35527136788E-14  0.00000000000E+00  0.91188000000E+02  0.91188000000E+02 0.  0.
    9900012    2    3    3    0    0 -0.43287998604E+01 -0.20253610312E+02  0.30443940736E+02  0.54367071624E+02  0.39999971382E+02 0.  0.
         12    1    3    3    0    0  0.43287998604E+01  0.20253610312E+02 -0.30443940736E+02  0.36820928376E+02  0.00000000000E+00 0. -1.
         11    1    4    4    0    0  0.73952603190E+01 -0.10056765903E+02 -0.19696610070E+01  0.12637562279E+02  0.51100000000E-03 0. -1.
        -11    1    4    4    0    0 -0.13124101503E+02 -0.12089768870E+02  0.12763382424E+02  0.21938743873E+02  0.51100000000E-03 0.  1.
        -12    1    4    4    0    0  0.14000413234E+01  0.18929244598E+01  0.19650219318E+02  0.19790765472E+02  0.00000000000E+00 0.  1.
</event>
<event>
 8    1  0.3137106E-007  0.9118800E+02  0.7816164E-02  0.1184000E+00
        -11   -1    0    0    0    0  0.00000000000E+00  0.00000000000E+00  0.45593999997E+02  0.45594000000E+02  0.51100000000E-03 0.  1.
         11   -1    0    0    0    0 -0.00000000000E+00 -0.00000000000E+00 -0.45593999997E+02  0.45594000000E+02  0.51100000000E-03 0. -1.
         23    2    1    2    0    0  0.35527136788E-14  0.00000000000E+00  0.17763568394E-14  0.91188000000E+02  0.91188000000E+02 0.  0.
    9900012    2    3    3    0    0  0.30148452811E+02 -0.16545758028E+02  0.13156327464E+02  0.54367078393E+02  0.39999986812E+02 0.  0.
        -12    1    3    3    0    0 -0.30148452811E+02  0.16545758028E+02 -0.13156327464E+02  0.36820921607E+02  0.00000000000E+00 0.  1.
         11    1    4    4    0    0  0.26371954599E+01 -0.13525345671E+02 -0.67889998945E+01  0.15361650147E+02  0.51100000000E-03 0. -1.
        -11    1    4    4    0    0  0.11097148970E+02  0.78300887400E+01  0.57783797488E+01  0.14759629999E+02  0.51100000000E-03 0.  1.
         12    1    4    4    0    0  0.16414108382E+02 -0.10850501097E+02  0.14166947610E+02  0.24245798247E+02  0.00000000000E+00 0. -1.
</event>
<event>
 8    1  0.3137106E-007  0.9118800E+02  0.7816164E-02  0.1184000E+00
        -11   -1    0    0    0    0  0.00000000000E+00  0.00000000000E+00  0.45593999997E+02  0.45594000000E+02  0.51100000000E-03 0.  1.
         11   -1    0    0    0    0 -0.00000000000E+00 -0.00000000000E+00 -0.45593999997E+02  0.45594000000E+02  0.51100000000E-03 0. -1.
         23    2    1    2    0    0 -0.17763568394E-14 -0.53290705182E-14  0.00000000000E+00  0.91188000000E+02  0.91188000000E+02 0.  0.
    9900012    2    3    3    0    0  0.87547004360E+01  0.13560731663E+02 -0.33094441167E+02  0.54367078514E+02  0.39999987089E+02 0.  0.
        -12    1    3    3    0    0 -0.87547004360E+01 -0.13560731663E+02  0.33094441167E+02  0.36820921486E+02  0.00000000000E+00 0.  1.
         11    1    4    4    0    0  0.70852532976E+01 -0.46786097436E+01  0.15946537134E+01  0.86390464839E+01  0.51100000000E-03 0.  1.
        -11    1    4    4    0    0  0.81739182260E+01  0.21122262246E+02 -0.27270752225E+02  0.35449355830E+02  0.51100000000E-03 0. -1.
         12    1    4    4    0    0 -0.65044710876E+01 -0.28829208394E+01 -0.74183426545E+01  0.10278676201E+02  0.00000000000E+00 0. -1.
</event>
<event>
 8    1  0.3137106E-007  0.9118800E+02  0.7816164E-02  0.1184000E+00
        -11   -1    0    0    0    0  0.00000000000E+00  0.00000000000E+00  0.45593999997E+02  0.45594000000E+02  0.51100000000E-03 0.  1.
         11   -1    0    0    0    0 -0.00000000000E+00 -0.00000000000E+00 -0.45593999997E+02  0.45594000000E+02  0.51100000000E-03 0. -1.
         23    2    1    2    0    0 -0.35527136788E-14 -0.17763568394E-14  0.35527136788E-14  0.91188000000E+02  0.91188000000E+02 0.  0.
    9900012    2    3    3    0    0 -0.29091377892E+02 -0.13124383263E+02  0.18363601600E+02  0.54367087906E+02  0.40000008499E+02 0.  0.
         12    1    3    3    0    0  0.29091377892E+02  0.13124383263E+02 -0.18363601600E+02  0.36820912094E+02  0.00000000000E+00 0. -1.
         11    1    4    4    0    0 -0.11421820301E+01  0.59973778783E+01  0.54271516613E+01  0.81686655348E+01  0.51100000000E-03 0. -1.
        -11    1    4    4    0    0 -0.20305015748E+00 -0.86631356552E+01  0.14070582644E+02  0.16524903781E+02  0.51100000000E-03 0.  1.
         12    1    4    4    0    0 -0.27746145705E+02 -0.10458625486E+02 -0.11341327056E+01  0.29673518590E+02  0.00000000000E+00 0. -1.
</event>
<event>
 8    1  0.3137106E-007  0.9118800E+02  0.7816164E-02  0.1184000E+00
        -11   -1    0    0    0    0  0.00000000000E+00  0.00000000000E+00  0.45593999997E+02  0.45594000000E+02  0.51100000000E-03 0.  1.
         11   -1    0    0    0    0 -0.00000000000E+00 -0.00000000000E+00 -0.45593999997E+02  0.45594000000E+02  0.51100000000E-03 0. -1.
         23    2    1    2    0    0  0.00000000000E+00  0.00000000000E+00  0.00000000000E+00  0.91188000000E+02  0.91188000000E+02 0.  0.
    9900012    2    3    3    0    0  0.12004758011E+02 -0.24530561392E+02 -0.24696501883E+02  0.54367083901E+02  0.39999999370E+02 0.  0.
        -12    1    3    3    0    0 -0.12004758011E+02  0.24530561392E+02  0.24696501883E+02  0.36820916099E+02  0.00000000000E+00 0.  1.
         11    1    4    4    0    0 -0.27167093493E+01 -0.66005542723E+01 -0.21041181447E+02  0.22218891586E+02  0.51100000000E-03 0. -1.
        -11    1    4    4    0    0  0.79145465376E+01  0.56224983729E+00 -0.87330082670E+01  0.11799220543E+02  0.51100000000E-03 0.  1.
        -12    1    4    4    0    0  0.68069208229E+01 -0.18492256957E+02  0.50776878310E+01  0.20348971772E+02  0.00000000000E+00 0.  1.
</event>
<event>
 8    1  0.3137106E-007  0.9118800E+02  0.7816164E-02  0.1184000E+00
        -11   -1    0    0    0    0  0.00000000000E+00  0.00000000000E+00  0.45593999997E+02  0.45594000000E+02  0.51100000000E-03 0. -1.
         11   -1    0    0    0    0 -0.00000000000E+00 -0.00000000000E+00 -0.45593999997E+02  0.45594000000E+02  0.51100000000E-03 0.  1.
         23    2    1    2    0    0  0.00000000000E+00  0.00000000000E+00 -0.35527136788E-14  0.91188000000E+02  0.91188000000E+02 0.  0.
    9900012    2    3    3    0    0  0.10676682054E+02  0.21208870494E+02  0.28141984391E+02  0.54367095438E+02  0.40000025670E+02 0.  0.
        -12    1    3    3    0    0 -0.10676682054E+02 -0.21208870494E+02 -0.28141984391E+02  0.36820904562E+02  0.00000000000E+00 0.  1.
         11    1    4    4    0    0  0.40930746216E+01  0.24123961036E+02  0.83022567759E+01  0.25838851053E+02  0.51100000000E-03 0. -1.
        -11    1    4    4    0    0  0.10426608982E+01 -0.34357695174E+00 -0.38811648045E+01  0.40334386535E+01  0.51100000000E-03 0.  1.
         12    1    4    4    0    0  0.55409465344E+01 -0.25715135904E+01  0.23720892420E+02  0.24494805732E+02  0.00000000000E+00 0. -1.
</event>
<event>
 8    1  0.3137106E-007  0.9118800E+02  0.7816164E-02  0.1184000E+00
        -11   -1    0    0    0    0  0.00000000000E+00  0.00000000000E+00  0.45593999997E+02  0.45594000000E+02  0.51100000000E-03 0. -1.
         11   -1    0    0    0    0 -0.00000000000E+00 -0.00000000000E+00 -0.45593999997E+02  0.45594000000E+02  0.51100000000E-03 0.  1.
         23    2    1    2    0    0  0.71054273576E-14 -0.17763568394E-14 -0.77715611724E-15  0.91188000000E+02  0.91188000000E+02 0.  0.
    9900012    2    3    3    0    0 -0.34983719896E+02  0.11471781640E+02 -0.56348319235E+00  0.54367082778E+02  0.39999996809E+02 0.  0.
        -12    1    3    3    0    0  0.34983719896E+02 -0.11471781640E+02  0.56348319235E+00  0.36820917222E+02  0.00000000000E+00 0.  1.
         11    1    4    4    0    0 -0.16171113500E+00  0.25724838144E+01  0.11714718146E+02  0.11994934137E+02  0.51100000000E-03 0. -1.
        -11    1    4    4    0    0 -0.31815762103E+02  0.11645942210E+02 -0.52993580099E+01  0.34292184003E+02  0.51100000000E-03 0.  1.
        -12    1    4    4    0    0 -0.30062466581E+01 -0.27466443843E+01 -0.69788433282E+01  0.80799646375E+01  0.00000000000E+00 0.  1.
</event>
<event>
 8    1  0.3137106E-007  0.9118800E+02  0.7816164E-02  0.1184000E+00
        -11   -1    0    0    0    0  0.00000000000E+00  0.00000000000E+00  0.45593999997E+02  0.45594000000E+02  0.51100000000E-03 0.  1.
         11   -1    0    0    0    0 -0.00000000000E+00 -0.00000000000E+00 -0.45593999997E+02  0.45594000000E+02  0.51100000000E-03 0. -1.
         23    2    1    2    0    0 -0.71054273576E-14 -0.35527136788E-14  0.35527136788E-14  0.91188000000E+02  0.91188000000E+02 0.  0.
    9900012    2    3    3    0    0 -0.24734224668E+02 -0.11595240522E+02  0.24689065888E+02  0.54367062382E+02  0.39999950311E+02 0.  0.
         12    1    3    3    0    0  0.24734224668E+02  0.11595240522E+02 -0.24689065888E+02  0.36820937618E+02  0.00000000000E+00 0. -1.
         11    1    4    4    0    0 -0.24143333018E+01 -0.67442135453E+01 -0.93163909175E+01  0.11751959906E+02  0.51100000000E-03 0. -1.
        -11    1    4    4    0    0 -0.23428181514E+02 -0.48156180917E+01  0.33917707789E+02  0.41502780251E+02  0.51100000000E-03 0.  1.
         12    1    4    4    0    0  0.11082901482E+01 -0.35408885238E-01  0.87749016726E-01  0.11123222247E+01  0.00000000000E+00 0. -1.
</event>
<event>
 8    1  0.3137106E-007  0.9118800E+02  0.7816164E-02  0.1184000E+00
        -11   -1    0    0    0    0  0.00000000000E+00  0.00000000000E+00  0.45593999997E+02  0.45594000000E+02  0.51100000000E-03 0.  1.
         11   -1    0    0    0    0 -0.00000000000E+00 -0.00000000000E+00 -0.45593999997E+02  0.45594000000E+02  0.51100000000E-03 0. -1.
         23    2    1    2    0    0  0.00000000000E+00  0.00000000000E+00  0.00000000000E+00  0.91188000000E+02  0.91188000000E+02 0.  0.
    9900012    2    3    3    0    0 -0.56912139529E+00  0.34905055525E+02 -0.11708674357E+02  0.54367083993E+02  0.39999999580E+02 0.  0.
         12    1    3    3    0    0  0.56912139529E+00 -0.34905055525E+02  0.11708674357E+02  0.36820916007E+02  0.00000000000E+00 0. -1.
         11    1    4    4    0    0  0.57785945432E+01  0.55552871299E+01  0.10685976029E+02  0.13358272865E+02  0.51100000000E-03 0.  1.
        -11    1    4    4    0    0 -0.64021559816E+01  0.28452854393E+02 -0.13619240809E+02  0.32187516909E+02  0.51100000000E-03 0. -1.
        -12    1    4    4    0    0  0.54440043053E-01  0.89691400195E+00 -0.87754095773E+01  0.88212942188E+01  0.00000000000E+00 0.  1.
</event>
<event>
 8    1  0.3137106E-007  0.9118800E+02  0.7816164E-02  0.1184000E+00
        -11   -1    0    0    0    0  0.00000000000E+00  0.00000000000E+00  0.45593999997E+02  0.45594000000E+02  0.51100000000E-03 0.  1.
         11   -1    0    0    0    0 -0.00000000000E+00 -0.00000000000E+00 -0.45593999997E+02  0.45594000000E+02  0.51100000000E-03 0. -1.
         23    2    1    2    0    0  0.17763568394E-14  0.00000000000E+00  0.00000000000E+00  0.91188000000E+02  0.91188000000E+02 0.  0.
    9900012    2    3    3    0    0 -0.80416383892E+01 -0.36428025322E+01 -0.35746922495E+02  0.54367076246E+02  0.39999981918E+02 0.  0.
        -12    1    3    3    0    0  0.80416383892E+01  0.36428025322E+01  0.35746922495E+02  0.36820923754E+02  0.00000000000E+00 0.  1.
         11    1    4    4    0    0 -0.14935645170E+02  0.40099636189E+01 -0.16175632568E+02  0.22378659346E+02  0.51100000000E-03 0. -1.
        -11    1    4    4    0    0 -0.48593940070E+01  0.50192020123E+01 -0.18339858713E+01  0.72228528569E+01  0.51100000000E-03 0.  1.
        -12    1    4    4    0    0  0.11753400788E+02 -0.12671968163E+02 -0.17737304056E+02  0.24765564043E+02  0.00000000000E+00 0.  1.
</event>
<event>
 8    1  0.3137106E-007  0.9118800E+02  0.7816164E-02  0.1184000E+00
        -11   -1    0    0    0    0  0.00000000000E+00  0.00000000000E+00  0.45593999997E+02  0.45594000000E+02  0.51100000000E-03 0.  1.
         11   -1    0    0    0    0 -0.00000000000E+00 -0.00000000000E+00 -0.45593999997E+02  0.45594000000E+02  0.51100000000E-03 0. -1.
         23    2    1    2    0    0  0.00000000000E+00 -0.26645352591E-14  0.71054273576E-14  0.91188000000E+02  0.91188000000E+02 0.  0.
    9900012    2    3    3    0    0 -0.15604716366E+02 -0.22726922379E+01  0.33273216530E+02  0.54367092337E+02  0.40000018602E+02 0.  0.
         12    1    3    3    0    0  0.15604716366E+02  0.22726922379E+01 -0.33273216530E+02  0.36820907663E+02  0.00000000000E+00 0. -1.
         11    1    4    4    0    0  0.33102747854E+01 -0.83852706614E+00 -0.53361061593E+01  0.63352250157E+01  0.51100000000E-03 0. -1.
        -11    1    4    4    0    0 -0.32228212917E+01 -0.90070791271E+01  0.21866592121E+02  0.23867591054E+02  0.51100000000E-03 0.  1.
         12    1    4    4    0    0 -0.15692169860E+02  0.75729139554E+01  0.16742730568E+02  0.24164276268E+02  0.00000000000E+00 0. -1.
</event>
<event>
 8    1  0.3137106E-007  0.9118800E+02  0.7816164E-02  0.1184000E+00
        -11   -1    0    0    0    0  0.00000000000E+00  0.00000000000E+00  0.45593999997E+02  0.45594000000E+02  0.51100000000E-03 0. -1.
         11   -1    0    0    0    0 -0.00000000000E+00 -0.00000000000E+00 -0.45593999997E+02  0.45594000000E+02  0.51100000000E-03 0.  1.
         23    2    1    2    0    0 -0.35527136788E-14  0.00000000000E+00  0.00000000000E+00  0.91188000000E+02  0.91188000000E+02 0.  0.
    9900012    2    3    3    0    0 -0.14545119026E+02  0.21935974076E+02  0.25749401758E+02  0.54367093750E+02  0.40000021823E+02 0.  0.
        -12    1    3    3    0    0  0.14545119026E+02 -0.21935974076E+02 -0.25749401758E+02  0.36820906250E+02  0.00000000000E+00 0.  1.
         11    1    4    4    0    0  0.45694530702E+01 -0.48004454444E+00  0.14421240837E+02  0.15135472628E+02  0.51100000000E-03 0. -1.
        -11    1    4    4    0    0 -0.13121468317E+01 -0.47018033727E+01  0.31085019107E-01  0.48815623322E+01  0.51100000000E-03 0.  1.
        -12    1    4    4    0    0 -0.17802425264E+02  0.27117821993E+02  0.11297075902E+02  0.34350058790E+02  0.00000000000E+00 0.  1.
</event>
<event>
 8    1  0.3137106E-007  0.9118800E+02  0.7816164E-02  0.1184000E+00
        -11   -1    0    0    0    0  0.00000000000E+00  0.00000000000E+00  0.45593999997E+02  0.45594000000E+02  0.51100000000E-03 0. -1.
         11   -1    0    0    0    0 -0.00000000000E+00 -0.00000000000E+00 -0.45593999997E+02  0.45594000000E+02  0.51100000000E-03 0.  1.
         23    2    1    2    0    0  0.00000000000E+00  0.88817841970E-15  0.00000000000E+00  0.91188000000E+02  0.91188000000E+02 0.  0.
    9900012    2    3    3    0    0 -0.30035016478E+02  0.58860359718E+01  0.20470265604E+02  0.54367090068E+02  0.40000013428E+02 0.  0.
        -12    1    3    3    0    0  0.30035016478E+02 -0.58860359718E+01 -0.20470265604E+02  0.36820909932E+02  0.00000000000E+00 0.  1.
         11    1    4    4    0    0 -0.24059780389E+02 -0.11314681710E+01  0.28493404102E+01  0.24254319071E+02  0.51100000000E-03 0. -1.
        -11    1    4    4    0    0 -0.42824112067E+01  0.13235854815E+02  0.31383455491E+01  0.14260999666E+02  0.51100000000E-03 0.  1.
        -12    1    4    4    0    0 -0.16928248829E+01 -0.62183506718E+01  0.14482579645E+02  0.15851771331E+02  0.00000000000E+00 0.  1.
</event>
<event>
 8    1  0.3137106E-007  0.9118800E+02  0.7816164E-02  0.1184000E+00
        -11   -1    0    0    0    0  0.00000000000E+00  0.00000000000E+00  0.45593999997E+02  0.45594000000E+02  0.51100000000E-03 0. -1.
         11   -1    0    0    0    0 -0.00000000000E+00 -0.00000000000E+00 -0.45593999997E+02  0.45594000000E+02  0.51100000000E-03 0.  1.
         23    2    1    2    0    0  0.00000000000E+00  0.35527136788E-14 -0.17763568394E-14  0.91188000000E+02  0.91188000000E+02 0.  0.
    9900012    2    3    3    0    0  0.26779289031E+02  0.22296992398E+02 -0.11895098933E+02  0.54367087876E+02  0.40000008432E+02 0.  0.
         12    1    3    3    0    0 -0.26779289031E+02 -0.22296992398E+02  0.11895098933E+02  0.36820912124E+02  0.00000000000E+00 0. -1.
         11    1    4    4    0    0  0.15367510350E+01 -0.40706524682E+01 -0.23916884328E+01  0.49650769462E+01  0.51100000000E-03 0. -1.
        -11    1    4    4    0    0  0.18399936803E+02 -0.80879398080E+00 -0.10794045165E+02  0.21347675128E+02  0.51100000000E-03 0.  1.
         12    1    4    4    0    0  0.68426011923E+01  0.27176438847E+02  0.12906346645E+01  0.28054335803E+02  0.00000000000E+00 0. -1.
</event>
<event>
 8    1  0.3137106E-007  0.9118800E+02  0.7816164E-02  0.1184000E+00
        -11   -1    0    0    0    0  0.00000000000E+00  0.00000000000E+00  0.45593999997E+02  0.45594000000E+02  0.51100000000E-03 0.  1.
         11   -1    0    0    0    0 -0.00000000000E+00 -0.00000000000E+00 -0.45593999997E+02  0.45594000000E+02  0.51100000000E-03 0. -1.
         23    2    1    2    0    0  0.35527136788E-14  0.00000000000E+00  0.00000000000E+00  0.91188000000E+02  0.91188000000E+02 0.  0.
    9900012    2    3    3    0    0 -0.17489374933E+02  0.26318344604E+02  0.18900959316E+02  0.54367085273E+02  0.40000002497E+02 0.  0.
        -12    1    3    3    0    0  0.17489374933E+02 -0.26318344604E+02 -0.18900959316E+02  0.36820914727E+02  0.00000000000E+00 0.  1.
         11    1    4    4    0    0 -0.48075981865E+01  0.21059742391E+02  0.21912174737E+01  0.21712373988E+02  0.51100000000E-03 0. -1.
        -11    1    4    4    0    0 -0.14277551764E+02  0.60992835593E+01 -0.32063556263E+00  0.15529087279E+02  0.51100000000E-03 0.  1.
         12    1    4    4    0    0  0.15957750168E+01 -0.84068134614E+00  0.17030377405E+02  0.17125624006E+02  0.00000000000E+00 0. -1.
</event>
<event>
 8    1  0.3137106E-007  0.9118800E+02  0.7816164E-02  0.1184000E+00
        -11   -1    0    0    0    0  0.00000000000E+00  0.00000000000E+00  0.45593999997E+02  0.45594000000E+02  0.51100000000E-03 0.  1.
         11   -1    0    0    0    0 -0.00000000000E+00 -0.00000000000E+00 -0.45593999997E+02  0.45594000000E+02  0.51100000000E-03 0. -1.
         23    2    1    2    0    0  0.00000000000E+00  0.00000000000E+00  0.00000000000E+00  0.91188000000E+02  0.91188000000E+02 0.  0.
    9900012    2    3    3    0    0  0.24504471243E+02 -0.17821963805E+02 -0.20920961491E+02  0.54367107364E+02  0.40000052859E+02 0.  0.
        -12    1    3    3    0    0 -0.24504471243E+02  0.17821963805E+02  0.20920961491E+02  0.36820892636E+02  0.00000000000E+00 0.  1.
         11    1    4    4    0    0  0.84848167749E+01 -0.14083678797E+02 -0.10459062999E+02  0.19486767901E+02  0.51100000000E-03 0. -1.
        -11    1    4    4    0    0  0.12300583457E+02 -0.13947008022E+02  0.15775638093E+01  0.18663121228E+02  0.51100000000E-03 0.  1.
        -12    1    4    4    0    0  0.37190710113E+01  0.10208723014E+02 -0.12039462302E+02  0.16217218235E+02  0.00000000000E+00 0.  1.
</event>
<event>
 8    1  0.3137106E-007  0.9118800E+02  0.7816164E-02  0.1184000E+00
        -11   -1    0    0    0    0  0.00000000000E+00  0.00000000000E+00  0.45593999997E+02  0.45594000000E+02  0.51100000000E-03 0.  1.
         11   -1    0    0    0    0 -0.00000000000E+00 -0.00000000000E+00 -0.45593999997E+02  0.45594000000E+02  0.51100000000E-03 0. -1.
         23    2    1    2    0    0  0.00000000000E+00 -0.66613381478E-15 -0.71054273576E-14  0.91188000000E+02  0.91188000000E+02 0.  0.
    9900012    2    3    3    0    0  0.11381288267E+02 -0.13607020511E+01 -0.34991361271E+02  0.54367073935E+02  0.39999976651E+02 0.  0.
        -12    1    3    3    0    0 -0.11381288267E+02  0.13607020511E+01  0.34991361271E+02  0.36820926065E+02  0.00000000000E+00 0.  1.
         11    1    4    4    0    0  0.24076995758E+02  0.43243712207E+01 -0.17569630551E+02  0.30117998425E+02  0.51100000000E-03 0. -1.
        -11    1    4    4    0    0 -0.26058004434E+01 -0.62093745263E+01 -0.62696198356E+01  0.92007967646E+01  0.51100000000E-03 0.  1.
         12    1    4    4    0    0 -0.10089907048E+02  0.52430125448E+00 -0.11152110884E+02  0.15048278746E+02  0.00000000000E+00 0. -1.
</event>
<event>
 8    1  0.3137106E-007  0.9118800E+02  0.7816164E-02  0.1184000E+00
        -11   -1    0    0    0    0  0.00000000000E+00  0.00000000000E+00  0.45593999997E+02  0.45594000000E+02  0.51100000000E-03 0. -1.
         11   -1    0    0    0    0 -0.00000000000E+00 -0.00000000000E+00 -0.45593999997E+02  0.45594000000E+02  0.51100000000E-03 0.  1.
         23    2    1    2    0    0  0.17763568394E-14  0.71054273576E-14  0.17763568394E-14  0.91188000000E+02  0.91188000000E+02 0.  0.
    9900012    2    3    3    0    0  0.83946566267E+01 -0.32528124100E+02 -0.15074157590E+02  0.54367090935E+02  0.40000015404E+02 0.  0.
         12    1    3    3    0    0 -0.83946566267E+01  0.32528124100E+02  0.15074157590E+02  0.36820909065E+02  0.00000000000E+00 0. -1.
         11    1    4    4    0    0  0.13878048530E+02  0.12496454411E+01 -0.25590707252E+01  0.14167239956E+02  0.51100000000E-03 0. -1.
        -11    1    4    4    0    0  0.12773041779E+01 -0.30159009260E+02 -0.77264506350E+01  0.31159194232E+02  0.51100000000E-03 0.  1.
         12    1    4    4    0    0 -0.67606960814E+01 -0.36187602811E+01 -0.47886362293E+01  0.90406567468E+01  0.00000000000E+00 0. -1.
</event>
<event>
 8    1  0.3137106E-007  0.9118800E+02  0.7816164E-02  0.1184000E+00
        -11   -1    0    0    0    0  0.00000000000E+00  0.00000000000E+00  0.45593999997E+02  0.45594000000E+02  0.51100000000E-03 0.  1.
         11   -1    0    0    0    0 -0.00000000000E+00 -0.00000000000E+00 -0.45593999997E+02  0.45594000000E+02  0.51100000000E-03 0. -1.
         23    2    1    2    0    0  0.00000000000E+00 -0.44408920985E-15  0.00000000000E+00  0.91188000000E+02  0.91188000000E+02 0.  0.
    9900012    2    3    3    0    0  0.34419624301E+02 -0.35256349381E+01 -0.12595231791E+02  0.54367075207E+02  0.39999979550E+02 0.  0.
        -12    1    3    3    0    0 -0.34419624301E+02  0.35256349381E+01  0.12595231791E+02  0.36820924793E+02  0.00000000000E+00 0.  1.
         11    1    4    4    0    0  0.31723965623E+02 -0.92280800230E+01 -0.61780809905E+01  0.33611547729E+02  0.51100000000E-03 0. -1.
        -11    1    4    4    0    0 -0.24152660785E+01  0.77569523154E+00  0.59654165787E+01  0.64823921927E+01  0.51100000000E-03 0.  1.
        -12    1    4    4    0    0  0.51109247558E+01  0.49267498533E+01 -0.12382567379E+02  0.14273135285E+02  0.00000000000E+00 0.  1.
</event>
<event>
 8    1  0.3137106E-007  0.9118800E+02  0.7816164E-02  0.1184000E+00
        -11   -1    0    0    0    0  0.00000000000E+00  0.00000000000E+00  0.45593999997E+02  0.45594000000E+02  0.51100000000E-03 0.  1.
         11   -1    0    0    0    0 -0.00000000000E+00 -0.00000000000E+00 -0.45593999997E+02  0.45594000000E+02  0.51100000000E-03 0. -1.
         23    2    1    2    0    0  0.00000000000E+00  0.00000000000E+00  0.00000000000E+00  0.91188000000E+02  0.91188000000E+02 0.  0.
    9900012    2    3    3    0    0 -0.27170476643E+01  0.36605802735E+02  0.29005480883E+01  0.54367077671E+02  0.39999985167E+02 0.  0.
        -12    1    3    3    0    0  0.27170476643E+01 -0.36605802735E+02 -0.29005480883E+01  0.36820922329E+02  0.00000000000E+00 0.  1.
         11    1    4    4    0    0  0.38232243352E+00  0.21881208726E+02 -0.34825982055E+01  0.22159917786E+02  0.51100000000E-03 0. -1.
        -11    1    4    4    0    0  0.64700200225E+01  0.19613949284E+02  0.57661942393E+01  0.21443347730E+02  0.51100000000E-03 0.  1.
         12    1    4    4    0    0 -0.95693901203E+01 -0.48893552747E+01  0.61695205449E+00  0.10763812155E+02  0.00000000000E+00 0. -1.
</event>
<event>
 8    1  0.3137106E-007  0.9118800E+02  0.7816164E-02  0.1184000E+00
        -11   -1    0    0    0    0  0.00000000000E+00  0.00000000000E+00  0.45593999997E+02  0.45594000000E+02  0.51100000000E-03 0. -1.
         11   -1    0    0    0    0 -0.00000000000E+00 -0.00000000000E+00 -0.45593999997E+02  0.45594000000E+02  0.51100000000E-03 0.  1.
         23    2    1    2    0    0  0.00000000000E+00  0.35527136788E-14 -0.35527136788E-14  0.91188000000E+02  0.91188000000E+02 0.  0.
    9900012    2    3    3    0    0  0.17124459641E+02 -0.19449278111E+02  0.26158333642E+02  0.54367082630E+02  0.39999996471E+02 0.  0.
        -12    1    3    3    0    0 -0.17124459641E+02  0.19449278111E+02 -0.26158333642E+02  0.36820917370E+02  0.00000000000E+00 0.  1.
         11    1    4    4    0    0  0.10511623930E-01  0.18006864932E+01 -0.67610117874E+00  0.19234592292E+01  0.51100000000E-03 0.  1.
        -11    1    4    4    0    0  0.14217494424E+02 -0.25430454689E+02  0.33281259712E+02  0.44232198924E+02  0.51100000000E-03 0. -1.
         12    1    4    4    0    0  0.28964535932E+01  0.41804900842E+01 -0.64468248911E+01  0.82114244768E+01  0.00000000000E+00 0. -1.
</event>
<event>
 8    1  0.3137106E-007  0.9118800E+02  0.7816164E-02  0.1184000E+00
        -11   -1    0    0    0    0  0.00000000000E+00  0.00000000000E+00  0.45593999997E+02  0.45594000000E+02  0.51100000000E-03 0.  1.
         11   -1    0    0    0    0 -0.00000000000E+00 -0.00000000000E+00 -0.45593999997E+02  0.45594000000E+02  0.51100000000E-03 0. -1.
         23    2    1    2    0    0 -0.35527136788E-14 -0.88817841970E-15 -0.35527136788E-14  0.91188000000E+02  0.91188000000E+02 0.  0.
    9900012    2    3    3    0    0 -0.23358329766E+02 -0.16578967872E+01  0.28415129012E+02  0.54367085454E+02  0.40000002909E+02 0.  0.
         12    1    3    3    0    0  0.23358329766E+02  0.16578967872E+01 -0.28415129012E+02  0.36820914546E+02  0.00000000000E+00 0. -1.
         11    1    4    4    0    0  0.13393512611E+01  0.10628882920E+02  0.26285660311E+00  0.10716161056E+02  0.51100000000E-03 0. -1.
        -11    1    4    4    0    0  0.71565889111E+00 -0.43853204843E+01 -0.58689333060E+00  0.44819245242E+01  0.51100000000E-03 0.  1.
        -12    1    4    4    0    0 -0.25413339918E+02 -0.79014592230E+01  0.28739165740E+02  0.39168999873E+02  0.00000000000E+00 0.  1.
</event>
<event>
 8    1  0.3137106E-007  0.9118800E+02  0.7816164E-02  0.1184000E+00
        -11   -1    0    0    0    0  0.00000000000E+00  0.00000000000E+00  0.45593999997E+02  0.45594000000E+02  0.51100000000E-03 0.  1.
         11   -1    0    0    0    0 -0.00000000000E+00 -0.00000000000E+00 -0.45593999997E+02  0.45594000000E+02  0.51100000000E-03 0. -1.
         23    2    1    2    0    0  0.00000000000E+00 -0.88817841970E-15 -0.35527136788E-14  0.91188000000E+02  0.91188000000E+02 0.  0.
    9900012    2    3    3    0    0  0.28306631263E+02 -0.60615357846E+01 -0.22754688662E+02  0.54367035243E+02  0.39999888443E+02 0.  0.
        -12    1    3    3    0    0 -0.28306631263E+02  0.60615357846E+01  0.22754688662E+02  0.36820964757E+02  0.00000000000E+00 0.  1.
         11    1    4    4    0    0  0.14493232816E+01 -0.12825800047E+02  0.57185220646E+01  0.14117477809E+02  0.51100000000E-03 0. -1.
        -11    1    4    4    0    0  0.22742343384E+02  0.66156745564E+01 -0.20712301178E+02  0.31463959585E+02  0.51100000000E-03 0.  1.
         12    1    4    4    0    0  0.41149645975E+01  0.14858970627E+00 -0.77609095483E+01  0.87855978485E+01  0.00000000000E+00 0. -1.
</event>
<event>
 8    1  0.3137106E-007  0.9118800E+02  0.7816164E-02  0.1184000E+00
        -11   -1    0    0    0    0  0.00000000000E+00  0.00000000000E+00  0.45593999997E+02  0.45594000000E+02  0.51100000000E-03 0. -1.
         11   -1    0    0    0    0 -0.00000000000E+00 -0.00000000000E+00 -0.45593999997E+02  0.45594000000E+02  0.51100000000E-03 0.  1.
         23    2    1    2    0    0  0.00000000000E+00 -0.35527136788E-14  0.00000000000E+00  0.91188000000E+02  0.91188000000E+02 0.  0.
    9900012    2    3    3    0    0  0.97028581921E+01  0.16359974942E+02  0.31527560962E+02  0.54367063871E+02  0.39999953707E+02 0.  0.
        -12    1    3    3    0    0 -0.97028581921E+01 -0.16359974942E+02 -0.31527560962E+02  0.36820936129E+02  0.00000000000E+00 0.  1.
         11    1    4    4    0    0 -0.25314169158E+01  0.18354152678E+02  0.93010792784E+01  0.20731451182E+02  0.51100000000E-03 0. -1.
        -11    1    4    4    0    0 -0.57229701927E+01 -0.21291337895E+01  0.16505050281E+01  0.63253273140E+01  0.51100000000E-03 0.  1.
        -12    1    4    4    0    0  0.17957245301E+02  0.13495605399E+00  0.20575976656E+02  0.27310285375E+02  0.00000000000E+00 0.  1.
</event>
<event>
 8    1  0.3137106E-007  0.9118800E+02  0.7816164E-02  0.1184000E+00
        -11   -1    0    0    0    0  0.00000000000E+00  0.00000000000E+00  0.45593999997E+02  0.45594000000E+02  0.51100000000E-03 0.  1.
         11   -1    0    0    0    0 -0.00000000000E+00 -0.00000000000E+00 -0.45593999997E+02  0.45594000000E+02  0.51100000000E-03 0. -1.
         23    2    1    2    0    0 -0.44408920985E-15  0.00000000000E+00 -0.35527136788E-14  0.91188000000E+02  0.91188000000E+02 0.  0.
    9900012    2    3    3    0    0  0.20929214144E+01  0.21207283274E+02  0.30027490263E+02  0.54367090786E+02  0.40000015064E+02 0.  0.
         12    1    3    3    0    0 -0.20929214144E+01 -0.21207283274E+02 -0.30027490263E+02  0.36820909214E+02  0.00000000000E+00 0. -1.
         11    1    4    4    0    0  0.26763590353E+01  0.10378083697E+02  0.26345843290E+02  0.28442415120E+02  0.51100000000E-03 0.  1.
        -11    1    4    4    0    0  0.98394556155E+01  0.37558372276E-01  0.46647987389E+01  0.10889290380E+02  0.51100000000E-03 0. -1.
        -12    1    4    4    0    0 -0.10422893236E+02  0.10791641204E+02 -0.98315176635E+00  0.15035385286E+02  0.00000000000E+00 0.  1.
</event>
<event>
 8    1  0.3137106E-007  0.9118800E+02  0.7816164E-02  0.1184000E+00
        -11   -1    0    0    0    0  0.00000000000E+00  0.00000000000E+00  0.45593999997E+02  0.45594000000E+02  0.51100000000E-03 0.  1.
         11   -1    0    0    0    0 -0.00000000000E+00 -0.00000000000E+00 -0.45593999997E+02  0.45594000000E+02  0.51100000000E-03 0. -1.
         23    2    1    2    0    0 -0.35527136788E-14  0.35527136788E-14  0.00000000000E+00  0.91188000000E+02  0.91188000000E+02 0.  0.
    9900012    2    3    3    0    0  0.27494065818E+02  0.22962027651E+02 -0.85206673626E+01  0.54367080112E+02  0.39999990732E+02 0.  0.
        -12    1    3    3    0    0 -0.27494065818E+02 -0.22962027651E+02  0.85206673626E+01  0.36820919888E+02  0.00000000000E+00 0.  1.
         11    1    4    4    0    0  0.17644627966E+02 -0.49575492869E+01  0.25984470527E+01  0.18511134982E+02  0.51100000000E-03 0. -1.
        -11    1    4    4    0    0  0.44290968150E+01  0.27936644185E+02 -0.72608132277E+01  0.29202609402E+02  0.51100000000E-03 0.  1.
        -12    1    4    4    0    0  0.54203410374E+01 -0.17067246556E-01 -0.38583011876E+01  0.66533357278E+01  0.00000000000E+00 0.  1.
</event>
<event>
 8    1  0.3137106E-007  0.9118800E+02  0.7816164E-02  0.1184000E+00
        -11   -1    0    0    0    0  0.00000000000E+00  0.00000000000E+00  0.45593999997E+02  0.45594000000E+02  0.51100000000E-03 0.  1.
         11   -1    0    0    0    0 -0.00000000000E+00 -0.00000000000E+00 -0.45593999997E+02  0.45594000000E+02  0.51100000000E-03 0. -1.
         23    2    1    2    0    0  0.00000000000E+00 -0.88817841970E-15  0.00000000000E+00  0.91188000000E+02  0.91188000000E+02 0.  0.
    9900012    2    3    3    0    0  0.56246667056E+01 -0.66093084354E+01 -0.35783508423E+02  0.54367091421E+02  0.40000016513E+02 0.  0.
        -12    1    3    3    0    0 -0.56246667056E+01  0.66093084354E+01  0.35783508423E+02  0.36820908579E+02  0.00000000000E+00 0.  1.
         11    1    4    4    0    0  0.13177191784E+02 -0.44730308466E+01 -0.22053491315E+02  0.26076864606E+02  0.51100000000E-03 0. -1.
        -11    1    4    4    0    0 -0.53453714503E+01  0.10706952720E+01 -0.20099235661E+02  0.20825432978E+02  0.51100000000E-03 0.  1.
        -12    1    4    4    0    0 -0.22071536277E+01 -0.32069728608E+01  0.63692185525E+01  0.74647938374E+01  0.00000000000E+00 0.  1.
</event>
<event>
 8    1  0.3137106E-007  0.9118800E+02  0.7816164E-02  0.1184000E+00
        -11   -1    0    0    0    0  0.00000000000E+00  0.00000000000E+00  0.45593999997E+02  0.45594000000E+02  0.51100000000E-03 0. -1.
         11   -1    0    0    0    0 -0.00000000000E+00 -0.00000000000E+00 -0.45593999997E+02  0.45594000000E+02  0.51100000000E-03 0.  1.
         23    2    1    2    0    0 -0.35527136788E-14  0.00000000000E+00  0.00000000000E+00  0.91188000000E+02  0.91188000000E+02 0.  0.
    9900012    2    3    3    0    0 -0.22854804690E+02 -0.26604510148E+02 -0.11208803897E+02  0.54367090961E+02  0.40000015464E+02 0.  0.
        -12    1    3    3    0    0  0.22854804690E+02  0.26604510148E+02  0.11208803897E+02  0.36820909039E+02  0.00000000000E+00 0.  1.
         11    1    4    4    0    0 -0.63028194125E+00 -0.19584062291E+01  0.42937566446E+01  0.47611927779E+01  0.51100000000E-03 0. -1.
        -11    1    4    4    0    0 -0.24518169115E+02 -0.23069836026E+01 -0.91061924271E+01  0.26256152248E+02  0.51100000000E-03 0.  1.
        -12    1    4    4    0    0  0.22936463663E+01 -0.22339120317E+02 -0.63963681145E+01  0.23349745935E+02  0.00000000000E+00 0.  1.
</event>
<event>
 8    1  0.3137106E-007  0.9118800E+02  0.7816164E-02  0.1184000E+00
        -11   -1    0    0    0    0  0.00000000000E+00  0.00000000000E+00  0.45593999997E+02  0.45594000000E+02  0.51100000000E-03 0.  1.
         11   -1    0    0    0    0 -0.00000000000E+00 -0.00000000000E+00 -0.45593999997E+02  0.45594000000E+02  0.51100000000E-03 0. -1.
         23    2    1    2    0    0  0.88817841970E-15  0.00000000000E+00  0.00000000000E+00  0.91188000000E+02  0.91188000000E+02 0.  0.
    9900012    2    3    3    0    0  0.72222102142E+01 -0.95242080006E+01  0.34826846251E+02  0.54367080970E+02  0.39999992688E+02 0.  0.
         12    1    3    3    0    0 -0.72222102142E+01  0.95242080006E+01 -0.34826846251E+02  0.36820919030E+02  0.00000000000E+00 0. -1.
         11    1    4    4    0    0  0.76881010978E+00  0.18539447074E+01 -0.17243797400E+01  0.26460660822E+01  0.51100000000E-03 0. -1.
        -11    1    4    4    0    0  0.98012703349E+01  0.11224391429E+01 -0.28338843882E+01  0.10264291052E+02  0.51100000000E-03 0.  1.
        -12    1    4    4    0    0 -0.33478702305E+01 -0.12500591851E+02  0.39385110379E+02  0.41456723836E+02  0.00000000000E+00 0.  1.
</event>
<event>
 8    1  0.3137106E-007  0.9118800E+02  0.7816164E-02  0.1184000E+00
        -11   -1    0    0    0    0  0.00000000000E+00  0.00000000000E+00  0.45593999997E+02  0.45594000000E+02  0.51100000000E-03 0.  1.
         11   -1    0    0    0    0 -0.00000000000E+00 -0.00000000000E+00 -0.45593999997E+02  0.45594000000E+02  0.51100000000E-03 0. -1.
         23    2    1    2    0    0  0.35527136788E-14  0.00000000000E+00  0.00000000000E+00  0.91188000000E+02  0.91188000000E+02 0.  0.
    9900012    2    3    3    0    0  0.21714087155E+02  0.10697793534E+02  0.27746178668E+02  0.54366881085E+02  0.39999537006E+02 0.  0.
         12    1    3    3    0    0 -0.21714087155E+02 -0.10697793534E+02 -0.27746178668E+02  0.36821118915E+02  0.00000000000E+00 0. -1.
         11    1    4    4    0    0 -0.46644992216E+01  0.80629194448E+00  0.29668362039E+01  0.55865711318E+01  0.51100000000E-03 0. -1.
        -11    1    4    4    0    0  0.33177378193E+02  0.95506406150E+01  0.17130610261E+02  0.38541029671E+02  0.51100000000E-03 0.  1.
        -12    1    4    4    0    0 -0.67987918162E+01  0.34086097473E+00  0.76487322038E+01  0.10239280282E+02  0.00000000000E+00 0.  1.
</event>
<event>
 8    1  0.3137106E-007  0.9118800E+02  0.7816164E-02  0.1184000E+00
        -11   -1    0    0    0    0  0.00000000000E+00  0.00000000000E+00  0.45593999997E+02  0.45594000000E+02  0.51100000000E-03 0.  1.
         11   -1    0    0    0    0 -0.00000000000E+00 -0.00000000000E+00 -0.45593999997E+02  0.45594000000E+02  0.51100000000E-03 0. -1.
         23    2    1    2    0    0 -0.35527136788E-14  0.00000000000E+00  0.35527136788E-14  0.91188000000E+02  0.91188000000E+02 0.  0.
    9900012    2    3    3    0    0  0.19592808243E+02  0.15760775532E+02  0.26898176093E+02  0.54366918303E+02  0.39999621854E+02 0.  0.
         12    1    3    3    0    0 -0.19592808243E+02 -0.15760775532E+02 -0.26898176093E+02  0.36821081697E+02  0.00000000000E+00 0. -1.
         11    1    4    4    0    0  0.20915066403E+02  0.22691044514E+02  0.27402367160E+02  0.41270003998E+02  0.51100000000E-03 0. -1.
        -11    1    4    4    0    0  0.83057533646E+00 -0.40795135165E+01  0.50178809203E+01  0.65200778455E+01  0.51100000000E-03 0.  1.
        -12    1    4    4    0    0 -0.21528334961E+01 -0.28507554657E+01 -0.55220719871E+01  0.65768364597E+01  0.00000000000E+00 0.  1.
</event>
<event>
 8    1  0.3137106E-007  0.9118800E+02  0.7816164E-02  0.1184000E+00
        -11   -1    0    0    0    0  0.00000000000E+00  0.00000000000E+00  0.45593999997E+02  0.45594000000E+02  0.51100000000E-03 0.  1.
         11   -1    0    0    0    0 -0.00000000000E+00 -0.00000000000E+00 -0.45593999997E+02  0.45594000000E+02  0.51100000000E-03 0. -1.
         23    2    1    2    0    0  0.00000000000E+00  0.00000000000E+00  0.00000000000E+00  0.91188000000E+02  0.91188000000E+02 0.  0.
    9900012    2    3    3    0    0  0.86351279162E+01  0.23118301079E+02 -0.27326911834E+02  0.54367063167E+02  0.39999952101E+02 0.  0.
        -12    1    3    3    0    0 -0.86351279162E+01 -0.23118301079E+02  0.27326911834E+02  0.36820936833E+02  0.00000000000E+00 0.  1.
         11    1    4    4    0    0 -0.52796862331E+01  0.43016803486E+01 -0.18866729815E+02  0.20058241067E+02  0.51100000000E-03 0. -1.
        -11    1    4    4    0    0 -0.99779692030E+00  0.17740084421E+02 -0.15434847467E+01  0.17835036848E+02  0.51100000000E-03 0.  1.
        -12    1    4    4    0    0  0.14912611070E+02  0.10765363097E+01 -0.69166972717E+01  0.16473785251E+02  0.00000000000E+00 0.  1.
</event>
<event>
 8    1  0.3137106E-007  0.9118800E+02  0.7816164E-02  0.1184000E+00
        -11   -1    0    0    0    0  0.00000000000E+00  0.00000000000E+00  0.45593999997E+02  0.45594000000E+02  0.51100000000E-03 0.  1.
         11   -1    0    0    0    0 -0.00000000000E+00 -0.00000000000E+00 -0.45593999997E+02  0.45594000000E+02  0.51100000000E-03 0. -1.
         23    2    1    2    0    0  0.00000000000E+00 -0.17763568394E-14  0.00000000000E+00  0.91188000000E+02  0.91188000000E+02 0.  0.
    9900012    2    3    3    0    0  0.87657303152E+01  0.12163421256E+02 -0.33630242389E+02  0.54367081383E+02  0.39999993629E+02 0.  0.
        -12    1    3    3    0    0 -0.87657303152E+01 -0.12163421256E+02  0.33630242389E+02  0.36820918617E+02  0.00000000000E+00 0.  1.
         11    1    4    4    0    0  0.11209373770E+02 -0.87389671228E+01 -0.26348109190E+02  0.29937308911E+02  0.51100000000E-03 0. -1.
        -11    1    4    4    0    0  0.31153384883E+01  0.14273089070E+02 -0.37331091778E+01  0.15078544687E+02  0.51100000000E-03 0.  1.
        -12    1    4    4    0    0 -0.55589819434E+01  0.66292993091E+01 -0.35490240215E+01  0.93512277847E+01  0.00000000000E+00 0.  1.
</event>
<event>
 8    1  0.3137106E-007  0.9118800E+02  0.7816164E-02  0.1184000E+00
        -11   -1    0    0    0    0  0.00000000000E+00  0.00000000000E+00  0.45593999997E+02  0.45594000000E+02  0.51100000000E-03 0. -1.
         11   -1    0    0    0    0 -0.00000000000E+00 -0.00000000000E+00 -0.45593999997E+02  0.45594000000E+02  0.51100000000E-03 0.  1.
         23    2    1    2    0    0  0.00000000000E+00  0.00000000000E+00  0.35527136788E-14  0.91188000000E+02  0.91188000000E+02 0.  0.
    9900012    2    3    3    0    0 -0.14133600884E+02  0.20872664867E+02  0.26839397200E+02  0.54367081290E+02  0.39999993417E+02 0.  0.
        -12    1    3    3    0    0  0.14133600884E+02 -0.20872664867E+02 -0.26839397200E+02  0.36820918710E+02  0.00000000000E+00 0.  1.
         11    1    4    4    0    0 -0.35701655918E+01 -0.90843679591E+01  0.42925595099E+01  0.10662921315E+02  0.51100000000E-03 0. -1.
        -11    1    4    4    0    0 -0.16832451699E+01  0.17379367506E+02  0.13597603991E+01  0.17513556972E+02  0.51100000000E-03 0.  1.
         12    1    4    4    0    0 -0.88801901224E+01  0.12577665321E+02  0.21187077291E+02  0.26190603003E+02  0.00000000000E+00 0. -1.
</event>
<event>
 8    1  0.3137106E-007  0.9118800E+02  0.7816164E-02  0.1184000E+00
        -11   -1    0    0    0    0  0.00000000000E+00  0.00000000000E+00  0.45593999997E+02  0.45594000000E+02  0.51100000000E-03 0. -1.
         11   -1    0    0    0    0 -0.00000000000E+00 -0.00000000000E+00 -0.45593999997E+02  0.45594000000E+02  0.51100000000E-03 0.  1.
         23    2    1    2    0    0  0.00000000000E+00  0.00000000000E+00  0.00000000000E+00  0.91188000000E+02  0.91188000000E+02 0.  0.
    9900012    2    3    3    0    0  0.28758760337E+02 -0.21279967826E+02 -0.87106889240E+01  0.54367089795E+02  0.40000012806E+02 0.  0.
        -12    1    3    3    0    0 -0.28758760337E+02  0.21279967826E+02  0.87106889240E+01  0.36820910205E+02  0.00000000000E+00 0.  1.
         11    1    4    4    0    0  0.16161124133E+02 -0.15335227808E+02 -0.15880690659E+02  0.27359595780E+02  0.51100000000E-03 0. -1.
        -11    1    4    4    0    0 -0.38387496208E+01  0.37641519360E+01 -0.21176176893E+01  0.57783339629E+01  0.51100000000E-03 0.  1.
         12    1    4    4    0    0  0.16436385825E+02 -0.97088919540E+01  0.92876194243E+01  0.21229160052E+02  0.00000000000E+00 0. -1.
</event>
<event>
 8    1  0.3137106E-007  0.9118800E+02  0.7816164E-02  0.1184000E+00
        -11   -1    0    0    0    0  0.00000000000E+00  0.00000000000E+00  0.45593999997E+02  0.45594000000E+02  0.51100000000E-03 0.  1.
         11   -1    0    0    0    0 -0.00000000000E+00 -0.00000000000E+00 -0.45593999997E+02  0.45594000000E+02  0.51100000000E-03 0. -1.
         23    2    1    2    0    0  0.33306690739E-15  0.35527136788E-14 -0.35527136788E-14  0.91188000000E+02  0.91188000000E+02 0.  0.
    9900012    2    3    3    0    0  0.16645250959E+00 -0.19297773795E+02 -0.31358384015E+02  0.54367081653E+02  0.39999994244E+02 0.  0.
        -12    1    3    3    0    0 -0.16645250959E+00  0.19297773795E+02  0.31358384015E+02  0.36820918347E+02  0.00000000000E+00 0.  1.
         11    1    4    4    0    0 -0.42341998630E+01 -0.81379127585E+01 -0.21414255242E+01  0.94201791959E+01  0.51100000000E-03 0. -1.
        -11    1    4    4    0    0  0.19831713045E+01 -0.68845079371E+01  0.60269898141E+01  0.93623727997E+01  0.51100000000E-03 0.  1.
        -12    1    4    4    0    0  0.24174810681E+01 -0.42753530997E+01 -0.35243948305E+02  0.35584529657E+02  0.00000000000E+00 0.  1.
</event>
<event>
 8    1  0.3137106E-007  0.9118800E+02  0.7816164E-02  0.1184000E+00
        -11   -1    0    0    0    0  0.00000000000E+00  0.00000000000E+00  0.45593999997E+02  0.45594000000E+02  0.51100000000E-03 0.  1.
         11   -1    0    0    0    0 -0.00000000000E+00 -0.00000000000E+00 -0.45593999997E+02  0.45594000000E+02  0.51100000000E-03 0. -1.
         23    2    1    2    0    0  0.88817841970E-15  0.00000000000E+00  0.00000000000E+00  0.91188000000E+02  0.91188000000E+02 0.  0.
    9900012    2    3    3    0    0  0.23466259254E+01 -0.65990725232E+01  0.36148658638E+02  0.54367082946E+02  0.39999997192E+02 0.  0.
         12    1    3    3    0    0 -0.23466259254E+01  0.65990725232E+01 -0.36148658638E+02  0.36820917054E+02  0.00000000000E+00 0. -1.
         11    1    4    4    0    0 -0.79547620291E+01 -0.17988709532E+02  0.27623333813E+02  0.33910477448E+02  0.51100000000E-03 0.  1.
        -11    1    4    4    0    0  0.58322448336E+01  0.11195013831E+02  0.23639671401E+01  0.12842575886E+02  0.51100000000E-03 0. -1.
         12    1    4    4    0    0  0.44691431210E+01  0.19462317756E+00  0.61613576844E+01  0.76140296120E+01  0.00000000000E+00 0. -1.
</event>
<event>
 8    1  0.3137106E-007  0.9118800E+02  0.7816164E-02  0.1184000E+00
        -11   -1    0    0    0    0  0.00000000000E+00  0.00000000000E+00  0.45593999997E+02  0.45594000000E+02  0.51100000000E-03 0.  1.
         11   -1    0    0    0    0 -0.00000000000E+00 -0.00000000000E+00 -0.45593999997E+02  0.45594000000E+02  0.51100000000E-03 0. -1.
         23    2    1    2    0    0  0.44408920985E-15  0.00000000000E+00  0.00000000000E+00  0.91188000000E+02  0.91188000000E+02 0.  0.
    9900012    2    3    3    0    0 -0.21043285596E+01 -0.30200880636E+02  0.20958487335E+02  0.54367087719E+02  0.40000008072E+02 0.  0.
         12    1    3    3    0    0  0.21043285596E+01  0.30200880636E+02 -0.20958487335E+02  0.36820912281E+02  0.00000000000E+00 0. -1.
         11    1    4    4    0    0  0.11707314820E+02 -0.17274226595E+02  0.16388858629E+02  0.26534031208E+02  0.51100000000E-03 0.  1.
        -11    1    4    4    0    0 -0.15211466121E+01 -0.19898916375E+01 -0.71877500739E+01  0.76116560045E+01  0.51100000000E-03 0. -1.
        -12    1    4    4    0    0 -0.12290496767E+02 -0.10936762403E+02  0.11757378780E+02  0.20221400506E+02  0.00000000000E+00 0.  1.
</event>
<event>
 8    1  0.3137106E-007  0.9118800E+02  0.7816164E-02  0.1184000E+00
        -11   -1    0    0    0    0  0.00000000000E+00  0.00000000000E+00  0.45593999997E+02  0.45594000000E+02  0.51100000000E-03 0. -1.
         11   -1    0    0    0    0 -0.00000000000E+00 -0.00000000000E+00 -0.45593999997E+02  0.45594000000E+02  0.51100000000E-03 0.  1.
         23    2    1    2    0    0  0.35527136788E-14  0.00000000000E+00  0.00000000000E+00  0.91188000000E+02  0.91188000000E+02 0.  0.
    9900012    2    3    3    0    0  0.30895152693E+02 -0.31041343140E+01 -0.19789735137E+02  0.54367085745E+02  0.40000003573E+02 0.  0.
         12    1    3    3    0    0 -0.30895152693E+02  0.31041343140E+01  0.19789735137E+02  0.36820914255E+02  0.00000000000E+00 0. -1.
         11    1    4    4    0    0  0.33191961294E+01  0.84805083434E+01 -0.79377112009E+01  0.12080701307E+02  0.51100000000E-03 0. -1.
        -11    1    4    4    0    0  0.17780074651E+02 -0.13742725968E+02  0.46753185225E+01  0.22953260666E+02  0.51100000000E-03 0.  1.
        -12    1    4    4    0    0  0.97958819128E+01  0.21580833108E+01 -0.16527342459E+02  0.19333123772E+02  0.00000000000E+00 0.  1.
</event>
<event>
 8    1  0.3137106E-007  0.9118800E+02  0.7816164E-02  0.1184000E+00
        -11   -1    0    0    0    0  0.00000000000E+00  0.00000000000E+00  0.45593999997E+02  0.45594000000E+02  0.51100000000E-03 0. -1.
         11   -1    0    0    0    0 -0.00000000000E+00 -0.00000000000E+00 -0.45593999997E+02  0.45594000000E+02  0.51100000000E-03 0.  1.
         23    2    1    2    0    0 -0.35527136788E-14  0.00000000000E+00 -0.17763568394E-14  0.91188000000E+02  0.91188000000E+02 0.  0.
    9900012    2    3    3    0    0 -0.24257996457E+02 -0.24573992222E+02 -0.12784746842E+02  0.54367065226E+02  0.39999956795E+02 0.  0.
        -12    1    3    3    0    0  0.24257996457E+02  0.24573992222E+02  0.12784746842E+02  0.36820934774E+02  0.00000000000E+00 0.  1.
         11    1    4    4    0    0 -0.21963717940E+02 -0.26612683899E+02 -0.16056209350E+01  0.34542985813E+02  0.51100000000E-03 0. -1.
        -11    1    4    4    0    0 -0.41745288080E+01  0.67968782988E+01 -0.51131181183E+00  0.79928521447E+01  0.51100000000E-03 0.  1.
         12    1    4    4    0    0  0.18802502911E+01 -0.47581866221E+01 -0.10667814095E+02  0.11831227268E+02  0.00000000000E+00 0. -1.
</event>
<event>
 8    1  0.3137106E-007  0.9118800E+02  0.7816164E-02  0.1184000E+00
        -11   -1    0    0    0    0  0.00000000000E+00  0.00000000000E+00  0.45593999997E+02  0.45594000000E+02  0.51100000000E-03 0. -1.
         11   -1    0    0    0    0 -0.00000000000E+00 -0.00000000000E+00 -0.45593999997E+02  0.45594000000E+02  0.51100000000E-03 0.  1.
         23    2    1    2    0    0  0.00000000000E+00  0.00000000000E+00  0.71054273576E-14  0.91188000000E+02  0.91188000000E+02 0.  0.
    9900012    2    3    3    0    0  0.14865552922E+02 -0.10212204247E+02 -0.32101493772E+02  0.54367086355E+02  0.40000004963E+02 0.  0.
         12    1    3    3    0    0 -0.14865552922E+02  0.10212204247E+02  0.32101493772E+02  0.36820913645E+02  0.00000000000E+00 0. -1.
         11    1    4    4    0    0 -0.33964388714E+00  0.96450744031E+00 -0.21221090761E+02  0.21245713119E+02  0.51100000000E-03 0. -1.
        -11    1    4    4    0    0  0.18811859054E+02 -0.20428845655E+01 -0.13149178425E+02  0.23042576070E+02  0.51100000000E-03 0.  1.
         12    1    4    4    0    0 -0.36066622455E+01 -0.91338271219E+01  0.22687754135E+01  0.10078797166E+02  0.00000000000E+00 0. -1.
</event>
<event>
 8    1  0.3137106E-007  0.9118800E+02  0.7816164E-02  0.1184000E+00
        -11   -1    0    0    0    0  0.00000000000E+00  0.00000000000E+00  0.45593999997E+02  0.45594000000E+02  0.51100000000E-03 0. -1.
         11   -1    0    0    0    0 -0.00000000000E+00 -0.00000000000E+00 -0.45593999997E+02  0.45594000000E+02  0.51100000000E-03 0.  1.
         23    2    1    2    0    0  0.35527136788E-14  0.00000000000E+00 -0.71054273576E-14  0.91188000000E+02  0.91188000000E+02 0.  0.
    9900012    2    3    3    0    0 -0.10029680017E+02  0.53623315852E+01  0.35020445102E+02  0.54367073119E+02  0.39999974789E+02 0.  0.
        -12    1    3    3    0    0  0.10029680017E+02 -0.53623315852E+01 -0.35020445102E+02  0.36820926881E+02  0.00000000000E+00 0.  1.
         11    1    4    4    0    0  0.15162047840E+01  0.68892009204E+01 -0.51541576076E+01  0.87364356103E+01  0.51100000000E-03 0. -1.
        -11    1    4    4    0    0 -0.15596105896E+02  0.24511544543E+01  0.31939603457E+02  0.35628428909E+02  0.51100000000E-03 0.  1.
        -12    1    4    4    0    0  0.40502210942E+01 -0.39780237895E+01  0.82349992527E+01  0.10002208600E+02  0.00000000000E+00 0.  1.
</event>
<event>
 8    1  0.3137106E-007  0.9118800E+02  0.7816164E-02  0.1184000E+00
        -11   -1    0    0    0    0  0.00000000000E+00  0.00000000000E+00  0.45593999997E+02  0.45594000000E+02  0.51100000000E-03 0. -1.
         11   -1    0    0    0    0 -0.00000000000E+00 -0.00000000000E+00 -0.45593999997E+02  0.45594000000E+02  0.51100000000E-03 0.  1.
         23    2    1    2    0    0 -0.26645352591E-14  0.00000000000E+00  0.14210854715E-13  0.91188000000E+02  0.91188000000E+02 0.  0.
    9900012    2    3    3    0    0  0.79823985379E+01  0.17615381734E+02 -0.31333027259E+02  0.54367096191E+02  0.40000027387E+02 0.  0.
         12    1    3    3    0    0 -0.79823985379E+01 -0.17615381734E+02  0.31333027259E+02  0.36820903809E+02  0.00000000000E+00 0. -1.
         11    1    4    4    0    0  0.10283659690E+02  0.14196279388E+02 -0.36037595753E+02  0.40074883818E+02  0.51100000000E-03 0.  1.
        -11    1    4    4    0    0  0.35093699079E+01 -0.21275511227E+01 -0.12532276558E+01  0.42910057969E+01  0.51100000000E-03 0. -1.
        -12    1    4    4    0    0 -0.58106310601E+01  0.55466534692E+01  0.59577961498E+01  0.10001206577E+02  0.00000000000E+00 0.  1.
</event>
<event>
 8    1  0.3137106E-007  0.9118800E+02  0.7816164E-02  0.1184000E+00
        -11   -1    0    0    0    0  0.00000000000E+00  0.00000000000E+00  0.45593999997E+02  0.45594000000E+02  0.51100000000E-03 0. -1.
         11   -1    0    0    0    0 -0.00000000000E+00 -0.00000000000E+00 -0.45593999997E+02  0.45594000000E+02  0.51100000000E-03 0.  1.
         23    2    1    2    0    0  0.00000000000E+00  0.35527136788E-14  0.00000000000E+00  0.91188000000E+02  0.91188000000E+02 0.  0.
    9900012    2    3    3    0    0  0.23025060525E+02  0.21205186881E+02 -0.19389854192E+02  0.54367084633E+02  0.40000001039E+02 0.  0.
         12    1    3    3    0    0 -0.23025060525E+02 -0.21205186881E+02  0.19389854192E+02  0.36820915367E+02  0.00000000000E+00 0. -1.
         11    1    4    4    0    0  0.76070635440E+01 -0.45836970196E+01 -0.17250965742E+01  0.90473008451E+01  0.51100000000E-03 0. -1.
        -11    1    4    4    0    0  0.12641214802E+01  0.14171660054E+02 -0.22280633024E+02  0.26435970949E+02  0.51100000000E-03 0.  1.
         12    1    4    4    0    0  0.14153875501E+02  0.11617223847E+02  0.46158754058E+01  0.18883812840E+02  0.00000000000E+00 0. -1.
</event>
<event>
 8    1  0.3137106E-007  0.9118800E+02  0.7816164E-02  0.1184000E+00
        -11   -1    0    0    0    0  0.00000000000E+00  0.00000000000E+00  0.45593999997E+02  0.45594000000E+02  0.51100000000E-03 0.  1.
         11   -1    0    0    0    0 -0.00000000000E+00 -0.00000000000E+00 -0.45593999997E+02  0.45594000000E+02  0.51100000000E-03 0. -1.
         23    2    1    2    0    0  0.35527136788E-14  0.00000000000E+00 -0.17763568394E-14  0.91188000000E+02  0.91188000000E+02 0.  0.
    9900012    2    3    3    0    0  0.18658232406E+02  0.29923292460E+02 -0.10594623989E+02  0.54367093905E+02  0.40000022176E+02 0.  0.
         12    1    3    3    0    0 -0.18658232406E+02 -0.29923292460E+02  0.10594623989E+02  0.36820906095E+02  0.00000000000E+00 0. -1.
         11    1    4    4    0    0  0.69929233240E+01  0.49592576134E+00  0.12968986281E+01  0.71294365337E+01  0.51100000000E-03 0. -1.
        -11    1    4    4    0    0 -0.88869246064E+01 -0.67475541455E+00 -0.47725245535E-01  0.89126315861E+01  0.51100000000E-03 0.  1.
         12    1    4    4    0    0  0.20552233689E+02  0.30102122113E+02 -0.11843797372E+02  0.38325025786E+02  0.00000000000E+00 0. -1.
</event>
<event>
 8    1  0.3137106E-007  0.9118800E+02  0.7816164E-02  0.1184000E+00
        -11   -1    0    0    0    0  0.00000000000E+00  0.00000000000E+00  0.45593999997E+02  0.45594000000E+02  0.51100000000E-03 0.  1.
         11   -1    0    0    0    0 -0.00000000000E+00 -0.00000000000E+00 -0.45593999997E+02  0.45594000000E+02  0.51100000000E-03 0. -1.
         23    2    1    2    0    0 -0.35527136788E-14  0.00000000000E+00  0.35527136788E-14  0.91188000000E+02  0.91188000000E+02 0.  0.
    9900012    2    3    3    0    0  0.30152032990E+02  0.99204917947E+01  0.18660519209E+02  0.54367133252E+02  0.40000111876E+02 0.  0.
         12    1    3    3    0    0 -0.30152032990E+02 -0.99204917947E+01 -0.18660519209E+02  0.36820866748E+02  0.00000000000E+00 0. -1.
         11    1    4    4    0    0  0.21415764693E+02 -0.34934469849E+01  0.75429002113E+01  0.22972472507E+02  0.51100000000E-03 0. -1.
        -11    1    4    4    0    0  0.28496416875E+01  0.58314557712E+01  0.18292786640E+02  0.19410110187E+02  0.51100000000E-03 0.  1.
         12    1    4    4    0    0  0.58866266097E+01  0.75824830084E+01 -0.71751676417E+01  0.11984550559E+02  0.00000000000E+00 0. -1.
</event>
<event>
 8    1  0.3137106E-007  0.9118800E+02  0.7816164E-02  0.1184000E+00
        -11   -1    0    0    0    0  0.00000000000E+00  0.00000000000E+00  0.45593999997E+02  0.45594000000E+02  0.51100000000E-03 0. -1.
         11   -1    0    0    0    0 -0.00000000000E+00 -0.00000000000E+00 -0.45593999997E+02  0.45594000000E+02  0.51100000000E-03 0.  1.
         23    2    1    2    0    0  0.00000000000E+00  0.00000000000E+00 -0.71054273576E-14  0.91188000000E+02  0.91188000000E+02 0.  0.
    9900012    2    3    3    0    0  0.16113070549E+02 -0.66407743193E+01 -0.32435311015E+02  0.54367077595E+02  0.39999984994E+02 0.  0.
         12    1    3    3    0    0 -0.16113070549E+02  0.66407743193E+01  0.32435311015E+02  0.36820922405E+02  0.00000000000E+00 0. -1.
         11    1    4    4    0    0 -0.69407766632E+01  0.56391382380E+01 -0.52200287933E+01  0.10354852081E+02  0.51100000000E-03 0. -1.
        -11    1    4    4    0    0  0.19295153451E+02 -0.13166639586E+02 -0.30858652392E+02  0.38702968522E+02  0.51100000000E-03 0.  1.
        -12    1    4    4    0    0  0.37586937609E+01  0.88672702847E+00  0.36433701704E+01  0.53092569923E+01  0.00000000000E+00 0.  1.
</event>
<event>
 8    1  0.3137106E-007  0.9118800E+02  0.7816164E-02  0.1184000E+00
        -11   -1    0    0    0    0  0.00000000000E+00  0.00000000000E+00  0.45593999997E+02  0.45594000000E+02  0.51100000000E-03 0.  1.
         11   -1    0    0    0    0 -0.00000000000E+00 -0.00000000000E+00 -0.45593999997E+02  0.45594000000E+02  0.51100000000E-03 0. -1.
         23    2    1    2    0    0  0.00000000000E+00  0.00000000000E+00  0.00000000000E+00  0.91188000000E+02  0.91188000000E+02 0.  0.
    9900012    2    3    3    0    0 -0.27204951576E+02 -0.17396227823E+02  0.17692951830E+02  0.54367099995E+02  0.40000036059E+02 0.  0.
         12    1    3    3    0    0  0.27204951576E+02  0.17396227823E+02 -0.17692951830E+02  0.36820900005E+02  0.00000000000E+00 0. -1.
         11    1    4    4    0    0 -0.55989076802E+01 -0.13946204774E+02  0.24154184098E+02  0.28447653762E+02  0.51100000000E-03 0.  1.
        -11    1    4    4    0    0 -0.13309123049E+02  0.28767126421E+01 -0.73036442009E+01  0.15451584088E+02  0.51100000000E-03 0. -1.
        -12    1    4    4    0    0 -0.82969208474E+01 -0.63267356902E+01  0.84241193230E+00  0.10467862146E+02  0.00000000000E+00 0.  1.
</event>
<event>
 8    1  0.3137106E-007  0.9118800E+02  0.7816164E-02  0.1184000E+00
        -11   -1    0    0    0    0  0.00000000000E+00  0.00000000000E+00  0.45593999997E+02  0.45594000000E+02  0.51100000000E-03 0.  1.
         11   -1    0    0    0    0 -0.00000000000E+00 -0.00000000000E+00 -0.45593999997E+02  0.45594000000E+02  0.51100000000E-03 0. -1.
         23    2    1    2    0    0 -0.17763568394E-14  0.00000000000E+00 -0.88817841970E-15  0.91188000000E+02  0.91188000000E+02 0.  0.
    9900012    2    3    3    0    0  0.10687954682E+02 -0.34380107265E+02 -0.77168843723E+01  0.54367157326E+02  0.40000166756E+02 0.  0.
         12    1    3    3    0    0 -0.10687954682E+02  0.34380107265E+02  0.77168843723E+01  0.36820842674E+02  0.00000000000E+00 0. -1.
         11    1    4    4    0    0  0.22815178226E+02 -0.25309774352E+02 -0.10301219145E+02  0.35598204328E+02  0.51100000000E-03 0. -1.
        -11    1    4    4    0    0 -0.67950548181E+01 -0.95044052280E+00 -0.30834780518E+01  0.75222300101E+01  0.51100000000E-03 0.  1.
         12    1    4    4    0    0 -0.53321687268E+01 -0.81198923894E+01  0.56678128241E+01  0.11246722987E+02  0.00000000000E+00 0. -1.
</event>
<event>
 8    1  0.3137106E-007  0.9118800E+02  0.7816164E-02  0.1184000E+00
        -11   -1    0    0    0    0  0.00000000000E+00  0.00000000000E+00  0.45593999997E+02  0.45594000000E+02  0.51100000000E-03 0.  1.
         11   -1    0    0    0    0 -0.00000000000E+00 -0.00000000000E+00 -0.45593999997E+02  0.45594000000E+02  0.51100000000E-03 0. -1.
         23    2    1    2    0    0 -0.13322676296E-14 -0.17763568394E-14  0.00000000000E+00  0.91188000000E+02  0.91188000000E+02 0.  0.
    9900012    2    3    3    0    0  0.20045247202E+01  0.10412471437E+02  0.35261064964E+02  0.54367076829E+02  0.39999983248E+02 0.  0.
         12    1    3    3    0    0 -0.20045247202E+01 -0.10412471437E+02 -0.35261064964E+02  0.36820923171E+02  0.00000000000E+00 0. -1.
         11    1    4    4    0    0  0.96535436674E+00  0.10919935927E+01 -0.30704246764E+01  0.33988037623E+01  0.51100000000E-03 0. -1.
        -11    1    4    4    0    0 -0.89592882781E+01  0.68657751121E+01  0.95835983498E-02  0.11287506653E+02  0.51100000000E-03 0.  1.
         12    1    4    4    0    0  0.99984586316E+01  0.24547027320E+01  0.38321906042E+02  0.39680766414E+02  0.00000000000E+00 0. -1.
</event>
<event>
 8    1  0.3137106E-007  0.9118800E+02  0.7816164E-02  0.1184000E+00
        -11   -1    0    0    0    0  0.00000000000E+00  0.00000000000E+00  0.45593999997E+02  0.45594000000E+02  0.51100000000E-03 0. -1.
         11   -1    0    0    0    0 -0.00000000000E+00 -0.00000000000E+00 -0.45593999997E+02  0.45594000000E+02  0.51100000000E-03 0.  1.
         23    2    1    2    0    0  0.35527136788E-14  0.35527136788E-14  0.88817841970E-15  0.91188000000E+02  0.91188000000E+02 0.  0.
    9900012    2    3    3    0    0 -0.30418259821E+02 -0.19214524554E+02 -0.78302073061E+01  0.54367073465E+02  0.39999975579E+02 0.  0.
         12    1    3    3    0    0  0.30418259821E+02  0.19214524554E+02  0.78302073061E+01  0.36820926535E+02  0.00000000000E+00 0. -1.
         11    1    4    4    0    0 -0.35686954332E+02 -0.16107492852E+02 -0.18972355755E+01  0.39199611459E+02  0.51100000000E-03 0. -1.
        -11    1    4    4    0    0 -0.17281888619E+01 -0.41774201444E+01 -0.66627141134E+01  0.80516604141E+01  0.51100000000E-03 0.  1.
         12    1    4    4    0    0  0.69968833729E+01  0.10703884417E+01  0.72974238289E+00  0.71158015919E+01  0.00000000000E+00 0. -1.
</event>
<event>
 8    1  0.3137106E-007  0.9118800E+02  0.7816164E-02  0.1184000E+00
        -11   -1    0    0    0    0  0.00000000000E+00  0.00000000000E+00  0.45593999997E+02  0.45594000000E+02  0.51100000000E-03 0.  1.
         11   -1    0    0    0    0 -0.00000000000E+00 -0.00000000000E+00 -0.45593999997E+02  0.45594000000E+02  0.51100000000E-03 0. -1.
         23    2    1    2    0    0 -0.22204460493E-15  0.17763568394E-14  0.00000000000E+00  0.91188000000E+02  0.91188000000E+02 0.  0.
    9900012    2    3    3    0    0 -0.10279036284E+01 -0.15064534279E+02  0.33582480860E+02  0.54367084753E+02  0.40000001312E+02 0.  0.
         12    1    3    3    0    0  0.10279036284E+01  0.15064534279E+02 -0.33582480860E+02  0.36820915247E+02  0.00000000000E+00 0. -1.
         11    1    4    4    0    0 -0.29223389743E+01 -0.82332268653E+01  0.19453174033E+01  0.89504385232E+01  0.51100000000E-03 0. -1.
        -11    1    4    4    0    0  0.50247875545E+01  0.10431622984E+02  0.23243249616E+02  0.25967593285E+02  0.51100000000E-03 0.  1.
        -12    1    4    4    0    0 -0.31303522086E+01 -0.17262930398E+02  0.83939138404E+01  0.19449052945E+02  0.00000000000E+00 0.  1.
</event>
<event>
 8    1  0.3137106E-007  0.9118800E+02  0.7816164E-02  0.1184000E+00
        -11   -1    0    0    0    0  0.00000000000E+00  0.00000000000E+00  0.45593999997E+02  0.45594000000E+02  0.51100000000E-03 0.  1.
         11   -1    0    0    0    0 -0.00000000000E+00 -0.00000000000E+00 -0.45593999997E+02  0.45594000000E+02  0.51100000000E-03 0. -1.
         23    2    1    2    0    0 -0.26645352591E-14  0.88817841970E-15  0.00000000000E+00  0.91188000000E+02  0.91188000000E+02 0.  0.
    9900012    2    3    3    0    0  0.35043970006E+01 -0.65890975511E+01  0.36056677747E+02  0.54367068249E+02  0.39999963687E+02 0.  0.
         12    1    3    3    0    0 -0.35043970006E+01  0.65890975511E+01 -0.36056677747E+02  0.36820931751E+02  0.00000000000E+00 0. -1.
         11    1    4    4    0    0 -0.17831123058E+02 -0.26607699605E+01  0.10626509598E+02  0.20927287277E+02  0.51100000000E-03 0. -1.
        -11    1    4    4    0    0  0.15404082375E+02 -0.32115261613E+01  0.18117015599E+02  0.23996372821E+02  0.51100000000E-03 0.  1.
         12    1    4    4    0    0  0.59314376830E+01 -0.71680142929E+00  0.73131525501E+01  0.94434081505E+01  0.00000000000E+00 0. -1.
</event>
<event>
 8    1  0.3137106E-007  0.9118800E+02  0.7816164E-02  0.1184000E+00
        -11   -1    0    0    0    0  0.00000000000E+00  0.00000000000E+00  0.45593999997E+02  0.45594000000E+02  0.51100000000E-03 0. -1.
         11   -1    0    0    0    0 -0.00000000000E+00 -0.00000000000E+00 -0.45593999997E+02  0.45594000000E+02  0.51100000000E-03 0.  1.
         23    2    1    2    0    0 -0.88817841970E-15  0.71054273576E-14  0.17763568394E-14  0.91188000000E+02  0.91188000000E+02 0.  0.
    9900012    2    3    3    0    0 -0.54851693472E+01 -0.35224297954E+02 -0.92163287782E+01  0.54367096083E+02  0.40000027141E+02 0.  0.
         12    1    3    3    0    0  0.54851693472E+01  0.35224297954E+02  0.92163287782E+01  0.36820903917E+02  0.00000000000E+00 0. -1.
         11    1    4    4    0    0 -0.28956857276E+01 -0.25082879079E+00  0.51286478352E+01  0.58949927731E+01  0.51100000000E-03 0. -1.
        -11    1    4    4    0    0  0.13369515004E+02 -0.21723293363E+02 -0.90348325932E+01  0.27060554433E+02  0.51100000000E-03 0.  1.
        -12    1    4    4    0    0 -0.15958998623E+02 -0.13250175800E+02 -0.53101440202E+01  0.21411548877E+02  0.00000000000E+00 0.  1.
</event>
<event>
 8    1  0.3137106E-007  0.9118800E+02  0.7816164E-02  0.1184000E+00
        -11   -1    0    0    0    0  0.00000000000E+00  0.00000000000E+00  0.45593999997E+02  0.45594000000E+02  0.51100000000E-03 0.  1.
         11   -1    0    0    0    0 -0.00000000000E+00 -0.00000000000E+00 -0.45593999997E+02  0.45594000000E+02  0.51100000000E-03 0. -1.
         23    2    1    2    0    0  0.35527136788E-14 -0.35527136788E-14  0.35527136788E-14  0.91188000000E+02  0.91188000000E+02 0.  0.
    9900012    2    3    3    0    0  0.20900523879E+02 -0.25742895978E+02  0.16007984159E+02  0.54367025698E+02  0.39999866684E+02 0.  0.
         12    1    3    3    0    0 -0.20900523879E+02  0.25742895978E+02 -0.16007984159E+02  0.36820974302E+02  0.00000000000E+00 0. -1.
         11    1    4    4    0    0  0.67077022896E+00 -0.20534309880E+01  0.39832854401E+01  0.45313435845E+01  0.51100000000E-03 0. -1.
        -11    1    4    4    0    0  0.11029532955E+02 -0.22669906678E+02  0.23927142901E+02  0.34757494640E+02  0.51100000000E-03 0.  1.
         12    1    4    4    0    0  0.92002206947E+01 -0.10195583113E+01 -0.11902444182E+02  0.15078187473E+02  0.00000000000E+00 0. -1.
</event>
<event>
 8    1  0.3137106E-007  0.9118800E+02  0.7816164E-02  0.1184000E+00
        -11   -1    0    0    0    0  0.00000000000E+00  0.00000000000E+00  0.45593999997E+02  0.45594000000E+02  0.51100000000E-03 0.  1.
         11   -1    0    0    0    0 -0.00000000000E+00 -0.00000000000E+00 -0.45593999997E+02  0.45594000000E+02  0.51100000000E-03 0. -1.
         23    2    1    2    0    0  0.00000000000E+00 -0.88817841970E-15  0.00000000000E+00  0.91188000000E+02  0.91188000000E+02 0.  0.
    9900012    2    3    3    0    0 -0.17826890463E+02  0.76073282399E+00 -0.32208786358E+02  0.54367045957E+02  0.39999912868E+02 0.  0.
        -12    1    3    3    0    0  0.17826890463E+02 -0.76073282399E+00  0.32208786358E+02  0.36820954043E+02  0.00000000000E+00 0.  1.
         11    1    4    4    0    0 -0.46888248589E+01 -0.40804206743E+01 -0.74058594793E+01  0.96685917446E+01  0.51100000000E-03 0. -1.
        -11    1    4    4    0    0  0.67550995190E+01  0.13170929820E+02 -0.56145796446E+01  0.15831243371E+02  0.51100000000E-03 0.  1.
        -12    1    4    4    0    0 -0.19893165123E+02 -0.83297763214E+01 -0.19188347234E+02  0.28867210841E+02  0.00000000000E+00 0.  1.
</event>
<event>
 8    1  0.3137106E-007  0.9118800E+02  0.7816164E-02  0.1184000E+00
        -11   -1    0    0    0    0  0.00000000000E+00  0.00000000000E+00  0.45593999997E+02  0.45594000000E+02  0.51100000000E-03 0.  1.
         11   -1    0    0    0    0 -0.00000000000E+00 -0.00000000000E+00 -0.45593999997E+02  0.45594000000E+02  0.51100000000E-03 0. -1.
         23    2    1    2    0    0  0.17763568394E-14  0.17763568394E-14  0.00000000000E+00  0.91188000000E+02  0.91188000000E+02 0.  0.
    9900012    2    3    3    0    0  0.13604515033E+02  0.14645523883E+02  0.30922506771E+02  0.54367141453E+02  0.40000130571E+02 0.  0.
         12    1    3    3    0    0 -0.13604515033E+02 -0.14645523883E+02 -0.30922506771E+02  0.36820858547E+02  0.00000000000E+00 0. -1.
         11    1    4    4    0    0 -0.29613498359E+01 -0.10102850581E+01  0.90078679125E+01  0.95358247331E+01  0.51100000000E-03 0.  1.
        -11    1    4    4    0    0  0.59423767118E+01  0.24544490229E+02  0.14488751052E+02  0.29114734223E+02  0.51100000000E-03 0. -1.
         12    1    4    4    0    0  0.10623488158E+02 -0.88886812879E+01  0.74258878064E+01  0.15716582497E+02  0.00000000000E+00 0. -1.
</event>
<event>
 8    1  0.3137106E-007  0.9118800E+02  0.7816164E-02  0.1184000E+00
        -11   -1    0    0    0    0  0.00000000000E+00  0.00000000000E+00  0.45593999997E+02  0.45594000000E+02  0.51100000000E-03 0. -1.
         11   -1    0    0    0    0 -0.00000000000E+00 -0.00000000000E+00 -0.45593999997E+02  0.45594000000E+02  0.51100000000E-03 0.  1.
         23    2    1    2    0    0  0.00000000000E+00  0.00000000000E+00  0.00000000000E+00  0.91188000000E+02  0.91188000000E+02 0.  0.
    9900012    2    3    3    0    0  0.15341804133E+02  0.20092098648E+02  0.26771566507E+02  0.54367079922E+02  0.39999990299E+02 0.  0.
        -12    1    3    3    0    0 -0.15341804133E+02 -0.20092098648E+02 -0.26771566507E+02  0.36820920078E+02  0.00000000000E+00 0.  1.
         11    1    4    4    0    0 -0.50711587561E+01  0.14774829856E+02 -0.41085177263E+01  0.16152156716E+02  0.51100000000E-03 0. -1.
        -11    1    4    4    0    0  0.92219455635E+01  0.41400605054E+01  0.86721774871E+01  0.13318822906E+02  0.51100000000E-03 0.  1.
         12    1    4    4    0    0  0.11191017326E+02  0.11772082867E+01  0.22207906746E+02  0.24896100301E+02  0.00000000000E+00 0. -1.
</event>
<event>
 8    1  0.3137106E-007  0.9118800E+02  0.7816164E-02  0.1184000E+00
        -11   -1    0    0    0    0  0.00000000000E+00  0.00000000000E+00  0.45593999997E+02  0.45594000000E+02  0.51100000000E-03 0.  1.
         11   -1    0    0    0    0 -0.00000000000E+00 -0.00000000000E+00 -0.45593999997E+02  0.45594000000E+02  0.51100000000E-03 0. -1.
         23    2    1    2    0    0  0.00000000000E+00 -0.35527136788E-14  0.00000000000E+00  0.91188000000E+02  0.91188000000E+02 0.  0.
    9900012    2    3    3    0    0 -0.20345419222E+02  0.28381803866E+02  0.11675745972E+02  0.54367001670E+02  0.39999811907E+02 0.  0.
         12    1    3    3    0    0  0.20345419222E+02 -0.28381803866E+02 -0.11675745972E+02  0.36820998330E+02  0.00000000000E+00 0. -1.
         11    1    4    4    0    0 -0.89152012631E+01  0.28164876315E+02  0.36391111511E+01  0.29765486753E+02  0.51100000000E-03 0. -1.
        -11    1    4    4    0    0  0.20621555136E+00  0.82216192362E+01 -0.24668949527E+00  0.82279039668E+01  0.51100000000E-03 0.  1.
        -12    1    4    4    0    0 -0.11636433510E+02 -0.80046916855E+01  0.82833243166E+01  0.16373610950E+02  0.00000000000E+00 0.  1.
</event>
<event>
 8    1  0.3137106E-007  0.9118800E+02  0.7816164E-02  0.1184000E+00
        -11   -1    0    0    0    0  0.00000000000E+00  0.00000000000E+00  0.45593999997E+02  0.45594000000E+02  0.51100000000E-03 0. -1.
         11   -1    0    0    0    0 -0.00000000000E+00 -0.00000000000E+00 -0.45593999997E+02  0.45594000000E+02  0.51100000000E-03 0.  1.
         23    2    1    2    0    0  0.00000000000E+00  0.00000000000E+00  0.00000000000E+00  0.91188000000E+02  0.91188000000E+02 0.  0.
    9900012    2    3    3    0    0  0.16213374720E+02  0.24806992212E+02 -0.21852118996E+02  0.54367143315E+02  0.40000134814E+02 0.  0.
         12    1    3    3    0    0 -0.16213374720E+02 -0.24806992212E+02  0.21852118996E+02  0.36820856685E+02  0.00000000000E+00 0. -1.
         11    1    4    4    0    0  0.10784217624E+02 -0.61065482619E+01 -0.64176821664E+01  0.13956214604E+02  0.51100000000E-03 0. -1.
        -11    1    4    4    0    0  0.12894101835E+02  0.21475988712E+02 -0.12639232068E+02  0.28057550513E+02  0.51100000000E-03 0.  1.
         12    1    4    4    0    0 -0.74649447390E+01  0.94375517621E+01 -0.27952047619E+01  0.12353378197E+02  0.00000000000E+00 0. -1.
</event>
<event>
 8    1  0.3137106E-007  0.9118800E+02  0.7816164E-02  0.1184000E+00
        -11   -1    0    0    0    0  0.00000000000E+00  0.00000000000E+00  0.45593999997E+02  0.45594000000E+02  0.51100000000E-03 0. -1.
         11   -1    0    0    0    0 -0.00000000000E+00 -0.00000000000E+00 -0.45593999997E+02  0.45594000000E+02  0.51100000000E-03 0.  1.
         23    2    1    2    0    0  0.33306690739E-15 -0.71054273576E-14  0.00000000000E+00  0.91188000000E+02  0.91188000000E+02 0.  0.
    9900012    2    3    3    0    0 -0.81262200240E+00  0.36001440288E+02 -0.76822179708E+01  0.54367074831E+02  0.39999978692E+02 0.  0.
         12    1    3    3    0    0  0.81262200240E+00 -0.36001440288E+02  0.76822179708E+01  0.36820925169E+02  0.00000000000E+00 0. -1.
         11    1    4    4    0    0 -0.15790424179E+02  0.19302085796E+02 -0.37753639790E+01  0.25222239895E+02  0.51100000000E-03 0. -1.
        -11    1    4    4    0    0  0.75868121245E+01  0.18219628085E+02 -0.70681956385E+01  0.20963634122E+02  0.51100000000E-03 0.  1.
         12    1    4    4    0    0  0.73909900525E+01 -0.15202735932E+01  0.31613416467E+01  0.81812008142E+01  0.00000000000E+00 0. -1.
</event>
<event>
 8    1  0.3137106E-007  0.9118800E+02  0.7816164E-02  0.1184000E+00
        -11   -1    0    0    0    0  0.00000000000E+00  0.00000000000E+00  0.45593999997E+02  0.45594000000E+02  0.51100000000E-03 0.  1.
         11   -1    0    0    0    0 -0.00000000000E+00 -0.00000000000E+00 -0.45593999997E+02  0.45594000000E+02  0.51100000000E-03 0. -1.
         23    2    1    2    0    0  0.35527136788E-14  0.00000000000E+00  0.00000000000E+00  0.91188000000E+02  0.91188000000E+02 0.  0.
    9900012    2    3    3    0    0 -0.27286010549E+02 -0.23996460157E+02 -0.59517670161E+01  0.54367082000E+02  0.39999995036E+02 0.  0.
        -12    1    3    3    0    0  0.27286010549E+02  0.23996460157E+02  0.59517670161E+01  0.36820918000E+02  0.00000000000E+00 0.  1.
         11    1    4    4    0    0  0.27964577659E+01 -0.10293168860E+02 -0.56499042929E+01  0.12070249376E+02  0.51100000000E-03 0. -1.
        -11    1    4    4    0    0 -0.18241937236E+02 -0.15061599093E+02 -0.11175941112E+02  0.26163365635E+02  0.51100000000E-03 0.  1.
        -12    1    4    4    0    0 -0.11840531078E+02  0.13583077958E+01  0.10874078388E+02  0.16133466989E+02  0.00000000000E+00 0.  1.
</event>
<event>
 8    1  0.3137106E-007  0.9118800E+02  0.7816164E-02  0.1184000E+00
        -11   -1    0    0    0    0  0.00000000000E+00  0.00000000000E+00  0.45593999997E+02  0.45594000000E+02  0.51100000000E-03 0.  1.
         11   -1    0    0    0    0 -0.00000000000E+00 -0.00000000000E+00 -0.45593999997E+02  0.45594000000E+02  0.51100000000E-03 0. -1.
         23    2    1    2    0    0  0.35527136788E-14  0.35527136788E-14  0.35527136788E-14  0.91188000000E+02  0.91188000000E+02 0.  0.
    9900012    2    3    3    0    0  0.26838745472E+02  0.18612367770E+02  0.17001202004E+02  0.54367090695E+02  0.40000014856E+02 0.  0.
         12    1    3    3    0    0 -0.26838745472E+02 -0.18612367770E+02 -0.17001202004E+02  0.36820909305E+02  0.00000000000E+00 0. -1.
         11    1    4    4    0    0  0.32739457645E+01  0.13085233519E+02  0.14093641776E+02  0.19508275061E+02  0.51100000000E-03 0. -1.
        -11    1    4    4    0    0  0.57488255909E+01  0.23482275485E+01  0.12805330847E+02  0.14231643147E+02  0.51100000000E-03 0.  1.
        -12    1    4    4    0    0  0.17815974117E+02  0.31789067024E+01 -0.98977706191E+01  0.20627172486E+02  0.00000000000E+00 0.  1.
</event>
<event>
 8    1  0.3137106E-007  0.9118800E+02  0.7816164E-02  0.1184000E+00
        -11   -1    0    0    0    0  0.00000000000E+00  0.00000000000E+00  0.45593999997E+02  0.45594000000E+02  0.51100000000E-03 0. -1.
         11   -1    0    0    0    0 -0.00000000000E+00 -0.00000000000E+00 -0.45593999997E+02  0.45594000000E+02  0.51100000000E-03 0.  1.
         23    2    1    2    0    0  0.35527136788E-14  0.17763568394E-14  0.35527136788E-14  0.91188000000E+02  0.91188000000E+02 0.  0.
    9900012    2    3    3    0    0  0.18543722168E+02  0.64733662231E+01  0.31144931404E+02  0.54367070431E+02  0.39999968662E+02 0.  0.
        -12    1    3    3    0    0 -0.18543722168E+02 -0.64733662231E+01 -0.31144931404E+02  0.36820929569E+02  0.00000000000E+00 0.  1.
         11    1    4    4    0    0  0.25681212144E+02 -0.86749137236E+00  0.20604581665E+02  0.32936696621E+02  0.51100000000E-03 0. -1.
        -11    1    4    4    0    0 -0.38270610536E+01  0.11371129947E+02  0.10889986254E+02  0.16203110610E+02  0.51100000000E-03 0.  1.
         12    1    4    4    0    0 -0.33104289217E+01 -0.40302723513E+01 -0.34963651460E+00  0.52272632001E+01  0.00000000000E+00 0. -1.
</event>
<event>
 8    1  0.3137106E-007  0.9118800E+02  0.7816164E-02  0.1184000E+00
        -11   -1    0    0    0    0  0.00000000000E+00  0.00000000000E+00  0.45593999997E+02  0.45594000000E+02  0.51100000000E-03 0. -1.
         11   -1    0    0    0    0 -0.00000000000E+00 -0.00000000000E+00 -0.45593999997E+02  0.45594000000E+02  0.51100000000E-03 0.  1.
         23    2    1    2    0    0  0.00000000000E+00  0.00000000000E+00  0.00000000000E+00  0.91188000000E+02  0.91188000000E+02 0.  0.
    9900012    2    3    3    0    0  0.16480046840E+02 -0.25942332885E+02 -0.20277665761E+02  0.54367077849E+02  0.39999985572E+02 0.  0.
         12    1    3    3    0    0 -0.16480046840E+02  0.25942332885E+02  0.20277665761E+02  0.36820922151E+02  0.00000000000E+00 0. -1.
         11    1    4    4    0    0  0.17203237464E+02 -0.16287738499E+02  0.96530649081E+00  0.23710200791E+02  0.51100000000E-03 0. -1.
        -11    1    4    4    0    0  0.79590834522E+01 -0.21551284483E+01 -0.16090456121E+02  0.18080220310E+02  0.51100000000E-03 0.  1.
         12    1    4    4    0    0 -0.86822740758E+01 -0.74994659369E+01 -0.51525161312E+01  0.12576656748E+02  0.00000000000E+00 0. -1.
</event>
<event>
 8    1  0.3137106E-007  0.9118800E+02  0.7816164E-02  0.1184000E+00
        -11   -1    0    0    0    0  0.00000000000E+00  0.00000000000E+00  0.45593999997E+02  0.45594000000E+02  0.51100000000E-03 0.  1.
         11   -1    0    0    0    0 -0.00000000000E+00 -0.00000000000E+00 -0.45593999997E+02  0.45594000000E+02  0.51100000000E-03 0. -1.
         23    2    1    2    0    0  0.35527136788E-14 -0.35527136788E-14  0.00000000000E+00  0.91188000000E+02  0.91188000000E+02 0.  0.
    9900012    2    3    3    0    0 -0.25911089999E+02 -0.24043307950E+02  0.10310863506E+02  0.54367093597E+02  0.40000021474E+02 0.  0.
        -12    1    3    3    0    0  0.25911089999E+02  0.24043307950E+02 -0.10310863506E+02  0.36820906403E+02  0.00000000000E+00 0.  1.
         11    1    4    4    0    0 -0.11273340858E+02 -0.20988510766E+02  0.16647750808E+01  0.23882572613E+02  0.51100000000E-03 0. -1.
        -11    1    4    4    0    0 -0.20564718076E+02 -0.52090959505E+01  0.19773178941E+01  0.21306151612E+02  0.51100000000E-03 0.  1.
        -12    1    4    4    0    0  0.59269689356E+01  0.21542987672E+01  0.66687705314E+01  0.91783693727E+01  0.00000000000E+00 0.  1.
</event>
<event>
 8    1  0.3137106E-007  0.9118800E+02  0.7816164E-02  0.1184000E+00
        -11   -1    0    0    0    0  0.00000000000E+00  0.00000000000E+00  0.45593999997E+02  0.45594000000E+02  0.51100000000E-03 0. -1.
         11   -1    0    0    0    0 -0.00000000000E+00 -0.00000000000E+00 -0.45593999997E+02  0.45594000000E+02  0.51100000000E-03 0.  1.
         23    2    1    2    0    0  0.00000000000E+00  0.35527136788E-14  0.00000000000E+00  0.91188000000E+02  0.91188000000E+02 0.  0.
    9900012    2    3    3    0    0 -0.90791516936E+01 -0.25383817308E+02 -0.25080075607E+02  0.54367090600E+02  0.40000014641E+02 0.  0.
         12    1    3    3    0    0  0.90791516936E+01  0.25383817308E+02  0.25080075607E+02  0.36820909400E+02  0.00000000000E+00 0. -1.
         11    1    4    4    0    0  0.74549885330E+01 -0.75809444741E+01  0.36174990442E+01  0.11230933743E+02  0.51100000000E-03 0. -1.
        -11    1    4    4    0    0 -0.46019868015E+01  0.84834845172E-01 -0.18997656267E+02  0.19547286854E+02  0.51100000000E-03 0.  1.
        -12    1    4    4    0    0 -0.11932153425E+02 -0.17887707679E+02 -0.96999183844E+01  0.23588870003E+02  0.00000000000E+00 0.  1.
</event>
<event>
 8    1  0.3137106E-007  0.9118800E+02  0.7816164E-02  0.1184000E+00
        -11   -1    0    0    0    0  0.00000000000E+00  0.00000000000E+00  0.45593999997E+02  0.45594000000E+02  0.51100000000E-03 0.  1.
         11   -1    0    0    0    0 -0.00000000000E+00 -0.00000000000E+00 -0.45593999997E+02  0.45594000000E+02  0.51100000000E-03 0. -1.
         23    2    1    2    0    0 -0.35527136788E-14 -0.71054273576E-14  0.00000000000E+00  0.91188000000E+02  0.91188000000E+02 0.  0.
    9900012    2    3    3    0    0 -0.16405053746E+02 -0.31902745040E+02  0.82987918522E+01  0.54367070141E+02  0.39999968000E+02 0.  0.
         12    1    3    3    0    0  0.16405053746E+02  0.31902745040E+02 -0.82987918522E+01  0.36820929859E+02  0.00000000000E+00 0. -1.
         11    1    4    4    0    0 -0.12649758404E+02 -0.26686647043E+02  0.17223480043E+02  0.34188328171E+02  0.51100000000E-03 0.  1.
        -11    1    4    4    0    0  0.20145579448E+01 -0.10155075213E+02 -0.64171292747E+01  0.12180457491E+02  0.51100000000E-03 0. -1.
        -12    1    4    4    0    0 -0.57698532871E+01  0.49389772160E+01 -0.25075589160E+01  0.79982844793E+01  0.00000000000E+00 0.  1.
</event>
<event>
 8    1  0.3137106E-007  0.9118800E+02  0.7816164E-02  0.1184000E+00
        -11   -1    0    0    0    0  0.00000000000E+00  0.00000000000E+00  0.45593999997E+02  0.45594000000E+02  0.51100000000E-03 0.  1.
         11   -1    0    0    0    0 -0.00000000000E+00 -0.00000000000E+00 -0.45593999997E+02  0.45594000000E+02  0.51100000000E-03 0. -1.
         23    2    1    2    0    0  0.00000000000E+00  0.00000000000E+00  0.35527136788E-14  0.91188000000E+02  0.91188000000E+02 0.  0.
    9900012    2    3    3    0    0 -0.61876308352E+01  0.20633548180E+02 -0.29862218019E+02  0.54367052825E+02  0.39999928526E+02 0.  0.
        -12    1    3    3    0    0  0.61876308352E+01 -0.20633548180E+02  0.29862218019E+02  0.36820947175E+02  0.00000000000E+00 0.  1.
         11    1    4    4    0    0 -0.16733706426E+01  0.54500849348E+01  0.23050260934E+01  0.61495317428E+01  0.51100000000E-03 0. -1.
        -11    1    4    4    0    0  0.20636272219E+01  0.74776547683E+01 -0.36414629592E+02  0.37231695190E+02  0.51100000000E-03 0.  1.
        -12    1    4    4    0    0 -0.65778874145E+01  0.77058084769E+01  0.42473854801E+01  0.10985825892E+02  0.00000000000E+00 0.  1.
</event>
<event>
 8    1  0.3137106E-007  0.9118800E+02  0.7816164E-02  0.1184000E+00
        -11   -1    0    0    0    0  0.00000000000E+00  0.00000000000E+00  0.45593999997E+02  0.45594000000E+02  0.51100000000E-03 0.  1.
         11   -1    0    0    0    0 -0.00000000000E+00 -0.00000000000E+00 -0.45593999997E+02  0.45594000000E+02  0.51100000000E-03 0. -1.
         23    2    1    2    0    0 -0.44408920985E-14  0.00000000000E+00  0.00000000000E+00  0.91188000000E+02  0.91188000000E+02 0.  0.
    9900012    2    3    3    0    0  0.74521795447E+01  0.60979165390E+01  0.35539569506E+02  0.54367074336E+02  0.39999977564E+02 0.  0.
         12    1    3    3    0    0 -0.74521795447E+01 -0.60979165390E+01 -0.35539569506E+02  0.36820925664E+02  0.00000000000E+00 0. -1.
         11    1    4    4    0    0  0.32096072179E+01 -0.11271376058E+01 -0.40679374787E+01  0.53028419991E+01  0.51100000000E-03 0. -1.
        -11    1    4    4    0    0  0.14194040224E+02  0.61516247629E+01  0.11640675701E+02  0.19360232337E+02  0.51100000000E-03 0.  1.
        -12    1    4    4    0    0 -0.99514678969E+01  0.10734293819E+01  0.27966831284E+02  0.29704000000E+02  0.00000000000E+00 0.  1.
</event>
<event>
 8    1  0.3137106E-007  0.9118800E+02  0.7816164E-02  0.1184000E+00
        -11   -1    0    0    0    0  0.00000000000E+00  0.00000000000E+00  0.45593999997E+02  0.45594000000E+02  0.51100000000E-03 0.  1.
         11   -1    0    0    0    0 -0.00000000000E+00 -0.00000000000E+00 -0.45593999997E+02  0.45594000000E+02  0.51100000000E-03 0. -1.
         23    2    1    2    0    0 -0.35527136788E-14  0.35527136788E-14  0.00000000000E+00  0.91188000000E+02  0.91188000000E+02 0.  0.
    9900012    2    3    3    0    0 -0.24948745486E+02  0.23116748485E+02 -0.14105059648E+02  0.54367127258E+02  0.40000098210E+02 0.  0.
         12    1    3    3    0    0  0.24948745486E+02 -0.23116748485E+02  0.14105059648E+02  0.36820872742E+02  0.00000000000E+00 0. -1.
         11    1    4    4    0    0 -0.19782698154E+01 -0.49003244362E+01 -0.13340851736E+02  0.14349392194E+02  0.51100000000E-03 0. -1.
        -11    1    4    4    0    0 -0.86809798102E+01  0.22859276277E+02  0.21588110576E+01  0.24547227701E+02  0.51100000000E-03 0.  1.
        -12    1    4    4    0    0 -0.14289495860E+02  0.51577966445E+01 -0.29230189696E+01  0.15470507363E+02  0.00000000000E+00 0.  1.
</event>
<event>
 8    1  0.3137106E-007  0.9118800E+02  0.7816164E-02  0.1184000E+00
        -11   -1    0    0    0    0  0.00000000000E+00  0.00000000000E+00  0.45593999997E+02  0.45594000000E+02  0.51100000000E-03 0.  1.
         11   -1    0    0    0    0 -0.00000000000E+00 -0.00000000000E+00 -0.45593999997E+02  0.45594000000E+02  0.51100000000E-03 0. -1.
         23    2    1    2    0    0  0.00000000000E+00  0.00000000000E+00  0.35527136788E-14  0.91188000000E+02  0.91188000000E+02 0.  0.
    9900012    2    3    3    0    0 -0.11787841182E+02  0.27452493613E+02  0.21521801144E+02  0.54367074838E+02  0.39999978708E+02 0.  0.
         12    1    3    3    0    0  0.11787841182E+02 -0.27452493613E+02 -0.21521801144E+02  0.36820925162E+02  0.00000000000E+00 0. -1.
         11    1    4    4    0    0 -0.36294237965E+01  0.25746926983E+02  0.69783296132E+01  0.26921627934E+02  0.51100000000E-03 0. -1.
        -11    1    4    4    0    0  0.62667689372E+01  0.19377064696E+01  0.10640300875E+02  0.12499724087E+02  0.51100000000E-03 0.  1.
         12    1    4    4    0    0 -0.14425186322E+02 -0.23213983954E+00  0.39031706557E+01  0.14945722816E+02  0.00000000000E+00 0. -1.
</event>
<event>
 8    1  0.3137106E-007  0.9118800E+02  0.7816164E-02  0.1184000E+00
        -11   -1    0    0    0    0  0.00000000000E+00  0.00000000000E+00  0.45593999997E+02  0.45594000000E+02  0.51100000000E-03 0. -1.
         11   -1    0    0    0    0 -0.00000000000E+00 -0.00000000000E+00 -0.45593999997E+02  0.45594000000E+02  0.51100000000E-03 0.  1.
         23    2    1    2    0    0  0.00000000000E+00  0.00000000000E+00  0.22204460493E-14  0.91188000000E+02  0.91188000000E+02 0.  0.
    9900012    2    3    3    0    0  0.30145355220E+02  0.20761506561E+02 -0.39996363037E+01  0.54367086289E+02  0.40000004812E+02 0.  0.
         12    1    3    3    0    0 -0.30145355220E+02 -0.20761506561E+02  0.39996363037E+01  0.36820913711E+02  0.00000000000E+00 0. -1.
         11    1    4    4    0    0  0.24799582624E+02  0.21704624104E+02  0.14114485114E+01  0.32986394059E+02  0.51100000000E-03 0. -1.
        -11    1    4    4    0    0  0.75408143747E+01 -0.48188689107E+01 -0.11034321856E+02  0.14207098159E+02  0.51100000000E-03 0.  1.
        -12    1    4    4    0    0 -0.21950417792E+01  0.38757513667E+01  0.56232370413E+01  0.71735940707E+01  0.00000000000E+00 0.  1.
</event>
<event>
 8    1  0.3137106E-007  0.9118800E+02  0.7816164E-02  0.1184000E+00
        -11   -1    0    0    0    0  0.00000000000E+00  0.00000000000E+00  0.45593999997E+02  0.45594000000E+02  0.51100000000E-03 0.  1.
         11   -1    0    0    0    0 -0.00000000000E+00 -0.00000000000E+00 -0.45593999997E+02  0.45594000000E+02  0.51100000000E-03 0. -1.
         23    2    1    2    0    0  0.00000000000E+00  0.17763568394E-14  0.00000000000E+00  0.91188000000E+02  0.91188000000E+02 0.  0.
    9900012    2    3    3    0    0  0.29249899551E+02 -0.15047290605E+02  0.16546982367E+02  0.54367079265E+02  0.39999988801E+02 0.  0.
         12    1    3    3    0    0 -0.29249899551E+02  0.15047290605E+02 -0.16546982367E+02  0.36820920735E+02  0.00000000000E+00 0. -1.
         11    1    4    4    0    0  0.21725369811E+01 -0.37623611377E+01 -0.74992210273E+01  0.86668099404E+01  0.51100000000E-03 0. -1.
        -11    1    4    4    0    0  0.89439719116E+01 -0.32259893189E+01 -0.48289605547E+01  0.10663981477E+02  0.51100000000E-03 0.  1.
        -12    1    4    4    0    0  0.18133390658E+02 -0.80589401488E+01  0.28875163949E+02  0.35036287848E+02  0.00000000000E+00 0.  1.
</event>
<event>
 8    1  0.3137106E-007  0.9118800E+02  0.7816164E-02  0.1184000E+00
        -11   -1    0    0    0    0  0.00000000000E+00  0.00000000000E+00  0.45593999997E+02  0.45594000000E+02  0.51100000000E-03 0. -1.
         11   -1    0    0    0    0 -0.00000000000E+00 -0.00000000000E+00 -0.45593999997E+02  0.45594000000E+02  0.51100000000E-03 0.  1.
         23    2    1    2    0    0 -0.35527136788E-14 -0.35527136788E-14  0.00000000000E+00  0.91188000000E+02  0.91188000000E+02 0.  0.
    9900012    2    3    3    0    0  0.24449140326E+02 -0.26590254507E+02  0.71398121785E+01  0.54367095403E+02  0.40000025590E+02 0.  0.
        -12    1    3    3    0    0 -0.24449140326E+02  0.26590254507E+02 -0.71398121785E+01  0.36820904597E+02  0.00000000000E+00 0.  1.
         11    1    4    4    0    0  0.24995271153E+02 -0.34096491614E+02  0.96750936803E+01  0.43369825436E+02  0.51100000000E-03 0. -1.
        -11    1    4    4    0    0 -0.29705861222E+01  0.18401239427E+01  0.13113785912E+01  0.37323118981E+01  0.51100000000E-03 0.  1.
         12    1    4    4    0    0  0.24244552949E+01  0.56661131644E+01 -0.38466600931E+01  0.72649580687E+01  0.00000000000E+00 0. -1.
</event>
<event>
 8    1  0.3137106E-007  0.9118800E+02  0.7816164E-02  0.1184000E+00
        -11   -1    0    0    0    0  0.00000000000E+00  0.00000000000E+00  0.45593999997E+02  0.45594000000E+02  0.51100000000E-03 0.  1.
         11   -1    0    0    0    0 -0.00000000000E+00 -0.00000000000E+00 -0.45593999997E+02  0.45594000000E+02  0.51100000000E-03 0. -1.
         23    2    1    2    0    0  0.00000000000E+00 -0.17763568394E-14 -0.35527136788E-14  0.91188000000E+02  0.91188000000E+02 0.  0.
    9900012    2    3    3    0    0 -0.14547487558E+02  0.13658082382E+02 -0.30945219755E+02  0.54367092430E+02  0.40000018813E+02 0.  0.
        -12    1    3    3    0    0  0.14547487558E+02 -0.13658082382E+02  0.30945219755E+02  0.36820907570E+02  0.00000000000E+00 0.  1.
         11    1    4    4    0    0  0.19705737475E+00  0.94012397607E+01  0.56441165321E+01  0.10967141484E+02  0.51100000000E-03 0.  1.
        -11    1    4    4    0    0  0.38696618626E+01  0.25669555667E+01 -0.68933021267E+01  0.83115075819E+01  0.51100000000E-03 0. -1.
         12    1    4    4    0    0 -0.18614206795E+02  0.16898870550E+01 -0.29696034160E+02  0.35088443364E+02  0.00000000000E+00 0. -1.
</event>
<event>
 8    1  0.3137106E-007  0.9118800E+02  0.7816164E-02  0.1184000E+00
        -11   -1    0    0    0    0  0.00000000000E+00  0.00000000000E+00  0.45593999997E+02  0.45594000000E+02  0.51100000000E-03 0. -1.
         11   -1    0    0    0    0 -0.00000000000E+00 -0.00000000000E+00 -0.45593999997E+02  0.45594000000E+02  0.51100000000E-03 0.  1.
         23    2    1    2    0    0 -0.35527136788E-14  0.00000000000E+00 -0.35527136788E-14  0.91188000000E+02  0.91188000000E+02 0.  0.
    9900012    2    3    3    0    0 -0.26001823739E+02  0.88271764718E+01 -0.24530946226E+02  0.54367065670E+02  0.39999957807E+02 0.  0.
         12    1    3    3    0    0  0.26001823739E+02 -0.88271764718E+01  0.24530946226E+02  0.36820934330E+02  0.00000000000E+00 0. -1.
         11    1    4    4    0    0  0.24481481847E+01 -0.55483561132E+01 -0.16716144958E+02  0.17782215486E+02  0.51100000000E-03 0. -1.
        -11    1    4    4    0    0 -0.21801926868E+02  0.17418140619E+02 -0.35758363719E+01  0.28133649671E+02  0.51100000000E-03 0.  1.
        -12    1    4    4    0    0 -0.66480450563E+01 -0.30426080339E+01 -0.42389648962E+01  0.84512005129E+01  0.00000000000E+00 0.  1.
</event>
<event>
 8    1  0.3137106E-007  0.9118800E+02  0.7816164E-02  0.1184000E+00
        -11   -1    0    0    0    0  0.00000000000E+00  0.00000000000E+00  0.45593999997E+02  0.45594000000E+02  0.51100000000E-03 0. -1.
         11   -1    0    0    0    0 -0.00000000000E+00 -0.00000000000E+00 -0.45593999997E+02  0.45594000000E+02  0.51100000000E-03 0.  1.
         23    2    1    2    0    0 -0.17763568394E-14  0.00000000000E+00  0.35527136788E-14  0.91188000000E+02  0.91188000000E+02 0.  0.
    9900012    2    3    3    0    0  0.40487562608E+01  0.32595613027E+02 -0.16640712117E+02  0.54367085893E+02  0.40000003911E+02 0.  0.
         12    1    3    3    0    0 -0.40487562608E+01 -0.32595613027E+02  0.16640712117E+02  0.36820914107E+02  0.00000000000E+00 0. -1.
         11    1    4    4    0    0  0.32660986449E+01  0.62994732358E+01  0.20732587030E+01  0.73925073769E+01  0.51100000000E-03 0. -1.
        -11    1    4    4    0    0  0.76275551700E+01  0.24136392053E+02 -0.26319776928E+02  0.36516786236E+02  0.51100000000E-03 0.  1.
         12    1    4    4    0    0 -0.68448975541E+01  0.21597477382E+01  0.76058061083E+01  0.10457792280E+02  0.00000000000E+00 0. -1.
</event>
<event>
 8    1  0.3137106E-007  0.9118800E+02  0.7816164E-02  0.1184000E+00
        -11   -1    0    0    0    0  0.00000000000E+00  0.00000000000E+00  0.45593999997E+02  0.45594000000E+02  0.51100000000E-03 0. -1.
         11   -1    0    0    0    0 -0.00000000000E+00 -0.00000000000E+00 -0.45593999997E+02  0.45594000000E+02  0.51100000000E-03 0.  1.
         23    2    1    2    0    0 -0.44408920985E-15  0.44408920985E-15  0.00000000000E+00  0.91188000000E+02  0.91188000000E+02 0.  0.
    9900012    2    3    3    0    0  0.37982620106E+01  0.30379145758E+01  0.36498202266E+02  0.54367156882E+02  0.40000165743E+02 0.  0.
        -12    1    3    3    0    0 -0.37982620106E+01 -0.30379145758E+01 -0.36498202266E+02  0.36820843118E+02  0.00000000000E+00 0.  1.
         11    1    4    4    0    0  0.19222060736E+02  0.39806504672E+01  0.21416906149E+02  0.29051971815E+02  0.51100000000E-03 0. -1.
        -11    1    4    4    0    0 -0.11637272661E+02  0.23469126184E+01  0.16288883059E+02  0.20155937720E+02  0.51100000000E-03 0.  1.
         12    1    4    4    0    0 -0.37865260649E+01 -0.32896485098E+01 -0.12075869412E+01  0.51592473462E+01  0.00000000000E+00 0. -1.
</event>
<event>
 8    1  0.3137106E-007  0.9118800E+02  0.7816164E-02  0.1184000E+00
        -11   -1    0    0    0    0  0.00000000000E+00  0.00000000000E+00  0.45593999997E+02  0.45594000000E+02  0.51100000000E-03 0. -1.
         11   -1    0    0    0    0 -0.00000000000E+00 -0.00000000000E+00 -0.45593999997E+02  0.45594000000E+02  0.51100000000E-03 0.  1.
         23    2    1    2    0    0  0.00000000000E+00  0.00000000000E+00  0.00000000000E+00  0.91188000000E+02  0.91188000000E+02 0.  0.
    9900012    2    3    3    0    0  0.30792542876E+02  0.11914076495E+02  0.16298901408E+02  0.54367080638E+02  0.39999991932E+02 0.  0.
        -12    1    3    3    0    0 -0.30792542876E+02 -0.11914076495E+02 -0.16298901408E+02  0.36820919362E+02  0.00000000000E+00 0.  1.
         11    1    4    4    0    0  0.70963924796E+01 -0.38402306632E+01  0.22140864272E+02  0.23565314103E+02  0.51100000000E-03 0. -1.
        -11    1    4    4    0    0  0.20047816306E+02  0.90856631283E+01 -0.70346630174E+01  0.23107373221E+02  0.51100000000E-03 0.  1.
         12    1    4    4    0    0  0.36483340902E+01  0.66686440300E+01  0.11927001534E+01  0.76943933152E+01  0.00000000000E+00 0. -1.
</event>
<event>
 8    1  0.3137106E-007  0.9118800E+02  0.7816164E-02  0.1184000E+00
        -11   -1    0    0    0    0  0.00000000000E+00  0.00000000000E+00  0.45593999997E+02  0.45594000000E+02  0.51100000000E-03 0.  1.
         11   -1    0    0    0    0 -0.00000000000E+00 -0.00000000000E+00 -0.45593999997E+02  0.45594000000E+02  0.51100000000E-03 0. -1.
         23    2    1    2    0    0  0.00000000000E+00 -0.88817841970E-15  0.00000000000E+00  0.91188000000E+02  0.91188000000E+02 0.  0.
    9900012    2    3    3    0    0 -0.20501953165E+02 -0.76281200224E+01  0.29618603627E+02  0.54367082311E+02  0.39999995744E+02 0.  0.
         12    1    3    3    0    0  0.20501953165E+02  0.76281200224E+01 -0.29618603627E+02  0.36820917689E+02  0.00000000000E+00 0. -1.
         11    1    4    4    0    0 -0.65458938188E+01 -0.13503404292E+02 -0.38762396852E+01  0.15498899565E+02  0.51100000000E-03 0. -1.
        -11    1    4    4    0    0 -0.93837884940E+01  0.43908775732E+01  0.84589420084E+01  0.13374938973E+02  0.51100000000E-03 0.  1.
        -12    1    4    4    0    0 -0.45722708522E+01  0.14844066964E+01  0.25035901304E+02  0.25493243773E+02  0.00000000000E+00 0.  1.
</event>
<event>
 8    1  0.3137106E-007  0.9118800E+02  0.7816164E-02  0.1184000E+00
        -11   -1    0    0    0    0  0.00000000000E+00  0.00000000000E+00  0.45593999997E+02  0.45594000000E+02  0.51100000000E-03 0.  1.
         11   -1    0    0    0    0 -0.00000000000E+00 -0.00000000000E+00 -0.45593999997E+02  0.45594000000E+02  0.51100000000E-03 0. -1.
         23    2    1    2    0    0  0.00000000000E+00 -0.35527136788E-14  0.11102230246E-14  0.91188000000E+02  0.91188000000E+02 0.  0.
    9900012    2    3    3    0    0 -0.29867340525E+02  0.21502202664E+02 -0.11736076989E+01  0.54367080614E+02  0.39999991875E+02 0.  0.
        -12    1    3    3    0    0  0.29867340525E+02 -0.21502202664E+02  0.11736076989E+01  0.36820919386E+02  0.00000000000E+00 0.  1.
         11    1    4    4    0    0 -0.14471990770E+02  0.15657880308E+02 -0.58677858991E+01  0.22114218145E+02  0.51100000000E-03 0. -1.
        -11    1    4    4    0    0 -0.19014522702E+02  0.75256864246E+01 -0.56080929419E+01  0.21204686662E+02  0.51100000000E-03 0.  1.
        -12    1    4    4    0    0  0.36191729470E+01 -0.16813640680E+01  0.10302271142E+02  0.11048175806E+02  0.00000000000E+00 0.  1.
</event>
<event>
 8    1  0.3137106E-007  0.9118800E+02  0.7816164E-02  0.1184000E+00
        -11   -1    0    0    0    0  0.00000000000E+00  0.00000000000E+00  0.45593999997E+02  0.45594000000E+02  0.51100000000E-03 0.  1.
         11   -1    0    0    0    0 -0.00000000000E+00 -0.00000000000E+00 -0.45593999997E+02  0.45594000000E+02  0.51100000000E-03 0. -1.
         23    2    1    2    0    0  0.00000000000E+00  0.00000000000E+00  0.00000000000E+00  0.91188000000E+02  0.91188000000E+02 0.  0.
    9900012    2    3    3    0    0 -0.27675983872E+01 -0.90114014111E+01  0.35593758603E+02  0.54367073780E+02  0.39999976296E+02 0.  0.
         12    1    3    3    0    0  0.27675983872E+01  0.90114014111E+01 -0.35593758603E+02  0.36820926220E+02  0.00000000000E+00 0. -1.
         11    1    4    4    0    0 -0.16561348762E+00 -0.81160414308E+01  0.11129046729E+02  0.13775094834E+02  0.51100000000E-03 0. -1.
        -11    1    4    4    0    0 -0.23050805493E+01 -0.16545267116E+02  0.11708939688E+02  0.20399963950E+02  0.51100000000E-03 0.  1.
         12    1    4    4    0    0 -0.29690435033E+00  0.15649907135E+02  0.12755772186E+02  0.20192014996E+02  0.00000000000E+00 0. -1.
</event>
<event>
 8    1  0.3137106E-007  0.9118800E+02  0.7816164E-02  0.1184000E+00
        -11   -1    0    0    0    0  0.00000000000E+00  0.00000000000E+00  0.45593999997E+02  0.45594000000E+02  0.51100000000E-03 0.  1.
         11   -1    0    0    0    0 -0.00000000000E+00 -0.00000000000E+00 -0.45593999997E+02  0.45594000000E+02  0.51100000000E-03 0. -1.
         23    2    1    2    0    0  0.35527136788E-14  0.17763568394E-14 -0.71054273576E-14  0.91188000000E+02  0.91188000000E+02 0.  0.
    9900012    2    3    3    0    0 -0.25855325715E+02 -0.69547736938E+01  0.25276745241E+02  0.54367073953E+02  0.39999976691E+02 0.  0.
         12    1    3    3    0    0  0.25855325715E+02  0.69547736938E+01 -0.25276745241E+02  0.36820926047E+02  0.00000000000E+00 0. -1.
         11    1    4    4    0    0 -0.85509316648E+01  0.11758800279E+02  0.13806271318E+02  0.20049961205E+02  0.51100000000E-03 0.  1.
        -11    1    4    4    0    0 -0.20713329717E+02 -0.19590227240E+02  0.86106231552E+01  0.29781904953E+02  0.51100000000E-03 0. -1.
         12    1    4    4    0    0  0.34089356672E+01  0.87665326736E+00  0.28598507677E+01  0.45352077954E+01  0.00000000000E+00 0. -1.
</event>
<event>
 8    1  0.3137106E-007  0.9118800E+02  0.7816164E-02  0.1184000E+00
        -11   -1    0    0    0    0  0.00000000000E+00  0.00000000000E+00  0.45593999997E+02  0.45594000000E+02  0.51100000000E-03 0. -1.
         11   -1    0    0    0    0 -0.00000000000E+00 -0.00000000000E+00 -0.45593999997E+02  0.45594000000E+02  0.51100000000E-03 0.  1.
         23    2    1    2    0    0  0.17763568394E-14  0.22204460493E-15  0.00000000000E+00  0.91188000000E+02  0.91188000000E+02 0.  0.
    9900012    2    3    3    0    0 -0.12833438292E+02  0.17767243006E+01 -0.34466294731E+02  0.54367090721E+02  0.40000014917E+02 0.  0.
         12    1    3    3    0    0  0.12833438292E+02 -0.17767243006E+01  0.34466294731E+02  0.36820909279E+02  0.00000000000E+00 0. -1.
         11    1    4    4    0    0  0.43829698396E+01 -0.12398482013E+02 -0.19554421811E-01  0.13150405449E+02  0.51100000000E-03 0. -1.
        -11    1    4    4    0    0 -0.63708910514E+01  0.77064260209E+01 -0.14766120028E+02  0.17832990656E+02  0.51100000000E-03 0.  1.
         12    1    4    4    0    0 -0.10845517080E+02  0.64687802929E+01 -0.19680620281E+02  0.23383694616E+02  0.00000000000E+00 0. -1.
</event>
<event>
 8    1  0.3137106E-007  0.9118800E+02  0.7816164E-02  0.1184000E+00
        -11   -1    0    0    0    0  0.00000000000E+00  0.00000000000E+00  0.45593999997E+02  0.45594000000E+02  0.51100000000E-03 0. -1.
         11   -1    0    0    0    0 -0.00000000000E+00 -0.00000000000E+00 -0.45593999997E+02  0.45594000000E+02  0.51100000000E-03 0.  1.
         23    2    1    2    0    0  0.00000000000E+00 -0.71054273576E-14  0.22204460493E-15  0.91188000000E+02  0.91188000000E+02 0.  0.
    9900012    2    3    3    0    0  0.15878343064E+02 -0.33216589545E+02 -0.55194059665E+00  0.54367241753E+02  0.40000359222E+02 0.  0.
        -12    1    3    3    0    0 -0.15878343064E+02  0.33216589545E+02  0.55194059665E+00  0.36820758247E+02  0.00000000000E+00 0.  1.
         11    1    4    4    0    0 -0.45182067471E+01 -0.10004051004E+01  0.24375294860E+01  0.52303492073E+01  0.51100000000E-03 0. -1.
        -11    1    4    4    0    0 -0.11465867562E+01 -0.23110260559E+02  0.62842482517E+01  0.23976875957E+02  0.51100000000E-03 0.  1.
        -12    1    4    4    0    0  0.21543136567E+02 -0.91059238859E+01 -0.92737183344E+01  0.25160016588E+02  0.00000000000E+00 0.  1.
</event>
<event>
 8    1  0.3137106E-007  0.9118800E+02  0.7816164E-02  0.1184000E+00
        -11   -1    0    0    0    0  0.00000000000E+00  0.00000000000E+00  0.45593999997E+02  0.45594000000E+02  0.51100000000E-03 0.  1.
         11   -1    0    0    0    0 -0.00000000000E+00 -0.00000000000E+00 -0.45593999997E+02  0.45594000000E+02  0.51100000000E-03 0. -1.
         23    2    1    2    0    0  0.00000000000E+00  0.00000000000E+00  0.35527136788E-14  0.91188000000E+02  0.91188000000E+02 0.  0.
    9900012    2    3    3    0    0 -0.18974855543E+02 -0.17343747284E+02  0.26361514648E+02  0.54367079761E+02  0.39999989931E+02 0.  0.
         12    1    3    3    0    0  0.18974855543E+02  0.17343747284E+02 -0.26361514648E+02  0.36820920239E+02  0.00000000000E+00 0. -1.
         11    1    4    4    0    0 -0.15340357115E+02 -0.20912386856E+02  0.19407505663E+02  0.32392989315E+02  0.51100000000E-03 0. -1.
        -11    1    4    4    0    0  0.48497146667E+01 -0.53634906867E+01  0.63771467177E+01  0.96413051613E+01  0.51100000000E-03 0.  1.
        -12    1    4    4    0    0 -0.84842130941E+01  0.89321302593E+01  0.57686226702E+00  0.12332785284E+02  0.00000000000E+00 0.  1.
</event>
<event>
 8    1  0.3137106E-007  0.9118800E+02  0.7816164E-02  0.1184000E+00
        -11   -1    0    0    0    0  0.00000000000E+00  0.00000000000E+00  0.45593999997E+02  0.45594000000E+02  0.51100000000E-03 0.  1.
         11   -1    0    0    0    0 -0.00000000000E+00 -0.00000000000E+00 -0.45593999997E+02  0.45594000000E+02  0.51100000000E-03 0. -1.
         23    2    1    2    0    0 -0.35527136788E-14  0.00000000000E+00  0.17763568394E-14  0.91188000000E+02  0.91188000000E+02 0.  0.
    9900012    2    3    3    0    0  0.28209329675E+02  0.18827266631E+02  0.14336893482E+02  0.54367098813E+02  0.40000033363E+02 0.  0.
         12    1    3    3    0    0 -0.28209329675E+02 -0.18827266631E+02 -0.14336893482E+02  0.36820901187E+02  0.00000000000E+00 0. -1.
         11    1    4    4    0    0 -0.76016316813E+01  0.70703812514E+01  0.12560260526E+02  0.16295252069E+02  0.51100000000E-03 0. -1.
        -11    1    4    4    0    0  0.22742633888E+02  0.74925662153E+01  0.35669516917E+01  0.24209276926E+02  0.51100000000E-03 0.  1.
         12    1    4    4    0    0  0.13068327469E+02  0.42643191643E+01 -0.17903187358E+01  0.13862569818E+02  0.00000000000E+00 0. -1.
</event>
<event>
 8    1  0.3137106E-007  0.9118800E+02  0.7816164E-02  0.1184000E+00
        -11   -1    0    0    0    0  0.00000000000E+00  0.00000000000E+00  0.45593999997E+02  0.45594000000E+02  0.51100000000E-03 0. -1.
         11   -1    0    0    0    0 -0.00000000000E+00 -0.00000000000E+00 -0.45593999997E+02  0.45594000000E+02  0.51100000000E-03 0.  1.
         23    2    1    2    0    0  0.11102230246E-15  0.22204460493E-15  0.00000000000E+00  0.91188000000E+02  0.91188000000E+02 0.  0.
    9900012    2    3    3    0    0  0.88448878726E+00  0.13887864264E+01 -0.36784025864E+02  0.54367141687E+02  0.40000131104E+02 0.  0.
         12    1    3    3    0    0 -0.88448878726E+00 -0.13887864264E+01  0.36784025864E+02  0.36820858313E+02  0.00000000000E+00 0. -1.
         11    1    4    4    0    0  0.46518735060E+01  0.24634506937E+00 -0.20293413871E+02  0.20821221382E+02  0.51100000000E-03 0. -1.
        -11    1    4    4    0    0 -0.14201620468E+02  0.26614314145E+01 -0.17793928873E+02  0.22921456020E+02  0.51100000000E-03 0.  1.
         12    1    4    4    0    0  0.10434235749E+02 -0.15189900575E+01  0.13033168806E+01  0.10624464286E+02  0.00000000000E+00 0. -1.
</event>
<event>
 8    1  0.3137106E-007  0.9118800E+02  0.7816164E-02  0.1184000E+00
        -11   -1    0    0    0    0  0.00000000000E+00  0.00000000000E+00  0.45593999997E+02  0.45594000000E+02  0.51100000000E-03 0. -1.
         11   -1    0    0    0    0 -0.00000000000E+00 -0.00000000000E+00 -0.45593999997E+02  0.45594000000E+02  0.51100000000E-03 0.  1.
         23    2    1    2    0    0  0.00000000000E+00  0.35527136788E-14  0.35527136788E-14  0.91188000000E+02  0.91188000000E+02 0.  0.
    9900012    2    3    3    0    0 -0.74732703071E+01 -0.17086147102E+02 -0.31748920747E+02  0.54367079853E+02  0.39999990140E+02 0.  0.
         12    1    3    3    0    0  0.74732703071E+01  0.17086147102E+02  0.31748920747E+02  0.36820920147E+02  0.00000000000E+00 0. -1.
         11    1    4    4    0    0  0.86649387756E+00  0.68756903773E+01 -0.36587951906E+01  0.78366263349E+01  0.51100000000E-03 0. -1.
        -11    1    4    4    0    0 -0.11957722539E+02 -0.62981075521E+01 -0.44139769964E+00  0.13522134419E+02  0.51100000000E-03 0.  1.
        -12    1    4    4    0    0  0.36179583546E+01 -0.17663729927E+02 -0.27648727857E+02  0.33008319099E+02  0.00000000000E+00 0.  1.
</event>
<event>
 8    1  0.3137106E-007  0.9118800E+02  0.7816164E-02  0.1184000E+00
        -11   -1    0    0    0    0  0.00000000000E+00  0.00000000000E+00  0.45593999997E+02  0.45594000000E+02  0.51100000000E-03 0. -1.
         11   -1    0    0    0    0 -0.00000000000E+00 -0.00000000000E+00 -0.45593999997E+02  0.45594000000E+02  0.51100000000E-03 0.  1.
         23    2    1    2    0    0  0.44408920985E-15  0.17763568394E-14 -0.71054273576E-14  0.91188000000E+02  0.91188000000E+02 0.  0.
    9900012    2    3    3    0    0  0.22033158635E+01 -0.15182107016E+02  0.33472803020E+02  0.54367088600E+02  0.40000010082E+02 0.  0.
        -12    1    3    3    0    0 -0.22033158635E+01  0.15182107016E+02 -0.33472803020E+02  0.36820911400E+02  0.00000000000E+00 0.  1.
         11    1    4    4    0    0 -0.60025826814E+01 -0.92215375354E+00  0.28210074616E+01  0.66962265308E+01  0.51100000000E-03 0. -1.
        -11    1    4    4    0    0 -0.86530142991E+00 -0.52851172114E+01 -0.64805524911E+01  0.84070667509E+01  0.51100000000E-03 0.  1.
         12    1    4    4    0    0  0.90711999748E+01 -0.89748360515E+01  0.37132348050E+02  0.39263795319E+02  0.00000000000E+00 0. -1.
</event>
<event>
 8    1  0.3137106E-007  0.9118800E+02  0.7816164E-02  0.1184000E+00
        -11   -1    0    0    0    0  0.00000000000E+00  0.00000000000E+00  0.45593999997E+02  0.45594000000E+02  0.51100000000E-03 0.  1.
         11   -1    0    0    0    0 -0.00000000000E+00 -0.00000000000E+00 -0.45593999997E+02  0.45594000000E+02  0.51100000000E-03 0. -1.
         23    2    1    2    0    0  0.00000000000E+00  0.00000000000E+00  0.00000000000E+00  0.91188000000E+02  0.91188000000E+02 0.  0.
    9900012    2    3    3    0    0  0.33229202143E+02 -0.56447134156E+01  0.14823524834E+02  0.54367088101E+02  0.40000008943E+02 0.  0.
        -12    1    3    3    0    0 -0.33229202143E+02  0.56447134156E+01 -0.14823524834E+02  0.36820911899E+02  0.00000000000E+00 0.  1.
         11    1    4    4    0    0  0.22143915774E+02  0.42374082602E+01  0.12276278015E+02  0.25671299865E+02  0.51100000000E-03 0. -1.
        -11    1    4    4    0    0  0.10807331832E+02  0.59168705115E+01  0.36658313074E+01  0.12854808338E+02  0.51100000000E-03 0.  1.
         12    1    4    4    0    0  0.27795453663E+00 -0.15798992187E+02 -0.11185844883E+01  0.15840979898E+02  0.00000000000E+00 0. -1.
</event>
<event>
 8    1  0.3137106E-007  0.9118800E+02  0.7816164E-02  0.1184000E+00
        -11   -1    0    0    0    0  0.00000000000E+00  0.00000000000E+00  0.45593999997E+02  0.45594000000E+02  0.51100000000E-03 0.  1.
         11   -1    0    0    0    0 -0.00000000000E+00 -0.00000000000E+00 -0.45593999997E+02  0.45594000000E+02  0.51100000000E-03 0. -1.
         23    2    1    2    0    0  0.00000000000E+00 -0.26645352591E-14  0.00000000000E+00  0.91188000000E+02  0.91188000000E+02 0.  0.
    9900012    2    3    3    0    0 -0.27837353147E+02  0.56735493261E+01 -0.23423789185E+02  0.54367064489E+02  0.39999955115E+02 0.  0.
        -12    1    3    3    0    0  0.27837353147E+02 -0.56735493261E+01  0.23423789185E+02  0.36820935511E+02  0.00000000000E+00 0.  1.
         11    1    4    4    0    0 -0.10851931816E+02  0.94285209362E+01 -0.73957606894E+01  0.16166592332E+02  0.51100000000E-03 0. -1.
        -11    1    4    4    0    0  0.13956739633E+00  0.87986140765E+01  0.33868997168E+01  0.94290073007E+01  0.51100000000E-03 0.  1.
        -12    1    4    4    0    0 -0.17124988727E+02 -0.12553585687E+02 -0.19414928212E+02  0.28771464856E+02  0.00000000000E+00 0.  1.
</event>
<event>
 8    1  0.3137106E-007  0.9118800E+02  0.7816164E-02  0.1184000E+00
        -11   -1    0    0    0    0  0.00000000000E+00  0.00000000000E+00  0.45593999997E+02  0.45594000000E+02  0.51100000000E-03 0.  1.
         11   -1    0    0    0    0 -0.00000000000E+00 -0.00000000000E+00 -0.45593999997E+02  0.45594000000E+02  0.51100000000E-03 0. -1.
         23    2    1    2    0    0  0.00000000000E+00  0.71054273576E-14  0.88817841970E-15  0.91188000000E+02  0.91188000000E+02 0.  0.
    9900012    2    3    3    0    0 -0.13187752064E+02  0.33993199076E+02 -0.51305579883E+01  0.54367122591E+02  0.40000087569E+02 0.  0.
        -12    1    3    3    0    0  0.13187752064E+02 -0.33993199076E+02  0.51305579883E+01  0.36820877409E+02  0.00000000000E+00 0.  1.
         11    1    4    4    0    0  0.25664264038E+01  0.25794131927E+02 -0.17603170909E+02  0.31333614739E+02  0.51100000000E-03 0. -1.
        -11    1    4    4    0    0 -0.58526610498E+01  0.72950874689E+01  0.50762765214E+01  0.10641453196E+02  0.51100000000E-03 0.  1.
         12    1    4    4    0    0 -0.99015174181E+01  0.90397968049E+00  0.73963363990E+01  0.12392054655E+02  0.00000000000E+00 0. -1.
</event>
<event>
 8    1  0.3137106E-007  0.9118800E+02  0.7816164E-02  0.1184000E+00
        -11   -1    0    0    0    0  0.00000000000E+00  0.00000000000E+00  0.45593999997E+02  0.45594000000E+02  0.51100000000E-03 0.  1.
         11   -1    0    0    0    0 -0.00000000000E+00 -0.00000000000E+00 -0.45593999997E+02  0.45594000000E+02  0.51100000000E-03 0. -1.
         23    2    1    2    0    0  0.00000000000E+00  0.00000000000E+00 -0.13322676296E-14  0.91188000000E+02  0.91188000000E+02 0.  0.
    9900012    2    3    3    0    0  0.14622113866E+02  0.33705752166E+02  0.24282819802E+01  0.54367075292E+02  0.39999979744E+02 0.  0.
         12    1    3    3    0    0 -0.14622113866E+02 -0.33705752166E+02 -0.24282819802E+01  0.36820924708E+02  0.00000000000E+00 0. -1.
         11    1    4    4    0    0  0.72996734840E+01  0.93341146456E+01 -0.17530993167E+02  0.21160024832E+02  0.51100000000E-03 0. -1.
        -11    1    4    4    0    0 -0.82132087077E+00  0.85810747249E+00 -0.17124608396E+00  0.12001007831E+01  0.51100000000E-03 0.  1.
        -12    1    4    4    0    0  0.81437612526E+01  0.23513530047E+02  0.20130521231E+02  0.32006949678E+02  0.00000000000E+00 0.  1.
</event>
<event>
 8    1  0.3137106E-007  0.9118800E+02  0.7816164E-02  0.1184000E+00
        -11   -1    0    0    0    0  0.00000000000E+00  0.00000000000E+00  0.45593999997E+02  0.45594000000E+02  0.51100000000E-03 0. -1.
         11   -1    0    0    0    0 -0.00000000000E+00 -0.00000000000E+00 -0.45593999997E+02  0.45594000000E+02  0.51100000000E-03 0.  1.
         23    2    1    2    0    0  0.35527136788E-14 -0.17763568394E-14  0.35527136788E-14  0.91188000000E+02  0.91188000000E+02 0.  0.
    9900012    2    3    3    0    0  0.26208502856E+02 -0.96582488978E+01 -0.23991898275E+02  0.54367101361E+02  0.40000039173E+02 0.  0.
         12    1    3    3    0    0 -0.26208502856E+02  0.96582488978E+01  0.23991898275E+02  0.36820898639E+02  0.00000000000E+00 0. -1.
         11    1    4    4    0    0 -0.50872493309E+01 -0.29125171031E+01 -0.13482888958E+01  0.60150432117E+01  0.51100000000E-03 0. -1.
        -11    1    4    4    0    0  0.15442568945E+02 -0.13854091496E+02 -0.23000241738E+02  0.30974504146E+02  0.51100000000E-03 0.  1.
         12    1    4    4    0    0  0.15853183241E+02  0.71083597013E+01  0.35663235815E+00  0.17377554004E+02  0.00000000000E+00 0. -1.
</event>
<event>
 8    1  0.3137106E-007  0.9118800E+02  0.7816164E-02  0.1184000E+00
        -11   -1    0    0    0    0  0.00000000000E+00  0.00000000000E+00  0.45593999997E+02  0.45594000000E+02  0.51100000000E-03 0. -1.
         11   -1    0    0    0    0 -0.00000000000E+00 -0.00000000000E+00 -0.45593999997E+02  0.45594000000E+02  0.51100000000E-03 0.  1.
         23    2    1    2    0    0  0.00000000000E+00 -0.22204460493E-15  0.00000000000E+00  0.91188000000E+02  0.91188000000E+02 0.  0.
    9900012    2    3    3    0    0  0.21474446829E+02 -0.10332086174E+01 -0.29892484325E+02  0.54367081953E+02  0.39999994929E+02 0.  0.
         12    1    3    3    0    0 -0.21474446829E+02  0.10332086174E+01  0.29892484325E+02  0.36820918047E+02  0.00000000000E+00 0. -1.
         11    1    4    4    0    0  0.16713291821E+02 -0.10793965879E+02 -0.18110733347E+02  0.26904320945E+02  0.51100000000E-03 0.  1.
        -11    1    4    4    0    0 -0.43923050893E+01  0.12452327190E+02 -0.12676366670E+01  0.13264980190E+02  0.51100000000E-03 0. -1.
         12    1    4    4    0    0  0.91534600976E+01 -0.26915699289E+01 -0.10514114312E+02  0.14197780819E+02  0.00000000000E+00 0. -1.
</event>
<event>
 8    1  0.3137106E-007  0.9118800E+02  0.7816164E-02  0.1184000E+00
        -11   -1    0    0    0    0  0.00000000000E+00  0.00000000000E+00  0.45593999997E+02  0.45594000000E+02  0.51100000000E-03 0.  1.
         11   -1    0    0    0    0 -0.00000000000E+00 -0.00000000000E+00 -0.45593999997E+02  0.45594000000E+02  0.51100000000E-03 0. -1.
         23    2    1    2    0    0  0.88817841970E-15 -0.66613381478E-15  0.00000000000E+00  0.91188000000E+02  0.91188000000E+02 0.  0.
    9900012    2    3    3    0    0 -0.56075065652E+01  0.19744526792E+01  0.36337809916E+02  0.54367095302E+02  0.40000025360E+02 0.  0.
         12    1    3    3    0    0  0.56075065652E+01 -0.19744526792E+01 -0.36337809916E+02  0.36820904698E+02  0.00000000000E+00 0. -1.
         11    1    4    4    0    0 -0.48531389472E+01 -0.73868137329E+00  0.14529145655E+02  0.15336058214E+02  0.51100000000E-03 0. -1.
        -11    1    4    4    0    0  0.26818151540E-01  0.10023379083E+02  0.27796978541E+02  0.29548957067E+02  0.51100000000E-03 0.  1.
        -12    1    4    4    0    0 -0.78118576955E+00 -0.73102450309E+01 -0.59883142799E+01  0.94820800214E+01  0.00000000000E+00 0.  1.
</event>
<event>
 8    1  0.3137106E-007  0.9118800E+02  0.7816164E-02  0.1184000E+00
        -11   -1    0    0    0    0  0.00000000000E+00  0.00000000000E+00  0.45593999997E+02  0.45594000000E+02  0.51100000000E-03 0. -1.
         11   -1    0    0    0    0 -0.00000000000E+00 -0.00000000000E+00 -0.45593999997E+02  0.45594000000E+02  0.51100000000E-03 0.  1.
         23    2    1    2    0    0  0.00000000000E+00  0.88817841970E-15 -0.17763568394E-14  0.91188000000E+02  0.91188000000E+02 0.  0.
    9900012    2    3    3    0    0 -0.34182518465E+02 -0.74295987329E+01 -0.11495066871E+02  0.54367081105E+02  0.39999992994E+02 0.  0.
         12    1    3    3    0    0  0.34182518465E+02  0.74295987329E+01  0.11495066871E+02  0.36820918895E+02  0.00000000000E+00 0. -1.
         11    1    4    4    0    0 -0.13107557685E+02  0.38413277845E+01  0.95670885172E+00  0.13692302936E+02  0.51100000000E-03 0. -1.
        -11    1    4    4    0    0  0.35267716527E+01 -0.11411497685E+02  0.20469753494E+01  0.12118189058E+02  0.51100000000E-03 0.  1.
         12    1    4    4    0    0 -0.24601732433E+02  0.14057116783E+00 -0.14498751072E+02  0.28556589110E+02  0.00000000000E+00 0. -1.
</event>
<event>
 8    1  0.3137106E-007  0.9118800E+02  0.7816164E-02  0.1184000E+00
        -11   -1    0    0    0    0  0.00000000000E+00  0.00000000000E+00  0.45593999997E+02  0.45594000000E+02  0.51100000000E-03 0.  1.
         11   -1    0    0    0    0 -0.00000000000E+00 -0.00000000000E+00 -0.45593999997E+02  0.45594000000E+02  0.51100000000E-03 0. -1.
         23    2    1    2    0    0  0.00000000000E+00  0.71054273576E-14  0.00000000000E+00  0.91188000000E+02  0.91188000000E+02 0.  0.
    9900012    2    3    3    0    0  0.10622416957E+02 -0.28129601391E+02  0.21252576299E+02  0.54367051944E+02  0.39999926516E+02 0.  0.
         12    1    3    3    0    0 -0.10622416957E+02  0.28129601391E+02 -0.21252576299E+02  0.36820948056E+02  0.00000000000E+00 0. -1.
         11    1    4    4    0    0  0.31901770560E+01  0.16911571994E+01 -0.51101250643E-01  0.36110737905E+01  0.51100000000E-03 0. -1.
        -11    1    4    4    0    0  0.56775546992E+01 -0.37519085179E+02  0.15659983412E+02  0.41050596350E+02  0.51100000000E-03 0.  1.
        -12    1    4    4    0    0  0.17546852021E+01  0.76983265885E+01  0.56436941378E+01  0.97053818030E+01  0.00000000000E+00 0.  1.
</event>
<event>
 8    1  0.3137106E-007  0.9118800E+02  0.7816164E-02  0.1184000E+00
        -11   -1    0    0    0    0  0.00000000000E+00  0.00000000000E+00  0.45593999997E+02  0.45594000000E+02  0.51100000000E-03 0.  1.
         11   -1    0    0    0    0 -0.00000000000E+00 -0.00000000000E+00 -0.45593999997E+02  0.45594000000E+02  0.51100000000E-03 0. -1.
         23    2    1    2    0    0  0.00000000000E+00  0.00000000000E+00  0.88817841970E-15  0.91188000000E+02  0.91188000000E+02 0.  0.
    9900012    2    3    3    0    0  0.12856635982E+02 -0.33609466159E+02 -0.78032594237E+01  0.54367079834E+02  0.39999990097E+02 0.  0.
        -12    1    3    3    0    0 -0.12856635982E+02  0.33609466159E+02  0.78032594237E+01  0.36820920166E+02  0.00000000000E+00 0.  1.
         11    1    4    4    0    0  0.13230858019E+02 -0.48664612264E+01  0.43497232625E+01  0.14753241729E+02  0.51100000000E-03 0. -1.
        -11    1    4    4    0    0  0.69330147906E+01 -0.56127674202E+01 -0.12497460870E+02  0.15354360314E+02  0.51100000000E-03 0.  1.
        -12    1    4    4    0    0 -0.73072368280E+01 -0.23130237512E+02  0.34447818369E+00  0.24259477790E+02  0.00000000000E+00 0.  1.
</event>
<event>
 8    1  0.3137106E-007  0.9118800E+02  0.7816164E-02  0.1184000E+00
        -11   -1    0    0    0    0  0.00000000000E+00  0.00000000000E+00  0.45593999997E+02  0.45594000000E+02  0.51100000000E-03 0.  1.
         11   -1    0    0    0    0 -0.00000000000E+00 -0.00000000000E+00 -0.45593999997E+02  0.45594000000E+02  0.51100000000E-03 0. -1.
         23    2    1    2    0    0  0.00000000000E+00 -0.77715611724E-15  0.35527136788E-14  0.91188000000E+02  0.91188000000E+02 0.  0.
    9900012    2    3    3    0    0  0.20522790735E+02 -0.94609343368E+00  0.30556498846E+02  0.54367086730E+02  0.40000005818E+02 0.  0.
         12    1    3    3    0    0 -0.20522790735E+02  0.94609343368E+00 -0.30556498846E+02  0.36820913270E+02  0.00000000000E+00 0. -1.
         11    1    4    4    0    0  0.26330188979E+02  0.72240497756E+01  0.17266818291E+02  0.32304934004E+02  0.51100000000E-03 0.  1.
        -11    1    4    4    0    0 -0.84843100958E+01  0.22680691638E-01  0.92230306702E+01  0.12531892404E+02  0.51100000000E-03 0. -1.
        -12    1    4    4    0    0  0.26769118518E+01 -0.81928239009E+01  0.40666498841E+01  0.95302603224E+01  0.00000000000E+00 0.  1.
</event>
<event>
 8    1  0.3137106E-007  0.9118800E+02  0.7816164E-02  0.1184000E+00
        -11   -1    0    0    0    0  0.00000000000E+00  0.00000000000E+00  0.45593999997E+02  0.45594000000E+02  0.51100000000E-03 0.  1.
         11   -1    0    0    0    0 -0.00000000000E+00 -0.00000000000E+00 -0.45593999997E+02  0.45594000000E+02  0.51100000000E-03 0. -1.
         23    2    1    2    0    0  0.00000000000E+00 -0.17763568394E-14  0.00000000000E+00  0.91188000000E+02  0.91188000000E+02 0.  0.
    9900012    2    3    3    0    0 -0.25683829957E+02  0.11602964159E+02 -0.23695809056E+02  0.54367092008E+02  0.40000017851E+02 0.  0.
        -12    1    3    3    0    0  0.25683829957E+02 -0.11602964159E+02  0.23695809056E+02  0.36820907992E+02  0.00000000000E+00 0.  1.
         11    1    4    4    0    0 -0.20801624244E+01  0.80625016089E+01 -0.77830831849E+01  0.11397692399E+02  0.51100000000E-03 0. -1.
        -11    1    4    4    0    0 -0.30739610099E+02 -0.12480744994E+01 -0.93436250769E+01  0.32152521656E+02  0.51100000000E-03 0.  1.
        -12    1    4    4    0    0  0.71359425667E+01  0.47885370500E+01 -0.65691007940E+01  0.10816877952E+02  0.00000000000E+00 0.  1.
</event>
<event>
 8    1  0.3137106E-007  0.9118800E+02  0.7816164E-02  0.1184000E+00
        -11   -1    0    0    0    0  0.00000000000E+00  0.00000000000E+00  0.45593999997E+02  0.45594000000E+02  0.51100000000E-03 0.  1.
         11   -1    0    0    0    0 -0.00000000000E+00 -0.00000000000E+00 -0.45593999997E+02  0.45594000000E+02  0.51100000000E-03 0. -1.
         23    2    1    2    0    0 -0.35527136788E-14  0.00000000000E+00  0.35527136788E-14  0.91188000000E+02  0.91188000000E+02 0.  0.
    9900012    2    3    3    0    0 -0.21738317666E+02 -0.82513855748E+01  0.28550660610E+02  0.54367081487E+02  0.39999993866E+02 0.  0.
         12    1    3    3    0    0  0.21738317666E+02  0.82513855748E+01 -0.28550660610E+02  0.36820918513E+02  0.00000000000E+00 0. -1.
         11    1    4    4    0    0 -0.17013606850E+02 -0.52015408154E+00  0.31772521399E+02  0.36044784569E+02  0.51100000000E-03 0.  1.
        -11    1    4    4    0    0  0.44275708228E+01 -0.74324640645E+01 -0.11375995040E+00  0.86520429407E+01  0.51100000000E-03 0. -1.
        -12    1    4    4    0    0 -0.91522816384E+01 -0.29876742881E+00 -0.31081008383E+01  0.96702539773E+01  0.00000000000E+00 0.  1.
</event>
<event>
 8    1  0.3137106E-007  0.9118800E+02  0.7816164E-02  0.1184000E+00
        -11   -1    0    0    0    0  0.00000000000E+00  0.00000000000E+00  0.45593999997E+02  0.45594000000E+02  0.51100000000E-03 0. -1.
         11   -1    0    0    0    0 -0.00000000000E+00 -0.00000000000E+00 -0.45593999997E+02  0.45594000000E+02  0.51100000000E-03 0.  1.
         23    2    1    2    0    0  0.00000000000E+00  0.44408920985E-15  0.00000000000E+00  0.91188000000E+02  0.91188000000E+02 0.  0.
    9900012    2    3    3    0    0 -0.85191434268E+01 -0.31178972158E+01  0.35685914625E+02  0.54367060436E+02  0.39999945875E+02 0.  0.
        -12    1    3    3    0    0  0.85191434268E+01  0.31178972158E+01 -0.35685914625E+02  0.36820939564E+02  0.00000000000E+00 0.  1.
         11    1    4    4    0    0  0.72737606626E+01  0.72522988819E+00  0.22604586341E+02  0.23757122647E+02  0.51100000000E-03 0. -1.
        -11    1    4    4    0    0 -0.14320063978E+01  0.81103937857E+01  0.74224216711E+01  0.11086995689E+02  0.51100000000E-03 0.  1.
         12    1    4    4    0    0 -0.14360897692E+02 -0.11953520890E+02  0.56589066134E+01  0.19522942100E+02  0.00000000000E+00 0. -1.
</event>
<event>
 8    1  0.3137106E-007  0.9118800E+02  0.7816164E-02  0.1184000E+00
        -11   -1    0    0    0    0  0.00000000000E+00  0.00000000000E+00  0.45593999997E+02  0.45594000000E+02  0.51100000000E-03 0.  1.
         11   -1    0    0    0    0 -0.00000000000E+00 -0.00000000000E+00 -0.45593999997E+02  0.45594000000E+02  0.51100000000E-03 0. -1.
         23    2    1    2    0    0 -0.35527136788E-14 -0.35527136788E-14 -0.22204460493E-15  0.91188000000E+02  0.91188000000E+02 0.  0.
    9900012    2    3    3    0    0  0.21655656130E+02  0.29777365146E+02 -0.34796524510E+00  0.54367082069E+02  0.39999995193E+02 0.  0.
        -12    1    3    3    0    0 -0.21655656130E+02 -0.29777365146E+02  0.34796524510E+00  0.36820917931E+02  0.00000000000E+00 0.  1.
         11    1    4    4    0    0 -0.27016338747E+01  0.11188637901E+02  0.51006591736E+01  0.12589724697E+02  0.51100000000E-03 0. -1.
        -11    1    4    4    0    0 -0.19757640544E+01  0.14428747696E+02 -0.38812180915E+01  0.15071703879E+02  0.51100000000E-03 0.  1.
         12    1    4    4    0    0  0.26333054059E+02  0.41599795486E+01 -0.15674063273E+01  0.26705653494E+02  0.00000000000E+00 0. -1.
</event>
<event>
 8    1  0.3137106E-007  0.9118800E+02  0.7816164E-02  0.1184000E+00
        -11   -1    0    0    0    0  0.00000000000E+00  0.00000000000E+00  0.45593999997E+02  0.45594000000E+02  0.51100000000E-03 0. -1.
         11   -1    0    0    0    0 -0.00000000000E+00 -0.00000000000E+00 -0.45593999997E+02  0.45594000000E+02  0.51100000000E-03 0.  1.
         23    2    1    2    0    0 -0.17763568394E-14 -0.35527136788E-14  0.00000000000E+00  0.91188000000E+02  0.91188000000E+02 0.  0.
    9900012    2    3    3    0    0 -0.12812834577E+02  0.24752695030E+02  0.24060661950E+02  0.54367080747E+02  0.39999992178E+02 0.  0.
        -12    1    3    3    0    0  0.12812834577E+02 -0.24752695030E+02 -0.24060661950E+02  0.36820919253E+02  0.00000000000E+00 0.  1.
         11    1    4    4    0    0  0.15734951563E+01 -0.11369851308E+01  0.24793634392E+01  0.31489467317E+01  0.51100000000E-03 0. -1.
        -11    1    4    4    0    0 -0.10701444972E+02 -0.61300651872E+01  0.12881781393E+02  0.17833645611E+02  0.51100000000E-03 0.  1.
         12    1    4    4    0    0 -0.36848847615E+01  0.32019745348E+02  0.86995171183E+01  0.33384488404E+02  0.00000000000E+00 0. -1.
</event>
<event>
 8    1  0.3137106E-007  0.9118800E+02  0.7816164E-02  0.1184000E+00
        -11   -1    0    0    0    0  0.00000000000E+00  0.00000000000E+00  0.45593999997E+02  0.45594000000E+02  0.51100000000E-03 0.  1.
         11   -1    0    0    0    0 -0.00000000000E+00 -0.00000000000E+00 -0.45593999997E+02  0.45594000000E+02  0.51100000000E-03 0. -1.
         23    2    1    2    0    0  0.00000000000E+00 -0.17763568394E-14  0.00000000000E+00  0.91188000000E+02  0.91188000000E+02 0.  0.
    9900012    2    3    3    0    0  0.25614689450E+02  0.14332947427E+02  0.22231361388E+02  0.54367093891E+02  0.40000022143E+02 0.  0.
         12    1    3    3    0    0 -0.25614689450E+02 -0.14332947427E+02 -0.22231361388E+02  0.36820906109E+02  0.00000000000E+00 0. -1.
         11    1    4    4    0    0  0.66040453443E+01  0.16862346678E+01 -0.66172328071E+01  0.94997143404E+01  0.51100000000E-03 0. -1.
        -11    1    4    4    0    0  0.15788132266E+02  0.93567214103E+00  0.27124981063E+01  0.16046751978E+02  0.51100000000E-03 0.  1.
        -12    1    4    4    0    0  0.32225118396E+01  0.11711040618E+02  0.26136096089E+02  0.28820627573E+02  0.00000000000E+00 0.  1.
</event>
<event>
 8    1  0.3137106E-007  0.9118800E+02  0.7816164E-02  0.1184000E+00
        -11   -1    0    0    0    0  0.00000000000E+00  0.00000000000E+00  0.45593999997E+02  0.45594000000E+02  0.51100000000E-03 0.  1.
         11   -1    0    0    0    0 -0.00000000000E+00 -0.00000000000E+00 -0.45593999997E+02  0.45594000000E+02  0.51100000000E-03 0. -1.
         23    2    1    2    0    0  0.00000000000E+00  0.00000000000E+00 -0.35527136788E-14  0.91188000000E+02  0.91188000000E+02 0.  0.
    9900012    2    3    3    0    0 -0.26736023047E+02 -0.12241001792E+02 -0.22161240895E+02  0.54367113926E+02  0.40000067817E+02 0.  0.
        -12    1    3    3    0    0  0.26736023047E+02  0.12241001792E+02  0.22161240895E+02  0.36820886074E+02  0.00000000000E+00 0.  1.
         11    1    4    4    0    0  0.46823774131E+01 -0.32956982182E+01  0.45550937067E+01  0.73167727806E+01  0.51100000000E-03 0. -1.
        -11    1    4    4    0    0 -0.92738128181E+00  0.47752117000E+01 -0.12549000297E+01  0.50236895970E+01  0.51100000000E-03 0.  1.
         12    1    4    4    0    0 -0.30491019179E+02 -0.13720515274E+02 -0.25461434572E+02  0.42026651549E+02  0.00000000000E+00 0. -1.
</event>
<event>
 8    1  0.3137106E-007  0.9118800E+02  0.7816164E-02  0.1184000E+00
        -11   -1    0    0    0    0  0.00000000000E+00  0.00000000000E+00  0.45593999997E+02  0.45594000000E+02  0.51100000000E-03 0.  1.
         11   -1    0    0    0    0 -0.00000000000E+00 -0.00000000000E+00 -0.45593999997E+02  0.45594000000E+02  0.51100000000E-03 0. -1.
         23    2    1    2    0    0  0.00000000000E+00  0.00000000000E+00  0.17763568394E-14  0.91188000000E+02  0.91188000000E+02 0.  0.
    9900012    2    3    3    0    0 -0.92510890167E+01 -0.34210794791E+02 -0.99909387520E+01  0.54367082231E+02  0.39999995562E+02 0.  0.
        -12    1    3    3    0    0  0.92510890167E+01  0.34210794791E+02  0.99909387520E+01  0.36820917769E+02  0.00000000000E+00 0.  1.
         11    1    4    4    0    0  0.62350243126E+01 -0.15596270297E+02  0.41662649330E+01  0.17305402021E+02  0.51100000000E-03 0. -1.
        -11    1    4    4    0    0 -0.29523866530E+01 -0.64621624989E+01  0.67665945642E+01  0.98113675585E+01  0.51100000000E-03 0.  1.
         12    1    4    4    0    0 -0.12533726676E+02 -0.12152361995E+02 -0.20923798249E+02  0.27250312652E+02  0.00000000000E+00 0. -1.
</event>
<event>
 8    1  0.3137106E-007  0.9118800E+02  0.7816164E-02  0.1184000E+00
        -11   -1    0    0    0    0  0.00000000000E+00  0.00000000000E+00  0.45593999997E+02  0.45594000000E+02  0.51100000000E-03 0. -1.
         11   -1    0    0    0    0 -0.00000000000E+00 -0.00000000000E+00 -0.45593999997E+02  0.45594000000E+02  0.51100000000E-03 0.  1.
         23    2    1    2    0    0  0.44408920985E-15  0.35527136788E-14  0.35527136788E-14  0.91188000000E+02  0.91188000000E+02 0.  0.
    9900012    2    3    3    0    0 -0.22419140209E+01  0.28474460201E+02  0.23236999397E+02  0.54367092852E+02  0.40000019775E+02 0.  0.
        -12    1    3    3    0    0  0.22419140209E+01 -0.28474460201E+02 -0.23236999397E+02  0.36820907148E+02  0.00000000000E+00 0.  1.
         11    1    4    4    0    0 -0.76900889996E+01  0.27377339916E+02  0.26401668976E+02  0.38803406225E+02  0.51100000000E-03 0. -1.
        -11    1    4    4    0    0  0.48313717737E-01  0.71315408491E+01 -0.12131499234E+01  0.72341510970E+01  0.51100000000E-03 0.  1.
        -12    1    4    4    0    0  0.53998612609E+01 -0.60344205641E+01 -0.19515196556E+01  0.83295355302E+01  0.00000000000E+00 0.  1.
</event>
<event>
 8    1  0.3137106E-007  0.9118800E+02  0.7816164E-02  0.1184000E+00
        -11   -1    0    0    0    0  0.00000000000E+00  0.00000000000E+00  0.45593999997E+02  0.45594000000E+02  0.51100000000E-03 0. -1.
         11   -1    0    0    0    0 -0.00000000000E+00 -0.00000000000E+00 -0.45593999997E+02  0.45594000000E+02  0.51100000000E-03 0.  1.
         23    2    1    2    0    0  0.00000000000E+00  0.00000000000E+00 -0.22204460493E-15  0.91188000000E+02  0.91188000000E+02 0.  0.
    9900012    2    3    3    0    0  0.28314491417E+02 -0.23455964646E+02 -0.19715167954E+01  0.54367087733E+02  0.40000008105E+02 0.  0.
         12    1    3    3    0    0 -0.28314491417E+02  0.23455964646E+02  0.19715167954E+01  0.36820912267E+02  0.00000000000E+00 0. -1.
         11    1    4    4    0    0  0.19597186526E+02 -0.11515422501E+02  0.67635629248E+01  0.23714983846E+02  0.51100000000E-03 0. -1.
        -11    1    4    4    0    0  0.11046528837E+02  0.50230753888E+01 -0.50119071366E+01  0.13129215480E+02  0.51100000000E-03 0.  1.
        -12    1    4    4    0    0 -0.23292239460E+01 -0.16963617534E+02 -0.37231725836E+01  0.17522888407E+02  0.00000000000E+00 0.  1.
</event>
<event>
 8    1  0.3137106E-007  0.9118800E+02  0.7816164E-02  0.1184000E+00
        -11   -1    0    0    0    0  0.00000000000E+00  0.00000000000E+00  0.45593999997E+02  0.45594000000E+02  0.51100000000E-03 0. -1.
         11   -1    0    0    0    0 -0.00000000000E+00 -0.00000000000E+00 -0.45593999997E+02  0.45594000000E+02  0.51100000000E-03 0.  1.
         23    2    1    2    0    0  0.00000000000E+00  0.00000000000E+00  0.00000000000E+00  0.91188000000E+02  0.91188000000E+02 0.  0.
    9900012    2    3    3    0    0 -0.34770826249E+02  0.50489860608E+01  0.11012606421E+02  0.54367080423E+02  0.39999991441E+02 0.  0.
        -12    1    3    3    0    0  0.34770826249E+02 -0.50489860608E+01 -0.11012606421E+02  0.36820919577E+02  0.00000000000E+00 0.  1.
         11    1    4    4    0    0 -0.15725600801E+02  0.15915512748E+02 -0.56537786217E+01  0.23077332591E+02  0.51100000000E-03 0. -1.
        -11    1    4    4    0    0 -0.16849296583E+02 -0.10426880780E+02  0.64607778799E+01  0.20841312080E+02  0.51100000000E-03 0.  1.
         12    1    4    4    0    0 -0.21959288650E+01 -0.43964590731E+00  0.10205607163E+02  0.10448435752E+02  0.00000000000E+00 0. -1.
</event>
<event>
 8    1  0.3137106E-007  0.9118800E+02  0.7816164E-02  0.1184000E+00
        -11   -1    0    0    0    0  0.00000000000E+00  0.00000000000E+00  0.45593999997E+02  0.45594000000E+02  0.51100000000E-03 0.  1.
         11   -1    0    0    0    0 -0.00000000000E+00 -0.00000000000E+00 -0.45593999997E+02  0.45594000000E+02  0.51100000000E-03 0. -1.
         23    2    1    2    0    0 -0.44408920985E-15  0.00000000000E+00  0.00000000000E+00  0.91188000000E+02  0.91188000000E+02 0.  0.
    9900012    2    3    3    0    0  0.34638292657E+01  0.27608594558E+02  0.24115336397E+02  0.54367054110E+02  0.39999931455E+02 0.  0.
         12    1    3    3    0    0 -0.34638292657E+01 -0.27608594558E+02 -0.24115336397E+02  0.36820945890E+02  0.00000000000E+00 0. -1.
         11    1    4    4    0    0 -0.12862673226E+01  0.23350318378E+02 -0.32658304017E+01  0.23612655515E+02  0.51100000000E-03 0. -1.
        -11    1    4    4    0    0 -0.16971780433E+01  0.44792289334E+01  0.32814154986E+01  0.58061685373E+01  0.51100000000E-03 0.  1.
        -12    1    4    4    0    0  0.64472746316E+01 -0.22095275331E+00  0.24099751300E+02  0.24948230058E+02  0.00000000000E+00 0.  1.
</event>
<event>
 8    1  0.3137106E-007  0.9118800E+02  0.7816164E-02  0.1184000E+00
        -11   -1    0    0    0    0  0.00000000000E+00  0.00000000000E+00  0.45593999997E+02  0.45594000000E+02  0.51100000000E-03 0.  1.
         11   -1    0    0    0    0 -0.00000000000E+00 -0.00000000000E+00 -0.45593999997E+02  0.45594000000E+02  0.51100000000E-03 0. -1.
         23    2    1    2    0    0  0.35527136788E-14  0.00000000000E+00  0.35527136788E-14  0.91188000000E+02  0.91188000000E+02 0.  0.
    9900012    2    3    3    0    0  0.31285373082E+02 -0.48047307786E+01 -0.18812758467E+02  0.54367083555E+02  0.39999998580E+02 0.  0.
         12    1    3    3    0    0 -0.31285373082E+02  0.48047307786E+01  0.18812758467E+02  0.36820916445E+02  0.00000000000E+00 0. -1.
         11    1    4    4    0    0  0.13335254297E+02 -0.12428406994E+02 -0.22407210852E+02  0.28885591668E+02  0.51100000000E-03 0. -1.
        -11    1    4    4    0    0  0.10770418908E+02 -0.40591840750E+01  0.14120272714E+01  0.11596237324E+02  0.51100000000E-03 0.  1.
        -12    1    4    4    0    0  0.71796998771E+01  0.11682860291E+02  0.21824251137E+01  0.13885254563E+02  0.00000000000E+00 0.  1.
</event>
<event>
 8    1  0.3137106E-007  0.9118800E+02  0.7816164E-02  0.1184000E+00
        -11   -1    0    0    0    0  0.00000000000E+00  0.00000000000E+00  0.45593999997E+02  0.45594000000E+02  0.51100000000E-03 0. -1.
         11   -1    0    0    0    0 -0.00000000000E+00 -0.00000000000E+00 -0.45593999997E+02  0.45594000000E+02  0.51100000000E-03 0.  1.
         23    2    1    2    0    0 -0.44408920985E-15 -0.17763568394E-14  0.00000000000E+00  0.91188000000E+02  0.91188000000E+02 0.  0.
    9900012    2    3    3    0    0  0.17572030723E+01  0.73151588169E+01 -0.36044240265E+02  0.54366992852E+02  0.39999791804E+02 0.  0.
         12    1    3    3    0    0 -0.17572030723E+01 -0.73151588169E+01  0.36044240265E+02  0.36821007148E+02  0.00000000000E+00 0. -1.
         11    1    4    4    0    0  0.35930060747E+01  0.15579238877E+02 -0.77470595363E+01  0.17766240693E+02  0.51100000000E-03 0. -1.
        -11    1    4    4    0    0 -0.86551962249E+01  0.24498220996E+01 -0.18465090457E+02  0.20539562212E+02  0.51100000000E-03 0.  1.
         12    1    4    4    0    0  0.68193932226E+01 -0.10713902160E+02 -0.98320902716E+01  0.16061189947E+02  0.00000000000E+00 0. -1.
</event>
<event>
 8    1  0.3137106E-007  0.9118800E+02  0.7816164E-02  0.1184000E+00
        -11   -1    0    0    0    0  0.00000000000E+00  0.00000000000E+00  0.45593999997E+02  0.45594000000E+02  0.51100000000E-03 0. -1.
         11   -1    0    0    0    0 -0.00000000000E+00 -0.00000000000E+00 -0.45593999997E+02  0.45594000000E+02  0.51100000000E-03 0.  1.
         23    2    1    2    0    0  0.00000000000E+00 -0.35527136788E-14  0.35527136788E-14  0.91188000000E+02  0.91188000000E+02 0.  0.
    9900012    2    3    3    0    0  0.96853538762E+01  0.18101499745E+02  0.30566476848E+02  0.54367083667E+02  0.39999998836E+02 0.  0.
        -12    1    3    3    0    0 -0.96853538762E+01 -0.18101499745E+02 -0.30566476848E+02  0.36820916333E+02  0.00000000000E+00 0.  1.
         11    1    4    4    0    0 -0.76268320237E+01  0.20634284403E+02  0.21477833190E+02  0.30744748793E+02  0.51100000000E-03 0. -1.
        -11    1    4    4    0    0  0.36892653538E+01  0.51069245544E+00 -0.32870070241E+01  0.49674843807E+01  0.51100000000E-03 0.  1.
         12    1    4    4    0    0  0.13622920546E+02 -0.30434771135E+01  0.12375650682E+02  0.18654850494E+02  0.00000000000E+00 0. -1.
</event>
<event>
 8    1  0.3137106E-007  0.9118800E+02  0.7816164E-02  0.1184000E+00
        -11   -1    0    0    0    0  0.00000000000E+00  0.00000000000E+00  0.45593999997E+02  0.45594000000E+02  0.51100000000E-03 0.  1.
         11   -1    0    0    0    0 -0.00000000000E+00 -0.00000000000E+00 -0.45593999997E+02  0.45594000000E+02  0.51100000000E-03 0. -1.
         23    2    1    2    0    0  0.17763568394E-14 -0.35527136788E-14 -0.35527136788E-14  0.91188000000E+02  0.91188000000E+02 0.  0.
    9900012    2    3    3    0    0 -0.15663098675E+02  0.16148074764E+02  0.29149410675E+02  0.54367066804E+02  0.39999960394E+02 0.  0.
         12    1    3    3    0    0  0.15663098675E+02 -0.16148074764E+02 -0.29149410675E+02  0.36820933196E+02  0.00000000000E+00 0. -1.
         11    1    4    4    0    0 -0.86260671938E+01 -0.10121674107E+02  0.31737674038E+01  0.13672239090E+02  0.51100000000E-03 0. -1.
        -11    1    4    4    0    0  0.39058093109E+01  0.12838266021E+02  0.75246409901E+01  0.15384948589E+02  0.51100000000E-03 0.  1.
         12    1    4    4    0    0 -0.10942840792E+02  0.13431482850E+02  0.18451002281E+02  0.25309879125E+02  0.00000000000E+00 0. -1.
</event>
<event>
 8    1  0.3137106E-007  0.9118800E+02  0.7816164E-02  0.1184000E+00
        -11   -1    0    0    0    0  0.00000000000E+00  0.00000000000E+00  0.45593999997E+02  0.45594000000E+02  0.51100000000E-03 0.  1.
         11   -1    0    0    0    0 -0.00000000000E+00 -0.00000000000E+00 -0.45593999997E+02  0.45594000000E+02  0.51100000000E-03 0. -1.
         23    2    1    2    0    0  0.35527136788E-14  0.88817841970E-15  0.00000000000E+00  0.91188000000E+02  0.91188000000E+02 0.  0.
    9900012    2    3    3    0    0 -0.20385078250E+02  0.37275286419E+01 -0.30435714643E+02  0.54367100896E+02  0.40000038112E+02 0.  0.
        -12    1    3    3    0    0  0.20385078250E+02 -0.37275286419E+01  0.30435714643E+02  0.36820899104E+02  0.00000000000E+00 0.  1.
         11    1    4    4    0    0 -0.10874798779E+02  0.15508751120E+02 -0.13667100799E+02  0.23357488185E+02  0.51100000000E-03 0. -1.
        -11    1    4    4    0    0 -0.12878063639E+02 -0.29516209205E+01 -0.18373735191E+01  0.13339135312E+02  0.51100000000E-03 0.  1.
        -12    1    4    4    0    0  0.33677841683E+01 -0.88296015578E+01 -0.14931240324E+02  0.17670477399E+02  0.00000000000E+00 0.  1.
</event>
<event>
 8    1  0.3137106E-007  0.9118800E+02  0.7816164E-02  0.1184000E+00
        -11   -1    0    0    0    0  0.00000000000E+00  0.00000000000E+00  0.45593999997E+02  0.45594000000E+02  0.51100000000E-03 0.  1.
         11   -1    0    0    0    0 -0.00000000000E+00 -0.00000000000E+00 -0.45593999997E+02  0.45594000000E+02  0.51100000000E-03 0. -1.
         23    2    1    2    0    0  0.00000000000E+00  0.00000000000E+00  0.00000000000E+00  0.91188000000E+02  0.91188000000E+02 0.  0.
    9900012    2    3    3    0    0  0.12192879880E+02 -0.28879526866E+02  0.19315354675E+02  0.54367132031E+02  0.40000109092E+02 0.  0.
         12    1    3    3    0    0 -0.12192879880E+02  0.28879526866E+02 -0.19315354675E+02  0.36820867969E+02  0.00000000000E+00 0. -1.
         11    1    4    4    0    0  0.81663271466E+01 -0.83507629899E+01 -0.13073079914E+01  0.11753007956E+02  0.51100000000E-03 0. -1.
        -11    1    4    4    0    0 -0.90947862614E+01 -0.17642989591E+02  0.21360137369E+02  0.29158972676E+02  0.51100000000E-03 0.  1.
         12    1    4    4    0    0  0.13121338994E+02 -0.28857742844E+01 -0.73747470241E+00  0.13455151399E+02  0.00000000000E+00 0. -1.
</event>
<event>
 8    1  0.3137106E-007  0.9118800E+02  0.7816164E-02  0.1184000E+00
        -11   -1    0    0    0    0  0.00000000000E+00  0.00000000000E+00  0.45593999997E+02  0.45594000000E+02  0.51100000000E-03 0.  1.
         11   -1    0    0    0    0 -0.00000000000E+00 -0.00000000000E+00 -0.45593999997E+02  0.45594000000E+02  0.51100000000E-03 0. -1.
         23    2    1    2    0    0  0.35527136788E-14  0.00000000000E+00  0.35527136788E-14  0.91188000000E+02  0.91188000000E+02 0.  0.
    9900012    2    3    3    0    0 -0.95889673885E+01 -0.15810643030E+02 -0.31841098919E+02  0.54367077836E+02  0.39999985544E+02 0.  0.
        -12    1    3    3    0    0  0.95889673885E+01  0.15810643030E+02  0.31841098919E+02  0.36820922164E+02  0.00000000000E+00 0.  1.
         11    1    4    4    0    0 -0.76752945149E+00 -0.51213459210E+00  0.27152647231E+00  0.96182648415E+00  0.51100000000E-03 0. -1.
        -11    1    4    4    0    0 -0.17288396642E+02 -0.16000840950E+02 -0.36806081119E+02  0.43699006592E+02  0.51100000000E-03 0.  1.
         12    1    4    4    0    0  0.84669587051E+01  0.70233251123E+00  0.46934557280E+01  0.97062447600E+01  0.00000000000E+00 0. -1.
</event>
<event>
 8    1  0.3137106E-007  0.9118800E+02  0.7816164E-02  0.1184000E+00
        -11   -1    0    0    0    0  0.00000000000E+00  0.00000000000E+00  0.45593999997E+02  0.45594000000E+02  0.51100000000E-03 0.  1.
         11   -1    0    0    0    0 -0.00000000000E+00 -0.00000000000E+00 -0.45593999997E+02  0.45594000000E+02  0.51100000000E-03 0. -1.
         23    2    1    2    0    0 -0.72164496601E-15  0.00000000000E+00 -0.71054273576E-14  0.91188000000E+02  0.91188000000E+02 0.  0.
    9900012    2    3    3    0    0  0.41018403784E+00  0.12226642848E+02 -0.34729235279E+02  0.54367097929E+02  0.40000031348E+02 0.  0.
        -12    1    3    3    0    0 -0.41018403784E+00 -0.12226642848E+02  0.34729235279E+02  0.36820902071E+02  0.00000000000E+00 0.  1.
         11    1    4    4    0    0  0.45983077931E+01  0.31359008619E+01 -0.18067240268E+02  0.18905117824E+02  0.51100000000E-03 0.  1.
        -11    1    4    4    0    0  0.12332797296E+02  0.70276770382E+01 -0.10706551352E+02  0.17779661859E+02  0.51100000000E-03 0. -1.
        -12    1    4    4    0    0 -0.16520921051E+02  0.20630649479E+01 -0.59554436588E+01  0.17682318246E+02  0.00000000000E+00 0.  1.
</event>
<event>
 8    1  0.3137106E-007  0.9118800E+02  0.7816164E-02  0.1184000E+00
        -11   -1    0    0    0    0  0.00000000000E+00  0.00000000000E+00  0.45593999997E+02  0.45594000000E+02  0.51100000000E-03 0.  1.
         11   -1    0    0    0    0 -0.00000000000E+00 -0.00000000000E+00 -0.45593999997E+02  0.45594000000E+02  0.51100000000E-03 0. -1.
         23    2    1    2    0    0 -0.35527136788E-14 -0.35527136788E-14  0.00000000000E+00  0.91188000000E+02  0.91188000000E+02 0.  0.
    9900012    2    3    3    0    0 -0.21975983252E+02 -0.23919385421E+02  0.17340657526E+02  0.54367092322E+02  0.40000018567E+02 0.  0.
         12    1    3    3    0    0  0.21975983252E+02  0.23919385421E+02 -0.17340657526E+02  0.36820907678E+02  0.00000000000E+00 0. -1.
         11    1    4    4    0    0 -0.72489294360E+00 -0.31601687836E+01  0.21948223917E+02  0.22186407323E+02  0.51100000000E-03 0. -1.
        -11    1    4    4    0    0 -0.18518290423E+02 -0.15925521131E+02  0.78965365498E+00  0.24437120466E+02  0.51100000000E-03 0.  1.
         12    1    4    4    0    0 -0.27327998853E+01 -0.48336955061E+01 -0.53972200463E+01  0.77435645337E+01  0.00000000000E+00 0. -1.
</event>
<event>
 8    1  0.3137106E-007  0.9118800E+02  0.7816164E-02  0.1184000E+00
        -11   -1    0    0    0    0  0.00000000000E+00  0.00000000000E+00  0.45593999997E+02  0.45594000000E+02  0.51100000000E-03 0. -1.
         11   -1    0    0    0    0 -0.00000000000E+00 -0.00000000000E+00 -0.45593999997E+02  0.45594000000E+02  0.51100000000E-03 0.  1.
         23    2    1    2    0    0  0.71054273576E-14 -0.17763568394E-14 -0.88817841970E-15  0.91188000000E+02  0.91188000000E+02 0.  0.
    9900012    2    3    3    0    0  0.36006162719E+02 -0.40267159100E+01  0.65662155787E+01  0.54367171903E+02  0.40000199986E+02 0.  0.
         12    1    3    3    0    0 -0.36006162719E+02  0.40267159100E+01 -0.65662155787E+01  0.36820828097E+02  0.00000000000E+00 0. -1.
         11    1    4    4    0    0 -0.36703972833E+01  0.91355124467E+01  0.77094724942E+01  0.12504613960E+02  0.51100000000E-03 0. -1.
        -11    1    4    4    0    0  0.13475271158E+02 -0.38839519444E+01  0.33323321907E+00  0.14027795983E+02  0.51100000000E-03 0.  1.
         12    1    4    4    0    0  0.26201288844E+02 -0.92782764123E+01 -0.14764901346E+01  0.27834761960E+02  0.00000000000E+00 0. -1.
</event>
<event>
 8    1  0.3137106E-007  0.9118800E+02  0.7816164E-02  0.1184000E+00
        -11   -1    0    0    0    0  0.00000000000E+00  0.00000000000E+00  0.45593999997E+02  0.45594000000E+02  0.51100000000E-03 0. -1.
         11   -1    0    0    0    0 -0.00000000000E+00 -0.00000000000E+00 -0.45593999997E+02  0.45594000000E+02  0.51100000000E-03 0.  1.
         23    2    1    2    0    0  0.00000000000E+00  0.00000000000E+00  0.00000000000E+00  0.91188000000E+02  0.91188000000E+02 0.  0.
    9900012    2    3    3    0    0 -0.13381022603E+02 -0.22733850502E+02  0.25688518279E+02  0.54367086161E+02  0.40000004521E+02 0.  0.
        -12    1    3    3    0    0  0.13381022603E+02  0.22733850502E+02 -0.25688518279E+02  0.36820913839E+02  0.00000000000E+00 0.  1.
         11    1    4    4    0    0 -0.56836308035E+01  0.17432314982E+00  0.71514888538E+01  0.91366208611E+01  0.51100000000E-03 0. -1.
        -11    1    4    4    0    0  0.16602144431E+01  0.27214033284E+01  0.17645845854E+02  0.17931486950E+02  0.51100000000E-03 0.  1.
        -12    1    4    4    0    0 -0.93576062431E+01 -0.25629576980E+02  0.89118357117E+00  0.27298978350E+02  0.00000000000E+00 0.  1.
</event>
<event>
 8    1  0.3137106E-007  0.9118800E+02  0.7816164E-02  0.1184000E+00
        -11   -1    0    0    0    0  0.00000000000E+00  0.00000000000E+00  0.45593999997E+02  0.45594000000E+02  0.51100000000E-03 0. -1.
         11   -1    0    0    0    0 -0.00000000000E+00 -0.00000000000E+00 -0.45593999997E+02  0.45594000000E+02  0.51100000000E-03 0.  1.
         23    2    1    2    0    0 -0.71054273576E-14 -0.19984014443E-14 -0.35527136788E-14  0.91188000000E+02  0.91188000000E+02 0.  0.
    9900012    2    3    3    0    0  0.25098663699E+02 -0.18571722623E+01  0.26877276657E+02  0.54367081913E+02  0.39999994836E+02 0.  0.
         12    1    3    3    0    0 -0.25098663699E+02  0.18571722623E+01 -0.26877276657E+02  0.36820918087E+02  0.00000000000E+00 0. -1.
         11    1    4    4    0    0  0.16027868097E+02  0.15952000844E+02  0.22913716349E+02  0.32193124792E+02  0.51100000000E-03 0. -1.
        -11    1    4    4    0    0  0.25335263922E+01 -0.36224110821E+01 -0.27127811834E+01  0.51865017148E+01  0.51100000000E-03 0.  1.
        -12    1    4    4    0    0  0.65372692096E+01 -0.14186762025E+02  0.66763414912E+01  0.16987455406E+02  0.00000000000E+00 0.  1.
</event>
<event>
 8    1  0.3137106E-007  0.9118800E+02  0.7816164E-02  0.1184000E+00
        -11   -1    0    0    0    0  0.00000000000E+00  0.00000000000E+00  0.45593999997E+02  0.45594000000E+02  0.51100000000E-03 0. -1.
         11   -1    0    0    0    0 -0.00000000000E+00 -0.00000000000E+00 -0.45593999997E+02  0.45594000000E+02  0.51100000000E-03 0.  1.
         23    2    1    2    0    0  0.35527136788E-14  0.00000000000E+00  0.00000000000E+00  0.91188000000E+02  0.91188000000E+02 0.  0.
    9900012    2    3    3    0    0 -0.21787712931E+02  0.25865389480E+02 -0.14562193012E+02  0.54367078324E+02  0.39999986655E+02 0.  0.
         12    1    3    3    0    0  0.21787712931E+02 -0.25865389480E+02  0.14562193012E+02  0.36820921676E+02  0.00000000000E+00 0. -1.
         11    1    4    4    0    0 -0.66136305221E+01 -0.22395826466E+01 -0.53924788962E+01  0.88223958209E+01  0.51100000000E-03 0. -1.
        -11    1    4    4    0    0 -0.22358555230E+02  0.92863769621E+01 -0.74371355526E+01  0.25326917983E+02  0.51100000000E-03 0.  1.
         12    1    4    4    0    0  0.71844728211E+01  0.18818595165E+02 -0.17325785637E+01  0.20217764520E+02  0.00000000000E+00 0. -1.
</event>
<event>
 8    1  0.3137106E-007  0.9118800E+02  0.7816164E-02  0.1184000E+00
        -11   -1    0    0    0    0  0.00000000000E+00  0.00000000000E+00  0.45593999997E+02  0.45594000000E+02  0.51100000000E-03 0. -1.
         11   -1    0    0    0    0 -0.00000000000E+00 -0.00000000000E+00 -0.45593999997E+02  0.45594000000E+02  0.51100000000E-03 0.  1.
         23    2    1    2    0    0 -0.17763568394E-14  0.17763568394E-14  0.00000000000E+00  0.91188000000E+02  0.91188000000E+02 0.  0.
    9900012    2    3    3    0    0 -0.12471964286E+02  0.12130361700E+02  0.32451263232E+02  0.54367081306E+02  0.39999993453E+02 0.  0.
        -12    1    3    3    0    0  0.12471964286E+02 -0.12130361700E+02 -0.32451263232E+02  0.36820918694E+02  0.00000000000E+00 0.  1.
         11    1    4    4    0    0 -0.15953834778E+01 -0.14783231618E+01  0.21682324720E+02  0.21791142543E+02  0.51100000000E-03 0. -1.
        -11    1    4    4    0    0 -0.95807669340E+00 -0.68373510656E+01 -0.10136368582E+01  0.69781616839E+01  0.51100000000E-03 0.  1.
         12    1    4    4    0    0 -0.99185041151E+01  0.20446035927E+02  0.11782575370E+02  0.25597777079E+02  0.00000000000E+00 0. -1.
</event>
<event>
 8    1  0.3137106E-007  0.9118800E+02  0.7816164E-02  0.1184000E+00
        -11   -1    0    0    0    0  0.00000000000E+00  0.00000000000E+00  0.45593999997E+02  0.45594000000E+02  0.51100000000E-03 0. -1.
         11   -1    0    0    0    0 -0.00000000000E+00 -0.00000000000E+00 -0.45593999997E+02  0.45594000000E+02  0.51100000000E-03 0.  1.
         23    2    1    2    0    0  0.00000000000E+00 -0.71054273576E-14  0.00000000000E+00  0.91188000000E+02  0.91188000000E+02 0.  0.
    9900012    2    3    3    0    0  0.63098925487E+01  0.27822123962E+02  0.23278629000E+02  0.54367083474E+02  0.39999998395E+02 0.  0.
        -12    1    3    3    0    0 -0.63098925487E+01 -0.27822123962E+02 -0.23278629000E+02  0.36820916526E+02  0.00000000000E+00 0.  1.
         11    1    4    4    0    0  0.15076559509E+02 -0.31606903987E+01  0.65200870351E+01  0.16727347238E+02  0.51100000000E-03 0.  1.
        -11    1    4    4    0    0 -0.31469461086E+01  0.24799016127E+02  0.10123627002E+02  0.26970025855E+02  0.51100000000E-03 0. -1.
        -12    1    4    4    0    0 -0.56197208518E+01  0.61837982337E+01  0.66349149628E+01  0.10669710381E+02  0.00000000000E+00 0.  1.
</event>
<event>
 8    1  0.3137106E-007  0.9118800E+02  0.7816164E-02  0.1184000E+00
        -11   -1    0    0    0    0  0.00000000000E+00  0.00000000000E+00  0.45593999997E+02  0.45594000000E+02  0.51100000000E-03 0.  1.
         11   -1    0    0    0    0 -0.00000000000E+00 -0.00000000000E+00 -0.45593999997E+02  0.45594000000E+02  0.51100000000E-03 0. -1.
         23    2    1    2    0    0 -0.44408920985E-15  0.44408920985E-15  0.00000000000E+00  0.91188000000E+02  0.91188000000E+02 0.  0.
    9900012    2    3    3    0    0  0.12588909041E+01 -0.12664070970E+01 -0.36777700840E+02  0.54366975132E+02  0.39999751408E+02 0.  0.
        -12    1    3    3    0    0 -0.12588909041E+01  0.12664070970E+01  0.36777700840E+02  0.36821024868E+02  0.00000000000E+00 0.  1.
         11    1    4    4    0    0 -0.12033800042E+02  0.73958489323E+01 -0.19145638847E+02  0.23792150218E+02  0.51100000000E-03 0. -1.
        -11    1    4    4    0    0 -0.34983903119E+01 -0.64569654054E+01 -0.88427526891E+01  0.11494581872E+02  0.51100000000E-03 0.  1.
        -12    1    4    4    0    0  0.16791081258E+02 -0.22052906239E+01 -0.87893093042E+01  0.19080243043E+02  0.00000000000E+00 0.  1.
</event>
<event>
 8    1  0.3137106E-007  0.9118800E+02  0.7816164E-02  0.1184000E+00
        -11   -1    0    0    0    0  0.00000000000E+00  0.00000000000E+00  0.45593999997E+02  0.45594000000E+02  0.51100000000E-03 0.  1.
         11   -1    0    0    0    0 -0.00000000000E+00 -0.00000000000E+00 -0.45593999997E+02  0.45594000000E+02  0.51100000000E-03 0. -1.
         23    2    1    2    0    0  0.00000000000E+00 -0.11102230246E-14  0.00000000000E+00  0.91188000000E+02  0.91188000000E+02 0.  0.
    9900012    2    3    3    0    0  0.14042285381E+02  0.12603899990E+01  0.34014791430E+02  0.54367076632E+02  0.39999982798E+02 0.  0.
         12    1    3    3    0    0 -0.14042285381E+02 -0.12603899990E+01 -0.34014791430E+02  0.36820923368E+02  0.00000000000E+00 0. -1.
         11    1    4    4    0    0 -0.45157826101E+01 -0.32390109189E+01  0.84434541233E+01  0.10108184907E+02  0.51100000000E-03 0. -1.
        -11    1    4    4    0    0  0.19591408145E+01  0.10128841841E+02 -0.29962750967E+01  0.10742873660E+02  0.51100000000E-03 0.  1.
        -12    1    4    4    0    0  0.16598927176E+02 -0.56294409227E+01  0.28567612403E+02  0.33516018065E+02  0.00000000000E+00 0.  1.
</event>
<event>
 8    1  0.3137106E-007  0.9118800E+02  0.7816164E-02  0.1184000E+00
        -11   -1    0    0    0    0  0.00000000000E+00  0.00000000000E+00  0.45593999997E+02  0.45594000000E+02  0.51100000000E-03 0. -1.
         11   -1    0    0    0    0 -0.00000000000E+00 -0.00000000000E+00 -0.45593999997E+02  0.45594000000E+02  0.51100000000E-03 0.  1.
         23    2    1    2    0    0  0.00000000000E+00  0.00000000000E+00  0.00000000000E+00  0.91188000000E+02  0.91188000000E+02 0.  0.
    9900012    2    3    3    0    0 -0.12131177724E+02 -0.33637683771E+02 -0.87818197583E+01  0.54367087454E+02  0.40000007468E+02 0.  0.
        -12    1    3    3    0    0  0.12131177724E+02  0.33637683771E+02  0.87818197583E+01  0.36820912546E+02  0.00000000000E+00 0.  1.
         11    1    4    4    0    0 -0.70276300425E+01  0.42016762508E+01 -0.20104868258E+00  0.81903655697E+01  0.51100000000E-03 0. -1.
        -11    1    4    4    0    0  0.39252076670E+01 -0.24237400748E+02  0.48604777652E+01  0.25029644317E+02  0.51100000000E-03 0.  1.
        -12    1    4    4    0    0 -0.90287553489E+01 -0.13601959274E+02 -0.13441248841E+02  0.21147077567E+02  0.00000000000E+00 0.  1.
</event>
<event>
 8    1  0.3137106E-007  0.9118800E+02  0.7816164E-02  0.1184000E+00
        -11   -1    0    0    0    0  0.00000000000E+00  0.00000000000E+00  0.45593999997E+02  0.45594000000E+02  0.51100000000E-03 0. -1.
         11   -1    0    0    0    0 -0.00000000000E+00 -0.00000000000E+00 -0.45593999997E+02  0.45594000000E+02  0.51100000000E-03 0.  1.
         23    2    1    2    0    0  0.00000000000E+00  0.00000000000E+00  0.00000000000E+00  0.91188000000E+02  0.91188000000E+02 0.  0.
    9900012    2    3    3    0    0  0.28827935310E+02  0.90952269229E+01 -0.21023969831E+02  0.54367077762E+02  0.39999985374E+02 0.  0.
        -12    1    3    3    0    0 -0.28827935310E+02 -0.90952269229E+01  0.21023969831E+02  0.36820922238E+02  0.00000000000E+00 0.  1.
         11    1    4    4    0    0  0.17347172602E+02  0.10441588943E+01 -0.11872832250E+02  0.21047061814E+02  0.51100000000E-03 0. -1.
        -11    1    4    4    0    0  0.11938786147E+02  0.61489565745E+01 -0.19006620061E+02  0.23272212787E+02  0.51100000000E-03 0.  1.
         12    1    4    4    0    0 -0.45802343929E+00  0.19021114541E+01  0.98554824798E+01  0.10047803161E+02  0.00000000000E+00 0. -1.
</event>
<event>
 8    1  0.3137106E-007  0.9118800E+02  0.7816164E-02  0.1184000E+00
        -11   -1    0    0    0    0  0.00000000000E+00  0.00000000000E+00  0.45593999997E+02  0.45594000000E+02  0.51100000000E-03 0. -1.
         11   -1    0    0    0    0 -0.00000000000E+00 -0.00000000000E+00 -0.45593999997E+02  0.45594000000E+02  0.51100000000E-03 0.  1.
         23    2    1    2    0    0  0.00000000000E+00  0.00000000000E+00  0.00000000000E+00  0.91188000000E+02  0.91188000000E+02 0.  0.
    9900012    2    3    3    0    0 -0.35481139830E+02 -0.98404343534E+01  0.18658462563E+00  0.54367078695E+02  0.39999987502E+02 0.  0.
         12    1    3    3    0    0  0.35481139830E+02  0.98404343534E+01 -0.18658462563E+00  0.36820921305E+02  0.00000000000E+00 0. -1.
         11    1    4    4    0    0 -0.21783685951E+02  0.79900557672E+01 -0.84988439030E+01  0.24710328058E+02  0.51100000000E-03 0. -1.
        -11    1    4    4    0    0 -0.11727840106E+02 -0.59224404097E+01 -0.22976256688E+01  0.13337789095E+02  0.51100000000E-03 0.  1.
         12    1    4    4    0    0 -0.19696137732E+01 -0.11908049711E+02  0.10983054197E+02  0.16318961543E+02  0.00000000000E+00 0. -1.
</event>
<event>
 8    1  0.3137106E-007  0.9118800E+02  0.7816164E-02  0.1184000E+00
        -11   -1    0    0    0    0  0.00000000000E+00  0.00000000000E+00  0.45593999997E+02  0.45594000000E+02  0.51100000000E-03 0.  1.
         11   -1    0    0    0    0 -0.00000000000E+00 -0.00000000000E+00 -0.45593999997E+02  0.45594000000E+02  0.51100000000E-03 0. -1.
         23    2    1    2    0    0  0.17763568394E-14  0.00000000000E+00 -0.35527136788E-14  0.91188000000E+02  0.91188000000E+02 0.  0.
    9900012    2    3    3    0    0 -0.15391248609E+02  0.17422542501E+02  0.28554217705E+02  0.54367097381E+02  0.40000030099E+02 0.  0.
         12    1    3    3    0    0  0.15391248609E+02 -0.17422542501E+02 -0.28554217705E+02  0.36820902619E+02  0.00000000000E+00 0. -1.
         11    1    4    4    0    0 -0.15076080603E+02  0.68619649700E+01  0.10734195498E+02  0.19738229982E+02  0.51100000000E-03 0. -1.
        -11    1    4    4    0    0  0.65732838376E+01  0.31794771252E+01 -0.55497325340E+01  0.91715138695E+01  0.51100000000E-03 0.  1.
         12    1    4    4    0    0 -0.68884518438E+01  0.73811004057E+01  0.23369754742E+02  0.25457353529E+02  0.00000000000E+00 0. -1.
</event>
<event>
 8    1  0.3137106E-007  0.9118800E+02  0.7816164E-02  0.1184000E+00
        -11   -1    0    0    0    0  0.00000000000E+00  0.00000000000E+00  0.45593999997E+02  0.45594000000E+02  0.51100000000E-03 0. -1.
         11   -1    0    0    0    0 -0.00000000000E+00 -0.00000000000E+00 -0.45593999997E+02  0.45594000000E+02  0.51100000000E-03 0.  1.
         23    2    1    2    0    0  0.00000000000E+00  0.00000000000E+00 -0.35527136788E-14  0.91188000000E+02  0.91188000000E+02 0.  0.
    9900012    2    3    3    0    0  0.14159879407E+02 -0.32791816649E+02 -0.89427393281E+01  0.54367109046E+02  0.40000056691E+02 0.  0.
        -12    1    3    3    0    0 -0.14159879407E+02  0.32791816649E+02  0.89427393281E+01  0.36820890954E+02  0.00000000000E+00 0.  1.
         11    1    4    4    0    0 -0.19242430722E+01 -0.22435708301E+02 -0.18873871891E+02  0.29381741930E+02  0.51100000000E-03 0. -1.
        -11    1    4    4    0    0  0.16299658350E+02 -0.42931794536E+01  0.75210508089E+01  0.18457422834E+02  0.51100000000E-03 0.  1.
         12    1    4    4    0    0 -0.21553587008E+00 -0.60629288941E+01  0.24100817544E+01  0.65279442820E+01  0.00000000000E+00 0. -1.
</event>
<event>
 8    1  0.3137106E-007  0.9118800E+02  0.7816164E-02  0.1184000E+00
        -11   -1    0    0    0    0  0.00000000000E+00  0.00000000000E+00  0.45593999997E+02  0.45594000000E+02  0.51100000000E-03 0. -1.
         11   -1    0    0    0    0 -0.00000000000E+00 -0.00000000000E+00 -0.45593999997E+02  0.45594000000E+02  0.51100000000E-03 0.  1.
         23    2    1    2    0    0  0.00000000000E+00  0.17763568394E-14  0.00000000000E+00  0.91188000000E+02  0.91188000000E+02 0.  0.
    9900012    2    3    3    0    0 -0.32336151421E+02  0.12105057726E+02 -0.12791427604E+02  0.54367085679E+02  0.40000003423E+02 0.  0.
         12    1    3    3    0    0  0.32336151421E+02 -0.12105057726E+02  0.12791427604E+02  0.36820914321E+02  0.00000000000E+00 0. -1.
         11    1    4    4    0    0 -0.16213688106E+02 -0.85655162865E+01  0.60656935428E+01  0.19314357087E+02  0.51100000000E-03 0. -1.
        -11    1    4    4    0    0 -0.46709811018E+01  0.15835353368E+02 -0.72003124260E+01  0.18011690094E+02  0.51100000000E-03 0.  1.
         12    1    4    4    0    0 -0.11451482213E+02  0.48352206445E+01 -0.11656808721E+02  0.17041038499E+02  0.00000000000E+00 0. -1.
</event>
<event>
 8    1  0.3137106E-007  0.9118800E+02  0.7816164E-02  0.1184000E+00
        -11   -1    0    0    0    0  0.00000000000E+00  0.00000000000E+00  0.45593999997E+02  0.45594000000E+02  0.51100000000E-03 0. -1.
         11   -1    0    0    0    0 -0.00000000000E+00 -0.00000000000E+00 -0.45593999997E+02  0.45594000000E+02  0.51100000000E-03 0.  1.
         23    2    1    2    0    0  0.00000000000E+00  0.35527136788E-14 -0.88817841970E-15  0.91188000000E+02  0.91188000000E+02 0.  0.
    9900012    2    3    3    0    0 -0.23922494074E+02 -0.27172268864E+02 -0.67202232429E+01  0.54367091288E+02  0.40000016209E+02 0.  0.
        -12    1    3    3    0    0  0.23922494074E+02  0.27172268864E+02  0.67202232429E+01  0.36820908712E+02  0.00000000000E+00 0.  1.
         11    1    4    4    0    0 -0.65518460218E+01 -0.22744778146E+02 -0.37909303514E+01  0.23971290586E+02  0.51100000000E-03 0. -1.
        -11    1    4    4    0    0  0.27843986506E+01 -0.21833506632E+01 -0.86324904481E+01  0.93295116465E+01  0.51100000000E-03 0.  1.
        -12    1    4    4    0    0 -0.20155046703E+02 -0.22441400556E+01  0.57031975566E+01  0.21066289055E+02  0.00000000000E+00 0.  1.
</event>
<event>
 8    1  0.3137106E-007  0.9118800E+02  0.7816164E-02  0.1184000E+00
        -11   -1    0    0    0    0  0.00000000000E+00  0.00000000000E+00  0.45593999997E+02  0.45594000000E+02  0.51100000000E-03 0. -1.
         11   -1    0    0    0    0 -0.00000000000E+00 -0.00000000000E+00 -0.45593999997E+02  0.45594000000E+02  0.51100000000E-03 0.  1.
         23    2    1    2    0    0  0.00000000000E+00  0.00000000000E+00 -0.22204460493E-15  0.91188000000E+02  0.91188000000E+02 0.  0.
    9900012    2    3    3    0    0 -0.22041086723E+01  0.36741858443E+02 -0.97905854799E+00  0.54367070998E+02  0.39999969955E+02 0.  0.
         12    1    3    3    0    0  0.22041086723E+01 -0.36741858443E+02  0.97905854799E+00  0.36820929002E+02  0.00000000000E+00 0. -1.
         11    1    4    4    0    0 -0.82860607177E+01  0.17869881002E+02  0.75477871095E+01  0.21094087792E+02  0.51100000000E-03 0. -1.
        -11    1    4    4    0    0  0.79430388336E+00  0.24451350100E+02 -0.61208764788E+01  0.25218337960E+02  0.51100000000E-03 0.  1.
         12    1    4    4    0    0  0.52876481620E+01 -0.55793726587E+01 -0.24059691787E+01  0.80546452460E+01  0.00000000000E+00 0. -1.
</event>
<event>
 8    1  0.3137106E-007  0.9118800E+02  0.7816164E-02  0.1184000E+00
        -11   -1    0    0    0    0  0.00000000000E+00  0.00000000000E+00  0.45593999997E+02  0.45594000000E+02  0.51100000000E-03 0. -1.
         11   -1    0    0    0    0 -0.00000000000E+00 -0.00000000000E+00 -0.45593999997E+02  0.45594000000E+02  0.51100000000E-03 0.  1.
         23    2    1    2    0    0  0.00000000000E+00  0.00000000000E+00  0.00000000000E+00  0.91188000000E+02  0.91188000000E+02 0.  0.
    9900012    2    3    3    0    0  0.88762393179E+01  0.12659759666E+02  0.33417401274E+02  0.54367084108E+02  0.39999999841E+02 0.  0.
        -12    1    3    3    0    0 -0.88762393179E+01 -0.12659759666E+02 -0.33417401274E+02  0.36820915892E+02  0.00000000000E+00 0.  1.
         11    1    4    4    0    0  0.29817602589E+01  0.26021071953E+02  0.16052799881E+02  0.30719366271E+02  0.51100000000E-03 0. -1.
        -11    1    4    4    0    0  0.44051457517E+01 -0.24512911879E+01  0.54100613497E+01  0.73947888171E+01  0.51100000000E-03 0.  1.
        -12    1    4    4    0    0  0.14893333073E+01 -0.10910021099E+02  0.11954540043E+02  0.16252929020E+02  0.00000000000E+00 0.  1.
</event>
<event>
 8    1  0.3137106E-007  0.9118800E+02  0.7816164E-02  0.1184000E+00
        -11   -1    0    0    0    0  0.00000000000E+00  0.00000000000E+00  0.45593999997E+02  0.45594000000E+02  0.51100000000E-03 0.  1.
         11   -1    0    0    0    0 -0.00000000000E+00 -0.00000000000E+00 -0.45593999997E+02  0.45594000000E+02  0.51100000000E-03 0. -1.
         23    2    1    2    0    0  0.17763568394E-14  0.35527136788E-14  0.35527136788E-14  0.91188000000E+02  0.91188000000E+02 0.  0.
    9900012    2    3    3    0    0  0.11934558152E+02  0.29777662516E+02  0.18073092972E+02  0.54367088105E+02  0.40000008952E+02 0.  0.
         12    1    3    3    0    0 -0.11934558152E+02 -0.29777662516E+02 -0.18073092972E+02  0.36820911895E+02  0.00000000000E+00 0. -1.
         11    1    4    4    0    0  0.35705337875E+01 -0.37173870753E+01 -0.73889617908E+01  0.90091306352E+01  0.51100000000E-03 0. -1.
        -11    1    4    4    0    0  0.41281617993E+01  0.44427554572E+01 -0.60718196388E+00  0.60949541501E+01  0.51100000000E-03 0.  1.
        -12    1    4    4    0    0  0.42358625648E+01  0.29052294134E+02  0.26069236727E+02  0.39263003320E+02  0.00000000000E+00 0.  1.
</event>
<event>
 8    1  0.3137106E-007  0.9118800E+02  0.7816164E-02  0.1184000E+00
        -11   -1    0    0    0    0  0.00000000000E+00  0.00000000000E+00  0.45593999997E+02  0.45594000000E+02  0.51100000000E-03 0. -1.
         11   -1    0    0    0    0 -0.00000000000E+00 -0.00000000000E+00 -0.45593999997E+02  0.45594000000E+02  0.51100000000E-03 0.  1.
         23    2    1    2    0    0 -0.71054273576E-14 -0.35527136788E-14  0.35527136788E-14  0.91188000000E+02  0.91188000000E+02 0.  0.
    9900012    2    3    3    0    0 -0.16598175966E+02 -0.15106858758E+02  0.29190131141E+02  0.54367076832E+02  0.39999983253E+02 0.  0.
        -12    1    3    3    0    0  0.16598175966E+02  0.15106858758E+02 -0.29190131141E+02  0.36820923168E+02  0.00000000000E+00 0.  1.
         11    1    4    4    0    0 -0.29490288904E+01 -0.17260506584E+01  0.10566522212E+02  0.11105287668E+02  0.51100000000E-03 0. -1.
        -11    1    4    4    0    0 -0.23545992122E+02 -0.16340529093E+02  0.14712729191E+02  0.32216316310E+02  0.51100000000E-03 0.  1.
        -12    1    4    4    0    0  0.98968450470E+01  0.29597209933E+01  0.39108797377E+01  0.11045472854E+02  0.00000000000E+00 0.  1.
</event>
<event>
 8    1  0.3137106E-007  0.9118800E+02  0.7816164E-02  0.1184000E+00
        -11   -1    0    0    0    0  0.00000000000E+00  0.00000000000E+00  0.45593999997E+02  0.45594000000E+02  0.51100000000E-03 0.  1.
         11   -1    0    0    0    0 -0.00000000000E+00 -0.00000000000E+00 -0.45593999997E+02  0.45594000000E+02  0.51100000000E-03 0. -1.
         23    2    1    2    0    0  0.88817841970E-15  0.00000000000E+00 -0.71054273576E-14  0.91188000000E+02  0.91188000000E+02 0.  0.
    9900012    2    3    3    0    0 -0.56932998097E+01  0.11831644419E+02  0.34400266613E+02  0.54367084538E+02  0.40000000822E+02 0.  0.
         12    1    3    3    0    0  0.56932998097E+01 -0.11831644419E+02 -0.34400266613E+02  0.36820915462E+02  0.00000000000E+00 0. -1.
         11    1    4    4    0    0 -0.34356274819E+01  0.23573049233E+02  0.11981752971E+02  0.26665606891E+02  0.51100000000E-03 0. -1.
        -11    1    4    4    0    0 -0.41408807772E+01 -0.60090105848E+01  0.40045589804E+01  0.83241572972E+01  0.51100000000E-03 0.  1.
        -12    1    4    4    0    0  0.18832084494E+01 -0.57323942298E+01  0.18413954661E+02  0.19377320350E+02  0.00000000000E+00 0.  1.
</event>
<event>
 8    1  0.3137106E-007  0.9118800E+02  0.7816164E-02  0.1184000E+00
        -11   -1    0    0    0    0  0.00000000000E+00  0.00000000000E+00  0.45593999997E+02  0.45594000000E+02  0.51100000000E-03 0. -1.
         11   -1    0    0    0    0 -0.00000000000E+00 -0.00000000000E+00 -0.45593999997E+02  0.45594000000E+02  0.51100000000E-03 0.  1.
         23    2    1    2    0    0  0.00000000000E+00 -0.35527136788E-14  0.35527136788E-14  0.91188000000E+02  0.91188000000E+02 0.  0.
    9900012    2    3    3    0    0  0.18517269204E+02  0.88972319641E+01  0.30557004142E+02  0.54367075276E+02  0.39999979706E+02 0.  0.
        -12    1    3    3    0    0 -0.18517269204E+02 -0.88972319641E+01 -0.30557004142E+02  0.36820924724E+02  0.00000000000E+00 0.  1.
         11    1    4    4    0    0  0.87079123106E+01  0.13511816695E+02  0.57230989220E+01  0.17063141233E+02  0.51100000000E-03 0. -1.
        -11    1    4    4    0    0  0.11474381964E+01  0.56401990743E+01  0.23055599134E+02  0.23763188164E+02  0.51100000000E-03 0.  1.
         12    1    4    4    0    0  0.86619186975E+01 -0.10254783805E+02  0.17783060858E+01  0.13540745878E+02  0.00000000000E+00 0. -1.
</event>
<event>
 8    1  0.3137106E-007  0.9118800E+02  0.7816164E-02  0.1184000E+00
        -11   -1    0    0    0    0  0.00000000000E+00  0.00000000000E+00  0.45593999997E+02  0.45594000000E+02  0.51100000000E-03 0.  1.
         11   -1    0    0    0    0 -0.00000000000E+00 -0.00000000000E+00 -0.45593999997E+02  0.45594000000E+02  0.51100000000E-03 0. -1.
         23    2    1    2    0    0  0.00000000000E+00  0.00000000000E+00  0.00000000000E+00  0.91188000000E+02  0.91188000000E+02 0.  0.
    9900012    2    3    3    0    0  0.61032920367E+01  0.35556512481E+02 -0.73665367873E+01  0.54367060065E+02  0.39999945029E+02 0.  0.
        -12    1    3    3    0    0 -0.61032920367E+01 -0.35556512481E+02  0.73665367873E+01  0.36820939935E+02  0.00000000000E+00 0.  1.
         11    1    4    4    0    0  0.83658773694E-01  0.55595333887E+01  0.43329384446E+01  0.70490968299E+01  0.51100000000E-03 0. -1.
        -11    1    4    4    0    0  0.14255137740E+02  0.28942434617E+01  0.37921599756E+01  0.15032167999E+02  0.51100000000E-03 0.  1.
         12    1    4    4    0    0 -0.82355044767E+01  0.27102735630E+02 -0.15491635208E+02  0.32285795236E+02  0.00000000000E+00 0. -1.
</event>
<event>
 8    1  0.3137106E-007  0.9118800E+02  0.7816164E-02  0.1184000E+00
        -11   -1    0    0    0    0  0.00000000000E+00  0.00000000000E+00  0.45593999997E+02  0.45594000000E+02  0.51100000000E-03 0.  1.
         11   -1    0    0    0    0 -0.00000000000E+00 -0.00000000000E+00 -0.45593999997E+02  0.45594000000E+02  0.51100000000E-03 0. -1.
         23    2    1    2    0    0  0.22204460493E-15  0.00000000000E+00  0.71054273576E-14  0.91188000000E+02  0.91188000000E+02 0.  0.
    9900012    2    3    3    0    0  0.16260660964E+01 -0.10385285716E+02  0.35288510470E+02  0.54367119761E+02  0.40000081119E+02 0.  0.
         12    1    3    3    0    0 -0.16260660964E+01  0.10385285716E+02 -0.35288510470E+02  0.36820880239E+02  0.00000000000E+00 0. -1.
         11    1    4    4    0    0  0.26138957373E+01  0.93595185928E+01  0.57917018891E+01  0.11312685369E+02  0.51100000000E-03 0.  1.
        -11    1    4    4    0    0 -0.32129624841E+01 -0.25190812633E+02  0.25137822722E+02  0.35732482429E+02  0.51100000000E-03 0. -1.
         12    1    4    4    0    0  0.22251328432E+01  0.54460083242E+01  0.43589858592E+01  0.73219519637E+01  0.00000000000E+00 0. -1.
</event>
<event>
 8    1  0.3137106E-007  0.9118800E+02  0.7816164E-02  0.1184000E+00
        -11   -1    0    0    0    0  0.00000000000E+00  0.00000000000E+00  0.45593999997E+02  0.45594000000E+02  0.51100000000E-03 0.  1.
         11   -1    0    0    0    0 -0.00000000000E+00 -0.00000000000E+00 -0.45593999997E+02  0.45594000000E+02  0.51100000000E-03 0. -1.
         23    2    1    2    0    0  0.00000000000E+00  0.00000000000E+00  0.53290705182E-14  0.91188000000E+02  0.91188000000E+02 0.  0.
    9900012    2    3    3    0    0 -0.27073639419E+02  0.20755749312E+02 -0.13856245781E+02  0.54367100662E+02  0.40000037579E+02 0.  0.
        -12    1    3    3    0    0  0.27073639419E+02 -0.20755749312E+02  0.13856245781E+02  0.36820899338E+02  0.00000000000E+00 0.  1.
         11    1    4    4    0    0 -0.92721854804E+01 -0.10083090952E+01 -0.16790963166E+02  0.19207460923E+02  0.51100000000E-03 0. -1.
        -11    1    4    4    0    0  0.13617122981E+01 -0.21644910258E+01 -0.29918858938E+01  0.39358179894E+01  0.51100000000E-03 0.  1.
         12    1    4    4    0    0 -0.19163166237E+02  0.23928549433E+02  0.59266032788E+01  0.31223821749E+02  0.00000000000E+00 0. -1.
</event>
<event>
 8    1  0.3137106E-007  0.9118800E+02  0.7816164E-02  0.1184000E+00
        -11   -1    0    0    0    0  0.00000000000E+00  0.00000000000E+00  0.45593999997E+02  0.45594000000E+02  0.51100000000E-03 0.  1.
         11   -1    0    0    0    0 -0.00000000000E+00 -0.00000000000E+00 -0.45593999997E+02  0.45594000000E+02  0.51100000000E-03 0. -1.
         23    2    1    2    0    0  0.00000000000E+00  0.00000000000E+00  0.35527136788E-14  0.91188000000E+02  0.91188000000E+02 0.  0.
    9900012    2    3    3    0    0  0.19132694626E+02 -0.13007359801E+02 -0.28644875418E+02  0.54367077954E+02  0.39999985811E+02 0.  0.
        -12    1    3    3    0    0 -0.19132694626E+02  0.13007359801E+02  0.28644875418E+02  0.36820922046E+02  0.00000000000E+00 0.  1.
         11    1    4    4    0    0  0.71721693800E+01  0.68520825275E+01 -0.22958580373E+02  0.25009747332E+02  0.51100000000E-03 0. -1.
        -11    1    4    4    0    0 -0.28849829532E+01 -0.16709669873E+00  0.20133753616E+01  0.35220347180E+01  0.51100000000E-03 0.  1.
        -12    1    4    4    0    0  0.14845508199E+02 -0.19692345630E+02 -0.76996704059E+01  0.25835295904E+02  0.00000000000E+00 0.  1.
</event>
<event>
 8    1  0.3137106E-007  0.9118800E+02  0.7816164E-02  0.1184000E+00
        -11   -1    0    0    0    0  0.00000000000E+00  0.00000000000E+00  0.45593999997E+02  0.45594000000E+02  0.51100000000E-03 0. -1.
         11   -1    0    0    0    0 -0.00000000000E+00 -0.00000000000E+00 -0.45593999997E+02  0.45594000000E+02  0.51100000000E-03 0.  1.
         23    2    1    2    0    0  0.00000000000E+00  0.00000000000E+00  0.00000000000E+00  0.91188000000E+02  0.91188000000E+02 0.  0.
    9900012    2    3    3    0    0  0.27720823834E+02 -0.26163968454E+01  0.24093350143E+02  0.54367093878E+02  0.40000022115E+02 0.  0.
        -12    1    3    3    0    0 -0.27720823834E+02  0.26163968454E+01 -0.24093350143E+02  0.36820906122E+02  0.00000000000E+00 0.  1.
         11    1    4    4    0    0  0.12335400524E+02 -0.25427431227E+01  0.15611874427E+02  0.20058870159E+02  0.51100000000E-03 0. -1.
        -11    1    4    4    0    0  0.21165738362E+02 -0.52016376958E+01  0.12979226733E+02  0.25367416936E+02  0.51100000000E-03 0.  1.
        -12    1    4    4    0    0 -0.57803150518E+01  0.51279839731E+01 -0.44977510176E+01  0.89408067836E+01  0.00000000000E+00 0.  1.
</event>
<event>
 8    1  0.3137106E-007  0.9118800E+02  0.7816164E-02  0.1184000E+00
        -11   -1    0    0    0    0  0.00000000000E+00  0.00000000000E+00  0.45593999997E+02  0.45594000000E+02  0.51100000000E-03 0.  1.
         11   -1    0    0    0    0 -0.00000000000E+00 -0.00000000000E+00 -0.45593999997E+02  0.45594000000E+02  0.51100000000E-03 0. -1.
         23    2    1    2    0    0  0.17763568394E-14  0.00000000000E+00  0.00000000000E+00  0.91188000000E+02  0.91188000000E+02 0.  0.
    9900012    2    3    3    0    0  0.59739370895E+01 -0.29163725807E+02 -0.21669538717E+02  0.54367085624E+02  0.40000003296E+02 0.  0.
        -12    1    3    3    0    0 -0.59739370895E+01  0.29163725807E+02  0.21669538717E+02  0.36820914376E+02  0.00000000000E+00 0.  1.
         11    1    4    4    0    0  0.15777610744E+02 -0.23288802158E+02 -0.28906927472E+01  0.28278214434E+02  0.51100000000E-03 0. -1.
        -11    1    4    4    0    0 -0.86719619326E+00 -0.56678260290E+01 -0.51746828241E+00  0.57570873553E+01  0.51100000000E-03 0.  1.
         12    1    4    4    0    0 -0.89364774615E+01 -0.20709762002E+00 -0.18261377687E+02  0.20331783834E+02  0.00000000000E+00 0. -1.
</event>
<event>
 8    1  0.3137106E-007  0.9118800E+02  0.7816164E-02  0.1184000E+00
        -11   -1    0    0    0    0  0.00000000000E+00  0.00000000000E+00  0.45593999997E+02  0.45594000000E+02  0.51100000000E-03 0.  1.
         11   -1    0    0    0    0 -0.00000000000E+00 -0.00000000000E+00 -0.45593999997E+02  0.45594000000E+02  0.51100000000E-03 0. -1.
         23    2    1    2    0    0  0.00000000000E+00  0.00000000000E+00  0.00000000000E+00  0.91188000000E+02  0.91188000000E+02 0.  0.
    9900012    2    3    3    0    0 -0.32216795052E+02 -0.17463237835E+02  0.35906012906E+01  0.54367095928E+02  0.40000026786E+02 0.  0.
        -12    1    3    3    0    0  0.32216795052E+02  0.17463237835E+02 -0.35906012906E+01  0.36820904072E+02  0.00000000000E+00 0.  1.
         11    1    4    4    0    0 -0.13750468127E+02 -0.36806987536E+01  0.11352256086E+01  0.14279763810E+02  0.51100000000E-03 0.  1.
        -11    1    4    4    0    0 -0.27779940575E+02 -0.99409339485E+01 -0.75108834681E+00  0.29514596390E+02  0.51100000000E-03 0. -1.
        -12    1    4    4    0    0  0.93136136494E+01 -0.38416051326E+01  0.32064640289E+01  0.10572735728E+02  0.00000000000E+00 0.  1.
</event>
<event>
 8    1  0.3137106E-007  0.9118800E+02  0.7816164E-02  0.1184000E+00
        -11   -1    0    0    0    0  0.00000000000E+00  0.00000000000E+00  0.45593999997E+02  0.45594000000E+02  0.51100000000E-03 0.  1.
         11   -1    0    0    0    0 -0.00000000000E+00 -0.00000000000E+00 -0.45593999997E+02  0.45594000000E+02  0.51100000000E-03 0. -1.
         23    2    1    2    0    0  0.35527136788E-14  0.00000000000E+00  0.00000000000E+00  0.91188000000E+02  0.91188000000E+02 0.  0.
    9900012    2    3    3    0    0  0.21859760132E+02 -0.20059381591E+02 -0.21807072753E+02  0.54367131937E+02  0.40000108877E+02 0.  0.
         12    1    3    3    0    0 -0.21859760132E+02  0.20059381591E+02  0.21807072753E+02  0.36820868063E+02  0.00000000000E+00 0. -1.
         11    1    4    4    0    0  0.19514759910E+02 -0.30733934139E+01 -0.16064004900E+02  0.25462204444E+02  0.51100000000E-03 0. -1.
        -11    1    4    4    0    0 -0.10752474519E+01 -0.20177917855E+02 -0.10030517577E+02  0.22559162422E+02  0.51100000000E-03 0.  1.
         12    1    4    4    0    0  0.34202476733E+01  0.31919296785E+01  0.42874497233E+01  0.63457650720E+01  0.00000000000E+00 0. -1.
</event>
<event>
 8    1  0.3137106E-007  0.9118800E+02  0.7816164E-02  0.1184000E+00
        -11   -1    0    0    0    0  0.00000000000E+00  0.00000000000E+00  0.45593999997E+02  0.45594000000E+02  0.51100000000E-03 0.  1.
         11   -1    0    0    0    0 -0.00000000000E+00 -0.00000000000E+00 -0.45593999997E+02  0.45594000000E+02  0.51100000000E-03 0. -1.
         23    2    1    2    0    0 -0.35527136788E-14 -0.17763568394E-14  0.00000000000E+00  0.91188000000E+02  0.91188000000E+02 0.  0.
    9900012    2    3    3    0    0  0.27187852751E+02  0.98037931688E+01 -0.22814177045E+02  0.54367076982E+02  0.39999983595E+02 0.  0.
        -12    1    3    3    0    0 -0.27187852751E+02 -0.98037931688E+01  0.22814177045E+02  0.36820923018E+02  0.00000000000E+00 0.  1.
         11    1    4    4    0    0  0.10442501008E+02  0.39480123913E+01  0.56473434249E+01  0.12510999847E+02  0.51100000000E-03 0. -1.
        -11    1    4    4    0    0  0.10232556754E+02 -0.94967575911E+01 -0.11752440002E+02  0.18248656628E+02  0.51100000000E-03 0.  1.
         12    1    4    4    0    0  0.65127949888E+01  0.15352538369E+02 -0.16709080468E+02  0.23607420507E+02  0.00000000000E+00 0. -1.
</event>
<event>
 8    1  0.3137106E-007  0.9118800E+02  0.7816164E-02  0.1184000E+00
        -11   -1    0    0    0    0  0.00000000000E+00  0.00000000000E+00  0.45593999997E+02  0.45594000000E+02  0.51100000000E-03 0. -1.
         11   -1    0    0    0    0 -0.00000000000E+00 -0.00000000000E+00 -0.45593999997E+02  0.45594000000E+02  0.51100000000E-03 0.  1.
         23    2    1    2    0    0  0.00000000000E+00  0.00000000000E+00 -0.35527136788E-14  0.91188000000E+02  0.91188000000E+02 0.  0.
    9900012    2    3    3    0    0 -0.28951907243E+02 -0.95209620980E+01  0.20661967101E+02  0.54367101902E+02  0.40000040406E+02 0.  0.
        -12    1    3    3    0    0  0.28951907243E+02  0.95209620980E+01 -0.20661967101E+02  0.36820898098E+02  0.00000000000E+00 0.  1.
         11    1    4    4    0    0 -0.28247812147E+01 -0.31840564403E+01 -0.36602133374E+01  0.56138014093E+01  0.51100000000E-03 0.  1.
        -11    1    4    4    0    0 -0.24269629154E+01  0.77253377399E+01  0.19044395988E+02  0.20694443965E+02  0.51100000000E-03 0. -1.
        -12    1    4    4    0    0 -0.23700163113E+02 -0.14062243398E+02  0.52777844502E+01  0.28058856528E+02  0.00000000000E+00 0.  1.
</event>
<event>
 8    1  0.3137106E-007  0.9118800E+02  0.7816164E-02  0.1184000E+00
        -11   -1    0    0    0    0  0.00000000000E+00  0.00000000000E+00  0.45593999997E+02  0.45594000000E+02  0.51100000000E-03 0.  1.
         11   -1    0    0    0    0 -0.00000000000E+00 -0.00000000000E+00 -0.45593999997E+02  0.45594000000E+02  0.51100000000E-03 0. -1.
         23    2    1    2    0    0  0.00000000000E+00 -0.17763568394E-14  0.35527136788E-14  0.91188000000E+02  0.91188000000E+02 0.  0.
    9900012    2    3    3    0    0  0.29102762249E+02 -0.13383101718E+02 -0.18157752383E+02  0.54367052786E+02  0.39999928436E+02 0.  0.
        -12    1    3    3    0    0 -0.29102762249E+02  0.13383101718E+02  0.18157752383E+02  0.36820947214E+02  0.00000000000E+00 0.  1.
         11    1    4    4    0    0  0.62122897716E+01  0.69096663704E+01 -0.11565055000E+02  0.14835313646E+02  0.51100000000E-03 0. -1.
        -11    1    4    4    0    0  0.71258276236E+01 -0.21522295086E+02 -0.78000334302E+00  0.22684686697E+02  0.51100000000E-03 0.  1.
        -12    1    4    4    0    0  0.15764644854E+02  0.12295269970E+01 -0.58126940403E+01  0.16847052443E+02  0.00000000000E+00 0.  1.
</event>
<event>
 8    1  0.3137106E-007  0.9118800E+02  0.7816164E-02  0.1184000E+00
        -11   -1    0    0    0    0  0.00000000000E+00  0.00000000000E+00  0.45593999997E+02  0.45594000000E+02  0.51100000000E-03 0.  1.
         11   -1    0    0    0    0 -0.00000000000E+00 -0.00000000000E+00 -0.45593999997E+02  0.45594000000E+02  0.51100000000E-03 0. -1.
         23    2    1    2    0    0 -0.71054273576E-14  0.71054273576E-14  0.00000000000E+00  0.91188000000E+02  0.91188000000E+02 0.  0.
    9900012    2    3    3    0    0 -0.21727540733E+02  0.29220398015E+02  0.54646125176E+01  0.54367086426E+02  0.40000005126E+02 0.  0.
        -12    1    3    3    0    0  0.21727540733E+02 -0.29220398015E+02 -0.54646125176E+01  0.36820913574E+02  0.00000000000E+00 0.  1.
         11    1    4    4    0    0 -0.11280991153E+02  0.39166299189E+01 -0.12859248703E+02  0.17548818444E+02  0.51100000000E-03 0. -1.
        -11    1    4    4    0    0 -0.12951671998E+02  0.20072057999E+02  0.19575518940E+02  0.30884207322E+02  0.51100000000E-03 0.  1.
        -12    1    4    4    0    0  0.25051224183E+01  0.52317100973E+01 -0.12516577202E+01  0.59340606604E+01  0.00000000000E+00 0.  1.
</event>
<event>
 8    1  0.3137106E-007  0.9118800E+02  0.7816164E-02  0.1184000E+00
        -11   -1    0    0    0    0  0.00000000000E+00  0.00000000000E+00  0.45593999997E+02  0.45594000000E+02  0.51100000000E-03 0. -1.
         11   -1    0    0    0    0 -0.00000000000E+00 -0.00000000000E+00 -0.45593999997E+02  0.45594000000E+02  0.51100000000E-03 0.  1.
         23    2    1    2    0    0  0.00000000000E+00  0.00000000000E+00  0.35527136788E-14  0.91188000000E+02  0.91188000000E+02 0.  0.
    9900012    2    3    3    0    0  0.16760943366E+02 -0.23386436528E+02 -0.22976624891E+02  0.54367083018E+02  0.39999997356E+02 0.  0.
         12    1    3    3    0    0 -0.16760943366E+02  0.23386436528E+02  0.22976624891E+02  0.36820916982E+02  0.00000000000E+00 0. -1.
         11    1    4    4    0    0  0.12285666655E+01  0.17657044820E+01 -0.16261038159E+02  0.16402696444E+02  0.51100000000E-03 0. -1.
        -11    1    4    4    0    0  0.80161845401E+01 -0.17521211140E+02  0.70547940813E+01  0.20518824874E+02  0.51100000000E-03 0.  1.
        -12    1    4    4    0    0  0.75161921606E+01 -0.76309298701E+01 -0.13770380813E+02  0.17445561700E+02  0.00000000000E+00 0.  1.
</event>
<event>
 8    1  0.3137106E-007  0.9118800E+02  0.7816164E-02  0.1184000E+00
        -11   -1    0    0    0    0  0.00000000000E+00  0.00000000000E+00  0.45593999997E+02  0.45594000000E+02  0.51100000000E-03 0.  1.
         11   -1    0    0    0    0 -0.00000000000E+00 -0.00000000000E+00 -0.45593999997E+02  0.45594000000E+02  0.51100000000E-03 0. -1.
         23    2    1    2    0    0  0.17763568394E-14  0.00000000000E+00  0.00000000000E+00  0.91188000000E+02  0.91188000000E+02 0.  0.
    9900012    2    3    3    0    0  0.10378322117E+02  0.89140413987E+01 -0.34184853168E+02  0.54367164999E+02  0.40000184249E+02 0.  0.
        -12    1    3    3    0    0 -0.10378322117E+02 -0.89140413987E+01  0.34184853168E+02  0.36820835001E+02  0.00000000000E+00 0.  1.
         11    1    4    4    0    0  0.42978818947E+01 -0.11510495816E+02 -0.26809133346E+02  0.29490556688E+02  0.51100000000E-03 0. -1.
        -11    1    4    4    0    0 -0.11904854731E+01  0.13985890806E+02 -0.47063929428E+01  0.14804476758E+02  0.51100000000E-03 0.  1.
        -12    1    4    4    0    0  0.72709256949E+01  0.64386464089E+01 -0.26693268788E+01  0.10072131553E+02  0.00000000000E+00 0.  1.
</event>
<event>
 8    1  0.3137106E-007  0.9118800E+02  0.7816164E-02  0.1184000E+00
        -11   -1    0    0    0    0  0.00000000000E+00  0.00000000000E+00  0.45593999997E+02  0.45594000000E+02  0.51100000000E-03 0. -1.
         11   -1    0    0    0    0 -0.00000000000E+00 -0.00000000000E+00 -0.45593999997E+02  0.45594000000E+02  0.51100000000E-03 0.  1.
         23    2    1    2    0    0 -0.35527136788E-14  0.35527136788E-14 -0.17763568394E-14  0.91188000000E+02  0.91188000000E+02 0.  0.
    9900012    2    3    3    0    0  0.16599314372E+02 -0.31805152002E+02  0.82878015717E+01  0.54366911119E+02  0.39999605476E+02 0.  0.
        -12    1    3    3    0    0 -0.16599314372E+02  0.31805152002E+02 -0.82878015717E+01  0.36821088881E+02  0.00000000000E+00 0.  1.
         11    1    4    4    0    0 -0.43988380774E+01 -0.15824050689E+02  0.76105850935E+01  0.18101695014E+02  0.51100000000E-03 0. -1.
        -11    1    4    4    0    0  0.21211457261E+02 -0.14443621022E+02 -0.84418591713E+01  0.27014979065E+02  0.51100000000E-03 0.  1.
        -12    1    4    4    0    0 -0.21330481196E+00 -0.15374802913E+01  0.91190756495E+01  0.92502370397E+01  0.00000000000E+00 0.  1.
</event>
<event>
 8    1  0.3137106E-007  0.9118800E+02  0.7816164E-02  0.1184000E+00
        -11   -1    0    0    0    0  0.00000000000E+00  0.00000000000E+00  0.45593999997E+02  0.45594000000E+02  0.51100000000E-03 0.  1.
         11   -1    0    0    0    0 -0.00000000000E+00 -0.00000000000E+00 -0.45593999997E+02  0.45594000000E+02  0.51100000000E-03 0. -1.
         23    2    1    2    0    0 -0.35527136788E-14  0.00000000000E+00 -0.35527136788E-14  0.91188000000E+02  0.91188000000E+02 0.  0.
    9900012    2    3    3    0    0  0.26087591885E+02 -0.28630500568E+01  0.25826803529E+02  0.54367037403E+02  0.39999893368E+02 0.  0.
         12    1    3    3    0    0 -0.26087591885E+02  0.28630500568E+01 -0.25826803529E+02  0.36820962597E+02  0.00000000000E+00 0. -1.
         11    1    4    4    0    0  0.23667108287E+02 -0.19512742057E+02  0.18488360715E+02  0.35814781856E+02  0.51100000000E-03 0.  1.
        -11    1    4    4    0    0 -0.38652018271E+00  0.46575477306E+01  0.13977697767E+01  0.48781050956E+01  0.51100000000E-03 0. -1.
        -12    1    4    4    0    0  0.28070037812E+01  0.11992144270E+02  0.59406730381E+01  0.13674150451E+02  0.00000000000E+00 0.  1.
</event>
<event>
 8    1  0.3137106E-007  0.9118800E+02  0.7816164E-02  0.1184000E+00
        -11   -1    0    0    0    0  0.00000000000E+00  0.00000000000E+00  0.45593999997E+02  0.45594000000E+02  0.51100000000E-03 0.  1.
         11   -1    0    0    0    0 -0.00000000000E+00 -0.00000000000E+00 -0.45593999997E+02  0.45594000000E+02  0.51100000000E-03 0. -1.
         23    2    1    2    0    0  0.00000000000E+00  0.00000000000E+00  0.35527136788E-14  0.91188000000E+02  0.91188000000E+02 0.  0.
    9900012    2    3    3    0    0  0.18813445706E+02  0.92468103647E+01  0.30270976636E+02  0.54367064816E+02  0.39999955862E+02 0.  0.
         12    1    3    3    0    0 -0.18813445706E+02 -0.92468103647E+01 -0.30270976636E+02  0.36820935184E+02  0.00000000000E+00 0. -1.
         11    1    4    4    0    0  0.49207643695E+01 -0.15421281631E+02  0.14414660753E+02  0.21675153841E+02  0.51100000000E-03 0.  1.
        -11    1    4    4    0    0  0.39175776019E+01  0.47190149106E+01  0.20798909457E+01  0.64763000703E+01  0.51100000000E-03 0. -1.
        -12    1    4    4    0    0  0.99751037350E+01  0.19949077085E+02  0.13776424938E+02  0.26215610905E+02  0.00000000000E+00 0.  1.
</event>
<event>
 8    1  0.3137106E-007  0.9118800E+02  0.7816164E-02  0.1184000E+00
        -11   -1    0    0    0    0  0.00000000000E+00  0.00000000000E+00  0.45593999997E+02  0.45594000000E+02  0.51100000000E-03 0.  1.
         11   -1    0    0    0    0 -0.00000000000E+00 -0.00000000000E+00 -0.45593999997E+02  0.45594000000E+02  0.51100000000E-03 0. -1.
         23    2    1    2    0    0 -0.88817841970E-15  0.00000000000E+00 -0.17763568394E-14  0.91188000000E+02  0.91188000000E+02 0.  0.
    9900012    2    3    3    0    0 -0.77874965533E+01  0.33787515220E+02 -0.12391200690E+02  0.54367039368E+02  0.39999897847E+02 0.  0.
        -12    1    3    3    0    0  0.77874965533E+01 -0.33787515220E+02  0.12391200690E+02  0.36820960632E+02  0.00000000000E+00 0.  1.
         11    1    4    4    0    0  0.71159245182E+00 -0.49035575362E+01  0.42117785861E+01  0.65031007564E+01  0.51100000000E-03 0.  1.
        -11    1    4    4    0    0  0.32587968511E+01  0.24095210366E+02 -0.16009472730E+02  0.29111889957E+02  0.51100000000E-03 0. -1.
        -12    1    4    4    0    0 -0.11757885856E+02  0.14595862390E+02 -0.59350654616E+00  0.18752048655E+02  0.00000000000E+00 0.  1.
</event>
<event>
 8    1  0.3137106E-007  0.9118800E+02  0.7816164E-02  0.1184000E+00
        -11   -1    0    0    0    0  0.00000000000E+00  0.00000000000E+00  0.45593999997E+02  0.45594000000E+02  0.51100000000E-03 0. -1.
         11   -1    0    0    0    0 -0.00000000000E+00 -0.00000000000E+00 -0.45593999997E+02  0.45594000000E+02  0.51100000000E-03 0.  1.
         23    2    1    2    0    0  0.17763568394E-14 -0.17763568394E-14  0.00000000000E+00  0.91188000000E+02  0.91188000000E+02 0.  0.
    9900012    2    3    3    0    0 -0.10637057227E+02 -0.78236478836E+01 -0.34371841985E+02  0.54367082384E+02  0.39999995911E+02 0.  0.
         12    1    3    3    0    0  0.10637057227E+02  0.78236478836E+01  0.34371841985E+02  0.36820917616E+02  0.00000000000E+00 0. -1.
         11    1    4    4    0    0 -0.15272537569E+02 -0.49342747570E+01  0.71710964235E+00  0.16065855647E+02  0.51100000000E-03 0. -1.
        -11    1    4    4    0    0  0.58259738592E+01  0.18507387878E+00 -0.40739560381E+01  0.71114936413E+01  0.51100000000E-03 0.  1.
        -12    1    4    4    0    0 -0.11904935172E+01 -0.30744470053E+01 -0.31014995589E+02  0.31189733096E+02  0.00000000000E+00 0.  1.
</event>
<event>
 8    1  0.3137106E-007  0.9118800E+02  0.7816164E-02  0.1184000E+00
        -11   -1    0    0    0    0  0.00000000000E+00  0.00000000000E+00  0.45593999997E+02  0.45594000000E+02  0.51100000000E-03 0.  1.
         11   -1    0    0    0    0 -0.00000000000E+00 -0.00000000000E+00 -0.45593999997E+02  0.45594000000E+02  0.51100000000E-03 0. -1.
         23    2    1    2    0    0  0.00000000000E+00  0.00000000000E+00  0.35527136788E-14  0.91188000000E+02  0.91188000000E+02 0.  0.
    9900012    2    3    3    0    0  0.85879235650E+01 -0.23960762694E+02  0.26606564508E+02  0.54367084002E+02  0.39999999599E+02 0.  0.
         12    1    3    3    0    0 -0.85879235650E+01  0.23960762694E+02 -0.26606564508E+02  0.36820915998E+02  0.00000000000E+00 0. -1.
         11    1    4    4    0    0 -0.18746129963E+01 -0.84209903887E+01  0.12404437782E+02  0.15109511241E+02  0.51100000000E-03 0. -1.
        -11    1    4    4    0    0  0.83685790729E+00 -0.22427376107E+02  0.15610256600E+02  0.27338025562E+02  0.51100000000E-03 0.  1.
         12    1    4    4    0    0  0.96256786540E+01  0.68876038020E+01 -0.14081298739E+01  0.11919547199E+02  0.00000000000E+00 0. -1.
</event>
<event>
 8    1  0.3137106E-007  0.9118800E+02  0.7816164E-02  0.1184000E+00
        -11   -1    0    0    0    0  0.00000000000E+00  0.00000000000E+00  0.45593999997E+02  0.45594000000E+02  0.51100000000E-03 0.  1.
         11   -1    0    0    0    0 -0.00000000000E+00 -0.00000000000E+00 -0.45593999997E+02  0.45594000000E+02  0.51100000000E-03 0. -1.
         23    2    1    2    0    0  0.00000000000E+00  0.00000000000E+00  0.00000000000E+00  0.91188000000E+02  0.91188000000E+02 0.  0.
    9900012    2    3    3    0    0  0.14040027882E+02  0.98517614740E+01 -0.32582217656E+02  0.54367075318E+02  0.39999979803E+02 0.  0.
        -12    1    3    3    0    0 -0.14040027882E+02 -0.98517614740E+01  0.32582217656E+02  0.36820924682E+02  0.00000000000E+00 0.  1.
         11    1    4    4    0    0 -0.76380875622E+01  0.31869632313E+01 -0.65366147961E+01  0.10546300275E+02  0.51100000000E-03 0. -1.
        -11    1    4    4    0    0  0.49745234872E+01  0.14785421182E+02 -0.66241534631E+01  0.16947978429E+02  0.51100000000E-03 0.  1.
        -12    1    4    4    0    0  0.16703591957E+02 -0.81206229395E+01 -0.19421449397E+02  0.26872796614E+02  0.00000000000E+00 0.  1.
</event>
<event>
 8    1  0.3137106E-007  0.9118800E+02  0.7816164E-02  0.1184000E+00
        -11   -1    0    0    0    0  0.00000000000E+00  0.00000000000E+00  0.45593999997E+02  0.45594000000E+02  0.51100000000E-03 0. -1.
         11   -1    0    0    0    0 -0.00000000000E+00 -0.00000000000E+00 -0.45593999997E+02  0.45594000000E+02  0.51100000000E-03 0.  1.
         23    2    1    2    0    0 -0.35527136788E-14  0.00000000000E+00 -0.35527136788E-14  0.91188000000E+02  0.91188000000E+02 0.  0.
    9900012    2    3    3    0    0  0.17960818156E+02 -0.23592882801E+02  0.21830377704E+02  0.54367075264E+02  0.39999979680E+02 0.  0.
         12    1    3    3    0    0 -0.17960818156E+02  0.23592882801E+02 -0.21830377704E+02  0.36820924736E+02  0.00000000000E+00 0. -1.
         11    1    4    4    0    0  0.14288071312E+02  0.33129043655E+01  0.17596682239E+02  0.22907805290E+02  0.51100000000E-03 0. -1.
        -11    1    4    4    0    0 -0.18059274739E+01 -0.11480013713E+02 -0.50153793769E+01  0.12657255605E+02  0.51100000000E-03 0.  1.
        -12    1    4    4    0    0  0.54786743187E+01 -0.15425773453E+02  0.92490748418E+01  0.18802014369E+02  0.00000000000E+00 0.  1.
</event>
<event>
 8    1  0.3137106E-007  0.9118800E+02  0.7816164E-02  0.1184000E+00
        -11   -1    0    0    0    0  0.00000000000E+00  0.00000000000E+00  0.45593999997E+02  0.45594000000E+02  0.51100000000E-03 0. -1.
         11   -1    0    0    0    0 -0.00000000000E+00 -0.00000000000E+00 -0.45593999997E+02  0.45594000000E+02  0.51100000000E-03 0.  1.
         23    2    1    2    0    0  0.17763568394E-14  0.17763568394E-14  0.71054273576E-14  0.91188000000E+02  0.91188000000E+02 0.  0.
    9900012    2    3    3    0    0 -0.32613734231E+01 -0.13028155846E+02 -0.34284264539E+02  0.54367079366E+02  0.39999989030E+02 0.  0.
         12    1    3    3    0    0  0.32613734231E+01  0.13028155846E+02  0.34284264539E+02  0.36820920634E+02  0.00000000000E+00 0. -1.
         11    1    4    4    0    0  0.23360850951E+00  0.12330651727E+02 -0.83713331566E+01  0.14905662146E+02  0.51100000000E-03 0. -1.
        -11    1    4    4    0    0 -0.88180654535E+01 -0.18416695625E+02 -0.21544536976E+02  0.29683329157E+02  0.51100000000E-03 0.  1.
        -12    1    4    4    0    0  0.53230835210E+01 -0.69421119475E+01 -0.43683944065E+01  0.97780880623E+01  0.00000000000E+00 0.  1.
</event>
<event>
 8    1  0.3137106E-007  0.9118800E+02  0.7816164E-02  0.1184000E+00
        -11   -1    0    0    0    0  0.00000000000E+00  0.00000000000E+00  0.45593999997E+02  0.45594000000E+02  0.51100000000E-03 0. -1.
         11   -1    0    0    0    0 -0.00000000000E+00 -0.00000000000E+00 -0.45593999997E+02  0.45594000000E+02  0.51100000000E-03 0.  1.
         23    2    1    2    0    0 -0.35527136788E-14  0.00000000000E+00 -0.35527136788E-14  0.91188000000E+02  0.91188000000E+02 0.  0.
    9900012    2    3    3    0    0 -0.29589478781E+02 -0.12865311482E+02  0.17740547780E+02  0.54367074840E+02  0.39999978714E+02 0.  0.
        -12    1    3    3    0    0  0.29589478781E+02  0.12865311482E+02 -0.17740547780E+02  0.36820925160E+02  0.00000000000E+00 0.  1.
         11    1    4    4    0    0 -0.69829037208E+01  0.42723462961E+01  0.75993910798E+01  0.11169808964E+02  0.51100000000E-03 0. -1.
        -11    1    4    4    0    0 -0.15575220807E+02 -0.10137157991E+02 -0.97373429690E+01  0.20980117342E+02  0.51100000000E-03 0.  1.
         12    1    4    4    0    0 -0.70313542539E+01 -0.70004997870E+01  0.19878499669E+02  0.22217148535E+02  0.00000000000E+00 0. -1.
</event>
<event>
 8    1  0.3137106E-007  0.9118800E+02  0.7816164E-02  0.1184000E+00
        -11   -1    0    0    0    0  0.00000000000E+00  0.00000000000E+00  0.45593999997E+02  0.45594000000E+02  0.51100000000E-03 0.  1.
         11   -1    0    0    0    0 -0.00000000000E+00 -0.00000000000E+00 -0.45593999997E+02  0.45594000000E+02  0.51100000000E-03 0. -1.
         23    2    1    2    0    0 -0.35527136788E-14  0.35527136788E-14  0.00000000000E+00  0.91188000000E+02  0.91188000000E+02 0.  0.
    9900012    2    3    3    0    0 -0.31358947056E+02 -0.11283766315E+02  0.15654822974E+02  0.54367076260E+02  0.39999981950E+02 0.  0.
         12    1    3    3    0    0  0.31358947056E+02  0.11283766315E+02 -0.15654822974E+02  0.36820923740E+02  0.00000000000E+00 0. -1.
         11    1    4    4    0    0 -0.89993821712E+00  0.46202253034E+01  0.74567190951E+00  0.47657525646E+01  0.51100000000E-03 0. -1.
        -11    1    4    4    0    0 -0.45039222789E+01 -0.19663913937E+02  0.17219003647E+01  0.20246475455E+02  0.51100000000E-03 0.  1.
        -12    1    4    4    0    0 -0.25955086560E+02  0.37599223189E+01  0.13187250700E+02  0.29354848240E+02  0.00000000000E+00 0.  1.
</event>
<event>
 8    1  0.3137106E-007  0.9118800E+02  0.7816164E-02  0.1184000E+00
        -11   -1    0    0    0    0  0.00000000000E+00  0.00000000000E+00  0.45593999997E+02  0.45594000000E+02  0.51100000000E-03 0.  1.
         11   -1    0    0    0    0 -0.00000000000E+00 -0.00000000000E+00 -0.45593999997E+02  0.45594000000E+02  0.51100000000E-03 0. -1.
         23    2    1    2    0    0 -0.15543122345E-14 -0.88817841970E-15  0.00000000000E+00  0.91188000000E+02  0.91188000000E+02 0.  0.
    9900012    2    3    3    0    0 -0.16318784230E+01 -0.48921980868E+01  0.36457995152E+02  0.54367054333E+02  0.39999931962E+02 0.  0.
         12    1    3    3    0    0  0.16318784230E+01  0.48921980868E+01 -0.36457995152E+02  0.36820945667E+02  0.00000000000E+00 0. -1.
         11    1    4    4    0    0 -0.13261055313E+02 -0.29736099788E+01 -0.67192796927E+00  0.13606962621E+02  0.51100000000E-03 0. -1.
        -11    1    4    4    0    0  0.18488144590E+01  0.42058386637E+01  0.16437443986E+02  0.17067418048E+02  0.51100000000E-03 0.  1.
        -12    1    4    4    0    0  0.97803624308E+01 -0.61244267717E+01  0.20692479136E+02  0.23692673664E+02  0.00000000000E+00 0.  1.
</event>
<event>
 8    1  0.3137106E-007  0.9118800E+02  0.7816164E-02  0.1184000E+00
        -11   -1    0    0    0    0  0.00000000000E+00  0.00000000000E+00  0.45593999997E+02  0.45594000000E+02  0.51100000000E-03 0.  1.
         11   -1    0    0    0    0 -0.00000000000E+00 -0.00000000000E+00 -0.45593999997E+02  0.45594000000E+02  0.51100000000E-03 0. -1.
         23    2    1    2    0    0  0.00000000000E+00 -0.17763568394E-14  0.00000000000E+00  0.91188000000E+02  0.91188000000E+02 0.  0.
    9900012    2    3    3    0    0  0.18471957806E+02 -0.14858115107E+02 -0.28174508431E+02  0.54367085629E+02  0.40000003309E+02 0.  0.
        -12    1    3    3    0    0 -0.18471957806E+02  0.14858115107E+02  0.28174508431E+02  0.36820914371E+02  0.00000000000E+00 0.  1.
         11    1    4    4    0    0 -0.36451890493E+01 -0.35048995411E+01 -0.56146452887E+01  0.75561872646E+01  0.51100000000E-03 0. -1.
        -11    1    4    4    0    0  0.28032326132E+01  0.31644895103E+01  0.72781810635E+01  0.84168893778E+01  0.51100000000E-03 0.  1.
         12    1    4    4    0    0  0.19313914242E+02 -0.14517705077E+02 -0.29838044206E+02  0.38394008987E+02  0.00000000000E+00 0. -1.
</event>
<event>
 8    1  0.3137106E-007  0.9118800E+02  0.7816164E-02  0.1184000E+00
        -11   -1    0    0    0    0  0.00000000000E+00  0.00000000000E+00  0.45593999997E+02  0.45594000000E+02  0.51100000000E-03 0. -1.
         11   -1    0    0    0    0 -0.00000000000E+00 -0.00000000000E+00 -0.45593999997E+02  0.45594000000E+02  0.51100000000E-03 0.  1.
         23    2    1    2    0    0  0.00000000000E+00  0.17763568394E-14  0.35527136788E-14  0.91188000000E+02  0.91188000000E+02 0.  0.
    9900012    2    3    3    0    0 -0.30731326313E+02 -0.98459793324E+01  0.17731957776E+02  0.54367081318E+02  0.39999993482E+02 0.  0.
        -12    1    3    3    0    0  0.30731326313E+02  0.98459793324E+01 -0.17731957776E+02  0.36820918682E+02  0.00000000000E+00 0.  1.
         11    1    4    4    0    0 -0.70662683930E+01 -0.63496798247E+01 -0.34277794934E+01  0.10099517582E+02  0.51100000000E-03 0.  1.
        -11    1    4    4    0    0 -0.43126080907E+01 -0.11767894441E+01  0.24139696665E+02  0.24550119700E+02  0.51100000000E-03 0. -1.
         12    1    4    4    0    0 -0.19352449829E+02 -0.23195100637E+01 -0.29799593952E+01  0.19717444036E+02  0.00000000000E+00 0. -1.
</event>
<event>
 8    1  0.3137106E-007  0.9118800E+02  0.7816164E-02  0.1184000E+00
        -11   -1    0    0    0    0  0.00000000000E+00  0.00000000000E+00  0.45593999997E+02  0.45594000000E+02  0.51100000000E-03 0.  1.
         11   -1    0    0    0    0 -0.00000000000E+00 -0.00000000000E+00 -0.45593999997E+02  0.45594000000E+02  0.51100000000E-03 0. -1.
         23    2    1    2    0    0 -0.88817841970E-15  0.00000000000E+00 -0.88817841970E-15  0.91188000000E+02  0.91188000000E+02 0.  0.
    9900012    2    3    3    0    0  0.65642298446E+01  0.35874506994E+02  0.50706053852E+01  0.54367076539E+02  0.39999982587E+02 0.  0.
        -12    1    3    3    0    0 -0.65642298446E+01 -0.35874506994E+02 -0.50706053852E+01  0.36820923461E+02  0.00000000000E+00 0.  1.
         11    1    4    4    0    0 -0.10619723689E+01 -0.21068060673E+01  0.19894193197E+01  0.30861313336E+01  0.51100000000E-03 0. -1.
        -11    1    4    4    0    0 -0.92819595788E+01 -0.24665289259E+00 -0.69034185402E+00  0.93108637305E+01  0.51100000000E-03 0.  1.
         12    1    4    4    0    0  0.16908161792E+02  0.38227965954E+02  0.37715279195E+01  0.41970081475E+02  0.00000000000E+00 0. -1.
</event>
<event>
 8    1  0.3137106E-007  0.9118800E+02  0.7816164E-02  0.1184000E+00
        -11   -1    0    0    0    0  0.00000000000E+00  0.00000000000E+00  0.45593999997E+02  0.45594000000E+02  0.51100000000E-03 0.  1.
         11   -1    0    0    0    0 -0.00000000000E+00 -0.00000000000E+00 -0.45593999997E+02  0.45594000000E+02  0.51100000000E-03 0. -1.
         23    2    1    2    0    0  0.00000000000E+00  0.00000000000E+00 -0.35527136788E-14  0.91188000000E+02  0.91188000000E+02 0.  0.
    9900012    2    3    3    0    0  0.18638022053E+02  0.17066456199E+02  0.26779495230E+02  0.54367066307E+02  0.39999959260E+02 0.  0.
         12    1    3    3    0    0 -0.18638022053E+02 -0.17066456199E+02 -0.26779495230E+02  0.36820933693E+02  0.00000000000E+00 0. -1.
         11    1    4    4    0    0 -0.27736980863E+01 -0.43587488400E+01  0.99703827606E+01  0.11229453467E+02  0.51100000000E-03 0. -1.
        -11    1    4    4    0    0  0.76346735582E+01  0.31925189733E+01 -0.64789313465E+01  0.10509851064E+02  0.51100000000E-03 0.  1.
        -12    1    4    4    0    0  0.13777046581E+02  0.18232686066E+02  0.23288043816E+02  0.32627761775E+02  0.00000000000E+00 0.  1.
</event>
<event>
 8    1  0.3137106E-007  0.9118800E+02  0.7816164E-02  0.1184000E+00
        -11   -1    0    0    0    0  0.00000000000E+00  0.00000000000E+00  0.45593999997E+02  0.45594000000E+02  0.51100000000E-03 0.  1.
         11   -1    0    0    0    0 -0.00000000000E+00 -0.00000000000E+00 -0.45593999997E+02  0.45594000000E+02  0.51100000000E-03 0. -1.
         23    2    1    2    0    0  0.00000000000E+00  0.00000000000E+00  0.00000000000E+00  0.91188000000E+02  0.91188000000E+02 0.  0.
    9900012    2    3    3    0    0  0.44252622097E+01 -0.10843549625E+02  0.34908650905E+02  0.54367089880E+02  0.40000012999E+02 0.  0.
         12    1    3    3    0    0 -0.44252622097E+01  0.10843549625E+02 -0.34908650905E+02  0.36820910120E+02  0.00000000000E+00 0. -1.
         11    1    4    4    0    0  0.18591405795E+00 -0.11200601815E+02  0.61748169318E+01  0.12791263012E+02  0.51100000000E-03 0. -1.
        -11    1    4    4    0    0  0.79544056665E+01 -0.13294334142E+02  0.18413182209E+02  0.24063606736E+02  0.51100000000E-03 0.  1.
        -12    1    4    4    0    0 -0.37150575147E+01  0.13651386332E+02  0.10320651764E+02  0.17512220132E+02  0.00000000000E+00 0.  1.
</event>
<event>
 8    1  0.3137106E-007  0.9118800E+02  0.7816164E-02  0.1184000E+00
        -11   -1    0    0    0    0  0.00000000000E+00  0.00000000000E+00  0.45593999997E+02  0.45594000000E+02  0.51100000000E-03 0.  1.
         11   -1    0    0    0    0 -0.00000000000E+00 -0.00000000000E+00 -0.45593999997E+02  0.45594000000E+02  0.51100000000E-03 0. -1.
         23    2    1    2    0    0  0.22204460493E-15  0.00000000000E+00 -0.71054273576E-14  0.91188000000E+02  0.91188000000E+02 0.  0.
    9900012    2    3    3    0    0 -0.29691613316E+00 -0.24556323294E+02  0.27434993604E+02  0.54367081394E+02  0.39999993654E+02 0.  0.
         12    1    3    3    0    0  0.29691613316E+00  0.24556323294E+02 -0.27434993604E+02  0.36820918606E+02  0.00000000000E+00 0. -1.
         11    1    4    4    0    0  0.67517246751E+01  0.59499970651E+01  0.75253638497E+01  0.11731127503E+02  0.51100000000E-03 0. -1.
        -11    1    4    4    0    0 -0.80979427973E+00 -0.15842692276E+02  0.21391420386E+02  0.26631551433E+02  0.51100000000E-03 0.  1.
         12    1    4    4    0    0 -0.62388465285E+01 -0.14663628083E+02 -0.14817906312E+01  0.16004402458E+02  0.00000000000E+00 0. -1.
</event>
<event>
 8    1  0.3137106E-007  0.9118800E+02  0.7816164E-02  0.1184000E+00
        -11   -1    0    0    0    0  0.00000000000E+00  0.00000000000E+00  0.45593999997E+02  0.45594000000E+02  0.51100000000E-03 0. -1.
         11   -1    0    0    0    0 -0.00000000000E+00 -0.00000000000E+00 -0.45593999997E+02  0.45594000000E+02  0.51100000000E-03 0.  1.
         23    2    1    2    0    0 -0.35527136788E-14  0.00000000000E+00  0.00000000000E+00  0.91188000000E+02  0.91188000000E+02 0.  0.
    9900012    2    3    3    0    0 -0.18075437443E+02  0.10295651218E+02 -0.30381806006E+02  0.54367136228E+02  0.40000118658E+02 0.  0.
         12    1    3    3    0    0  0.18075437443E+02 -0.10295651218E+02  0.30381806006E+02  0.36820863772E+02  0.00000000000E+00 0. -1.
         11    1    4    4    0    0  0.21675010704E+01  0.19170178961E+02 -0.20364415126E+02  0.28051795414E+02  0.51100000000E-03 0. -1.
        -11    1    4    4    0    0 -0.20403048339E+02 -0.68087759704E+01 -0.69315870306E+01  0.22598467001E+02  0.51100000000E-03 0.  1.
         12    1    4    4    0    0  0.16010982573E+00 -0.20657517729E+01 -0.30858038493E+01  0.37168738128E+01  0.00000000000E+00 0. -1.
</event>
<event>
 8    1  0.3137106E-007  0.9118800E+02  0.7816164E-02  0.1184000E+00
        -11   -1    0    0    0    0  0.00000000000E+00  0.00000000000E+00  0.45593999997E+02  0.45594000000E+02  0.51100000000E-03 0. -1.
         11   -1    0    0    0    0 -0.00000000000E+00 -0.00000000000E+00 -0.45593999997E+02  0.45594000000E+02  0.51100000000E-03 0.  1.
         23    2    1    2    0    0 -0.35527136788E-14  0.10658141036E-13 -0.88817841970E-15  0.91188000000E+02  0.91188000000E+02 0.  0.
    9900012    2    3    3    0    0  0.17154154930E+02 -0.31874817061E+02  0.67462512140E+01  0.54367069818E+02  0.39999967265E+02 0.  0.
        -12    1    3    3    0    0 -0.17154154930E+02  0.31874817061E+02 -0.67462512140E+01  0.36820930182E+02  0.00000000000E+00 0.  1.
         11    1    4    4    0    0  0.22722713608E+02 -0.26845080227E+02 -0.11772606618E+01  0.35190424678E+02  0.51100000000E-03 0. -1.
        -11    1    4    4    0    0  0.16894184493E+01  0.16950374753E+01 -0.33881975013E+01  0.41481525175E+01  0.51100000000E-03 0.  1.
         12    1    4    4    0    0 -0.72579771271E+01 -0.67247743086E+01  0.11311709377E+02  0.15028492623E+02  0.00000000000E+00 0. -1.
</event>
<event>
 8    1  0.3137106E-007  0.9118800E+02  0.7816164E-02  0.1184000E+00
        -11   -1    0    0    0    0  0.00000000000E+00  0.00000000000E+00  0.45593999997E+02  0.45594000000E+02  0.51100000000E-03 0.  1.
         11   -1    0    0    0    0 -0.00000000000E+00 -0.00000000000E+00 -0.45593999997E+02  0.45594000000E+02  0.51100000000E-03 0. -1.
         23    2    1    2    0    0 -0.35527136788E-14  0.88817841970E-15 -0.35527136788E-14  0.91188000000E+02  0.91188000000E+02 0.  0.
    9900012    2    3    3    0    0  0.20287157887E+02 -0.45364031668E+01 -0.30391308868E+02  0.54367090403E+02  0.40000014192E+02 0.  0.
        -12    1    3    3    0    0 -0.20287157887E+02  0.45364031668E+01  0.30391308868E+02  0.36820909597E+02  0.00000000000E+00 0.  1.
         11    1    4    4    0    0 -0.40767487617E+01  0.15454347638E+01 -0.11428679707E+02  0.12232046811E+02  0.51100000000E-03 0. -1.
        -11    1    4    4    0    0  0.17192920933E+02 -0.16958295889E+02 -0.15353760069E+02  0.28616748212E+02  0.51100000000E-03 0.  1.
         12    1    4    4    0    0  0.71709857155E+01  0.10876457959E+02 -0.36088690915E+01  0.13518295380E+02  0.00000000000E+00 0. -1.
</event>
<event>
 8    1  0.3137106E-007  0.9118800E+02  0.7816164E-02  0.1184000E+00
        -11   -1    0    0    0    0  0.00000000000E+00  0.00000000000E+00  0.45593999997E+02  0.45594000000E+02  0.51100000000E-03 0.  1.
         11   -1    0    0    0    0 -0.00000000000E+00 -0.00000000000E+00 -0.45593999997E+02  0.45594000000E+02  0.51100000000E-03 0. -1.
         23    2    1    2    0    0  0.35527136788E-14  0.00000000000E+00  0.00000000000E+00  0.91188000000E+02  0.91188000000E+02 0.  0.
    9900012    2    3    3    0    0  0.31461803714E+02 -0.16036096407E+02 -0.10429656046E+02  0.54367092812E+02  0.40000019683E+02 0.  0.
         12    1    3    3    0    0 -0.31461803714E+02  0.16036096407E+02  0.10429656046E+02  0.36820907188E+02  0.00000000000E+00 0. -1.
         11    1    4    4    0    0  0.21246847522E+02 -0.64136626579E+01  0.22638781824E+01  0.22308938634E+02  0.51100000000E-03 0.  1.
        -11    1    4    4    0    0  0.20258561048E+01 -0.54691447820E+01  0.77195111245E+01  0.96750446958E+01  0.51100000000E-03 0. -1.
         12    1    4    4    0    0  0.81891000877E+01 -0.41532889668E+01 -0.20413045353E+02  0.22383109481E+02  0.00000000000E+00 0. -1.
</event>
<event>
 8    1  0.3137106E-007  0.9118800E+02  0.7816164E-02  0.1184000E+00
        -11   -1    0    0    0    0  0.00000000000E+00  0.00000000000E+00  0.45593999997E+02  0.45594000000E+02  0.51100000000E-03 0. -1.
         11   -1    0    0    0    0 -0.00000000000E+00 -0.00000000000E+00 -0.45593999997E+02  0.45594000000E+02  0.51100000000E-03 0.  1.
         23    2    1    2    0    0  0.88817841970E-15  0.00000000000E+00  0.00000000000E+00  0.91188000000E+02  0.91188000000E+02 0.  0.
    9900012    2    3    3    0    0 -0.72025821441E+01 -0.27362659750E+02  0.23562377731E+02  0.54367109428E+02  0.40000057564E+02 0.  0.
        -12    1    3    3    0    0  0.72025821441E+01  0.27362659750E+02 -0.23562377731E+02  0.36820890572E+02  0.00000000000E+00 0.  1.
         11    1    4    4    0    0 -0.12878355327E+02 -0.69992086670E+01  0.65347285239E+01  0.16048166096E+02  0.51100000000E-03 0. -1.
        -11    1    4    4    0    0 -0.59452133451E+01  0.80598633320E+00  0.12336658841E+02  0.13718175072E+02  0.51100000000E-03 0.  1.
        -12    1    4    4    0    0  0.11620986528E+02 -0.21169437416E+02  0.46909903666E+01  0.24600768261E+02  0.00000000000E+00 0.  1.
</event>
<event>
 8    1  0.3137106E-007  0.9118800E+02  0.7816164E-02  0.1184000E+00
        -11   -1    0    0    0    0  0.00000000000E+00  0.00000000000E+00  0.45593999997E+02  0.45594000000E+02  0.51100000000E-03 0.  1.
         11   -1    0    0    0    0 -0.00000000000E+00 -0.00000000000E+00 -0.45593999997E+02  0.45594000000E+02  0.51100000000E-03 0. -1.
         23    2    1    2    0    0  0.00000000000E+00 -0.44408920985E-15  0.71054273576E-14  0.91188000000E+02  0.91188000000E+02 0.  0.
    9900012    2    3    3    0    0 -0.13900527624E+02  0.29781201225E+01 -0.33965965900E+02  0.54367072429E+02  0.39999973215E+02 0.  0.
        -12    1    3    3    0    0  0.13900527624E+02 -0.29781201225E+01  0.33965965900E+02  0.36820927571E+02  0.00000000000E+00 0.  1.
         11    1    4    4    0    0  0.93915729191E+01  0.89591180733E+01 -0.25011870314E+02  0.28179089684E+02  0.51100000000E-03 0. -1.
        -11    1    4    4    0    0 -0.41477968539E+01 -0.18725760649E+01  0.23876598934E+00  0.45571668083E+01  0.51100000000E-03 0.  1.
        -12    1    4    4    0    0 -0.19144303689E+02 -0.41084218859E+01 -0.91928615760E+01  0.21630815937E+02  0.00000000000E+00 0.  1.
</event>
<event>
 8    1  0.3137106E-007  0.9118800E+02  0.7816164E-02  0.1184000E+00
        -11   -1    0    0    0    0  0.00000000000E+00  0.00000000000E+00  0.45593999997E+02  0.45594000000E+02  0.51100000000E-03 0.  1.
         11   -1    0    0    0    0 -0.00000000000E+00 -0.00000000000E+00 -0.45593999997E+02  0.45594000000E+02  0.51100000000E-03 0. -1.
         23    2    1    2    0    0  0.00000000000E+00  0.00000000000E+00  0.88817841970E-15  0.91188000000E+02  0.91188000000E+02 0.  0.
    9900012    2    3    3    0    0  0.11390391601E+02 -0.34616029940E+02 -0.52696384641E+01  0.54367086932E+02  0.40000006279E+02 0.  0.
         12    1    3    3    0    0 -0.11390391601E+02  0.34616029940E+02  0.52696384641E+01  0.36820913068E+02  0.00000000000E+00 0. -1.
         11    1    4    4    0    0  0.49391779522E+01 -0.66075969955E+01 -0.13912509784E+02  0.16174478219E+02  0.51100000000E-03 0. -1.
        -11    1    4    4    0    0 -0.75681185826E+01 -0.25578388728E+01  0.33277918605E+01  0.86540832852E+01  0.51100000000E-03 0.  1.
         12    1    4    4    0    0  0.14019332232E+02 -0.25450594071E+02  0.53150794595E+01  0.29538525428E+02  0.00000000000E+00 0. -1.
</event>
<event>
 8    1  0.3137106E-007  0.9118800E+02  0.7816164E-02  0.1184000E+00
        -11   -1    0    0    0    0  0.00000000000E+00  0.00000000000E+00  0.45593999997E+02  0.45594000000E+02  0.51100000000E-03 0.  1.
         11   -1    0    0    0    0 -0.00000000000E+00 -0.00000000000E+00 -0.45593999997E+02  0.45594000000E+02  0.51100000000E-03 0. -1.
         23    2    1    2    0    0  0.35527136788E-14  0.88817841970E-15  0.71054273576E-14  0.91188000000E+02  0.91188000000E+02 0.  0.
    9900012    2    3    3    0    0  0.12839893998E+02  0.67043277440E+01  0.33852194883E+02  0.54367055054E+02  0.39999933606E+02 0.  0.
         12    1    3    3    0    0 -0.12839893998E+02 -0.67043277440E+01 -0.33852194883E+02  0.36820944946E+02  0.00000000000E+00 0. -1.
         11    1    4    4    0    0 -0.58417148962E+01 -0.50791063767E+01 -0.13824772583E+01  0.78634723975E+01  0.51100000000E-03 0. -1.
        -11    1    4    4    0    0  0.16053610433E+02  0.85128923985E+01  0.37547081836E+02  0.41712960810E+02  0.51100000000E-03 0.  1.
        -12    1    4    4    0    0  0.26279984615E+01  0.32705417222E+01 -0.23124096951E+01  0.47906218457E+01  0.00000000000E+00 0.  1.
</event>
<event>
 8    1  0.3137106E-007  0.9118800E+02  0.7816164E-02  0.1184000E+00
        -11   -1    0    0    0    0  0.00000000000E+00  0.00000000000E+00  0.45593999997E+02  0.45594000000E+02  0.51100000000E-03 0. -1.
         11   -1    0    0    0    0 -0.00000000000E+00 -0.00000000000E+00 -0.45593999997E+02  0.45594000000E+02  0.51100000000E-03 0.  1.
         23    2    1    2    0    0  0.00000000000E+00  0.17763568394E-14 -0.44408920985E-15  0.91188000000E+02  0.91188000000E+02 0.  0.
    9900012    2    3    3    0    0  0.35466495445E+02 -0.98394754142E+01  0.10452341027E+01  0.54367080812E+02  0.39999992326E+02 0.  0.
         12    1    3    3    0    0 -0.35466495445E+02  0.98394754142E+01 -0.10452341027E+01  0.36820919188E+02  0.00000000000E+00 0. -1.
         11    1    4    4    0    0  0.18702708527E+02 -0.21239159814E+02 -0.21628960545E+01  0.28382588596E+02  0.51100000000E-03 0. -1.
        -11    1    4    4    0    0 -0.26998506568E+01 -0.19981483576E+00 -0.10972577562E+01  0.29211460734E+01  0.51100000000E-03 0.  1.
         12    1    4    4    0    0  0.19463637575E+02  0.11599499236E+02  0.43053879134E+01  0.23063346142E+02  0.00000000000E+00 0. -1.
</event>
<event>
 8    1  0.3137106E-007  0.9118800E+02  0.7816164E-02  0.1184000E+00
        -11   -1    0    0    0    0  0.00000000000E+00  0.00000000000E+00  0.45593999997E+02  0.45594000000E+02  0.51100000000E-03 0.  1.
         11   -1    0    0    0    0 -0.00000000000E+00 -0.00000000000E+00 -0.45593999997E+02  0.45594000000E+02  0.51100000000E-03 0. -1.
         23    2    1    2    0    0  0.00000000000E+00 -0.17763568394E-14  0.00000000000E+00  0.91188000000E+02  0.91188000000E+02 0.  0.
    9900012    2    3    3    0    0  0.31697999446E+02  0.98912305184E+01 -0.15911638044E+02  0.54367084269E+02  0.40000000207E+02 0.  0.
        -12    1    3    3    0    0 -0.31697999446E+02 -0.98912305184E+01  0.15911638044E+02  0.36820915731E+02  0.00000000000E+00 0.  1.
         11    1    4    4    0    0 -0.27761640803E+01 -0.66116278635E+00 -0.10634868923E+01  0.30455258761E+01  0.51100000000E-03 0. -1.
        -11    1    4    4    0    0  0.51490934133E+01  0.18022142723E+02 -0.74444131715E+01  0.20167550150E+02  0.51100000000E-03 0.  1.
         12    1    4    4    0    0  0.29325070113E+02 -0.74697494186E+01 -0.74037379807E+01  0.31154008243E+02  0.00000000000E+00 0. -1.
</event>
<event>
 8    1  0.3137106E-007  0.9118800E+02  0.7816164E-02  0.1184000E+00
        -11   -1    0    0    0    0  0.00000000000E+00  0.00000000000E+00  0.45593999997E+02  0.45594000000E+02  0.51100000000E-03 0. -1.
         11   -1    0    0    0    0 -0.00000000000E+00 -0.00000000000E+00 -0.45593999997E+02  0.45594000000E+02  0.51100000000E-03 0.  1.
         23    2    1    2    0    0  0.00000000000E+00 -0.71054273576E-14  0.11102230246E-14  0.91188000000E+02  0.91188000000E+02 0.  0.
    9900012    2    3    3    0    0 -0.22213180654E+02 -0.29360486154E+02 -0.56170904316E+00  0.54367094810E+02  0.40000024238E+02 0.  0.
        -12    1    3    3    0    0  0.22213180654E+02  0.29360486154E+02  0.56170904316E+00  0.36820905190E+02  0.00000000000E+00 0.  1.
         11    1    4    4    0    0 -0.31891280407E+01 -0.50840699270E+01  0.10597311309E+02  0.12178723739E+02  0.51100000000E-03 0. -1.
        -11    1    4    4    0    0 -0.61065435821E+01 -0.24641001304E+02 -0.13951491468E+02  0.28967446111E+02  0.51100000000E-03 0.  1.
        -12    1    4    4    0    0 -0.12917509031E+02  0.36458507697E+00  0.27924711161E+01  0.13220924960E+02  0.00000000000E+00 0.  1.
</event>
<event>
 8    1  0.3137106E-007  0.9118800E+02  0.7816164E-02  0.1184000E+00
        -11   -1    0    0    0    0  0.00000000000E+00  0.00000000000E+00  0.45593999997E+02  0.45594000000E+02  0.51100000000E-03 0.  1.
         11   -1    0    0    0    0 -0.00000000000E+00 -0.00000000000E+00 -0.45593999997E+02  0.45594000000E+02  0.51100000000E-03 0. -1.
         23    2    1    2    0    0  0.00000000000E+00 -0.88817841970E-15  0.35527136788E-14  0.91188000000E+02  0.91188000000E+02 0.  0.
    9900012    2    3    3    0    0 -0.28740772479E+02  0.64300025952E+01 -0.22099836929E+02  0.54367085721E+02  0.40000003518E+02 0.  0.
        -12    1    3    3    0    0  0.28740772479E+02 -0.64300025952E+01  0.22099836929E+02  0.36820914279E+02  0.00000000000E+00 0.  1.
         11    1    4    4    0    0  0.42097876626E+01  0.76172010544E+01  0.31710476392E+01  0.92628077524E+01  0.51100000000E-03 0. -1.
        -11    1    4    4    0    0 -0.12584719349E+02 -0.30368911862E+01 -0.20270987976E+02  0.24052251931E+02  0.51100000000E-03 0.  1.
        -12    1    4    4    0    0 -0.20365840792E+02  0.18496927271E+01 -0.49998965927E+01  0.21052026038E+02  0.00000000000E+00 0.  1.
</event>
<event>
 8    1  0.3137106E-007  0.9118800E+02  0.7816164E-02  0.1184000E+00
        -11   -1    0    0    0    0  0.00000000000E+00  0.00000000000E+00  0.45593999997E+02  0.45594000000E+02  0.51100000000E-03 0. -1.
         11   -1    0    0    0    0 -0.00000000000E+00 -0.00000000000E+00 -0.45593999997E+02  0.45594000000E+02  0.51100000000E-03 0.  1.
         23    2    1    2    0    0  0.00000000000E+00  0.00000000000E+00  0.00000000000E+00  0.91188000000E+02  0.91188000000E+02 0.  0.
    9900012    2    3    3    0    0  0.26637583423E+02  0.16378214474E+02  0.19441532856E+02  0.54367082578E+02  0.39999996353E+02 0.  0.
        -12    1    3    3    0    0 -0.26637583423E+02 -0.16378214474E+02 -0.19441532856E+02  0.36820917422E+02  0.00000000000E+00 0.  1.
         11    1    4    4    0    0  0.17756190010E+02  0.40438148281E+01 -0.69855055140E+01  0.19504666354E+02  0.51100000000E-03 0. -1.
        -11    1    4    4    0    0 -0.14225131311E+01  0.23771918611E+00 -0.18984904072E+01  0.23841812236E+01  0.51100000000E-03 0.  1.
         12    1    4    4    0    0  0.10303906544E+02  0.12096680460E+02  0.28325528777E+02  0.32478235000E+02  0.00000000000E+00 0. -1.
</event>
<event>
 8    1  0.3137106E-007  0.9118800E+02  0.7816164E-02  0.1184000E+00
        -11   -1    0    0    0    0  0.00000000000E+00  0.00000000000E+00  0.45593999997E+02  0.45594000000E+02  0.51100000000E-03 0.  1.
         11   -1    0    0    0    0 -0.00000000000E+00 -0.00000000000E+00 -0.45593999997E+02  0.45594000000E+02  0.51100000000E-03 0. -1.
         23    2    1    2    0    0  0.00000000000E+00  0.00000000000E+00  0.00000000000E+00  0.91188000000E+02  0.91188000000E+02 0.  0.
    9900012    2    3    3    0    0 -0.19903084662E+02  0.27803412904E+02 -0.13660864238E+02  0.54367058134E+02  0.39999940628E+02 0.  0.
        -12    1    3    3    0    0  0.19903084662E+02 -0.27803412904E+02  0.13660864238E+02  0.36820941866E+02  0.00000000000E+00 0.  1.
         11    1    4    4    0    0 -0.44379101872E+00  0.14391119884E+02  0.78896787800E+01  0.16417926590E+02  0.51100000000E-03 0. -1.
        -11    1    4    4    0    0  0.35876800600E+01  0.32729057029E+00  0.27972721752E+00  0.36134214960E+01  0.51100000000E-03 0.  1.
        -12    1    4    4    0    0 -0.23046973703E+02  0.13085002449E+02 -0.21830270236E+02  0.34335710048E+02  0.00000000000E+00 0.  1.
</event>
<event>
 8    1  0.3137106E-007  0.9118800E+02  0.7816164E-02  0.1184000E+00
        -11   -1    0    0    0    0  0.00000000000E+00  0.00000000000E+00  0.45593999997E+02  0.45594000000E+02  0.51100000000E-03 0. -1.
         11   -1    0    0    0    0 -0.00000000000E+00 -0.00000000000E+00 -0.45593999997E+02  0.45594000000E+02  0.51100000000E-03 0.  1.
         23    2    1    2    0    0  0.71054273576E-14 -0.17763568394E-14  0.00000000000E+00  0.91188000000E+02  0.91188000000E+02 0.  0.
    9900012    2    3    3    0    0 -0.32190280817E+02  0.91042129087E+01  0.15384380584E+02  0.54367081520E+02  0.39999993940E+02 0.  0.
        -12    1    3    3    0    0  0.32190280817E+02 -0.91042129087E+01 -0.15384380584E+02  0.36820918480E+02  0.00000000000E+00 0.  1.
         11    1    4    4    0    0 -0.13342835637E+02  0.19469212234E+02  0.22744505133E+01  0.23711908680E+02  0.51100000000E-03 0. -1.
        -11    1    4    4    0    0 -0.19045783727E+02 -0.71709261900E+01  0.36592829643E+01  0.20677388913E+02  0.51100000000E-03 0.  1.
        -12    1    4    4    0    0  0.19833854605E+00 -0.31940731350E+01  0.94506471060E+01  0.99777839269E+01  0.00000000000E+00 0.  1.
</event>
<event>
 8    1  0.3137106E-007  0.9118800E+02  0.7816164E-02  0.1184000E+00
        -11   -1    0    0    0    0  0.00000000000E+00  0.00000000000E+00  0.45593999997E+02  0.45594000000E+02  0.51100000000E-03 0. -1.
         11   -1    0    0    0    0 -0.00000000000E+00 -0.00000000000E+00 -0.45593999997E+02  0.45594000000E+02  0.51100000000E-03 0.  1.
         23    2    1    2    0    0  0.00000000000E+00  0.00000000000E+00  0.00000000000E+00  0.91188000000E+02  0.91188000000E+02 0.  0.
    9900012    2    3    3    0    0 -0.18487558680E+02  0.30540084259E+02  0.90162625076E+01  0.54367087978E+02  0.40000008664E+02 0.  0.
        -12    1    3    3    0    0  0.18487558680E+02 -0.30540084259E+02 -0.90162625076E+01  0.36820912022E+02  0.00000000000E+00 0.  1.
         11    1    4    4    0    0  0.12847639809E+01  0.53754055865E+01  0.34293285555E+01  0.65042984487E+01  0.51100000000E-03 0. -1.
        -11    1    4    4    0    0 -0.27815998778E+02  0.27240213308E+02  0.25436769086E+01  0.39015757093E+02  0.51100000000E-03 0.  1.
        -12    1    4    4    0    0  0.80436761173E+01 -0.20755346351E+01  0.30432570435E+01  0.88470324366E+01  0.00000000000E+00 0.  1.
</event>
<event>
 8    1  0.3137106E-007  0.9118800E+02  0.7816164E-02  0.1184000E+00
        -11   -1    0    0    0    0  0.00000000000E+00  0.00000000000E+00  0.45593999997E+02  0.45594000000E+02  0.51100000000E-03 0. -1.
         11   -1    0    0    0    0 -0.00000000000E+00 -0.00000000000E+00 -0.45593999997E+02  0.45594000000E+02  0.51100000000E-03 0.  1.
         23    2    1    2    0    0  0.17763568394E-14  0.00000000000E+00  0.00000000000E+00  0.91188000000E+02  0.91188000000E+02 0.  0.
    9900012    2    3    3    0    0 -0.91862496682E+01 -0.14201565146E+02 -0.32706400413E+02  0.54367078453E+02  0.39999986949E+02 0.  0.
         12    1    3    3    0    0  0.91862496682E+01  0.14201565146E+02  0.32706400413E+02  0.36820921547E+02  0.00000000000E+00 0. -1.
         11    1    4    4    0    0 -0.15248145971E+02  0.22137402919E+01 -0.27504087208E+02  0.31525884841E+02  0.51100000000E-03 0.  1.
        -11    1    4    4    0    0  0.45038060959E+01 -0.23941390335E+01  0.35726164287E+01  0.62273396783E+01  0.51100000000E-03 0. -1.
        -12    1    4    4    0    0  0.15580902068E+01 -0.14021166405E+02 -0.87749296345E+01  0.16613853934E+02  0.00000000000E+00 0.  1.
</event>
<event>
 8    1  0.3137106E-007  0.9118800E+02  0.7816164E-02  0.1184000E+00
        -11   -1    0    0    0    0  0.00000000000E+00  0.00000000000E+00  0.45593999997E+02  0.45594000000E+02  0.51100000000E-03 0.  1.
         11   -1    0    0    0    0 -0.00000000000E+00 -0.00000000000E+00 -0.45593999997E+02  0.45594000000E+02  0.51100000000E-03 0. -1.
         23    2    1    2    0    0  0.00000000000E+00  0.00000000000E+00  0.53290705182E-14  0.91188000000E+02  0.91188000000E+02 0.  0.
    9900012    2    3    3    0    0  0.78985462416E+01  0.32452569423E+02  0.15499088039E+02  0.54367108852E+02  0.40000056251E+02 0.  0.
         12    1    3    3    0    0 -0.78985462416E+01 -0.32452569423E+02 -0.15499088039E+02  0.36820891148E+02  0.00000000000E+00 0. -1.
         11    1    4    4    0    0 -0.25915521483E+01 -0.26421241674E+01 -0.73887360280E+01  0.82637995502E+01  0.51100000000E-03 0. -1.
        -11    1    4    4    0    0  0.11641686091E+02  0.31795023538E+02  0.24937697302E+02  0.42051648289E+02  0.51100000000E-03 0.  1.
        -12    1    4    4    0    0 -0.11515877014E+01  0.32996700524E+01 -0.20498732349E+01  0.40516610135E+01  0.00000000000E+00 0.  1.
</event>
<event>
 8    1  0.3137106E-007  0.9118800E+02  0.7816164E-02  0.1184000E+00
        -11   -1    0    0    0    0  0.00000000000E+00  0.00000000000E+00  0.45593999997E+02  0.45594000000E+02  0.51100000000E-03 0. -1.
         11   -1    0    0    0    0 -0.00000000000E+00 -0.00000000000E+00 -0.45593999997E+02  0.45594000000E+02  0.51100000000E-03 0.  1.
         23    2    1    2    0    0  0.00000000000E+00  0.00000000000E+00  0.00000000000E+00  0.91188000000E+02  0.91188000000E+02 0.  0.
    9900012    2    3    3    0    0 -0.31595083940E+01  0.33755291695E+02  0.14365842068E+02  0.54367087069E+02  0.40000006592E+02 0.  0.
        -12    1    3    3    0    0  0.31595083940E+01 -0.33755291695E+02 -0.14365842068E+02  0.36820912931E+02  0.00000000000E+00 0.  1.
         11    1    4    4    0    0  0.13585495015E+01 -0.23677941264E+01  0.32440983089E+01  0.42398443217E+01  0.51100000000E-03 0. -1.
        -11    1    4    4    0    0 -0.24581935139E+01  0.22847554536E+02 -0.10027385604E+02  0.25071935026E+02  0.51100000000E-03 0.  1.
         12    1    4    4    0    0 -0.20598643817E+01  0.13275531285E+02  0.21149129364E+02  0.25055307721E+02  0.00000000000E+00 0. -1.
</event>
<event>
 8    1  0.3137106E-007  0.9118800E+02  0.7816164E-02  0.1184000E+00
        -11   -1    0    0    0    0  0.00000000000E+00  0.00000000000E+00  0.45593999997E+02  0.45594000000E+02  0.51100000000E-03 0.  1.
         11   -1    0    0    0    0 -0.00000000000E+00 -0.00000000000E+00 -0.45593999997E+02  0.45594000000E+02  0.51100000000E-03 0. -1.
         23    2    1    2    0    0  0.00000000000E+00  0.14210854715E-13  0.00000000000E+00  0.91188000000E+02  0.91188000000E+02 0.  0.
    9900012    2    3    3    0    0  0.79026490537E+01 -0.34962329099E+02 -0.84239100362E+01  0.54367101336E+02  0.40000039117E+02 0.  0.
         12    1    3    3    0    0 -0.79026490537E+01  0.34962329099E+02  0.84239100362E+01  0.36820898664E+02  0.00000000000E+00 0. -1.
         11    1    4    4    0    0  0.36288983303E+01 -0.41669360199E+02 -0.20304029922E-01  0.41827083271E+02  0.51100000000E-03 0.  1.
        -11    1    4    4    0    0  0.43567240220E+01  0.29752615380E+01 -0.33208588867E+01  0.62338855805E+01  0.51100000000E-03 0. -1.
        -12    1    4    4    0    0 -0.82973298640E-01  0.37317695620E+01 -0.50827471195E+01  0.63061324846E+01  0.00000000000E+00 0.  1.
</event>
<event>
 8    1  0.3137106E-007  0.9118800E+02  0.7816164E-02  0.1184000E+00
        -11   -1    0    0    0    0  0.00000000000E+00  0.00000000000E+00  0.45593999997E+02  0.45594000000E+02  0.51100000000E-03 0.  1.
         11   -1    0    0    0    0 -0.00000000000E+00 -0.00000000000E+00 -0.45593999997E+02  0.45594000000E+02  0.51100000000E-03 0. -1.
         23    2    1    2    0    0  0.71054273576E-14  0.00000000000E+00  0.00000000000E+00  0.91188000000E+02  0.91188000000E+02 0.  0.
    9900012    2    3    3    0    0  0.25783217129E+02 -0.16061742527E+02 -0.20809261629E+02  0.54367092514E+02  0.40000019004E+02 0.  0.
        -12    1    3    3    0    0 -0.25783217129E+02  0.16061742527E+02  0.20809261629E+02  0.36820907486E+02  0.00000000000E+00 0.  1.
         11    1    4    4    0    0  0.27790878226E+02 -0.23457874464E+01 -0.11996572148E+02  0.30360391547E+02  0.51100000000E-03 0. -1.
        -11    1    4    4    0    0  0.23636017773E+01 -0.16567514264E+02 -0.47605556120E+01  0.17399196311E+02  0.51100000000E-03 0.  1.
        -12    1    4    4    0    0 -0.43712628737E+01  0.28515591838E+01 -0.40521338696E+01  0.66075046566E+01  0.00000000000E+00 0.  1.
</event>
<event>
 8    1  0.3137106E-007  0.9118800E+02  0.7816164E-02  0.1184000E+00
        -11   -1    0    0    0    0  0.00000000000E+00  0.00000000000E+00  0.45593999997E+02  0.45594000000E+02  0.51100000000E-03 0.  1.
         11   -1    0    0    0    0 -0.00000000000E+00 -0.00000000000E+00 -0.45593999997E+02  0.45594000000E+02  0.51100000000E-03 0. -1.
         23    2    1    2    0    0 -0.35527136788E-14  0.22204460493E-15 -0.35527136788E-14  0.91188000000E+02  0.91188000000E+02 0.  0.
    9900012    2    3    3    0    0 -0.19097467488E+02  0.36981359487E+00  0.31479032664E+02  0.54367088496E+02  0.40000009844E+02 0.  0.
         12    1    3    3    0    0  0.19097467488E+02 -0.36981359487E+00 -0.31479032664E+02  0.36820911504E+02  0.00000000000E+00 0. -1.
         11    1    4    4    0    0 -0.67347696891E+01  0.42761418683E+01  0.34915360160E+02  0.35815148854E+02  0.51100000000E-03 0. -1.
        -11    1    4    4    0    0  0.22408595855E+01 -0.27541931387E+00  0.15048703070E+01  0.27132899554E+01  0.51100000000E-03 0.  1.
         12    1    4    4    0    0 -0.14603557385E+02 -0.36309089595E+01 -0.49411978034E+01  0.15838649686E+02  0.00000000000E+00 0. -1.
</event>
<event>
 8    1  0.3137106E-007  0.9118800E+02  0.7816164E-02  0.1184000E+00
        -11   -1    0    0    0    0  0.00000000000E+00  0.00000000000E+00  0.45593999997E+02  0.45594000000E+02  0.51100000000E-03 0.  1.
         11   -1    0    0    0    0 -0.00000000000E+00 -0.00000000000E+00 -0.45593999997E+02  0.45594000000E+02  0.51100000000E-03 0. -1.
         23    2    1    2    0    0  0.88817841970E-15  0.00000000000E+00  0.00000000000E+00  0.91188000000E+02  0.91188000000E+02 0.  0.
    9900012    2    3    3    0    0  0.12391358353E+01  0.53255372867E+01 -0.36412695074E+02  0.54367066178E+02  0.39999958965E+02 0.  0.
        -12    1    3    3    0    0 -0.12391358353E+01 -0.53255372867E+01  0.36412695074E+02  0.36820933822E+02  0.00000000000E+00 0.  1.
         11    1    4    4    0    0  0.16224896232E+01  0.15179161420E+02 -0.24401387953E+02  0.28783105257E+02  0.51100000000E-03 0. -1.
        -11    1    4    4    0    0  0.98089759633E+01 -0.56278758067E+01 -0.79632266774E+01  0.13831195716E+02  0.51100000000E-03 0.  1.
         12    1    4    4    0    0 -0.10192329751E+02 -0.42257483264E+01 -0.40480804439E+01  0.11752765205E+02  0.00000000000E+00 0. -1.
</event>
<event>
 8    1  0.3137106E-007  0.9118800E+02  0.7816164E-02  0.1184000E+00
        -11   -1    0    0    0    0  0.00000000000E+00  0.00000000000E+00  0.45593999997E+02  0.45594000000E+02  0.51100000000E-03 0.  1.
         11   -1    0    0    0    0 -0.00000000000E+00 -0.00000000000E+00 -0.45593999997E+02  0.45594000000E+02  0.51100000000E-03 0. -1.
         23    2    1    2    0    0 -0.35527136788E-14  0.00000000000E+00  0.00000000000E+00  0.91188000000E+02  0.91188000000E+02 0.  0.
    9900012    2    3    3    0    0 -0.25788306668E+02  0.14194732853E+02  0.22119041439E+02  0.54367092953E+02  0.40000020004E+02 0.  0.
         12    1    3    3    0    0  0.25788306668E+02 -0.14194732853E+02 -0.22119041439E+02  0.36820907047E+02  0.00000000000E+00 0. -1.
         11    1    4    4    0    0 -0.67200344722E+01 -0.43724160434E+01  0.14271603707E+02  0.16369348124E+02  0.51100000000E-03 0. -1.
        -11    1    4    4    0    0  0.34850696652E+00 -0.28247322942E+01  0.86403124265E+01  0.90970087792E+01  0.51100000000E-03 0.  1.
         12    1    4    4    0    0 -0.19416779162E+02  0.21391881191E+02 -0.79287469442E+00  0.28900736049E+02  0.00000000000E+00 0. -1.
</event>
<event>
 8    1  0.3137106E-007  0.9118800E+02  0.7816164E-02  0.1184000E+00
        -11   -1    0    0    0    0  0.00000000000E+00  0.00000000000E+00  0.45593999997E+02  0.45594000000E+02  0.51100000000E-03 0.  1.
         11   -1    0    0    0    0 -0.00000000000E+00 -0.00000000000E+00 -0.45593999997E+02  0.45594000000E+02  0.51100000000E-03 0. -1.
         23    2    1    2    0    0  0.00000000000E+00  0.00000000000E+00  0.13322676296E-14  0.91188000000E+02  0.91188000000E+02 0.  0.
    9900012    2    3    3    0    0  0.32474538727E+02 -0.17083668443E+02  0.30548398070E+01  0.54367089647E+02  0.40000012467E+02 0.  0.
        -12    1    3    3    0    0 -0.32474538727E+02  0.17083668443E+02 -0.30548398070E+01  0.36820910353E+02  0.00000000000E+00 0.  1.
         11    1    4    4    0    0  0.35811280737E+02 -0.14793383588E+02 -0.67145458787E+01  0.39324002246E+02  0.51100000000E-03 0. -1.
        -11    1    4    4    0    0 -0.57515901767E+01 -0.47152629298E+00  0.11173052763E+01  0.58780522239E+01  0.51100000000E-03 0.  1.
         12    1    4    4    0    0  0.24148481665E+01 -0.18187585624E+01  0.86520804095E+01  0.91650351766E+01  0.00000000000E+00 0. -1.
</event>
<event>
 8    1  0.3137106E-007  0.9118800E+02  0.7816164E-02  0.1184000E+00
        -11   -1    0    0    0    0  0.00000000000E+00  0.00000000000E+00  0.45593999997E+02  0.45594000000E+02  0.51100000000E-03 0. -1.
         11   -1    0    0    0    0 -0.00000000000E+00 -0.00000000000E+00 -0.45593999997E+02  0.45594000000E+02  0.51100000000E-03 0.  1.
         23    2    1    2    0    0  0.35527136788E-14  0.35527136788E-14  0.00000000000E+00  0.91188000000E+02  0.91188000000E+02 0.  0.
    9900012    2    3    3    0    0  0.23697143064E+02  0.19576352022E+02 -0.20272866019E+02  0.54367119450E+02  0.40000080410E+02 0.  0.
         12    1    3    3    0    0 -0.23697143064E+02 -0.19576352022E+02  0.20272866019E+02  0.36820880550E+02  0.00000000000E+00 0. -1.
         11    1    4    4    0    0  0.22622388984E+02 -0.26775541796E+01 -0.53868270889E+01  0.23408538742E+02  0.51100000000E-03 0. -1.
        -11    1    4    4    0    0  0.76525607744E+01  0.84224319092E+01 -0.91560710688E+01  0.14605912616E+02  0.51100000000E-03 0.  1.
         12    1    4    4    0    0 -0.65778066944E+01  0.13831474293E+02 -0.57299678611E+01  0.16352668091E+02  0.00000000000E+00 0. -1.
</event>
<event>
 8    1  0.3137106E-007  0.9118800E+02  0.7816164E-02  0.1184000E+00
        -11   -1    0    0    0    0  0.00000000000E+00  0.00000000000E+00  0.45593999997E+02  0.45594000000E+02  0.51100000000E-03 0. -1.
         11   -1    0    0    0    0 -0.00000000000E+00 -0.00000000000E+00 -0.45593999997E+02  0.45594000000E+02  0.51100000000E-03 0.  1.
         23    2    1    2    0    0 -0.35527136788E-14  0.00000000000E+00  0.00000000000E+00  0.91188000000E+02  0.91188000000E+02 0.  0.
    9900012    2    3    3    0    0 -0.17517473348E+02 -0.32085439203E+02 -0.44093224029E+01  0.54367090107E+02  0.40000013517E+02 0.  0.
        -12    1    3    3    0    0  0.17517473348E+02  0.32085439203E+02  0.44093224029E+01  0.36820909893E+02  0.00000000000E+00 0.  1.
         11    1    4    4    0    0 -0.69876804135E+00 -0.94684230254E+01  0.11579367997E+02  0.14974013317E+02  0.51100000000E-03 0. -1.
        -11    1    4    4    0    0 -0.16151960084E+02 -0.25425895799E+02 -0.18681536732E+02  0.35445194409E+02  0.51100000000E-03 0.  1.
         12    1    4    4    0    0 -0.66674522248E+00  0.28088796218E+01  0.26928463328E+01  0.39478823809E+01  0.00000000000E+00 0. -1.
</event>
<event>
 8    1  0.3137106E-007  0.9118800E+02  0.7816164E-02  0.1184000E+00
        -11   -1    0    0    0    0  0.00000000000E+00  0.00000000000E+00  0.45593999997E+02  0.45594000000E+02  0.51100000000E-03 0. -1.
         11   -1    0    0    0    0 -0.00000000000E+00 -0.00000000000E+00 -0.45593999997E+02  0.45594000000E+02  0.51100000000E-03 0.  1.
         23    2    1    2    0    0  0.00000000000E+00  0.44408920985E-15 -0.35527136788E-14  0.91188000000E+02  0.91188000000E+02 0.  0.
    9900012    2    3    3    0    0 -0.26255417151E+02  0.24899577210E+01  0.25694998807E+02  0.54367084980E+02  0.40000001829E+02 0.  0.
        -12    1    3    3    0    0  0.26255417151E+02 -0.24899577210E+01 -0.25694998807E+02  0.36820915020E+02  0.00000000000E+00 0.  1.
         11    1    4    4    0    0 -0.18212862734E+02  0.15134760776E+02  0.21075104405E+02  0.31700621108E+02  0.51100000000E-03 0. -1.
        -11    1    4    4    0    0  0.13572865232E+01 -0.10895916126E+02  0.67255559074E+01  0.12876191885E+02  0.51100000000E-03 0.  1.
         12    1    4    4    0    0 -0.93998409404E+01 -0.17488869289E+01 -0.21056615056E+01  0.97902719865E+01  0.00000000000E+00 0. -1.
</event>
<event>
 8    1  0.3137106E-007  0.9118800E+02  0.7816164E-02  0.1184000E+00
        -11   -1    0    0    0    0  0.00000000000E+00  0.00000000000E+00  0.45593999997E+02  0.45594000000E+02  0.51100000000E-03 0. -1.
         11   -1    0    0    0    0 -0.00000000000E+00 -0.00000000000E+00 -0.45593999997E+02  0.45594000000E+02  0.51100000000E-03 0.  1.
         23    2    1    2    0    0  0.00000000000E+00  0.00000000000E+00  0.00000000000E+00  0.91188000000E+02  0.91188000000E+02 0.  0.
    9900012    2    3    3    0    0  0.55382555846E+01  0.23427592606E+02  0.27861349718E+02  0.54367093189E+02  0.40000020544E+02 0.  0.
        -12    1    3    3    0    0 -0.55382555846E+01 -0.23427592606E+02 -0.27861349718E+02  0.36820906811E+02  0.00000000000E+00 0.  1.
         11    1    4    4    0    0 -0.25517795841E+01  0.16721336759E+02 -0.33759054273E+00  0.16918293345E+02  0.51100000000E-03 0. -1.
        -11    1    4    4    0    0  0.36107521392E+01  0.14855374135E+02  0.18732985667E+02  0.24179421498E+02  0.51100000000E-03 0.  1.
        -12    1    4    4    0    0  0.44792830296E+01 -0.81491182882E+01  0.94659545937E+01  0.13269378347E+02  0.00000000000E+00 0.  1.
</event>
<event>
 8    1  0.3137106E-007  0.9118800E+02  0.7816164E-02  0.1184000E+00
        -11   -1    0    0    0    0  0.00000000000E+00  0.00000000000E+00  0.45593999997E+02  0.45594000000E+02  0.51100000000E-03 0.  1.
         11   -1    0    0    0    0 -0.00000000000E+00 -0.00000000000E+00 -0.45593999997E+02  0.45594000000E+02  0.51100000000E-03 0. -1.
         23    2    1    2    0    0  0.11102230246E-14 -0.17763568394E-14  0.00000000000E+00  0.91188000000E+02  0.91188000000E+02 0.  0.
    9900012    2    3    3    0    0 -0.12360381278E+01  0.12388468879E+02  0.34652203368E+02  0.54367120737E+02  0.40000083345E+02 0.  0.
         12    1    3    3    0    0  0.12360381278E+01 -0.12388468879E+02 -0.34652203368E+02  0.36820879263E+02  0.00000000000E+00 0. -1.
         11    1    4    4    0    0 -0.11893493634E+02  0.25410448721E+01  0.30079995060E+02  0.32445619164E+02  0.51100000000E-03 0. -1.
        -11    1    4    4    0    0  0.37046231376E+01  0.78544670898E+01  0.97271007928E+01  0.13039684657E+02  0.51100000000E-03 0.  1.
         12    1    4    4    0    0  0.69528323683E+01  0.19929569167E+01 -0.51548924845E+01  0.88818169166E+01  0.00000000000E+00 0. -1.
</event>
<event>
 8    1  0.3137106E-007  0.9118800E+02  0.7816164E-02  0.1184000E+00
        -11   -1    0    0    0    0  0.00000000000E+00  0.00000000000E+00  0.45593999997E+02  0.45594000000E+02  0.51100000000E-03 0.  1.
         11   -1    0    0    0    0 -0.00000000000E+00 -0.00000000000E+00 -0.45593999997E+02  0.45594000000E+02  0.51100000000E-03 0. -1.
         23    2    1    2    0    0  0.17763568394E-14  0.00000000000E+00  0.35527136788E-14  0.91188000000E+02  0.91188000000E+02 0.  0.
    9900012    2    3    3    0    0 -0.10267094590E+02  0.31247733497E+02 -0.16551313585E+02  0.54367081199E+02  0.39999993208E+02 0.  0.
        -12    1    3    3    0    0  0.10267094590E+02 -0.31247733497E+02  0.16551313585E+02  0.36820918801E+02  0.00000000000E+00 0.  1.
         11    1    4    4    0    0  0.29492726415E+01  0.57978462486E+01 -0.22578211226E+02  0.23496571083E+02  0.51100000000E-03 0. -1.
        -11    1    4    4    0    0 -0.79906826227E+01  0.17576555314E+02  0.85101245025E+01  0.21099965043E+02  0.51100000000E-03 0.  1.
        -12    1    4    4    0    0 -0.52256846091E+01  0.78733319337E+01 -0.24832268612E+01  0.97705450726E+01  0.00000000000E+00 0.  1.
</event>
<event>
 8    1  0.3137106E-007  0.9118800E+02  0.7816164E-02  0.1184000E+00
        -11   -1    0    0    0    0  0.00000000000E+00  0.00000000000E+00  0.45593999997E+02  0.45594000000E+02  0.51100000000E-03 0.  1.
         11   -1    0    0    0    0 -0.00000000000E+00 -0.00000000000E+00 -0.45593999997E+02  0.45594000000E+02  0.51100000000E-03 0. -1.
         23    2    1    2    0    0  0.00000000000E+00  0.00000000000E+00  0.00000000000E+00  0.91188000000E+02  0.91188000000E+02 0.  0.
    9900012    2    3    3    0    0 -0.98643709008E+01 -0.58715830028E+01 -0.34985802500E+02  0.54366977787E+02  0.39999757460E+02 0.  0.
        -12    1    3    3    0    0  0.98643709008E+01  0.58715830028E+01  0.34985802500E+02  0.36821022213E+02  0.00000000000E+00 0.  1.
         11    1    4    4    0    0  0.64149028848E+01 -0.74021686365E+01 -0.78106878139E+01  0.12527965674E+02  0.51100000000E-03 0. -1.
        -11    1    4    4    0    0 -0.13038717727E+02  0.29535182022E+01  0.10337857031E+01  0.13408957561E+02  0.51100000000E-03 0.  1.
         12    1    4    4    0    0 -0.32405560590E+01 -0.14229325684E+01 -0.28208900389E+02  0.28430054552E+02  0.00000000000E+00 0. -1.
</event>
<event>
 8    1  0.3137106E-007  0.9118800E+02  0.7816164E-02  0.1184000E+00
        -11   -1    0    0    0    0  0.00000000000E+00  0.00000000000E+00  0.45593999997E+02  0.45594000000E+02  0.51100000000E-03 0.  1.
         11   -1    0    0    0    0 -0.00000000000E+00 -0.00000000000E+00 -0.45593999997E+02  0.45594000000E+02  0.51100000000E-03 0. -1.
         23    2    1    2    0    0  0.00000000000E+00 -0.53290705182E-14  0.00000000000E+00  0.91188000000E+02  0.91188000000E+02 0.  0.
    9900012    2    3    3    0    0  0.30687067501E+02  0.11755292027E+02  0.16610093109E+02  0.54367106535E+02  0.40000050969E+02 0.  0.
        -12    1    3    3    0    0 -0.30687067501E+02 -0.11755292027E+02 -0.16610093109E+02  0.36820893465E+02  0.00000000000E+00 0.  1.
         11    1    4    4    0    0  0.25549063688E+01 -0.69828751057E+01  0.50529188860E+00  0.74527452290E+01  0.51100000000E-03 0. -1.
        -11    1    4    4    0    0  0.23647048776E+02  0.26102339891E+02  0.14755642525E+02  0.38186961782E+02  0.51100000000E-03 0.  1.
        -12    1    4    4    0    0  0.44851123561E+01 -0.73641727585E+01  0.13491586960E+01  0.87273995239E+01  0.00000000000E+00 0.  1.
</event>
<event>
 8    1  0.3137106E-007  0.9118800E+02  0.7816164E-02  0.1184000E+00
        -11   -1    0    0    0    0  0.00000000000E+00  0.00000000000E+00  0.45593999997E+02  0.45594000000E+02  0.51100000000E-03 0.  1.
         11   -1    0    0    0    0 -0.00000000000E+00 -0.00000000000E+00 -0.45593999997E+02  0.45594000000E+02  0.51100000000E-03 0. -1.
         23    2    1    2    0    0  0.00000000000E+00 -0.35527136788E-14  0.00000000000E+00  0.91188000000E+02  0.91188000000E+02 0.  0.
    9900012    2    3    3    0    0 -0.42670713950E+01  0.17115466289E+02  0.32320799817E+02  0.54367065935E+02  0.39999958413E+02 0.  0.
         12    1    3    3    0    0  0.42670713950E+01 -0.17115466289E+02 -0.32320799817E+02  0.36820934065E+02  0.00000000000E+00 0. -1.
         11    1    4    4    0    0  0.10669317879E+02  0.90935132153E+00 -0.35245193030E+01  0.11273131792E+02  0.51100000000E-03 0.  1.
        -11    1    4    4    0    0 -0.21811961471E+01 -0.42707260940E+00  0.76151227671E+01  0.79328495930E+01  0.51100000000E-03 0. -1.
        -12    1    4    4    0    0 -0.12755193126E+02  0.16633187577E+02  0.28230196352E+02  0.35161084551E+02  0.00000000000E+00 0.  1.
</event>
<event>
 8    1  0.3137106E-007  0.9118800E+02  0.7816164E-02  0.1184000E+00
        -11   -1    0    0    0    0  0.00000000000E+00  0.00000000000E+00  0.45593999997E+02  0.45594000000E+02  0.51100000000E-03 0.  1.
         11   -1    0    0    0    0 -0.00000000000E+00 -0.00000000000E+00 -0.45593999997E+02  0.45594000000E+02  0.51100000000E-03 0. -1.
         23    2    1    2    0    0  0.71054273576E-14 -0.35527136788E-14  0.00000000000E+00  0.91188000000E+02  0.91188000000E+02 0.  0.
    9900012    2    3    3    0    0  0.27009691232E+02  0.21791433657E+02 -0.12304052477E+02  0.54367085989E+02  0.40000004129E+02 0.  0.
         12    1    3    3    0    0 -0.27009691232E+02 -0.21791433657E+02  0.12304052477E+02  0.36820914011E+02  0.00000000000E+00 0. -1.
         11    1    4    4    0    0  0.57554946514E+01  0.37268967933E+01 -0.11464398231E+02  0.13358439484E+02  0.51100000000E-03 0. -1.
        -11    1    4    4    0    0  0.27289152137E+02  0.20466945960E+02  0.13934771141E+01  0.34139939661E+02  0.51100000000E-03 0.  1.
         12    1    4    4    0    0 -0.60349555567E+01 -0.24024090969E+01 -0.22331313599E+01  0.68687068441E+01  0.00000000000E+00 0. -1.
</event>
<event>
 8    1  0.3137106E-007  0.9118800E+02  0.7816164E-02  0.1184000E+00
        -11   -1    0    0    0    0  0.00000000000E+00  0.00000000000E+00  0.45593999997E+02  0.45594000000E+02  0.51100000000E-03 0. -1.
         11   -1    0    0    0    0 -0.00000000000E+00 -0.00000000000E+00 -0.45593999997E+02  0.45594000000E+02  0.51100000000E-03 0.  1.
         23    2    1    2    0    0  0.13322676296E-14  0.00000000000E+00  0.00000000000E+00  0.91188000000E+02  0.91188000000E+02 0.  0.
    9900012    2    3    3    0    0  0.34090125623E+01 -0.22238701827E+02  0.29147851435E+02  0.54367102823E+02  0.40000042506E+02 0.  0.
         12    1    3    3    0    0 -0.34090125623E+01  0.22238701827E+02 -0.29147851435E+02  0.36820897177E+02  0.00000000000E+00 0. -1.
         11    1    4    4    0    0 -0.64402183125E+01  0.29330443507E+01  0.83451154057E+01  0.10941668633E+02  0.51100000000E-03 0. -1.
        -11    1    4    4    0    0 -0.42394266929E+01 -0.53432194887E+01 -0.46218671863E+01  0.82391983674E+01  0.51100000000E-03 0.  1.
        -12    1    4    4    0    0  0.14088657568E+02 -0.19828526689E+02  0.25424603215E+02  0.35186235823E+02  0.00000000000E+00 0.  1.
</event>
<event>
 8    1  0.3137106E-007  0.9118800E+02  0.7816164E-02  0.1184000E+00
        -11   -1    0    0    0    0  0.00000000000E+00  0.00000000000E+00  0.45593999997E+02  0.45594000000E+02  0.51100000000E-03 0.  1.
         11   -1    0    0    0    0 -0.00000000000E+00 -0.00000000000E+00 -0.45593999997E+02  0.45594000000E+02  0.51100000000E-03 0. -1.
         23    2    1    2    0    0  0.00000000000E+00  0.00000000000E+00  0.00000000000E+00  0.91188000000E+02  0.91188000000E+02 0.  0.
    9900012    2    3    3    0    0  0.10793068326E+02 -0.28086972963E+02 -0.21222910193E+02  0.54367078078E+02  0.39999986095E+02 0.  0.
        -12    1    3    3    0    0 -0.10793068326E+02  0.28086972963E+02  0.21222910193E+02  0.36820921922E+02  0.00000000000E+00 0.  1.
         11    1    4    4    0    0  0.52421412962E+01 -0.22822838159E+02 -0.10704307273E+02  0.25747702450E+02  0.51100000000E-03 0. -1.
        -11    1    4    4    0    0 -0.79540391040E+01 -0.74989584000E+01 -0.10163084179E+02  0.14926131295E+02  0.51100000000E-03 0.  1.
         12    1    4    4    0    0  0.13504966134E+02  0.22348235956E+01 -0.35551874094E+00  0.13693244333E+02  0.00000000000E+00 0. -1.
</event>
<event>
 8    1  0.3137106E-007  0.9118800E+02  0.7816164E-02  0.1184000E+00
        -11   -1    0    0    0    0  0.00000000000E+00  0.00000000000E+00  0.45593999997E+02  0.45594000000E+02  0.51100000000E-03 0.  1.
         11   -1    0    0    0    0 -0.00000000000E+00 -0.00000000000E+00 -0.45593999997E+02  0.45594000000E+02  0.51100000000E-03 0. -1.
         23    2    1    2    0    0  0.00000000000E+00  0.00000000000E+00  0.00000000000E+00  0.91188000000E+02  0.91188000000E+02 0.  0.
    9900012    2    3    3    0    0  0.86951594578E+01  0.21823808505E+02 -0.28353039633E+02  0.54367091916E+02  0.40000017642E+02 0.  0.
        -12    1    3    3    0    0 -0.86951594578E+01 -0.21823808505E+02  0.28353039633E+02  0.36820908084E+02  0.00000000000E+00 0.  1.
         11    1    4    4    0    0 -0.21881455903E+01 -0.16708413807E+01  0.39738608485E+01  0.48343833473E+01  0.51100000000E-03 0.  1.
        -11    1    4    4    0    0 -0.11872698622E+01  0.13999433349E+02 -0.34428794224E+00  0.14053906157E+02  0.51100000000E-03 0. -1.
        -12    1    4    4    0    0  0.12070574910E+02  0.94952165365E+01 -0.31982612540E+02  0.35478802412E+02  0.00000000000E+00 0.  1.
</event>
<event>
 8    1  0.3137106E-007  0.9118800E+02  0.7816164E-02  0.1184000E+00
        -11   -1    0    0    0    0  0.00000000000E+00  0.00000000000E+00  0.45593999997E+02  0.45594000000E+02  0.51100000000E-03 0.  1.
         11   -1    0    0    0    0 -0.00000000000E+00 -0.00000000000E+00 -0.45593999997E+02  0.45594000000E+02  0.51100000000E-03 0. -1.
         23    2    1    2    0    0  0.00000000000E+00  0.00000000000E+00 -0.17763568394E-14  0.91188000000E+02  0.91188000000E+02 0.  0.
    9900012    2    3    3    0    0  0.16620003331E+02  0.28826548672E+02 -0.15766591808E+02  0.54367084255E+02  0.40000000176E+02 0.  0.
        -12    1    3    3    0    0 -0.16620003331E+02 -0.28826548672E+02  0.15766591808E+02  0.36820915745E+02  0.00000000000E+00 0.  1.
         11    1    4    4    0    0 -0.36651276085E+01  0.12004113559E+02  0.34730523224E+01  0.13022825938E+02  0.51100000000E-03 0.  1.
        -11    1    4    4    0    0  0.68940325684E+01  0.20547642321E+02 -0.16346740827E+02  0.27146808762E+02  0.51100000000E-03 0. -1.
        -12    1    4    4    0    0  0.13391098371E+02 -0.37252072088E+01 -0.28929033032E+01  0.14197449555E+02  0.00000000000E+00 0.  1.
</event>
<event>
 8    1  0.3137106E-007  0.9118800E+02  0.7816164E-02  0.1184000E+00
        -11   -1    0    0    0    0  0.00000000000E+00  0.00000000000E+00  0.45593999997E+02  0.45594000000E+02  0.51100000000E-03 0.  1.
         11   -1    0    0    0    0 -0.00000000000E+00 -0.00000000000E+00 -0.45593999997E+02  0.45594000000E+02  0.51100000000E-03 0. -1.
         23    2    1    2    0    0  0.17763568394E-14  0.35527136788E-14  0.71054273576E-14  0.91188000000E+02  0.91188000000E+02 0.  0.
    9900012    2    3    3    0    0 -0.11209891150E+02 -0.13810541982E+02 -0.32239512036E+02  0.54367097435E+02  0.40000030222E+02 0.  0.
        -12    1    3    3    0    0  0.11209891150E+02  0.13810541982E+02  0.32239512036E+02  0.36820902565E+02  0.00000000000E+00 0.  1.
         11    1    4    4    0    0 -0.83907793928E+01  0.28384790368E+01 -0.21563464356E+02  0.23311909775E+02  0.51100000000E-03 0. -1.
        -11    1    4    4    0    0  0.37604595008E+01 -0.19125960393E+02 -0.13249203634E+02  0.23568725333E+02  0.51100000000E-03 0.  1.
         12    1    4    4    0    0 -0.65795712581E+01  0.24769393744E+01  0.25731559548E+01  0.74864623269E+01  0.00000000000E+00 0. -1.
</event>
<event>
 8    1  0.3137106E-007  0.9118800E+02  0.7816164E-02  0.1184000E+00
        -11   -1    0    0    0    0  0.00000000000E+00  0.00000000000E+00  0.45593999997E+02  0.45594000000E+02  0.51100000000E-03 0.  1.
         11   -1    0    0    0    0 -0.00000000000E+00 -0.00000000000E+00 -0.45593999997E+02  0.45594000000E+02  0.51100000000E-03 0. -1.
         23    2    1    2    0    0  0.00000000000E+00  0.00000000000E+00  0.00000000000E+00  0.91188000000E+02  0.91188000000E+02 0.  0.
    9900012    2    3    3    0    0  0.19652943618E+02 -0.42310045479E+01 -0.30848668875E+02  0.54367082525E+02  0.39999996233E+02 0.  0.
        -12    1    3    3    0    0 -0.19652943618E+02  0.42310045479E+01  0.30848668875E+02  0.36820917475E+02  0.00000000000E+00 0.  1.
         11    1    4    4    0    0 -0.44744872605E+01  0.77411313895E+01 -0.24313579371E+02  0.25905526312E+02  0.51100000000E-03 0. -1.
        -11    1    4    4    0    0  0.12800180621E+02 -0.87270591389E+01 -0.12343630098E+01  0.15541230242E+02  0.51100000000E-03 0.  1.
         12    1    4    4    0    0  0.11327250258E+02 -0.32450767985E+01 -0.53007264938E+01  0.12920325971E+02  0.00000000000E+00 0. -1.
</event>
<event>
 8    1  0.3137106E-007  0.9118800E+02  0.7816164E-02  0.1184000E+00
        -11   -1    0    0    0    0  0.00000000000E+00  0.00000000000E+00  0.45593999997E+02  0.45594000000E+02  0.51100000000E-03 0. -1.
         11   -1    0    0    0    0 -0.00000000000E+00 -0.00000000000E+00 -0.45593999997E+02  0.45594000000E+02  0.51100000000E-03 0.  1.
         23    2    1    2    0    0  0.00000000000E+00  0.17763568394E-14  0.35527136788E-14  0.91188000000E+02  0.91188000000E+02 0.  0.
    9900012    2    3    3    0    0  0.33175894801E+02 -0.56335604925E+01 -0.14946689518E+02  0.54367074873E+02  0.39999978787E+02 0.  0.
         12    1    3    3    0    0 -0.33175894801E+02  0.56335604925E+01  0.14946689518E+02  0.36820925127E+02  0.00000000000E+00 0. -1.
         11    1    4    4    0    0 -0.44614814701E+01 -0.82345836044E+01 -0.56798631362E+01  0.10953265703E+02  0.51100000000E-03 0. -1.
        -11    1    4    4    0    0  0.25939121140E+02  0.32407342189E+01 -0.15244593272E+02  0.30261163033E+02  0.51100000000E-03 0.  1.
        -12    1    4    4    0    0  0.11698255131E+02 -0.63971110703E+00  0.59777668901E+01  0.13152646137E+02  0.00000000000E+00 0.  1.
</event>
<event>
 8    1  0.3137106E-007  0.9118800E+02  0.7816164E-02  0.1184000E+00
        -11   -1    0    0    0    0  0.00000000000E+00  0.00000000000E+00  0.45593999997E+02  0.45594000000E+02  0.51100000000E-03 0.  1.
         11   -1    0    0    0    0 -0.00000000000E+00 -0.00000000000E+00 -0.45593999997E+02  0.45594000000E+02  0.51100000000E-03 0. -1.
         23    2    1    2    0    0  0.00000000000E+00  0.00000000000E+00  0.00000000000E+00  0.91188000000E+02  0.91188000000E+02 0.  0.
    9900012    2    3    3    0    0 -0.22909153026E+02  0.16999028690E+02  0.23280542142E+02  0.54367083238E+02  0.39999997857E+02 0.  0.
        -12    1    3    3    0    0  0.22909153026E+02 -0.16999028690E+02 -0.23280542142E+02  0.36820916762E+02  0.00000000000E+00 0.  1.
         11    1    4    4    0    0  0.32337489014E+00  0.36971422181E+00 -0.72930799284E+01  0.73096015643E+01  0.51100000000E-03 0. -1.
        -11    1    4    4    0    0 -0.10551017999E+02  0.12122173706E+02  0.29453082116E+02  0.33552274477E+02  0.51100000000E-03 0.  1.
        -12    1    4    4    0    0 -0.12681509917E+02  0.45071407618E+01  0.11205399549E+01  0.13505207196E+02  0.00000000000E+00 0.  1.
</event>
<event>
 8    1  0.3137106E-007  0.9118800E+02  0.7816164E-02  0.1184000E+00
        -11   -1    0    0    0    0  0.00000000000E+00  0.00000000000E+00  0.45593999997E+02  0.45594000000E+02  0.51100000000E-03 0. -1.
         11   -1    0    0    0    0 -0.00000000000E+00 -0.00000000000E+00 -0.45593999997E+02  0.45594000000E+02  0.51100000000E-03 0.  1.
         23    2    1    2    0    0 -0.17763568394E-14  0.00000000000E+00 -0.44408920985E-15  0.91188000000E+02  0.91188000000E+02 0.  0.
    9900012    2    3    3    0    0  0.15266152522E+02  0.33278876440E+02  0.39040725608E+01  0.54367070999E+02  0.39999969957E+02 0.  0.
         12    1    3    3    0    0 -0.15266152522E+02 -0.33278876440E+02 -0.39040725608E+01  0.36820929001E+02  0.00000000000E+00 0. -1.
         11    1    4    4    0    0  0.11328770320E+02 -0.26279410566E+01  0.11336861864E+01  0.11684706064E+02  0.51100000000E-03 0. -1.
        -11    1    4    4    0    0  0.10121234682E+02  0.14987433077E+02 -0.61681883296E+01  0.19107827958E+02  0.51100000000E-03 0.  1.
         12    1    4    4    0    0 -0.61838524808E+01  0.20919384419E+02  0.89385747039E+01  0.23574536978E+02  0.00000000000E+00 0. -1.
</event>
<event>
 8    1  0.3137106E-007  0.9118800E+02  0.7816164E-02  0.1184000E+00
        -11   -1    0    0    0    0  0.00000000000E+00  0.00000000000E+00  0.45593999997E+02  0.45594000000E+02  0.51100000000E-03 0. -1.
         11   -1    0    0    0    0 -0.00000000000E+00 -0.00000000000E+00 -0.45593999997E+02  0.45594000000E+02  0.51100000000E-03 0.  1.
         23    2    1    2    0    0  0.00000000000E+00  0.44408920985E-15 -0.71054273576E-14  0.91188000000E+02  0.91188000000E+02 0.  0.
    9900012    2    3    3    0    0 -0.12740663722E+02  0.34965392270E+01 -0.34369019864E+02  0.54367084408E+02  0.40000000524E+02 0.  0.
         12    1    3    3    0    0  0.12740663722E+02 -0.34965392270E+01  0.34369019864E+02  0.36820915592E+02  0.00000000000E+00 0. -1.
         11    1    4    4    0    0 -0.91761460876E+01  0.14298979243E+02 -0.58963932943E+00  0.17000298209E+02  0.51100000000E-03 0. -1.
        -11    1    4    4    0    0  0.23838639918E+01 -0.50779989493E+01 -0.23615481815E+02  0.24272615485E+02  0.51100000000E-03 0.  1.
         12    1    4    4    0    0 -0.59483816264E+01 -0.57244410663E+01 -0.10163898719E+02  0.13094170713E+02  0.00000000000E+00 0. -1.
</event>
<event>
 8    1  0.3137106E-007  0.9118800E+02  0.7816164E-02  0.1184000E+00
        -11   -1    0    0    0    0  0.00000000000E+00  0.00000000000E+00  0.45593999997E+02  0.45594000000E+02  0.51100000000E-03 0. -1.
         11   -1    0    0    0    0 -0.00000000000E+00 -0.00000000000E+00 -0.45593999997E+02  0.45594000000E+02  0.51100000000E-03 0.  1.
         23    2    1    2    0    0 -0.26645352591E-14  0.35527136788E-14  0.35527136788E-14  0.91188000000E+02  0.91188000000E+02 0.  0.
    9900012    2    3    3    0    0 -0.44585009947E+01 -0.20772285769E+02 -0.30073460654E+02  0.54367093942E+02  0.40000022260E+02 0.  0.
         12    1    3    3    0    0  0.44585009947E+01  0.20772285769E+02  0.30073460654E+02  0.36820906058E+02  0.00000000000E+00 0. -1.
         11    1    4    4    0    0 -0.35241970694E+01  0.40902085596E+01 -0.86466503148E+01  0.10193837990E+02  0.51100000000E-03 0. -1.
        -11    1    4    4    0    0 -0.98394427163E+01 -0.76691430248E+00 -0.14547961428E+02  0.17579703424E+02  0.51100000000E-03 0.  1.
        -12    1    4    4    0    0  0.89051387909E+01 -0.24095580026E+02 -0.68788489112E+01  0.26593552527E+02  0.00000000000E+00 0.  1.
</event>
<event>
 8    1  0.3137106E-007  0.9118800E+02  0.7816164E-02  0.1184000E+00
        -11   -1    0    0    0    0  0.00000000000E+00  0.00000000000E+00  0.45593999997E+02  0.45594000000E+02  0.51100000000E-03 0. -1.
         11   -1    0    0    0    0 -0.00000000000E+00 -0.00000000000E+00 -0.45593999997E+02  0.45594000000E+02  0.51100000000E-03 0.  1.
         23    2    1    2    0    0  0.00000000000E+00  0.00000000000E+00  0.26645352591E-14  0.91188000000E+02  0.91188000000E+02 0.  0.
    9900012    2    3    3    0    0 -0.17992858398E+02 -0.31213826440E+02  0.75987184076E+01  0.54366994639E+02  0.39999795878E+02 0.  0.
        -12    1    3    3    0    0  0.17992858398E+02  0.31213826440E+02 -0.75987184076E+01  0.36821005361E+02  0.00000000000E+00 0.  1.
         11    1    4    4    0    0 -0.10970318096E+02 -0.16853974527E+02  0.12342005782E+02  0.23595114822E+02  0.51100000000E-03 0. -1.
        -11    1    4    4    0    0 -0.16000694402E+02 -0.36977043482E+01 -0.17501995588E+01  0.16515400012E+02  0.51100000000E-03 0.  1.
         12    1    4    4    0    0  0.89781541004E+01 -0.10662147565E+02 -0.29930878159E+01  0.14256479804E+02  0.00000000000E+00 0. -1.
</event>
<event>
 8    1  0.3137106E-007  0.9118800E+02  0.7816164E-02  0.1184000E+00
        -11   -1    0    0    0    0  0.00000000000E+00  0.00000000000E+00  0.45593999997E+02  0.45594000000E+02  0.51100000000E-03 0. -1.
         11   -1    0    0    0    0 -0.00000000000E+00 -0.00000000000E+00 -0.45593999997E+02  0.45594000000E+02  0.51100000000E-03 0.  1.
         23    2    1    2    0    0  0.00000000000E+00 -0.44408920985E-15  0.00000000000E+00  0.91188000000E+02  0.91188000000E+02 0.  0.
    9900012    2    3    3    0    0  0.41618664262E+01 -0.32247875345E+01 -0.36442534427E+02  0.54367099654E+02  0.40000035282E+02 0.  0.
         12    1    3    3    0    0 -0.41618664262E+01  0.32247875345E+01  0.36442534427E+02  0.36820900346E+02  0.00000000000E+00 0. -1.
         11    1    4    4    0    0  0.12490240591E+02  0.36966770118E+01 -0.18226936103E+02  0.22402962547E+02  0.51100000000E-03 0. -1.
        -11    1    4    4    0    0 -0.82424455421E+01 -0.69978172376E+01 -0.23924376142E+02  0.26254202114E+02  0.51100000000E-03 0.  1.
         12    1    4    4    0    0 -0.85928622331E-01  0.76352691280E-01  0.57087778170E+01  0.57099349931E+01  0.00000000000E+00 0. -1.
</event>
<event>
 8    1  0.3137106E-007  0.9118800E+02  0.7816164E-02  0.1184000E+00
        -11   -1    0    0    0    0  0.00000000000E+00  0.00000000000E+00  0.45593999997E+02  0.45594000000E+02  0.51100000000E-03 0.  1.
         11   -1    0    0    0    0 -0.00000000000E+00 -0.00000000000E+00 -0.45593999997E+02  0.45594000000E+02  0.51100000000E-03 0. -1.
         23    2    1    2    0    0  0.22204460493E-14  0.88817841970E-15 -0.71054273576E-14  0.91188000000E+02  0.91188000000E+02 0.  0.
    9900012    2    3    3    0    0  0.37350577123E+01  0.46582253396E+01 -0.36333509567E+02  0.54367168439E+02  0.40000192090E+02 0.  0.
        -12    1    3    3    0    0 -0.37350577123E+01 -0.46582253396E+01  0.36333509567E+02  0.36820831561E+02  0.00000000000E+00 0.  1.
         11    1    4    4    0    0 -0.65491610646E+01 -0.18147602422E+01 -0.26019223982E+01  0.72770094004E+01  0.51100000000E-03 0. -1.
        -11    1    4    4    0    0  0.18040063246E+02  0.52904762157E+01 -0.34414856041E+02  0.39214988679E+02  0.51100000000E-03 0.  1.
         12    1    4    4    0    0 -0.77558444694E+01  0.11825093662E+01  0.68326887263E+00  0.78751703593E+01  0.00000000000E+00 0. -1.
</event>
<event>
 8    1  0.3137106E-007  0.9118800E+02  0.7816164E-02  0.1184000E+00
        -11   -1    0    0    0    0  0.00000000000E+00  0.00000000000E+00  0.45593999997E+02  0.45594000000E+02  0.51100000000E-03 0.  1.
         11   -1    0    0    0    0 -0.00000000000E+00 -0.00000000000E+00 -0.45593999997E+02  0.45594000000E+02  0.51100000000E-03 0. -1.
         23    2    1    2    0    0 -0.88817841970E-15  0.71054273576E-14  0.00000000000E+00  0.91188000000E+02  0.91188000000E+02 0.  0.
    9900012    2    3    3    0    0  0.78132014528E+01 -0.33141751907E+02  0.14012670887E+02  0.54367125733E+02  0.40000094733E+02 0.  0.
        -12    1    3    3    0    0 -0.78132014528E+01  0.33141751907E+02 -0.14012670887E+02  0.36820874267E+02  0.00000000000E+00 0.  1.
         11    1    4    4    0    0  0.82313073531E+01 -0.81829374031E+01 -0.46198618700E+01  0.12492318009E+02  0.51100000000E-03 0. -1.
        -11    1    4    4    0    0 -0.10164211030E+02 -0.23086009162E+02  0.62154625706E+01  0.25978971883E+02  0.51100000000E-03 0.  1.
        -12    1    4    4    0    0  0.97461051296E+01 -0.18728053419E+01  0.12417070186E+02  0.15895835840E+02  0.00000000000E+00 0.  1.
</event>
<event>
 8    1  0.3137106E-007  0.9118800E+02  0.7816164E-02  0.1184000E+00
        -11   -1    0    0    0    0  0.00000000000E+00  0.00000000000E+00  0.45593999997E+02  0.45594000000E+02  0.51100000000E-03 0.  1.
         11   -1    0    0    0    0 -0.00000000000E+00 -0.00000000000E+00 -0.45593999997E+02  0.45594000000E+02  0.51100000000E-03 0. -1.
         23    2    1    2    0    0  0.35527136788E-14  0.00000000000E+00  0.88817841970E-15  0.91188000000E+02  0.91188000000E+02 0.  0.
    9900012    2    3    3    0    0 -0.27462786422E+02  0.24361614740E+02  0.28434092200E+01  0.54367110728E+02  0.40000060527E+02 0.  0.
        -12    1    3    3    0    0  0.27462786422E+02 -0.24361614740E+02 -0.28434092200E+01  0.36820889272E+02  0.00000000000E+00 0.  1.
         11    1    4    4    0    0 -0.12637975911E+02  0.91446095659E+01 -0.95848221877E+01  0.18308772102E+02  0.51100000000E-03 0. -1.
        -11    1    4    4    0    0 -0.13945177242E+02 -0.63275760397E+00 -0.25991703944E+01  0.14199437928E+02  0.51100000000E-03 0.  1.
        -12    1    4    4    0    0 -0.87963326969E+00  0.15849762778E+02  0.15027401802E+02  0.21858900698E+02  0.00000000000E+00 0.  1.
</event>
<event>
 8    1  0.3137106E-007  0.9118800E+02  0.7816164E-02  0.1184000E+00
        -11   -1    0    0    0    0  0.00000000000E+00  0.00000000000E+00  0.45593999997E+02  0.45594000000E+02  0.51100000000E-03 0. -1.
         11   -1    0    0    0    0 -0.00000000000E+00 -0.00000000000E+00 -0.45593999997E+02  0.45594000000E+02  0.51100000000E-03 0.  1.
         23    2    1    2    0    0  0.00000000000E+00  0.00000000000E+00  0.00000000000E+00  0.91188000000E+02  0.91188000000E+02 0.  0.
    9900012    2    3    3    0    0  0.10333010476E+02  0.14998598507E+02  0.32000774497E+02  0.54367100621E+02  0.40000037485E+02 0.  0.
        -12    1    3    3    0    0 -0.10333010476E+02 -0.14998598507E+02 -0.32000774497E+02  0.36820899379E+02  0.00000000000E+00 0.  1.
         11    1    4    4    0    0 -0.51834357220E+01 -0.10955126278E+01  0.59767336376E+01  0.79868328540E+01  0.51100000000E-03 0. -1.
        -11    1    4    4    0    0  0.70246916482E+01  0.17296459886E+01 -0.65639266351E+01  0.97684748620E+01  0.51100000000E-03 0.  1.
         12    1    4    4    0    0  0.84917545498E+01  0.14364465146E+02  0.32587967495E+02  0.36611792905E+02  0.00000000000E+00 0. -1.
</event>
<event>
 8    1  0.3137106E-007  0.9118800E+02  0.7816164E-02  0.1184000E+00
        -11   -1    0    0    0    0  0.00000000000E+00  0.00000000000E+00  0.45593999997E+02  0.45594000000E+02  0.51100000000E-03 0.  1.
         11   -1    0    0    0    0 -0.00000000000E+00 -0.00000000000E+00 -0.45593999997E+02  0.45594000000E+02  0.51100000000E-03 0. -1.
         23    2    1    2    0    0  0.35527136788E-14 -0.71054273576E-14  0.88817841970E-15  0.91188000000E+02  0.91188000000E+02 0.  0.
    9900012    2    3    3    0    0  0.27086393588E+02 -0.23662250764E+02  0.78871485640E+01  0.54367055671E+02  0.39999935013E+02 0.  0.
         12    1    3    3    0    0 -0.27086393588E+02  0.23662250764E+02 -0.78871485640E+01  0.36820944329E+02  0.00000000000E+00 0. -1.
         11    1    4    4    0    0  0.46650284868E+01 -0.55565069405E+01 -0.11217276630E+02  0.13359062670E+02  0.51100000000E-03 0. -1.
        -11    1    4    4    0    0  0.48771849541E+01 -0.15928851470E+02  0.26720747201E+01  0.16871728596E+02  0.51100000000E-03 0.  1.
        -12    1    4    4    0    0  0.17544180147E+02 -0.21768923526E+01  0.16432350474E+02  0.24136264405E+02  0.00000000000E+00 0.  1.
</event>
<event>
 8    1  0.3137106E-007  0.9118800E+02  0.7816164E-02  0.1184000E+00
        -11   -1    0    0    0    0  0.00000000000E+00  0.00000000000E+00  0.45593999997E+02  0.45594000000E+02  0.51100000000E-03 0. -1.
         11   -1    0    0    0    0 -0.00000000000E+00 -0.00000000000E+00 -0.45593999997E+02  0.45594000000E+02  0.51100000000E-03 0.  1.
         23    2    1    2    0    0  0.00000000000E+00  0.00000000000E+00  0.00000000000E+00  0.91188000000E+02  0.91188000000E+02 0.  0.
    9900012    2    3    3    0    0  0.23911386299E+02  0.14858465969E+02  0.23732938017E+02  0.54367071813E+02  0.39999971811E+02 0.  0.
        -12    1    3    3    0    0 -0.23911386299E+02 -0.14858465969E+02 -0.23732938017E+02  0.36820928187E+02  0.00000000000E+00 0.  1.
         11    1    4    4    0    0 -0.17634876575E+01 -0.53254918225E+01 -0.11853913351E+01  0.57337513679E+01  0.51100000000E-03 0. -1.
        -11    1    4    4    0    0  0.18538436322E+01  0.17616627320E+02  0.12192265478E+02  0.21504270090E+02  0.51100000000E-03 0.  1.
         12    1    4    4    0    0  0.23821030324E+02  0.25673304712E+01  0.12726063874E+02  0.27129050355E+02  0.00000000000E+00 0. -1.
</event>
<event>
 8    1  0.3137106E-007  0.9118800E+02  0.7816164E-02  0.1184000E+00
        -11   -1    0    0    0    0  0.00000000000E+00  0.00000000000E+00  0.45593999997E+02  0.45594000000E+02  0.51100000000E-03 0.  1.
         11   -1    0    0    0    0 -0.00000000000E+00 -0.00000000000E+00 -0.45593999997E+02  0.45594000000E+02  0.51100000000E-03 0. -1.
         23    2    1    2    0    0 -0.17763568394E-14 -0.35527136788E-14 -0.17763568394E-14  0.91188000000E+02  0.91188000000E+02 0.  0.
    9900012    2    3    3    0    0  0.15908045746E+02 -0.30699127598E+02  0.12660143184E+02  0.54367060574E+02  0.39999946191E+02 0.  0.
        -12    1    3    3    0    0 -0.15908045746E+02  0.30699127598E+02 -0.12660143184E+02  0.36820939426E+02  0.00000000000E+00 0.  1.
         11    1    4    4    0    0  0.11056923096E+02 -0.12195364429E+02 -0.10769822739E+01  0.16496737647E+02  0.51100000000E-03 0. -1.
        -11    1    4    4    0    0 -0.50411439238E+01  0.11165653986E+00 -0.67827395064E+01  0.84516953753E+01  0.51100000000E-03 0.  1.
         12    1    4    4    0    0  0.98922665732E+01 -0.18615419709E+02  0.20519864964E+02  0.29418627552E+02  0.00000000000E+00 0. -1.
</event>
<event>
 8    1  0.3137106E-007  0.9118800E+02  0.7816164E-02  0.1184000E+00
        -11   -1    0    0    0    0  0.00000000000E+00  0.00000000000E+00  0.45593999997E+02  0.45594000000E+02  0.51100000000E-03 0.  1.
         11   -1    0    0    0    0 -0.00000000000E+00 -0.00000000000E+00 -0.45593999997E+02  0.45594000000E+02  0.51100000000E-03 0. -1.
         23    2    1    2    0    0  0.17763568394E-14  0.00000000000E+00  0.00000000000E+00  0.91188000000E+02  0.91188000000E+02 0.  0.
    9900012    2    3    3    0    0 -0.14358499550E+02 -0.22041773176E+02  0.25763829001E+02  0.54367066296E+02  0.39999959234E+02 0.  0.
         12    1    3    3    0    0  0.14358499550E+02  0.22041773176E+02 -0.25763829001E+02  0.36820933704E+02  0.00000000000E+00 0. -1.
         11    1    4    4    0    0  0.30377840681E+01  0.55536370371E+01  0.11932973745E+01  0.64416593569E+01  0.51100000000E-03 0. -1.
        -11    1    4    4    0    0 -0.39291856528E+01 -0.20804165962E+02  0.25095815716E+02  0.32833698969E+02  0.51100000000E-03 0.  1.
        -12    1    4    4    0    0 -0.13467097965E+02 -0.67912442507E+01 -0.52528408899E+00  0.15091707970E+02  0.00000000000E+00 0.  1.
</event>
<event>
 8    1  0.3137106E-007  0.9118800E+02  0.7816164E-02  0.1184000E+00
        -11   -1    0    0    0    0  0.00000000000E+00  0.00000000000E+00  0.45593999997E+02  0.45594000000E+02  0.51100000000E-03 0.  1.
         11   -1    0    0    0    0 -0.00000000000E+00 -0.00000000000E+00 -0.45593999997E+02  0.45594000000E+02  0.51100000000E-03 0. -1.
         23    2    1    2    0    0 -0.88817841970E-15  0.44408920985E-15  0.00000000000E+00  0.91188000000E+02  0.91188000000E+02 0.  0.
    9900012    2    3    3    0    0 -0.20763487803E+01  0.29364467591E+01  0.36644862460E+02  0.54367083545E+02  0.39999998559E+02 0.  0.
         12    1    3    3    0    0  0.20763487803E+01 -0.29364467591E+01 -0.36644862460E+02  0.36820916455E+02  0.00000000000E+00 0. -1.
         11    1    4    4    0    0  0.43953098167E+01  0.88531659357E+01 -0.26643775726E+01  0.10237001689E+02  0.51100000000E-03 0. -1.
        -11    1    4    4    0    0  0.16657247347E+01  0.34901800955E+01  0.24441861388E+02  0.24745920560E+02  0.51100000000E-03 0.  1.
         12    1    4    4    0    0 -0.81373833317E+01 -0.94068992721E+01  0.14867378645E+02  0.19384161296E+02  0.00000000000E+00 0. -1.
</event>
<event>
 8    1  0.3137106E-007  0.9118800E+02  0.7816164E-02  0.1184000E+00
        -11   -1    0    0    0    0  0.00000000000E+00  0.00000000000E+00  0.45593999997E+02  0.45594000000E+02  0.51100000000E-03 0. -1.
         11   -1    0    0    0    0 -0.00000000000E+00 -0.00000000000E+00 -0.45593999997E+02  0.45594000000E+02  0.51100000000E-03 0.  1.
         23    2    1    2    0    0 -0.71054273576E-14  0.17763568394E-14 -0.35527136788E-14  0.91188000000E+02  0.91188000000E+02 0.  0.
    9900012    2    3    3    0    0 -0.27809195657E+02  0.94017231864E+01 -0.22227223463E+02  0.54366902449E+02  0.39999585711E+02 0.  0.
         12    1    3    3    0    0  0.27809195657E+02 -0.94017231864E+01  0.22227223463E+02  0.36821097551E+02  0.00000000000E+00 0. -1.
         11    1    4    4    0    0 -0.14342301912E+02  0.61332803118E+01 -0.26995656353E+02  0.31178265085E+02  0.51100000000E-03 0. -1.
        -11    1    4    4    0    0 -0.17467312899E+02 -0.28089392770E-01  0.42655953648E+01  0.17980631607E+02  0.51100000000E-03 0.  1.
         12    1    4    4    0    0  0.40004191533E+01  0.32965322674E+01  0.50283752517E+00  0.52080057574E+01  0.00000000000E+00 0. -1.
</event>
<event>
 8    1  0.3137106E-007  0.9118800E+02  0.7816164E-02  0.1184000E+00
        -11   -1    0    0    0    0  0.00000000000E+00  0.00000000000E+00  0.45593999997E+02  0.45594000000E+02  0.51100000000E-03 0. -1.
         11   -1    0    0    0    0 -0.00000000000E+00 -0.00000000000E+00 -0.45593999997E+02  0.45594000000E+02  0.51100000000E-03 0.  1.
         23    2    1    2    0    0 -0.35527136788E-14  0.00000000000E+00  0.00000000000E+00  0.91188000000E+02  0.91188000000E+02 0.  0.
    9900012    2    3    3    0    0 -0.26246717465E+02 -0.20119556033E+02 -0.16189279183E+02  0.54367089187E+02  0.40000011419E+02 0.  0.
        -12    1    3    3    0    0  0.26246717465E+02  0.20119556033E+02  0.16189279183E+02  0.36820910813E+02  0.00000000000E+00 0.  1.
         11    1    4    4    0    0 -0.12396637473E+02 -0.83993246142E+01 -0.44737867175E+01  0.15628181035E+02  0.51100000000E-03 0. -1.
        -11    1    4    4    0    0 -0.20795381625E+02 -0.17385017508E+02 -0.12283177474E+02  0.29758413596E+02  0.51100000000E-03 0.  1.
        -12    1    4    4    0    0  0.69453016322E+01  0.56647860890E+01  0.56768500847E+00  0.89804945557E+01  0.00000000000E+00 0.  1.
</event>
<event>
 8    1  0.3137106E-007  0.9118800E+02  0.7816164E-02  0.1184000E+00
        -11   -1    0    0    0    0  0.00000000000E+00  0.00000000000E+00  0.45593999997E+02  0.45594000000E+02  0.51100000000E-03 0.  1.
         11   -1    0    0    0    0 -0.00000000000E+00 -0.00000000000E+00 -0.45593999997E+02  0.45594000000E+02  0.51100000000E-03 0. -1.
         23    2    1    2    0    0  0.00000000000E+00  0.00000000000E+00  0.00000000000E+00  0.91188000000E+02  0.91188000000E+02 0.  0.
    9900012    2    3    3    0    0  0.89823005102E+01  0.31580265058E+02  0.16666884285E+02  0.54367083453E+02  0.39999998347E+02 0.  0.
        -12    1    3    3    0    0 -0.89823005102E+01 -0.31580265058E+02 -0.16666884285E+02  0.36820916547E+02  0.00000000000E+00 0.  1.
         11    1    4    4    0    0  0.83262842992E+00  0.22781946069E+01 -0.53192511771E+01  0.58461845776E+01  0.51100000000E-03 0. -1.
        -11    1    4    4    0    0 -0.10348800964E+02  0.44326372136E+01  0.10709756647E+02  0.15538495480E+02  0.51100000000E-03 0.  1.
         12    1    4    4    0    0  0.18498473045E+02  0.24869433238E+02  0.11276378815E+02  0.32982403395E+02  0.00000000000E+00 0. -1.
</event>
<event>
 8    1  0.3137106E-007  0.9118800E+02  0.7816164E-02  0.1184000E+00
        -11   -1    0    0    0    0  0.00000000000E+00  0.00000000000E+00  0.45593999997E+02  0.45594000000E+02  0.51100000000E-03 0. -1.
         11   -1    0    0    0    0 -0.00000000000E+00 -0.00000000000E+00 -0.45593999997E+02  0.45594000000E+02  0.51100000000E-03 0.  1.
         23    2    1    2    0    0 -0.17763568394E-14  0.35527136788E-14  0.00000000000E+00  0.91188000000E+02  0.91188000000E+02 0.  0.
    9900012    2    3    3    0    0  0.15075228827E+02  0.31053192994E+02  0.12814397526E+02  0.54367189264E+02  0.40000239564E+02 0.  0.
         12    1    3    3    0    0 -0.15075228827E+02 -0.31053192994E+02 -0.12814397526E+02  0.36820810736E+02  0.00000000000E+00 0. -1.
         11    1    4    4    0    0 -0.71861709642E+01  0.15847217509E+02 -0.31347935866E+01  0.17680562406E+02  0.51100000000E-03 0. -1.
        -11    1    4    4    0    0  0.73912706001E+01  0.14415406996E+02  0.14471570142E+02  0.21722365952E+02  0.51100000000E-03 0.  1.
         12    1    4    4    0    0  0.14870129192E+02  0.79056848881E+00  0.14776209706E+01  0.14964260905E+02  0.00000000000E+00 0. -1.
</event>
<event>
 8    1  0.3137106E-007  0.9118800E+02  0.7816164E-02  0.1184000E+00
        -11   -1    0    0    0    0  0.00000000000E+00  0.00000000000E+00  0.45593999997E+02  0.45594000000E+02  0.51100000000E-03 0.  1.
         11   -1    0    0    0    0 -0.00000000000E+00 -0.00000000000E+00 -0.45593999997E+02  0.45594000000E+02  0.51100000000E-03 0. -1.
         23    2    1    2    0    0  0.00000000000E+00  0.00000000000E+00  0.00000000000E+00  0.91188000000E+02  0.91188000000E+02 0.  0.
    9900012    2    3    3    0    0  0.12580117131E+02 -0.19724777468E+02 -0.28433306955E+02  0.54367093743E+02  0.40000021807E+02 0.  0.
        -12    1    3    3    0    0 -0.12580117131E+02  0.19724777468E+02  0.28433306955E+02  0.36820906257E+02  0.00000000000E+00 0.  1.
         11    1    4    4    0    0 -0.53837752124E+01 -0.16312133389E+02 -0.40395585881E+01  0.17646211069E+02  0.51100000000E-03 0.  1.
        -11    1    4    4    0    0  0.78670815942E+01 -0.10274319979E+02 -0.19849029343E+02  0.23694653194E+02  0.51100000000E-03 0. -1.
         12    1    4    4    0    0  0.10096810749E+02  0.68616759007E+01 -0.45447190232E+01  0.13026229480E+02  0.00000000000E+00 0. -1.
</event>
<event>
 8    1  0.3137106E-007  0.9118800E+02  0.7816164E-02  0.1184000E+00
        -11   -1    0    0    0    0  0.00000000000E+00  0.00000000000E+00  0.45593999997E+02  0.45594000000E+02  0.51100000000E-03 0.  1.
         11   -1    0    0    0    0 -0.00000000000E+00 -0.00000000000E+00 -0.45593999997E+02  0.45594000000E+02  0.51100000000E-03 0. -1.
         23    2    1    2    0    0 -0.35527136788E-14 -0.35527136788E-14 -0.35527136788E-14  0.91188000000E+02  0.91188000000E+02 0.  0.
    9900012    2    3    3    0    0  0.17472805681E+02 -0.22650591404E+02 -0.23182581442E+02  0.54367077800E+02  0.39999985462E+02 0.  0.
        -12    1    3    3    0    0 -0.17472805681E+02  0.22650591404E+02  0.23182581442E+02  0.36820922200E+02  0.00000000000E+00 0.  1.
         11    1    4    4    0    0  0.10281856724E+00 -0.19825721036E+02 -0.73108144504E+01  0.21130967665E+02  0.51100000000E-03 0. -1.
        -11    1    4    4    0    0 -0.34717359013E+01  0.54488641060E+01 -0.56885067804E+01  0.86082623023E+01  0.51100000000E-03 0.  1.
         12    1    4    4    0    0  0.20841723015E+02 -0.82737344739E+01 -0.10183260211E+02  0.24627847833E+02  0.00000000000E+00 0. -1.
</event>
<event>
 8    1  0.3137106E-007  0.9118800E+02  0.7816164E-02  0.1184000E+00
        -11   -1    0    0    0    0  0.00000000000E+00  0.00000000000E+00  0.45593999997E+02  0.45594000000E+02  0.51100000000E-03 0.  1.
         11   -1    0    0    0    0 -0.00000000000E+00 -0.00000000000E+00 -0.45593999997E+02  0.45594000000E+02  0.51100000000E-03 0. -1.
         23    2    1    2    0    0  0.35527136788E-14 -0.17763568394E-14  0.35527136788E-14  0.91188000000E+02  0.91188000000E+02 0.  0.
    9900012    2    3    3    0    0 -0.19525424101E+02  0.60819502905E+01 -0.30619394556E+02  0.54367087075E+02  0.40000006605E+02 0.  0.
        -12    1    3    3    0    0  0.19525424101E+02 -0.60819502905E+01  0.30619394556E+02  0.36820912925E+02  0.00000000000E+00 0.  1.
         11    1    4    4    0    0  0.79931918107E+01  0.37831386295E+01 -0.81303420471E+01  0.12012731383E+02  0.51100000000E-03 0. -1.
        -11    1    4    4    0    0 -0.81781853329E+01 -0.82538747818E+01 -0.11394244823E+01  0.11675078272E+02  0.51100000000E-03 0.  1.
         12    1    4    4    0    0 -0.19340430578E+02  0.10552686443E+02 -0.21349628027E+02  0.30679277420E+02  0.00000000000E+00 0. -1.
</event>
<event>
 8    1  0.3137106E-007  0.9118800E+02  0.7816164E-02  0.1184000E+00
        -11   -1    0    0    0    0  0.00000000000E+00  0.00000000000E+00  0.45593999997E+02  0.45594000000E+02  0.51100000000E-03 0.  1.
         11   -1    0    0    0    0 -0.00000000000E+00 -0.00000000000E+00 -0.45593999997E+02  0.45594000000E+02  0.51100000000E-03 0. -1.
         23    2    1    2    0    0  0.00000000000E+00  0.00000000000E+00  0.00000000000E+00  0.91188000000E+02  0.91188000000E+02 0.  0.
    9900012    2    3    3    0    0 -0.30518429891E+02  0.10592778808E+02 -0.17668938666E+02  0.54367178180E+02  0.40000214297E+02 0.  0.
        -12    1    3    3    0    0  0.30518429891E+02 -0.10592778808E+02  0.17668938666E+02  0.36820821820E+02  0.00000000000E+00 0.  1.
         11    1    4    4    0    0 -0.18255086328E+01  0.14374048184E+02  0.55879728491E+01  0.15529687176E+02  0.51100000000E-03 0. -1.
        -11    1    4    4    0    0 -0.91069081652E+01 -0.31309561033E+01 -0.18335117841E+01  0.98030825852E+01  0.51100000000E-03 0.  1.
         12    1    4    4    0    0 -0.19586013093E+02 -0.65031327214E+00 -0.21423399731E+02  0.29034408419E+02  0.00000000000E+00 0. -1.
</event>
<event>
 8    1  0.3137106E-007  0.9118800E+02  0.7816164E-02  0.1184000E+00
        -11   -1    0    0    0    0  0.00000000000E+00  0.00000000000E+00  0.45593999997E+02  0.45594000000E+02  0.51100000000E-03 0.  1.
         11   -1    0    0    0    0 -0.00000000000E+00 -0.00000000000E+00 -0.45593999997E+02  0.45594000000E+02  0.51100000000E-03 0. -1.
         23    2    1    2    0    0 -0.35527136788E-14  0.00000000000E+00  0.00000000000E+00  0.91188000000E+02  0.91188000000E+02 0.  0.
    9900012    2    3    3    0    0 -0.30937397679E+02 -0.91801081743E+01  0.17730443480E+02  0.54367277747E+02  0.40000441278E+02 0.  0.
         12    1    3    3    0    0  0.30937397679E+02  0.91801081743E+01 -0.17730443480E+02  0.36820722253E+02  0.00000000000E+00 0. -1.
         11    1    4    4    0    0 -0.42000495899E+01  0.30450009688E+01  0.14348987721E+02  0.15257978121E+02  0.51100000000E-03 0.  1.
        -11    1    4    4    0    0 -0.12150845056E+02 -0.12118781662E+02 -0.95292865013E+01  0.19629447421E+02  0.51100000000E-03 0. -1.
         12    1    4    4    0    0 -0.14586503033E+02 -0.10632748119E+00  0.12910742260E+02  0.19479852206E+02  0.00000000000E+00 0. -1.
</event>
<event>
 8    1  0.3137106E-007  0.9118800E+02  0.7816164E-02  0.1184000E+00
        -11   -1    0    0    0    0  0.00000000000E+00  0.00000000000E+00  0.45593999997E+02  0.45594000000E+02  0.51100000000E-03 0. -1.
         11   -1    0    0    0    0 -0.00000000000E+00 -0.00000000000E+00 -0.45593999997E+02  0.45594000000E+02  0.51100000000E-03 0.  1.
         23    2    1    2    0    0 -0.71054273576E-14 -0.17763568394E-14 -0.26645352591E-14  0.91188000000E+02  0.91188000000E+02 0.  0.
    9900012    2    3    3    0    0  0.36165376240E+02 -0.11054210965E+01  0.68282778308E+01  0.54367057963E+02  0.39999940239E+02 0.  0.
        -12    1    3    3    0    0 -0.36165376240E+02  0.11054210965E+01 -0.68282778308E+01  0.36820942037E+02  0.00000000000E+00 0.  1.
         11    1    4    4    0    0  0.29567400025E+01  0.77425696632E+01  0.10354191961E+02  0.13262691576E+02  0.51100000000E-03 0. -1.
        -11    1    4    4    0    0  0.12327564784E+02  0.70303400747E+01  0.18960693989E+01  0.14317458381E+02  0.51100000000E-03 0.  1.
        -12    1    4    4    0    0  0.20881071453E+02 -0.15878330834E+02 -0.54219835288E+01  0.26786908006E+02  0.00000000000E+00 0.  1.
</event>
<event>
 8    1  0.3137106E-007  0.9118800E+02  0.7816164E-02  0.1184000E+00
        -11   -1    0    0    0    0  0.00000000000E+00  0.00000000000E+00  0.45593999997E+02  0.45594000000E+02  0.51100000000E-03 0.  1.
         11   -1    0    0    0    0 -0.00000000000E+00 -0.00000000000E+00 -0.45593999997E+02  0.45594000000E+02  0.51100000000E-03 0. -1.
         23    2    1    2    0    0  0.44408920985E-15  0.00000000000E+00 -0.11102230246E-14  0.91188000000E+02  0.91188000000E+02 0.  0.
    9900012    2    3    3    0    0 -0.95306133642E+00  0.36773783001E+02  0.16001974850E+01  0.54367081026E+02  0.39999992815E+02 0.  0.
        -12    1    3    3    0    0  0.95306133642E+00 -0.36773783001E+02 -0.16001974850E+01  0.36820918974E+02  0.00000000000E+00 0.  1.
         11    1    4    4    0    0 -0.14864357458E+01  0.12873347535E+02 -0.15690015812E+02  0.20349672342E+02  0.51100000000E-03 0. -1.
        -11    1    4    4    0    0  0.79015514285E+01  0.79808593147E+01  0.36918365107E+01  0.11821940935E+02  0.51100000000E-03 0.  1.
         12    1    4    4    0    0 -0.73681770191E+01  0.15919576151E+02  0.13598376786E+02  0.22195467750E+02  0.00000000000E+00 0. -1.
</event>
<event>
 8    1  0.3137106E-007  0.9118800E+02  0.7816164E-02  0.1184000E+00
        -11   -1    0    0    0    0  0.00000000000E+00  0.00000000000E+00  0.45593999997E+02  0.45594000000E+02  0.51100000000E-03 0. -1.
         11   -1    0    0    0    0 -0.00000000000E+00 -0.00000000000E+00 -0.45593999997E+02  0.45594000000E+02  0.51100000000E-03 0.  1.
         23    2    1    2    0    0  0.00000000000E+00  0.00000000000E+00  0.00000000000E+00  0.91188000000E+02  0.91188000000E+02 0.  0.
    9900012    2    3    3    0    0 -0.33822686913E+02 -0.38339734657E+01 -0.14039590378E+02  0.54367033139E+02  0.39999883648E+02 0.  0.
         12    1    3    3    0    0  0.33822686913E+02  0.38339734657E+01  0.14039590378E+02  0.36820966861E+02  0.00000000000E+00 0. -1.
         11    1    4    4    0    0 -0.29050791869E+01  0.19421846312E+00 -0.10360055574E+02  0.10761410580E+02  0.51100000000E-03 0. -1.
        -11    1    4    4    0    0 -0.53410358968E+01 -0.57668994684E+01 -0.13931601713E+02  0.15996040775E+02  0.51100000000E-03 0.  1.
         12    1    4    4    0    0 -0.25576571829E+02  0.17387075396E+01  0.10252066909E+02  0.27609581785E+02  0.00000000000E+00 0. -1.
</event>
<event>
 8    1  0.3137106E-007  0.9118800E+02  0.7816164E-02  0.1184000E+00
        -11   -1    0    0    0    0  0.00000000000E+00  0.00000000000E+00  0.45593999997E+02  0.45594000000E+02  0.51100000000E-03 0.  1.
         11   -1    0    0    0    0 -0.00000000000E+00 -0.00000000000E+00 -0.45593999997E+02  0.45594000000E+02  0.51100000000E-03 0. -1.
         23    2    1    2    0    0  0.00000000000E+00  0.00000000000E+00  0.35527136788E-14  0.91188000000E+02  0.91188000000E+02 0.  0.
    9900012    2    3    3    0    0 -0.24839200463E+02 -0.10300448068E+02 -0.25153413706E+02  0.54367091115E+02  0.40000015814E+02 0.  0.
        -12    1    3    3    0    0  0.24839200463E+02  0.10300448068E+02  0.25153413706E+02  0.36820908885E+02  0.00000000000E+00 0.  1.
         11    1    4    4    0    0 -0.53825536504E+01 -0.44846809126E+01 -0.14460643652E+02  0.16068430594E+02  0.51100000000E-03 0. -1.
        -11    1    4    4    0    0 -0.77095997330E+01 -0.18030650563E+02 -0.78128028607E+01  0.21108817508E+02  0.51100000000E-03 0.  1.
        -12    1    4    4    0    0 -0.11747047080E+02  0.12214883407E+02 -0.28799671941E+01  0.17189843012E+02  0.00000000000E+00 0.  1.
</event>
<event>
 8    1  0.3137106E-007  0.9118800E+02  0.7816164E-02  0.1184000E+00
        -11   -1    0    0    0    0  0.00000000000E+00  0.00000000000E+00  0.45593999997E+02  0.45594000000E+02  0.51100000000E-03 0.  1.
         11   -1    0    0    0    0 -0.00000000000E+00 -0.00000000000E+00 -0.45593999997E+02  0.45594000000E+02  0.51100000000E-03 0. -1.
         23    2    1    2    0    0  0.88817841970E-15  0.77715611724E-15  0.00000000000E+00  0.91188000000E+02  0.91188000000E+02 0.  0.
    9900012    2    3    3    0    0 -0.22397371355E+01  0.61849735324E+00  0.36747540893E+02  0.54367072213E+02  0.39999972725E+02 0.  0.
         12    1    3    3    0    0  0.22397371355E+01 -0.61849735324E+00 -0.36747540893E+02  0.36820927787E+02  0.00000000000E+00 0. -1.
         11    1    4    4    0    0 -0.13647059273E+02  0.25340106552E+01  0.44111142776E+01  0.14564386915E+02  0.51100000000E-03 0. -1.
        -11    1    4    4    0    0  0.35497682731E+01  0.20759302266E+01 -0.18422478612E+01  0.45060202554E+01  0.51100000000E-03 0.  1.
        -12    1    4    4    0    0  0.78575538640E+01 -0.39914435286E+01  0.34178674476E+02  0.35296665043E+02  0.00000000000E+00 0.  1.
</event>
<event>
 8    1  0.3137106E-007  0.9118800E+02  0.7816164E-02  0.1184000E+00
        -11   -1    0    0    0    0  0.00000000000E+00  0.00000000000E+00  0.45593999997E+02  0.45594000000E+02  0.51100000000E-03 0.  1.
         11   -1    0    0    0    0 -0.00000000000E+00 -0.00000000000E+00 -0.45593999997E+02  0.45594000000E+02  0.51100000000E-03 0. -1.
         23    2    1    2    0    0  0.00000000000E+00 -0.88817841970E-15  0.71054273576E-14  0.91188000000E+02  0.91188000000E+02 0.  0.
    9900012    2    3    3    0    0  0.13163902345E+02  0.37098716984E+01  0.34186671517E+02  0.54367082272E+02  0.39999995655E+02 0.  0.
         12    1    3    3    0    0 -0.13163902345E+02 -0.37098716984E+01 -0.34186671517E+02  0.36820917728E+02  0.00000000000E+00 0. -1.
         11    1    4    4    0    0  0.10988810149E+02  0.78225477279E+01  0.33803543810E+01  0.13905861982E+02  0.51100000000E-03 0. -1.
        -11    1    4    4    0    0 -0.21571954364E+01 -0.13631513578E+02  0.95859204720E+01  0.16803616460E+02  0.51100000000E-03 0.  1.
         12    1    4    4    0    0  0.43322876318E+01  0.95188375490E+01  0.21220396664E+02  0.23657603830E+02  0.00000000000E+00 0. -1.
</event>
<event>
 8    1  0.3137106E-007  0.9118800E+02  0.7816164E-02  0.1184000E+00
        -11   -1    0    0    0    0  0.00000000000E+00  0.00000000000E+00  0.45593999997E+02  0.45594000000E+02  0.51100000000E-03 0.  1.
         11   -1    0    0    0    0 -0.00000000000E+00 -0.00000000000E+00 -0.45593999997E+02  0.45594000000E+02  0.51100000000E-03 0. -1.
         23    2    1    2    0    0  0.35527136788E-14 -0.35527136788E-14  0.35527136788E-14  0.91188000000E+02  0.91188000000E+02 0.  0.
    9900012    2    3    3    0    0  0.26395360335E+02 -0.16273083284E+02  0.19855770549E+02  0.54367083242E+02  0.39999997866E+02 0.  0.
         12    1    3    3    0    0 -0.26395360335E+02  0.16273083284E+02 -0.19855770549E+02  0.36820916758E+02  0.00000000000E+00 0. -1.
         11    1    4    4    0    0  0.13016945755E+02 -0.12101366515E+02  0.14282975468E+02  0.22801038065E+02  0.51100000000E-03 0. -1.
        -11    1    4    4    0    0  0.88046566804E+01  0.49695387416E+01 -0.91545524160E+01  0.13639066125E+02  0.51100000000E-03 0.  1.
        -12    1    4    4    0    0  0.45737578996E+01 -0.91412555110E+01  0.14727347497E+02  0.17926979052E+02  0.00000000000E+00 0.  1.
</event>
<event>
 8    1  0.3137106E-007  0.9118800E+02  0.7816164E-02  0.1184000E+00
        -11   -1    0    0    0    0  0.00000000000E+00  0.00000000000E+00  0.45593999997E+02  0.45594000000E+02  0.51100000000E-03 0. -1.
         11   -1    0    0    0    0 -0.00000000000E+00 -0.00000000000E+00 -0.45593999997E+02  0.45594000000E+02  0.51100000000E-03 0.  1.
         23    2    1    2    0    0  0.10658141036E-13  0.00000000000E+00  0.00000000000E+00  0.91188000000E+02  0.91188000000E+02 0.  0.
    9900012    2    3    3    0    0  0.23675767278E+02 -0.24500342385E+02  0.13963154936E+02  0.54367103366E+02  0.40000043743E+02 0.  0.
        -12    1    3    3    0    0 -0.23675767278E+02  0.24500342385E+02 -0.13963154936E+02  0.36820896634E+02  0.00000000000E+00 0.  1.
         11    1    4    4    0    0  0.15808747036E+02 -0.10924268292E+02 -0.18840532597E+01  0.19308179031E+02  0.51100000000E-03 0. -1.
        -11    1    4    4    0    0  0.17501245180E+02 -0.45861553303E+01  0.89062022732E+01  0.20165486425E+02  0.51100000000E-03 0.  1.
        -12    1    4    4    0    0 -0.96342249387E+01 -0.89899187631E+01  0.69410059229E+01  0.14893437909E+02  0.00000000000E+00 0.  1.
</event>
<event>
 8    1  0.3137106E-007  0.9118800E+02  0.7816164E-02  0.1184000E+00
        -11   -1    0    0    0    0  0.00000000000E+00  0.00000000000E+00  0.45593999997E+02  0.45594000000E+02  0.51100000000E-03 0.  1.
         11   -1    0    0    0    0 -0.00000000000E+00 -0.00000000000E+00 -0.45593999997E+02  0.45594000000E+02  0.51100000000E-03 0. -1.
         23    2    1    2    0    0  0.00000000000E+00 -0.35527136788E-14  0.35527136788E-14  0.91188000000E+02  0.91188000000E+02 0.  0.
    9900012    2    3    3    0    0 -0.34252401826E+02 -0.64810938800E+01  0.11855304411E+02  0.54367084050E+02  0.39999999709E+02 0.  0.
        -12    1    3    3    0    0  0.34252401826E+02  0.64810938800E+01 -0.11855304411E+02  0.36820915950E+02  0.00000000000E+00 0.  1.
         11    1    4    4    0    0 -0.57044876041E+01 -0.19187051637E+02  0.10632346280E+02  0.22665632950E+02  0.51100000000E-03 0.  1.
        -11    1    4    4    0    0 -0.68121774686E+01  0.33474123144E+01  0.25294745059E+01  0.80005732672E+01  0.51100000000E-03 0. -1.
        -12    1    4    4    0    0 -0.21735736753E+02  0.93585454428E+01 -0.13065163750E+01  0.23700877833E+02  0.00000000000E+00 0.  1.
</event>
<event>
 8    1  0.3137106E-007  0.9118800E+02  0.7816164E-02  0.1184000E+00
        -11   -1    0    0    0    0  0.00000000000E+00  0.00000000000E+00  0.45593999997E+02  0.45594000000E+02  0.51100000000E-03 0.  1.
         11   -1    0    0    0    0 -0.00000000000E+00 -0.00000000000E+00 -0.45593999997E+02  0.45594000000E+02  0.51100000000E-03 0. -1.
         23    2    1    2    0    0  0.00000000000E+00  0.00000000000E+00  0.00000000000E+00  0.91188000000E+02  0.91188000000E+02 0.  0.
    9900012    2    3    3    0    0 -0.11754290857E+02  0.94208858321E+01 -0.33598309757E+02  0.54367314754E+02  0.40000525642E+02 0.  0.
        -12    1    3    3    0    0  0.11754290857E+02 -0.94208858321E+01  0.33598309757E+02  0.36820685246E+02  0.00000000000E+00 0.  1.
         11    1    4    4    0    0  0.21930021576E+00 -0.69705645549E+01 -0.35420720736E+01  0.78219650750E+01  0.51100000000E-03 0. -1.
        -11    1    4    4    0    0  0.78599747123E+00  0.34954993320E+01  0.55372550716E+01  0.65952635727E+01  0.51100000000E-03 0.  1.
         12    1    4    4    0    0 -0.12759588544E+02  0.12895951055E+02 -0.35593492755E+02  0.39950086107E+02  0.00000000000E+00 0. -1.
</event>
<event>
 8    1  0.3137106E-007  0.9118800E+02  0.7816164E-02  0.1184000E+00
        -11   -1    0    0    0    0  0.00000000000E+00  0.00000000000E+00  0.45593999997E+02  0.45594000000E+02  0.51100000000E-03 0. -1.
         11   -1    0    0    0    0 -0.00000000000E+00 -0.00000000000E+00 -0.45593999997E+02  0.45594000000E+02  0.51100000000E-03 0.  1.
         23    2    1    2    0    0  0.35527136788E-14  0.00000000000E+00  0.00000000000E+00  0.91188000000E+02  0.91188000000E+02 0.  0.
    9900012    2    3    3    0    0 -0.19466811750E+02  0.15135848277E+02 -0.27344642142E+02  0.54367080448E+02  0.39999991497E+02 0.  0.
         12    1    3    3    0    0  0.19466811750E+02 -0.15135848277E+02  0.27344642142E+02  0.36820919552E+02  0.00000000000E+00 0. -1.
         11    1    4    4    0    0 -0.59402914233E+01 -0.38445046650E+01  0.33194428828E+00  0.70836054086E+01  0.51100000000E-03 0. -1.
        -11    1    4    4    0    0  0.95973811752E+01  0.89005190975E+01 -0.10228287840E+02  0.16611647662E+02  0.51100000000E-03 0.  1.
         12    1    4    4    0    0 -0.23123901502E+02  0.10079833844E+02 -0.17448298590E+02  0.30671827378E+02  0.00000000000E+00 0. -1.
</event>
<event>
 8    1  0.3137106E-007  0.9118800E+02  0.7816164E-02  0.1184000E+00
        -11   -1    0    0    0    0  0.00000000000E+00  0.00000000000E+00  0.45593999997E+02  0.45594000000E+02  0.51100000000E-03 0.  1.
         11   -1    0    0    0    0 -0.00000000000E+00 -0.00000000000E+00 -0.45593999997E+02  0.45594000000E+02  0.51100000000E-03 0. -1.
         23    2    1    2    0    0  0.35527136788E-14  0.35527136788E-14  0.00000000000E+00  0.91188000000E+02  0.91188000000E+02 0.  0.
    9900012    2    3    3    0    0 -0.31162162835E+02 -0.10530749739E+02 -0.16546967565E+02  0.54367092648E+02  0.40000019311E+02 0.  0.
         12    1    3    3    0    0  0.31162162835E+02  0.10530749739E+02  0.16546967565E+02  0.36820907352E+02  0.00000000000E+00 0. -1.
         11    1    4    4    0    0 -0.26763457786E+02 -0.19737625424E+02 -0.17354897766E+02  0.37510651911E+02  0.51100000000E-03 0. -1.
        -11    1    4    4    0    0 -0.25187115914E+01 -0.61833511013E+00  0.52924694186E+01  0.58937661301E+01  0.51100000000E-03 0.  1.
         12    1    4    4    0    0 -0.18799934575E+01  0.98252107947E+01 -0.44845392172E+01  0.10962674608E+02  0.00000000000E+00 0. -1.
</event>
<event>
 8    1  0.3137106E-007  0.9118800E+02  0.7816164E-02  0.1184000E+00
        -11   -1    0    0    0    0  0.00000000000E+00  0.00000000000E+00  0.45593999997E+02  0.45594000000E+02  0.51100000000E-03 0.  1.
         11   -1    0    0    0    0 -0.00000000000E+00 -0.00000000000E+00 -0.45593999997E+02  0.45594000000E+02  0.51100000000E-03 0. -1.
         23    2    1    2    0    0 -0.10547118734E-14 -0.88817841970E-15  0.14210854715E-13  0.91188000000E+02  0.91188000000E+02 0.  0.
    9900012    2    3    3    0    0  0.22715246913E+00  0.40569677159E+01 -0.36596021403E+02  0.54367090616E+02  0.40000014678E+02 0.  0.
        -12    1    3    3    0    0 -0.22715246913E+00 -0.40569677159E+01  0.36596021403E+02  0.36820909384E+02  0.00000000000E+00 0.  1.
         11    1    4    4    0    0 -0.54821224521E+01 -0.11048772564E+02 -0.10906043495E+02  0.16464228701E+02  0.51100000000E-03 0.  1.
        -11    1    4    4    0    0  0.92517651077E+01  0.11112223434E+02 -0.28434925936E+02  0.31900183080E+02  0.51100000000E-03 0. -1.
        -12    1    4    4    0    0 -0.35424901865E+01  0.39935168460E+01  0.27449480280E+01  0.60026788351E+01  0.00000000000E+00 0.  1.
</event>
<event>
 8    1  0.3137106E-007  0.9118800E+02  0.7816164E-02  0.1184000E+00
        -11   -1    0    0    0    0  0.00000000000E+00  0.00000000000E+00  0.45593999997E+02  0.45594000000E+02  0.51100000000E-03 0. -1.
         11   -1    0    0    0    0 -0.00000000000E+00 -0.00000000000E+00 -0.45593999997E+02  0.45594000000E+02  0.51100000000E-03 0.  1.
         23    2    1    2    0    0 -0.35527136788E-14 -0.71054273576E-14  0.44408920985E-15  0.91188000000E+02  0.91188000000E+02 0.  0.
    9900012    2    3    3    0    0  0.26194024381E+02  0.25775985574E+02  0.22915022641E+01  0.54367091154E+02  0.40000015904E+02 0.  0.
        -12    1    3    3    0    0 -0.26194024381E+02 -0.25775985574E+02 -0.22915022641E+01  0.36820908846E+02  0.00000000000E+00 0.  1.
         11    1    4    4    0    0 -0.82462949684E+01  0.14707893662E+01  0.51686837720E+01  0.98427584681E+01  0.51100000000E-03 0. -1.
        -11    1    4    4    0    0  0.30152006978E+02  0.23333561832E+02 -0.66849755323E+01  0.38707719265E+02  0.51100000000E-03 0.  1.
         12    1    4    4    0    0  0.42883123716E+01  0.97163437549E+00  0.38077940245E+01  0.58166134210E+01  0.00000000000E+00 0. -1.
</event>
<event>
 8    1  0.3137106E-007  0.9118800E+02  0.7816164E-02  0.1184000E+00
        -11   -1    0    0    0    0  0.00000000000E+00  0.00000000000E+00  0.45593999997E+02  0.45594000000E+02  0.51100000000E-03 0.  1.
         11   -1    0    0    0    0 -0.00000000000E+00 -0.00000000000E+00 -0.45593999997E+02  0.45594000000E+02  0.51100000000E-03 0. -1.
         23    2    1    2    0    0  0.00000000000E+00  0.00000000000E+00  0.00000000000E+00  0.91188000000E+02  0.91188000000E+02 0.  0.
    9900012    2    3    3    0    0 -0.29338467645E+01 -0.58974668825E+01 -0.36226976229E+02  0.54367063304E+02  0.39999952414E+02 0.  0.
        -12    1    3    3    0    0  0.29338467645E+01  0.58974668825E+01  0.36226976229E+02  0.36820936696E+02  0.00000000000E+00 0.  1.
         11    1    4    4    0    0 -0.85147606706E+01 -0.14774728893E+02 -0.20144307751E+02  0.26392932732E+02  0.51100000000E-03 0. -1.
        -11    1    4    4    0    0 -0.17759070165E+01  0.91321647223E+01 -0.18091803180E+02  0.20343638338E+02  0.51100000000E-03 0.  1.
        -12    1    4    4    0    0  0.73568209225E+01 -0.25490271140E+00  0.20091347026E+01  0.76304922339E+01  0.00000000000E+00 0.  1.
</event>
<event>
 8    1  0.3137106E-007  0.9118800E+02  0.7816164E-02  0.1184000E+00
        -11   -1    0    0    0    0  0.00000000000E+00  0.00000000000E+00  0.45593999997E+02  0.45594000000E+02  0.51100000000E-03 0.  1.
         11   -1    0    0    0    0 -0.00000000000E+00 -0.00000000000E+00 -0.45593999997E+02  0.45594000000E+02  0.51100000000E-03 0. -1.
         23    2    1    2    0    0  0.00000000000E+00 -0.88817841970E-15  0.35527136788E-14  0.91188000000E+02  0.91188000000E+02 0.  0.
    9900012    2    3    3    0    0 -0.17795062261E+02  0.49478120999E+01  0.31853333727E+02  0.54367082644E+02  0.39999996502E+02 0.  0.
         12    1    3    3    0    0  0.17795062261E+02 -0.49478120999E+01 -0.31853333727E+02  0.36820917356E+02  0.00000000000E+00 0. -1.
         11    1    4    4    0    0 -0.58743524399E+01  0.76579485334E+01 -0.59633821405E+01  0.11345224508E+02  0.51100000000E-03 0. -1.
        -11    1    4    4    0    0 -0.10129343922E+01  0.62733114808E+01  0.12778050657E+02  0.14270916294E+02  0.51100000000E-03 0.  1.
         12    1    4    4    0    0 -0.10907775429E+02 -0.89834479142E+01  0.25038665211E+02  0.28750941841E+02  0.00000000000E+00 0. -1.
</event>
<event>
 8    1  0.3137106E-007  0.9118800E+02  0.7816164E-02  0.1184000E+00
        -11   -1    0    0    0    0  0.00000000000E+00  0.00000000000E+00  0.45593999997E+02  0.45594000000E+02  0.51100000000E-03 0. -1.
         11   -1    0    0    0    0 -0.00000000000E+00 -0.00000000000E+00 -0.45593999997E+02  0.45594000000E+02  0.51100000000E-03 0.  1.
         23    2    1    2    0    0  0.00000000000E+00  0.77715611724E-15  0.00000000000E+00  0.91188000000E+02  0.91188000000E+02 0.  0.
    9900012    2    3    3    0    0 -0.31670209044E+02 -0.12581769386E+00  0.18781925885E+02  0.54367099536E+02  0.40000035013E+02 0.  0.
        -12    1    3    3    0    0  0.31670209044E+02  0.12581769386E+00 -0.18781925885E+02  0.36820900464E+02  0.00000000000E+00 0.  1.
         11    1    4    4    0    0 -0.11877068022E+02  0.20514481205E+01 -0.10334544497E+01  0.12097157209E+02  0.51100000000E-03 0. -1.
        -11    1    4    4    0    0 -0.14017345146E+02  0.14155007212E+02  0.12082848069E+02  0.23299043153E+02  0.51100000000E-03 0.  1.
        -12    1    4    4    0    0 -0.57757958764E+01 -0.16332273027E+02  0.77325322663E+01  0.18970899174E+02  0.00000000000E+00 0.  1.
</event>
<event>
 8    1  0.3137106E-007  0.9118800E+02  0.7816164E-02  0.1184000E+00
        -11   -1    0    0    0    0  0.00000000000E+00  0.00000000000E+00  0.45593999997E+02  0.45594000000E+02  0.51100000000E-03 0.  1.
         11   -1    0    0    0    0 -0.00000000000E+00 -0.00000000000E+00 -0.45593999997E+02  0.45594000000E+02  0.51100000000E-03 0. -1.
         23    2    1    2    0    0 -0.88817841970E-15  0.77715611724E-15  0.00000000000E+00  0.91188000000E+02  0.91188000000E+02 0.  0.
    9900012    2    3    3    0    0 -0.42729883042E+01  0.47874468863E+00  0.36569014038E+02  0.54367076420E+02  0.39999982315E+02 0.  0.
         12    1    3    3    0    0  0.42729883042E+01 -0.47874468863E+00 -0.36569014038E+02  0.36820923580E+02  0.00000000000E+00 0. -1.
         11    1    4    4    0    0 -0.40016424257E+01  0.91856514203E+01  0.10932122452E+02  0.14829047026E+02  0.51100000000E-03 0.  1.
        -11    1    4    4    0    0 -0.49849705864E+01 -0.84914080027E+01 -0.31723430490E+01  0.10344936070E+02  0.51100000000E-03 0. -1.
         12    1    4    4    0    0  0.47136247079E+01 -0.21549872897E+00  0.28809234635E+02  0.29193093324E+02  0.00000000000E+00 0. -1.
</event>
<event>
 8    1  0.3137106E-007  0.9118800E+02  0.7816164E-02  0.1184000E+00
        -11   -1    0    0    0    0  0.00000000000E+00  0.00000000000E+00  0.45593999997E+02  0.45594000000E+02  0.51100000000E-03 0.  1.
         11   -1    0    0    0    0 -0.00000000000E+00 -0.00000000000E+00 -0.45593999997E+02  0.45594000000E+02  0.51100000000E-03 0. -1.
         23    2    1    2    0    0  0.00000000000E+00  0.00000000000E+00  0.35527136788E-14  0.91188000000E+02  0.91188000000E+02 0.  0.
    9900012    2    3    3    0    0  0.16444482149E+02  0.17890011786E+02  0.27664176622E+02  0.54367079547E+02  0.39999989444E+02 0.  0.
         12    1    3    3    0    0 -0.16444482149E+02 -0.17890011786E+02 -0.27664176622E+02  0.36820920453E+02  0.00000000000E+00 0. -1.
         11    1    4    4    0    0 -0.52541382499E+01  0.16380753459E+02  0.47019426558E+01  0.17833769025E+02  0.51100000000E-03 0. -1.
        -11    1    4    4    0    0  0.10768898615E+02  0.91140149800E+01  0.70075207894E+01  0.15752453596E+02  0.51100000000E-03 0.  1.
         12    1    4    4    0    0  0.10929721784E+02 -0.76047566532E+01  0.15954713177E+02  0.20780856926E+02  0.00000000000E+00 0. -1.
</event>
<event>
 8    1  0.3137106E-007  0.9118800E+02  0.7816164E-02  0.1184000E+00
        -11   -1    0    0    0    0  0.00000000000E+00  0.00000000000E+00  0.45593999997E+02  0.45594000000E+02  0.51100000000E-03 0.  1.
         11   -1    0    0    0    0 -0.00000000000E+00 -0.00000000000E+00 -0.45593999997E+02  0.45594000000E+02  0.51100000000E-03 0. -1.
         23    2    1    2    0    0 -0.17763568394E-14  0.00000000000E+00  0.00000000000E+00  0.91188000000E+02  0.91188000000E+02 0.  0.
    9900012    2    3    3    0    0 -0.10644561092E+02  0.95012375250E+01 -0.33944071462E+02  0.54367079550E+02  0.39999989450E+02 0.  0.
        -12    1    3    3    0    0  0.10644561092E+02 -0.95012375250E+01  0.33944071462E+02  0.36820920450E+02  0.00000000000E+00 0.  1.
         11    1    4    4    0    0  0.63806853912E+01  0.97847398469E+00  0.60460692310E+00  0.64835258304E+01  0.51100000000E-03 0.  1.
        -11    1    4    4    0    0 -0.13735253740E+02  0.12179325721E+02 -0.37776198982E+02  0.42000409285E+02  0.51100000000E-03 0. -1.
         12    1    4    4    0    0 -0.32899927434E+01 -0.36565621807E+01  0.32275205968E+01  0.58831444344E+01  0.00000000000E+00 0. -1.
</event>
<event>
 8    1  0.3137106E-007  0.9118800E+02  0.7816164E-02  0.1184000E+00
        -11   -1    0    0    0    0  0.00000000000E+00  0.00000000000E+00  0.45593999997E+02  0.45594000000E+02  0.51100000000E-03 0.  1.
         11   -1    0    0    0    0 -0.00000000000E+00 -0.00000000000E+00 -0.45593999997E+02  0.45594000000E+02  0.51100000000E-03 0. -1.
         23    2    1    2    0    0  0.35527136788E-14 -0.11657341759E-14  0.35527136788E-14  0.91188000000E+02  0.91188000000E+02 0.  0.
    9900012    2    3    3    0    0 -0.29027059650E+02  0.33179518875E+00 -0.22651691073E+02  0.54367090337E+02  0.40000014041E+02 0.  0.
        -12    1    3    3    0    0  0.29027059650E+02 -0.33179518875E+00  0.22651691073E+02  0.36820909663E+02  0.00000000000E+00 0.  1.
         11    1    4    4    0    0 -0.14246548230E+01 -0.10574597377E+02 -0.10448787686E+02  0.14934152652E+02  0.51100000000E-03 0. -1.
        -11    1    4    4    0    0 -0.25956253418E+02  0.22831738468E+01 -0.22378094196E+01  0.26152395026E+02  0.51100000000E-03 0.  1.
        -12    1    4    4    0    0 -0.16461514085E+01  0.86232187192E+01 -0.99650939677E+01  0.13280542659E+02  0.00000000000E+00 0.  1.
</event>
<event>
 8    1  0.3137106E-007  0.9118800E+02  0.7816164E-02  0.1184000E+00
        -11   -1    0    0    0    0  0.00000000000E+00  0.00000000000E+00  0.45593999997E+02  0.45594000000E+02  0.51100000000E-03 0.  1.
         11   -1    0    0    0    0 -0.00000000000E+00 -0.00000000000E+00 -0.45593999997E+02  0.45594000000E+02  0.51100000000E-03 0. -1.
         23    2    1    2    0    0 -0.88817841970E-15 -0.71054273576E-14  0.00000000000E+00  0.91188000000E+02  0.91188000000E+02 0.  0.
    9900012    2    3    3    0    0 -0.78083358272E+01  0.34817314756E+02  0.90867306029E+01  0.54367025159E+02  0.39999865454E+02 0.  0.
         12    1    3    3    0    0  0.78083358272E+01 -0.34817314756E+02 -0.90867306029E+01  0.36820974841E+02  0.00000000000E+00 0. -1.
         11    1    4    4    0    0  0.90616552050E+01  0.23820578765E+02 -0.30189031929E+01  0.25664125633E+02  0.51100000000E-03 0. -1.
        -11    1    4    4    0    0 -0.11161231859E+02  0.11172296595E+02  0.53714629466E+00  0.15801323812E+02  0.51100000000E-03 0.  1.
         12    1    4    4    0    0 -0.57087591736E+01 -0.17556060395E+00  0.11568487501E+02  0.12901575714E+02  0.00000000000E+00 0. -1.
</event>
<event>
 8    1  0.3137106E-007  0.9118800E+02  0.7816164E-02  0.1184000E+00
        -11   -1    0    0    0    0  0.00000000000E+00  0.00000000000E+00  0.45593999997E+02  0.45594000000E+02  0.51100000000E-03 0.  1.
         11   -1    0    0    0    0 -0.00000000000E+00 -0.00000000000E+00 -0.45593999997E+02  0.45594000000E+02  0.51100000000E-03 0. -1.
         23    2    1    2    0    0 -0.22204460493E-15  0.17763568394E-14  0.00000000000E+00  0.91188000000E+02  0.91188000000E+02 0.  0.
    9900012    2    3    3    0    0  0.11081373261E+01  0.15269947635E+02  0.33487026426E+02  0.54367079208E+02  0.39999988670E+02 0.  0.
         12    1    3    3    0    0 -0.11081373261E+01 -0.15269947635E+02 -0.33487026426E+02  0.36820920792E+02  0.00000000000E+00 0. -1.
         11    1    4    4    0    0 -0.64026924062E+00  0.24315089267E+01 -0.49127848361E+01  0.55188436713E+01  0.51100000000E-03 0. -1.
        -11    1    4    4    0    0 -0.89656843181E+01  0.13788040893E+02  0.12052973645E+02  0.20390383540E+02  0.51100000000E-03 0.  1.
         12    1    4    4    0    0  0.10714090885E+02 -0.94960218453E+00  0.26346837617E+02  0.28457851996E+02  0.00000000000E+00 0. -1.
</event>
<event>
 8    1  0.3137106E-007  0.9118800E+02  0.7816164E-02  0.1184000E+00
        -11   -1    0    0    0    0  0.00000000000E+00  0.00000000000E+00  0.45593999997E+02  0.45594000000E+02  0.51100000000E-03 0. -1.
         11   -1    0    0    0    0 -0.00000000000E+00 -0.00000000000E+00 -0.45593999997E+02  0.45594000000E+02  0.51100000000E-03 0.  1.
         23    2    1    2    0    0 -0.17763568394E-14 -0.71054273576E-14  0.00000000000E+00  0.91188000000E+02  0.91188000000E+02 0.  0.
    9900012    2    3    3    0    0  0.74121603477E+01 -0.29302580604E+02 -0.21028510451E+02  0.54367087425E+02  0.40000007403E+02 0.  0.
         12    1    3    3    0    0 -0.74121603477E+01  0.29302580604E+02  0.21028510451E+02  0.36820912575E+02  0.00000000000E+00 0. -1.
         11    1    4    4    0    0  0.12997349141E+02 -0.25787935996E+02 -0.92729661657E+01  0.30330457125E+02  0.51100000000E-03 0. -1.
        -11    1    4    4    0    0  0.29528235892E+01 -0.29804197819E+01 -0.14466545128E+02  0.15062635806E+02  0.51100000000E-03 0.  1.
         12    1    4    4    0    0 -0.85380123824E+01 -0.53422482628E+00  0.27110008432E+01  0.89739944940E+01  0.00000000000E+00 0. -1.
</event>
<event>
 8    1  0.3137106E-007  0.9118800E+02  0.7816164E-02  0.1184000E+00
        -11   -1    0    0    0    0  0.00000000000E+00  0.00000000000E+00  0.45593999997E+02  0.45594000000E+02  0.51100000000E-03 0.  1.
         11   -1    0    0    0    0 -0.00000000000E+00 -0.00000000000E+00 -0.45593999997E+02  0.45594000000E+02  0.51100000000E-03 0. -1.
         23    2    1    2    0    0 -0.88817841970E-15  0.88817841970E-15  0.00000000000E+00  0.91188000000E+02  0.91188000000E+02 0.  0.
    9900012    2    3    3    0    0  0.24277132319E+01  0.18742697957E+01 -0.36692949717E+02  0.54367092383E+02  0.40000018705E+02 0.  0.
        -12    1    3    3    0    0 -0.24277132319E+01 -0.18742697957E+01  0.36692949717E+02  0.36820907617E+02  0.00000000000E+00 0.  1.
         11    1    4    4    0    0 -0.51734486480E+01  0.84135793652E+01 -0.24218492516E+01  0.10169476029E+02  0.51100000000E-03 0. -1.
        -11    1    4    4    0    0  0.24490089977E+01 -0.98893497821E+01 -0.85809273233E+00  0.10224148257E+02  0.51100000000E-03 0.  1.
         12    1    4    4    0    0  0.51521528822E+01  0.33500402126E+01 -0.33413007733E+02  0.33973468097E+02  0.00000000000E+00 0. -1.
</event>
<event>
 8    1  0.3137106E-007  0.9118800E+02  0.7816164E-02  0.1184000E+00
        -11   -1    0    0    0    0  0.00000000000E+00  0.00000000000E+00  0.45593999997E+02  0.45594000000E+02  0.51100000000E-03 0.  1.
         11   -1    0    0    0    0 -0.00000000000E+00 -0.00000000000E+00 -0.45593999997E+02  0.45594000000E+02  0.51100000000E-03 0. -1.
         23    2    1    2    0    0  0.00000000000E+00  0.00000000000E+00 -0.88817841970E-15  0.91188000000E+02  0.91188000000E+02 0.  0.
    9900012    2    3    3    0    0  0.26823396336E+02  0.24353154459E+02  0.65732423791E+01  0.54367105953E+02  0.40000049640E+02 0.  0.
         12    1    3    3    0    0 -0.26823396336E+02 -0.24353154459E+02 -0.65732423791E+01  0.36820894047E+02  0.00000000000E+00 0. -1.
         11    1    4    4    0    0  0.29168891154E+01 -0.57682138856E+00 -0.70878391976E+01  0.76862493960E+01  0.51100000000E-03 0. -1.
        -11    1    4    4    0    0  0.21375584376E+02  0.49327756803E+01  0.14847011246E+02  0.26489273801E+02  0.51100000000E-03 0.  1.
        -12    1    4    4    0    0  0.25309228444E+01  0.19997200167E+02 -0.11859296696E+01  0.20191582755E+02  0.00000000000E+00 0.  1.
</event>
<event>
 8    1  0.3137106E-007  0.9118800E+02  0.7816164E-02  0.1184000E+00
        -11   -1    0    0    0    0  0.00000000000E+00  0.00000000000E+00  0.45593999997E+02  0.45594000000E+02  0.51100000000E-03 0. -1.
         11   -1    0    0    0    0 -0.00000000000E+00 -0.00000000000E+00 -0.45593999997E+02  0.45594000000E+02  0.51100000000E-03 0.  1.
         23    2    1    2    0    0 -0.17763568394E-14  0.88817841970E-15 -0.71054273576E-14  0.91188000000E+02  0.91188000000E+02 0.  0.
    9900012    2    3    3    0    0  0.11506295141E+02 -0.19518193507E+01  0.34922405667E+02  0.54367097727E+02  0.40000030888E+02 0.  0.
        -12    1    3    3    0    0 -0.11506295141E+02  0.19518193507E+01 -0.34922405667E+02  0.36820902273E+02  0.00000000000E+00 0.  1.
         11    1    4    4    0    0  0.11260089304E+01  0.73882253841E+01 -0.35620418393E+01  0.82790043341E+01  0.51100000000E-03 0. -1.
        -11    1    4    4    0    0 -0.41285802300E+01  0.29170422295E+01  0.15320391070E+02  0.16132845158E+02  0.51100000000E-03 0.  1.
         12    1    4    4    0    0  0.14508866441E+02 -0.12257086964E+02  0.23164056436E+02  0.29955248235E+02  0.00000000000E+00 0. -1.
</event>
<event>
 8    1  0.3137106E-007  0.9118800E+02  0.7816164E-02  0.1184000E+00
        -11   -1    0    0    0    0  0.00000000000E+00  0.00000000000E+00  0.45593999997E+02  0.45594000000E+02  0.51100000000E-03 0. -1.
         11   -1    0    0    0    0 -0.00000000000E+00 -0.00000000000E+00 -0.45593999997E+02  0.45594000000E+02  0.51100000000E-03 0.  1.
         23    2    1    2    0    0  0.35527136788E-14 -0.17763568394E-14  0.00000000000E+00  0.91188000000E+02  0.91188000000E+02 0.  0.
    9900012    2    3    3    0    0  0.24039163495E+02 -0.12986917396E+02  0.24682711177E+02  0.54367114133E+02  0.40000068288E+02 0.  0.
        -12    1    3    3    0    0 -0.24039163495E+02  0.12986917396E+02 -0.24682711177E+02  0.36820885867E+02  0.00000000000E+00 0.  1.
         11    1    4    4    0    0  0.26812976619E+01  0.89548088229E+01 -0.19737465995E+01  0.95537235728E+01  0.51100000000E-03 0. -1.
        -11    1    4    4    0    0 -0.24719283306E+01 -0.72562616547E+01  0.85147343831E+01  0.11457070513E+02  0.51100000000E-03 0.  1.
         12    1    4    4    0    0  0.23829794164E+02 -0.14685464564E+02  0.18141723394E+02  0.33356320046E+02  0.00000000000E+00 0. -1.
</event>
<event>
 8    1  0.3137106E-007  0.9118800E+02  0.7816164E-02  0.1184000E+00
        -11   -1    0    0    0    0  0.00000000000E+00  0.00000000000E+00  0.45593999997E+02  0.45594000000E+02  0.51100000000E-03 0.  1.
         11   -1    0    0    0    0 -0.00000000000E+00 -0.00000000000E+00 -0.45593999997E+02  0.45594000000E+02  0.51100000000E-03 0. -1.
         23    2    1    2    0    0  0.00000000000E+00 -0.35527136788E-14  0.88817841970E-15  0.91188000000E+02  0.91188000000E+02 0.  0.
    9900012    2    3    3    0    0  0.34718346225E+02 -0.10125094964E+02  0.69208960266E+01  0.54367083194E+02  0.39999997756E+02 0.  0.
        -12    1    3    3    0    0 -0.34718346225E+02  0.10125094964E+02 -0.69208960266E+01  0.36820916806E+02  0.00000000000E+00 0.  1.
         11    1    4    4    0    0  0.89071849780E+01  0.77764958272E+01 -0.35042555574E+01  0.12332543892E+02  0.51100000000E-03 0.  1.
        -11    1    4    4    0    0  0.11075967487E+02 -0.21761574876E+02  0.11022066967E+02  0.26790467658E+02  0.51100000000E-03 0. -1.
         12    1    4    4    0    0  0.14735193760E+02  0.38599840850E+01 -0.59691538255E+00  0.15244071643E+02  0.00000000000E+00 0. -1.
</event>
<event>
 8    1  0.3137106E-007  0.9118800E+02  0.7816164E-02  0.1184000E+00
        -11   -1    0    0    0    0  0.00000000000E+00  0.00000000000E+00  0.45593999997E+02  0.45594000000E+02  0.51100000000E-03 0. -1.
         11   -1    0    0    0    0 -0.00000000000E+00 -0.00000000000E+00 -0.45593999997E+02  0.45594000000E+02  0.51100000000E-03 0.  1.
         23    2    1    2    0    0  0.35527136788E-14  0.71054273576E-14  0.00000000000E+00  0.91188000000E+02  0.91188000000E+02 0.  0.
    9900012    2    3    3    0    0 -0.20057140751E+02 -0.29557800702E+02 -0.89345887861E+01  0.54367090802E+02  0.40000015101E+02 0.  0.
         12    1    3    3    0    0  0.20057140751E+02  0.29557800702E+02  0.89345887861E+01  0.36820909198E+02  0.00000000000E+00 0. -1.
         11    1    4    4    0    0 -0.55998673736E+01  0.30174091121E+01  0.33692476200E+01  0.71982707741E+01  0.51100000000E-03 0. -1.
        -11    1    4    4    0    0 -0.21256305918E+02 -0.32311887957E+02 -0.96251341368E+01  0.39856390354E+02  0.51100000000E-03 0.  1.
         12    1    4    4    0    0  0.67990325406E+01 -0.26332185691E+00 -0.26787022693E+01  0.73124296739E+01  0.00000000000E+00 0. -1.
</event>
<event>
 8    1  0.3137106E-007  0.9118800E+02  0.7816164E-02  0.1184000E+00
        -11   -1    0    0    0    0  0.00000000000E+00  0.00000000000E+00  0.45593999997E+02  0.45594000000E+02  0.51100000000E-03 0.  1.
         11   -1    0    0    0    0 -0.00000000000E+00 -0.00000000000E+00 -0.45593999997E+02  0.45594000000E+02  0.51100000000E-03 0. -1.
         23    2    1    2    0    0 -0.71054273576E-14  0.00000000000E+00  0.35527136788E-14  0.91188000000E+02  0.91188000000E+02 0.  0.
    9900012    2    3    3    0    0 -0.27627248484E+02 -0.10748216693E+02 -0.21840113867E+02  0.54367087536E+02  0.40000007657E+02 0.  0.
        -12    1    3    3    0    0  0.27627248484E+02  0.10748216693E+02  0.21840113867E+02  0.36820912464E+02  0.00000000000E+00 0.  1.
         11    1    4    4    0    0 -0.32684430801E+02 -0.15264953257E+00 -0.24761494054E+02  0.41005205849E+02  0.51100000000E-03 0. -1.
        -11    1    4    4    0    0  0.86530119819E+00 -0.61998723385E+01 -0.68590110410E+00  0.62974299332E+01  0.51100000000E-03 0.  1.
        -12    1    4    4    0    0  0.41918811186E+01 -0.43956948223E+01  0.36072812903E+01  0.70644517545E+01  0.00000000000E+00 0.  1.
</event>
<event>
 8    1  0.3137106E-007  0.9118800E+02  0.7816164E-02  0.1184000E+00
        -11   -1    0    0    0    0  0.00000000000E+00  0.00000000000E+00  0.45593999997E+02  0.45594000000E+02  0.51100000000E-03 0.  1.
         11   -1    0    0    0    0 -0.00000000000E+00 -0.00000000000E+00 -0.45593999997E+02  0.45594000000E+02  0.51100000000E-03 0. -1.
         23    2    1    2    0    0  0.00000000000E+00  0.00000000000E+00  0.00000000000E+00  0.91188000000E+02  0.91188000000E+02 0.  0.
    9900012    2    3    3    0    0  0.13369725192E+02  0.24633101291E+01 -0.34219313627E+02  0.54367097327E+02  0.40000029977E+02 0.  0.
        -12    1    3    3    0    0 -0.13369725192E+02 -0.24633101291E+01  0.34219313627E+02  0.36820902673E+02  0.00000000000E+00 0.  1.
         11    1    4    4    0    0 -0.78540394347E+01  0.11672096338E+00 -0.28888148557E+02  0.29937011984E+02  0.51100000000E-03 0. -1.
        -11    1    4    4    0    0  0.49056102598E+01 -0.38677911339E+01 -0.28210917321E+00  0.62533515912E+01  0.51100000000E-03 0.  1.
        -12    1    4    4    0    0  0.16318154367E+02  0.62143802996E+01 -0.50490558977E+01  0.18176733752E+02  0.00000000000E+00 0.  1.
</event>
