<LesHouchesEvents version="3.0">
<header>
<!--
#*********************************************************************
#                                                                    *
#                        MadGraph5_aMC@NLO                           *
#                                                                    *
#                           Going Beyond                             *
#                                                                    *
#                   http://madgraph.hep.uiuc.edu                     *
#                   http://madgraph.phys.ucl.ac.be                   *
#                   http://amcatnlo.cern.ch                          *
#                                                                    *
#                     The MadGraph5_aMC@NLO team                     *
#                                                                    *
#....................................................................*
#                                                                    *
# This file contains all the information necessary to reproduce      *
# the events generated:                                              *
#                                                                    *
# 1. software version                                                *
# 2. proc_card          : code generation info including model       *
# 3. param_card         : model primary parameters in the LH format  *
# 4. run_card           : running parameters (collider and cuts)     *
# 5. pythia_card        : present only if pythia has been run        *
# 6. pgs_card           : present only if pgs has been run           *
# 7. delphes_cards      : present only if delphes has been run       *
#                                                                    *
#                                                                    *
#*********************************************************************
-->
<MGVersion>
2.6.7
</MGVersion>
<MG5ProcCard>
<![CDATA[
#************************************************************
#*                     MadGraph5_aMC@NLO                    *
#*                                                          *
#*                *                       *                 *
#*                  *        * *        *                   *
#*                    * * * * 5 * * * *                     *
#*                  *        * *        *                   *
#*                *                       *                 *
#*                                                          *
#*                                                          *
#*         VERSION 2.6.7                 2019-10-16         *
#*                                                          *
#*    The MadGraph5_aMC@NLO Development Team - Find us at   *
#*    https://server06.fynu.ucl.ac.be/projects/madgraph     *
#*                                                          *
#************************************************************
#*                                                          *
#*               Command File for MadGraph5_aMC@NLO         *
#*                                                          *
#*     run as ./bin/mg5_aMC  filename                       *
#*                                                          *
#************************************************************
set low_mem_multicore_nlo_generation False
set default_unset_couplings 99
set group_subprocesses Auto
set ignore_six_quark_processes False
set loop_optimized_output True
set loop_color_flows False
set gauge unitary
set complex_mass_scheme False
set max_npoint_for_channel 0
import model sm
define p = g u c d s u~ c~ d~ s~
define j = g u c d s u~ c~ d~ s~
define l+ = e+ mu+
define l- = e- mu-
define vl = ve vm vt
define vl~ = ve~ vm~ vt~
import model SM_HeavyN_Dirac_CKM_Masses_LO
define e = e+ e-
define nue = ve ve~
generate e+ e- > n1 ve~ , (n1 > z ve, z > e+ e-)
add process e+ e- > n1~ ve , (n1~ > z ve~, z > e+ e-)
add process e+ e- > n1 ve~ , (n1 > e+ e- ve)
add process e+ e- > n1~ ve , (n1~ > e+ e- ve~)
output HNL_Dirac_50GeV_1e-3Ve
]]>
</MG5ProcCard>
<MGProcCard>
#*********************************************************************
#                        MadGraph/MadEvent                           *
#                   http://madgraph.hep.uiuc.edu                     *
#                                                                    *
#                          proc_card.dat                             *
#*********************************************************************
#                                                                    *
#            This Files is generated by MADGRAPH 5                   *
#                                                                    *
# WARNING: This Files is generated for MADEVENT (compatibility issue)*
#          This files is NOT a valid MG4 proc_card.dat               *
#          Running this in MG4 will NEVER reproduce the result of MG5*
#                                                                    *
#*********************************************************************
#*********************************************************************
# Process(es) requested : mg2 input                                  *
#*********************************************************************
# Begin PROCESS # This is TAG. Do not modify this line
e+ e- > n1 ve~ , (n1 > z ve , z > e+ e-)           #Process
# Be carefull the coupling are here in MG5 convention
          
end_coup           # End the couplings input

done               # this tells MG there are no more procs
# End PROCESS  # This is TAG. Do not modify this line
#*********************************************************************
# Model information                                                  *
#*********************************************************************
# Begin MODEL  # This is TAG. Do not modify this line
SM_HeavyN_Dirac_CKM_Masses_LO
# End   MODEL  # This is TAG. Do not modify this line
#*********************************************************************
# Start multiparticle definitions                                    *
#*********************************************************************
# Begin MULTIPARTICLES # This is TAG. Do not modify this line

# End  MULTIPARTICLES # This is TAG. Do not modify this line
</MGProcCard>
<MGRunCard>
<![CDATA[
#*********************************************************************
#                       MadGraph5_aMC@NLO                            *
#                                                                    *
#                     run_card.dat MadEvent                          *
#                                                                    *
#  This file is used to set the parameters of the run.               *
#                                                                    *
#  Some notation/conventions:                                        *
#                                                                    *
#   Lines starting with a '# ' are info or comments                  *
#                                                                    *
#   mind the format:   value    = variable     ! comment             *
#                                                                    *
#   To display more options, you can type the command:               *
#      update full_run_card                                          *
#*********************************************************************
#
#*******************                                                 
# Running parameters
#*******************                                                 
#                                                                    
#*********************************************************************
# Tag name for the run (one word)                                    *
#*********************************************************************
  tag_1	= run_tag ! name of the run 
#*********************************************************************
# Number of events and rnd seed                                      *
# Warning: Do not generate more than 1M events in a single run       *
#*********************************************************************
  1000	= nevents ! Number of unweighted events requested 
 21 = iseed ! rnd seed (0=assigned automatically=default))
#*********************************************************************
# Collider type and energy                                           *
# lpp: 0=No PDF, 1=proton, -1=antiproton, 2=photon from proton,      *
#                                         3=photon from electron     *
#*********************************************************************
  0	= lpp1 ! beam 1 type 
  0	= lpp2 ! beam 2 type
  45.594	= ebeam1 ! beam 1 total energy in GeV
  45.594	= ebeam2 ! beam 2 total energy in GeV
#*********************************************************************
# Beam polarization from -100 (left-handed) to 100 (right-handed)    *
#*********************************************************************
  0.0	= polbeam1 ! beam polarization for beam 1
  0.0	= polbeam2 ! beam polarization for beam 2

#*********************************************************************
# PDF CHOICE: this automatically fixes also alpha_s and its evol.    *
#*********************************************************************
  nn23lo1	= pdlabel ! PDF set                                     
  230000	= lhaid ! if pdlabel=lhapdf, this is the lhapdf number
# To see heavy ion options: type "update ion_pdf"
#*********************************************************************
# Renormalization and factorization scales                           *
#*********************************************************************
  False	= fixed_ren_scale ! if .true. use fixed ren scale
  False	= fixed_fac_scale ! if .true. use fixed fac scale
  91.188	= scale ! fixed ren scale
  91.188	= dsqrt_q2fact1 ! fixed fact scale for pdf1
  91.188	= dsqrt_q2fact2 ! fixed fact scale for pdf2
  -1	= dynamical_scale_choice ! Choose one of the preselected dynamical choices
  1.0	= scalefact ! scale factor for event-by-event scales
#*********************************************************************
# Type and output format
#*********************************************************************
  False	= gridpack !True = setting up the grid pack
  0.0	= time_of_flight ! threshold (in mm) below which the invariant livetime is not written (-1 means not written)
  3.0	= lhe_version ! Change the way clustering information pass to shower.        
  True	= clusinfo ! include clustering tag in output
  average	= event_norm ! average/sum. Normalization of the weight in the LHEF

#*********************************************************************
# Matching parameter (MLM only)
#*********************************************************************
  0	= ickkw ! 0 no matching, 1 MLM
  1.0	= alpsfact ! scale factor for QCD emission vx
  False	= chcluster ! cluster only according to channel diag
  5	= asrwgtflavor ! highest quark flavor for a_s reweight
  True	= auto_ptj_mjj ! Automatic setting of ptj and mjj if xqcut >0
                                   ! (turn off for VBF and single top processes) 
  0.0	= xqcut ! minimum kt jet measure between partons
#*********************************************************************
#
#*********************************************************************
# handling of the helicities:
#  0: sum over all helicities
#  1: importance sampling over helicities
#*********************************************************************
  0	= nhel ! using helicities importance sampling or not.
#*********************************************************************
# Generation bias, check the wiki page below for more information:   *
#  'cp3.irmp.ucl.ac.be/projects/madgraph/wiki/LOEventGenerationBias' *
#*********************************************************************
  None	= bias_module ! Bias type of bias, [None, ptj_bias, -custom_folder-]
  {}	= bias_parameters ! Specifies the parameters of the module.
#
#*******************************                                                 
# Parton level cuts definition *
#*******************************                                     
#                                                                    
#
#*********************************************************************
# BW cutoff (M+/-bwcutoff*Gamma) ! Define on/off-shell for "$" and decay  
#*********************************************************************
  15.0	= bwcutoff ! (M+/-bwcutoff*Gamma)
#*********************************************************************
# Apply pt/E/eta/dr/mij/kt_durham cuts on decay products or not
# (note that etmiss/ptll/ptheavy/ht/sorted cuts always apply)
#*********************************************************************
  False	= cut_decays ! Cut decay products 
#*********************************************************************
# Standard Cuts                                                      *
#*********************************************************************
# Minimum and maximum pt's (for max, -1 means no cut)                *
#*********************************************************************
  0.0	= ptj ! minimum pt for the jets 
  0.0	= ptb ! minimum pt for the b 
  0.0	= pta ! minimum pt for the photons 
  0.0	= ptl ! minimum pt for the charged leptons 
  0.0	= misset ! minimum missing Et (sum of neutrino's momenta)
  -1.0	= ptjmax ! maximum pt for the jets
  -1.0	= ptbmax ! maximum pt for the b
  -1.0	= ptamax ! maximum pt for the photons
  -1.0	= ptlmax ! maximum pt for the charged leptons
  -1.0	= missetmax ! maximum missing Et (sum of neutrino's momenta)
  {}	= pt_min_pdg ! pt cut for other particles (use pdg code). Applied on particle and anti-particle
  {}	= pt_max_pdg ! pt cut for other particles (syntax e.g. {6: 100, 25: 50}) 
#*********************************************************************
# Minimum and maximum E's (in the center of mass frame)              *
#*********************************************************************
  0.0	= ej ! minimum E for the jets
  0.0	= eb ! minimum E for the b
  0.0	= ea ! minimum E for the photons
  0.0	= el ! minimum E for the charged leptons
  -1.0	= ejmax ! maximum E for the jets
  -1.0	= ebmax ! maximum E for the b
  -1.0	= eamax ! maximum E for the photons
  -1.0	= elmax ! maximum E for the charged leptons
  {}	= e_min_pdg ! E cut for other particles (use pdg code). Applied on particle and anti-particle
  {}	= e_max_pdg ! E cut for other particles (syntax e.g. {6: 100, 25: 50})

#*********************************************************************
# Maximum and minimum absolute rapidity (for max, -1 means no cut)   *
#*********************************************************************
  -1.0	= etaj ! max rap for the jets 
  -1.0	= etab ! max rap for the b
  -1.0	= etaa ! max rap for the photons 
  -1.0	= etal ! max rap for the charged leptons 
  0.0	= etajmin ! min rap for the jets
  0.0	= etabmin ! min rap for the b
  0.0	= etaamin ! min rap for the photons
  0.0	= etalmin ! main rap for the charged leptons
  {}	= eta_min_pdg ! rap cut for other particles (use pdg code). Applied on particle and anti-particle
  {}	= eta_max_pdg ! rap cut for other particles (syntax e.g. {6: 2.5, 23: 5})
#*********************************************************************
# Minimum and maximum DeltaR distance                                *
#*********************************************************************
  0.0	= drjj ! min distance between jets 
  0.0	= drbb ! min distance between b's 
  0.0	= drll ! min distance between leptons 
  0.0	= draa ! min distance between gammas 
  0.0	= drbj ! min distance between b and jet 
  0.0	= draj ! min distance between gamma and jet 
  0.0	= drjl ! min distance between jet and lepton 
  0.0	= drab ! min distance between gamma and b 
  0.0	= drbl ! min distance between b and lepton 
  0.0	= dral ! min distance between gamma and lepton 
  -1.0	= drjjmax ! max distance between jets
  -1.0	= drbbmax ! max distance between b's
  -1.0	= drllmax ! max distance between leptons
  -1.0	= draamax ! max distance between gammas
  -1.0	= drbjmax ! max distance between b and jet
  -1.0	= drajmax ! max distance between gamma and jet
  -1.0	= drjlmax ! max distance between jet and lepton
  -1.0	= drabmax ! max distance between gamma and b
  -1.0	= drblmax ! max distance between b and lepton
  -1.0	= dralmax ! maxdistance between gamma and lepton
#*********************************************************************
# Minimum and maximum invariant mass for pairs                       *
# WARNING: for four lepton final state mmll cut require to have      *
#          different lepton masses for each flavor!                  *           
#*********************************************************************
  0.0	= mmjj ! min invariant mass of a jet pair 
  0.0	= mmbb ! min invariant mass of a b pair 
  0.0	= mmaa ! min invariant mass of gamma gamma pair
  0.0	= mmll ! min invariant mass of l+l- (same flavour) lepton pair
  -1.0	= mmjjmax ! max invariant mass of a jet pair
  -1.0	= mmbbmax ! max invariant mass of a b pair
  -1.0	= mmaamax ! max invariant mass of gamma gamma pair
  -1.0	= mmllmax ! max invariant mass of l+l- (same flavour) lepton pair
  {}	= mxx_min_pdg ! min invariant mass of a pair of particles X/X~ (e.g. {6:250})
  {'default': False}	= mxx_only_part_antipart ! if True the invariant mass is applied only 
                       ! to pairs of particle/antiparticle and not to pairs of the same pdg codes.  
#*********************************************************************
# Minimum and maximum invariant mass for all letpons                 *
#*********************************************************************
  0.0	= mmnl ! min invariant mass for all letpons (l+- and vl) 
  -1.0	= mmnlmax ! max invariant mass for all letpons (l+- and vl) 
#*********************************************************************
# Minimum and maximum pt for 4-momenta sum of leptons                *
#*********************************************************************
  0.0	= ptllmin ! Minimum pt for 4-momenta sum of leptons(l and vl)
  -1.0	= ptllmax ! Maximum pt for 4-momenta sum of leptons(l and vl)
#*********************************************************************
# Inclusive cuts                                                     *
#*********************************************************************
  0.0	= ptheavy ! minimum pt for at least one heavy final state
  0.0	= xptj ! minimum pt for at least one jet  
  0.0	= xptb ! minimum pt for at least one b 
  0.0	= xpta ! minimum pt for at least one photon 
  0.0	= xptl ! minimum pt for at least one charged lepton 
#*********************************************************************
# Control the pt's of the jets sorted by pt                          *
#*********************************************************************
  0.0	= ptj1min ! minimum pt for the leading jet in pt
  0.0	= ptj2min ! minimum pt for the second jet in pt
  0.0	= ptj3min ! minimum pt for the third jet in pt
  0.0	= ptj4min ! minimum pt for the fourth jet in pt
  -1.0	= ptj1max ! maximum pt for the leading jet in pt 
  -1.0	= ptj2max ! maximum pt for the second jet in pt
  -1.0	= ptj3max ! maximum pt for the third jet in pt
  -1.0	= ptj4max ! maximum pt for the fourth jet in pt
  0	= cutuse ! reject event if fails any (0) / all (1) jet pt cuts
#*********************************************************************
# Control the pt's of leptons sorted by pt                           *
#*********************************************************************
  0.0	= ptl1min ! minimum pt for the leading lepton in pt
  0.0	= ptl2min ! minimum pt for the second lepton in pt
  0.0	= ptl3min ! minimum pt for the third lepton in pt
  0.0	= ptl4min ! minimum pt for the fourth lepton in pt
  -1.0	= ptl1max ! maximum pt for the leading lepton in pt 
  -1.0	= ptl2max ! maximum pt for the second lepton in pt
  -1.0	= ptl3max ! maximum pt for the third lepton in pt
  -1.0	= ptl4max ! maximum pt for the fourth lepton in pt
#*********************************************************************
# Control the Ht(k)=Sum of k leading jets                            *
#*********************************************************************
  0.0	= htjmin ! minimum jet HT=Sum(jet pt)
  -1.0	= htjmax ! maximum jet HT=Sum(jet pt)
  0.0	= ihtmin !inclusive Ht for all partons (including b)
  -1.0	= ihtmax !inclusive Ht for all partons (including b)
  0.0	= ht2min ! minimum Ht for the two leading jets
  0.0	= ht3min ! minimum Ht for the three leading jets
  0.0	= ht4min ! minimum Ht for the four leading jets
  -1.0	= ht2max ! maximum Ht for the two leading jets
  -1.0	= ht3max ! maximum Ht for the three leading jets
  -1.0	= ht4max ! maximum Ht for the four leading jets
#***********************************************************************
# Photon-isolation cuts, according to hep-ph/9801442                   *
# When ptgmin=0, all the other parameters are ignored                  *
# When ptgmin>0, pta and draj are not going to be used                 *
#***********************************************************************
  0.0	= ptgmin ! Min photon transverse momentum
  0.4	= r0gamma ! Radius of isolation code
  1.0	= xn ! n parameter of eq.(3.4) in hep-ph/9801442
  1.0	= epsgamma ! epsilon_gamma parameter of eq.(3.4) in hep-ph/9801442
  True	= isoem ! isolate photons from EM energy (photons and leptons)
#*********************************************************************
# WBF cuts                                                           *
#*********************************************************************
  0.0	= xetamin ! minimum rapidity for two jets in the WBF case  
  -1.0	= deltaeta ! minimum rapidity for two jets in the WBF case 
#***********************************************************************
# Turn on either the ktdurham or ptlund cut to activate                *
# CKKW(L) merging with Pythia8 [arXiv:1410.3012, arXiv:1109.4829]      *
#***********************************************************************
  0.0	= ktdurham 
  0.0	= dparameter 
  0.0	= ptlund 
  1, 2, 3, 4, 5, 6, 21	= pdgs_for_merging_cut ! PDGs for two cuts above   
#*********************************************************************
# maximal pdg code for quark to be considered as a light jet         *
# (otherwise b cuts are applied)                                     *
#*********************************************************************
  4	= maxjetflavor ! Maximum jet pdg code
#*********************************************************************
#
#*********************************************************************
# Store info for systematics studies                                 *
# WARNING: Do not use for interference type of computation           *
#*********************************************************************
  False	= use_syst ! Enable systematics studies
#
  systematics	= systematics_program ! none, systematics [python], SysCalc [depreceted, C++]
['--mur=0.5,1,2', '--muf=0.5,1,2', '--pdf=errorset'] = systematics_arguments ! see: https://cp3.irmp.ucl.ac.be/projects/madgraph/wiki/Systematics#Systematicspythonmodule
# Syscalc is deprecated but to see the associate options type'update syscalc'#********************************************************************* 
#  Additional hidden parameters
#*********************************************************************
  ['--mur=0.5,1,2', '--muf=0.5,1,2', '--pdf=errorset']	= systematics_arguments # Choose the argment to pass to the systematics command. like --mur=0.25,1,4. Look at the help of the systematics function for more details.
]]>
</MGRunCard>
<slha>
######################################################################
## PARAM_CARD AUTOMATICALY GENERATED BY MG5                       ####
######################################################################
###################################
## INFORMATION FOR CKMBLOCK
###################################
BLOCK CKMBLOCK # 
      1 2.275910e-01 # cabi
      2 3.508000e-03 # th13
      3 4.153900e-02 # th23
      4 1.200000e+00 # del13
###################################
## INFORMATION FOR MASS
###################################
BLOCK MASS # 
      1 5.040000e-03 # md
      2 2.550000e-03 # mu
      3 1.010000e-01 # ms
      4 1.270000e+00 # mc
      5 4.700000e+00 # mb
      6 1.733000e+02 # mt
      11 5.110000e-04 # me
      13 1.056600e-01 # mmu
      15 1.777000e+00 # mta
      23 9.118760e+01 # mz
      25 1.257000e+02 # mh
      9990012 5.000000e+01 # mn1
      9990014 1.000000e+04 # mn2
      9990016 1.000000e+04 # mn3
      12 0.000000e+00 # ve : 0.0
      14 0.000000e+00 # vm : 0.0
      16 0.000000e+00 # vt : 0.0
      21 0.000000e+00 # g : 0.0
      22 0.000000e+00 # a : 0.0
      24 7.995123e+01 # w+ : cmath.sqrt(mz__exp__2/2. + cmath.sqrt(mz__exp__4/4. - (aew*cmath.pi*mz__exp__2)/(gf*sqrt__2)))
###################################
## INFORMATION FOR NUMIXING
###################################
BLOCK NUMIXING # 
      1 1.000000e-03 # ven1
      2 0.000000e+00 # ven2
      3 0.000000e+00 # ven3
      4 0.000000e+00 # vmun1
      5 1.000000e+00 # vmun2
      6 0.000000e+00 # vmun3
      7 0.000000e+00 # vtan1
      8 0.000000e+00 # vtan2
      9 1.000000e+00 # vtan3
###################################
## INFORMATION FOR SMINPUTS
###################################
BLOCK SMINPUTS # 
      1 1.279400e+02 # aewm1
      2 1.174560e-05 # gf
      3 1.184000e-01 # as
###################################
## INFORMATION FOR YUKAWA
###################################
BLOCK YUKAWA # 
      1 5.040000e-03 # ymdo
      2 2.550000e-03 # ymup
      3 1.010000e-01 # yms
      4 1.270000e+00 # ymc
      5 4.700000e+00 # ymb
      6 1.733000e+02 # ymt
      11 5.110000e-04 # yme
      13 1.056600e-01 # ymm
      15 1.777000e+00 # ymtau
###################################
## INFORMATION FOR DECAY
###################################
BLOCK QNUMBERS 9990012 #   n1
      1 0 # 3 times electric charge
      2 2 # number of spin states (2s+1)
      3 1 # colour rep (1: singlet, 3: triplet, 8: octet)
      4 1 # particle/antiparticle distinction (0=own anti)
###################################
## INFORMATION FOR QNUMBERS 9990014
###################################
BLOCK QNUMBERS 9990014 #   n2
      1 0 # 3 times electric charge
      2 2 # number of spin states (2s+1)
      3 1 # colour rep (1: singlet, 3: triplet, 8: octet)
      4 1 # particle/antiparticle distinction (0=own anti)
###################################
## INFORMATION FOR QNUMBERS 9990016
###################################
BLOCK QNUMBERS 9990016 #   n3
      1 0 # 3 times electric charge
      2 2 # number of spin states (2s+1)
      3 1 # colour rep (1: singlet, 3: triplet, 8: octet)
      4 1 # particle/antiparticle distinction (0=own anti)
#
#*************************
#      Decay widths      *
#*************************
#
#      PDG        Width
DECAY  1   0.000000e+00
#
#      PDG        Width
DECAY  2   0.000000e+00
#
#      PDG        Width
DECAY  3   0.000000e+00
#
#      PDG        Width
DECAY  4   0.000000e+00
#
#      PDG        Width
DECAY  5   0.000000e+00
#
#      PDG        Width
DECAY  6   1.350000e+00
#
#      PDG        Width
DECAY  11   0.000000e+00
#
#      PDG        Width
DECAY  12   0.000000e+00
#
#      PDG        Width
DECAY  13   0.000000e+00
#
#      PDG        Width
DECAY  14   0.000000e+00
#
#      PDG        Width
DECAY  15   0.000000e+00
#
#      PDG        Width
DECAY  16   0.000000e+00
#
#      PDG        Width
DECAY  21   0.000000e+00
#
#      PDG        Width
DECAY  22   0.000000e+00
#
#      PDG        Width
DECAY  23   2.495200e+00
#
#      PDG        Width
DECAY  24   2.085000e+00
#
#      PDG        Width
DECAY  25   4.170000e-03
#
#      PDG        Width
DECAY  9990012   1.108323e-10
#  BR             NDA  ID1    ID2   ...
   2.431782e-01   3    -1  2  11 # 2.69519992159e-11
   2.426278e-01   3    -3  4  11 # 2.68909971179e-11
   8.573854e-02   3    -13  11  14 # 9.50259958684e-12
   8.478756e-02   3    -15  11  16 # 9.39720028619e-12
   5.170514e-02   3    -11  11  12 # 5.73059958802e-12
   4.447711e-02   3    -1  1  12 # 4.92950039865e-12
   4.417395e-02   3    -3  3  12 # 4.89590047859e-12
   3.871254e-02   3    -5  5  12 # 4.29059984704e-12
   3.459551e-02   3    -2  2  12 # 3.83429994297e-12
   3.398107e-02   3    -4  4  12 # 3.76620014456e-12
   1.991838e-02   3    -14  12  14 # 2.20759986767e-12
   1.991838e-02   3    -16  12  16 # 2.20759986767e-12
   1.325606e-02   3    -3  2  11 # 1.46919961874e-12
   1.295832e-02   3    -1  4  11 # 1.43620040974e-12
   1.009814e-02   3    -12  12  12 # 1.11920008192e-12
   1.009814e-02   3    -13  12  13 # 1.11920008192e-12
   9.775129e-03   3    -15  12  15 # 1.08340002987e-12
#
#      PDG        Width
DECAY  9990014   1.500000e+00
#
#      PDG        Width
DECAY  9990016   1.230000e+01
</slha>
<MGGenerationInfo>
#  Number of Events        :       1000
#  Integrated weight (pb)  :       0.000228838929
</MGGenerationInfo>
</header>
<init>
-11 11 4.559400e+01 4.559400e+01 0 0 247000 247000 -4 2
1.141194e-04 9.198220e-07 2.288389e-04 3
1.147196e-04 9.072204e-07 2.288389e-04 4
<generator name='MadGraph5_aMC@NLO' version='2.6.7'>please cite 1405.0301 </generator>
</init>
<event>
 8      3 +2.2883893e-04 9.11880000e+01 7.81616400e-03 1.18400000e-01
      -11 -1    0    0    0    0 +0.0000000000e+00 +0.0000000000e+00 +4.5593999997e+01 4.5594000000e+01 5.1100000000e-04 0.0000e+00 -1.0000e+00
       11 -1    0    0    0    0 -0.0000000000e+00 -0.0000000000e+00 -4.5593999997e+01 4.5594000000e+01 5.1100000000e-04 0.0000e+00 1.0000e+00
       23  2    1    2    0    0 +3.5527136788e-15 +3.5527136788e-15 -1.7763568394e-15 9.1188000000e+01 9.1188000000e+01 6.0984e-14 0.0000e+00
  9990012  2    3    3    0    0 +8.1093933108e+00 +2.9703685937e+01 -8.2854583683e+00 5.9301952291e+01 5.0000015071e+01 2.9078e-04 0.0000e+00
      -11  1    4    4    0    0 +1.8748257350e+01 +4.0902178767e+00 -1.0034528520e+01 2.1654532985e+01 5.1100000000e-04 0.0000e+00 1.0000e+00
       11  1    4    4    0    0 +2.0764789224e+00 +2.4372979892e+01 -1.3592844628e+00 2.4499011573e+01 5.1100000000e-04 0.0000e+00 -1.0000e+00
       12  1    4    4    0    0 -1.2715342961e+01 +1.2404881682e+00 +3.1083546148e+00 1.3148407733e+01 0.0000000000e+00 0.0000e+00 -1.0000e+00
      -12  1    3    3    0    0 -8.1093933108e+00 -2.9703685937e+01 +8.2854583683e+00 3.1886047709e+01 0.0000000000e+00 0.0000e+00 1.0000e+00
</event>
<event>
 8      4 +2.2883893e-04 9.11880000e+01 7.81616400e-03 1.18400000e-01
      -11 -1    0    0    0    0 +0.0000000000e+00 +0.0000000000e+00 +4.5593999997e+01 4.5594000000e+01 5.1100000000e-04 0.0000e+00 1.0000e+00
       11 -1    0    0    0    0 -0.0000000000e+00 -0.0000000000e+00 -4.5593999997e+01 4.5594000000e+01 5.1100000000e-04 0.0000e+00 -1.0000e+00
       23  2    1    2    0    0 +0.0000000000e+00 -3.5527136788e-15 +3.5527136788e-15 9.1188000000e+01 9.1188000000e+01 8.3627e-14 0.0000e+00
 -9990012  2    3    3    0    0 -1.7846393820e+01 -1.5935788479e+01 +2.1077718963e+01 5.9302056960e+01 5.0000205962e+01 4.3223e-03 0.0000e+00
      -11  1    4    4    0    0 -5.1360037189e+00 +1.8275815280e+00 -1.9514744701e-01 5.4549675736e+00 5.1100000000e-04 0.0000e+00 1.0000e+00
       11  1    4    4    0    0 +6.2721603903e+00 -1.4906963643e+01 -8.6160285292e+00 1.8324669407e+01 5.1100000000e-04 0.0000e+00 -1.0000e+00
      -12  1    4    4    0    0 -1.8982550492e+01 -2.8564063637e+00 +2.9888894940e+01 3.5522419979e+01 0.0000000000e+00 0.0000e+00 1.0000e+00
       12  1    3    3    0    0 +1.7846393820e+01 +1.5935788479e+01 -2.1077718963e+01 3.1885943040e+01 0.0000000000e+00 0.0000e+00 -1.0000e+00
</event>
<event>
 8      4 +2.2883893e-04 9.11880000e+01 7.81616400e-03 1.18400000e-01
      -11 -1    0    0    0    0 +0.0000000000e+00 +0.0000000000e+00 +4.5593999997e+01 4.5594000000e+01 5.1100000000e-04 0.0000e+00 -1.0000e+00
       11 -1    0    0    0    0 -0.0000000000e+00 -0.0000000000e+00 -4.5593999997e+01 4.5594000000e+01 5.1100000000e-04 0.0000e+00 1.0000e+00
       23  2    1    2    0    0 +0.0000000000e+00 +0.0000000000e+00 +0.0000000000e+00 9.1188000000e+01 9.1188000000e+01 5.1132e-15 0.0000e+00
 -9990012  2    3    3    0    0 -9.5184042702e+00 +1.4407058949e+01 -2.6805917077e+01 5.9301944149e+01 5.0000000220e+01 4.9832e-04 0.0000e+00
      -11  1    4    4    0    0 -1.1874796364e+01 +1.7216795012e+01 -1.2191126630e+01 2.4208518912e+01 5.1100000000e-04 0.0000e+00 1.0000e+00
       11  1    4    4    0    0 -1.4144273383e+01 -5.5073734743e+00 -6.5861864244e+00 1.6545980902e+01 5.1100000000e-04 0.0000e+00 -1.0000e+00
      -12  1    4    4    0    0 +1.6500665477e+01 +2.6976374114e+00 -8.0286040228e+00 1.8547444334e+01 0.0000000000e+00 0.0000e+00 1.0000e+00
       12  1    3    3    0    0 +9.5184042702e+00 -1.4407058949e+01 +2.6805917077e+01 3.1886055851e+01 0.0000000000e+00 0.0000e+00 -1.0000e+00
</event>
<event>
 8      3 +2.2883893e-04 9.11880000e+01 7.81616400e-03 1.18400000e-01
      -11 -1    0    0    0    0 +0.0000000000e+00 +0.0000000000e+00 +4.5593999997e+01 4.5594000000e+01 5.1100000000e-04 0.0000e+00 1.0000e+00
       11 -1    0    0    0    0 -0.0000000000e+00 -0.0000000000e+00 -4.5593999997e+01 4.5594000000e+01 5.1100000000e-04 0.0000e+00 -1.0000e+00
       23  2    1    2    0    0 +3.5527136788e-15 +0.0000000000e+00 +0.0000000000e+00 9.1188000000e+01 9.1188000000e+01 1.1440e-13 0.0000e+00
  9990012  2    3    3    0    0 -1.7974850932e+01 -1.8222887963e+01 -1.9014539832e+01 5.9301927228e+01 4.9999969362e+01 1.9537e-03 0.0000e+00
      -11  1    4    4    0    0 -2.1204373091e+00 +2.8421418879e+00 +1.0133870421e+01 1.0736356685e+01 5.1100000000e-04 0.0000e+00 1.0000e+00
       11  1    4    4    0    0 +5.6801628515e+00 -1.0511838092e+01 -1.9174905010e+01 2.2592918636e+01 5.1100000000e-04 0.0000e+00 -1.0000e+00
       12  1    4    4    0    0 -2.1534576475e+01 -1.0553191759e+01 -9.9735052441e+00 2.5972651907e+01 0.0000000000e+00 0.0000e+00 -1.0000e+00
      -12  1    3    3    0    0 +1.7974850932e+01 +1.8222887963e+01 +1.9014539832e+01 3.1886072772e+01 0.0000000000e+00 0.0000e+00 1.0000e+00
</event>
<event>
 8      3 +2.2883893e-04 9.11880000e+01 7.81616400e-03 1.18400000e-01
      -11 -1    0    0    0    0 +0.0000000000e+00 +0.0000000000e+00 +4.5593999997e+01 4.5594000000e+01 5.1100000000e-04 0.0000e+00 -1.0000e+00
       11 -1    0    0    0    0 -0.0000000000e+00 -0.0000000000e+00 -4.5593999997e+01 4.5594000000e+01 5.1100000000e-04 0.0000e+00 1.0000e+00
       23  2    1    2    0    0 -2.6645352591e-15 -3.5527136788e-15 +0.0000000000e+00 9.1188000000e+01 9.1188000000e+01 4.4049e-14 0.0000e+00
  9990012  2    3    3    0    0 -3.6775241606e+00 +2.0946994286e+01 +2.3757521377e+01 5.9301943869e+01 4.9999999711e+01 1.0567e-03 0.0000e+00
      -11  1    4    4    0    0 -2.0487109084e+01 +3.1205301012e-02 +1.3142047768e+01 2.4340008878e+01 5.1100000000e-04 0.0000e+00 1.0000e+00
       11  1    4    4    0    0 +1.9390497136e+01 +1.1061298962e+01 +3.6467380765e+00 2.2619513982e+01 5.1100000000e-04 0.0000e+00 -1.0000e+00
       12  1    4    4    0    0 -2.5809122130e+00 +9.8544900227e+00 +6.9687355327e+00 1.2342421010e+01 0.0000000000e+00 0.0000e+00 -1.0000e+00
      -12  1    3    3    0    0 +3.6775241606e+00 -2.0946994286e+01 -2.3757521377e+01 3.1886056131e+01 0.0000000000e+00 0.0000e+00 1.0000e+00
</event>
<event>
 8      4 +2.2883893e-04 9.11880000e+01 7.81616400e-03 1.18400000e-01
      -11 -1    0    0    0    0 +0.0000000000e+00 +0.0000000000e+00 +4.5593999997e+01 4.5594000000e+01 5.1100000000e-04 0.0000e+00 -1.0000e+00
       11 -1    0    0    0    0 -0.0000000000e+00 -0.0000000000e+00 -4.5593999997e+01 4.5594000000e+01 5.1100000000e-04 0.0000e+00 1.0000e+00
       23  2    1    2    0    0 +0.0000000000e+00 +0.0000000000e+00 -3.5527136788e-15 9.1188000000e+01 9.1188000000e+01 6.4353e-14 0.0000e+00
 -9990012  2    3    3    0    0 -8.8749780263e+00 +2.3364964438e+01 -1.9799829616e+01 5.9301952095e+01 5.0000014713e+01 5.2554e-03 0.0000e+00
      -11  1    4    4    0    0 -1.5721025481e+01 +1.5426221385e+01 -2.9819464053e+01 3.7071813889e+01 5.1100000000e-04 0.0000e+00 1.0000e+00
       11  1    4    4    0    0 +3.6601215751e-01 +1.2095130894e+01 +5.3899679139e+00 1.3246807563e+01 5.1100000000e-04 0.0000e+00 -1.0000e+00
      -12  1    4    4    0    0 +6.4800352971e+00 -4.1563878401e+00 +4.6296665228e+00 8.9833306430e+00 0.0000000000e+00 0.0000e+00 1.0000e+00
       12  1    3    3    0    0 +8.8749780263e+00 -2.3364964438e+01 +1.9799829616e+01 3.1886047905e+01 0.0000000000e+00 0.0000e+00 -1.0000e+00
</event>
<event>
 8      3 +2.2883893e-04 9.11880000e+01 7.81616400e-03 1.18400000e-01
      -11 -1    0    0    0    0 +0.0000000000e+00 +0.0000000000e+00 +4.5593999997e+01 4.5594000000e+01 5.1100000000e-04 0.0000e+00 -1.0000e+00
       11 -1    0    0    0    0 -0.0000000000e+00 -0.0000000000e+00 -4.5593999997e+01 4.5594000000e+01 5.1100000000e-04 0.0000e+00 1.0000e+00
       23  2    1    2    0    0 -1.7763568394e-15 -1.7763568394e-15 -7.1054273576e-15 9.1188000000e+01 9.1188000000e+01 5.0665e-15 0.0000e+00
  9990012  2    3    3    0    0 +1.2182108045e+01 +1.1215692967e+01 +2.7249317040e+01 5.9301940283e+01 4.9999993170e+01 8.8493e-04 0.0000e+00
      -11  1    4    4    0    0 -4.9624895601e+00 -4.4259851265e+00 +4.0714782152e+00 7.7969597980e+00 5.1100000000e-04 0.0000e+00 -1.0000e+00
       11  1    4    4    0    0 +1.1848545094e+00 +6.0623613595e+00 -1.0983651854e+01 1.2601456812e+01 5.1100000000e-04 0.0000e+00 1.0000e+00
       12  1    4    4    0    0 +1.5959743096e+01 +9.5793167339e+00 +3.4161490679e+01 3.8903523673e+01 0.0000000000e+00 0.0000e+00 -1.0000e+00
      -12  1    3    3    0    0 -1.2182108045e+01 -1.1215692967e+01 -2.7249317040e+01 3.1886059717e+01 0.0000000000e+00 0.0000e+00 1.0000e+00
</event>
<event>
 8      4 +2.2883893e-04 9.11880000e+01 7.81616400e-03 1.18400000e-01
      -11 -1    0    0    0    0 +0.0000000000e+00 +0.0000000000e+00 +4.5593999997e+01 4.5594000000e+01 5.1100000000e-04 0.0000e+00 1.0000e+00
       11 -1    0    0    0    0 -0.0000000000e+00 -0.0000000000e+00 -4.5593999997e+01 4.5594000000e+01 5.1100000000e-04 0.0000e+00 -1.0000e+00
       23  2    1    2    0    0 -1.7763568394e-15 -3.5527136788e-15 -3.5527136788e-15 9.1188000000e+01 9.1188000000e+01 1.2309e-13 0.0000e+00
 -9990012  2    3    3    0    0 +1.2182414627e+01 +2.5889049615e+01 +1.4073601369e+01 5.9301947067e+01 5.0000005544e+01 2.3917e-04 0.0000e+00
      -11  1    4    4    0    0 -6.1961465456e+00 +6.8056829962e+00 +4.6426871898e+00 1.0308447878e+01 5.1100000000e-04 0.0000e+00 1.0000e+00
       11  1    4    4    0    0 +5.4920788581e-01 -8.3131218310e+00 -8.3395943476e+00 1.1788064219e+01 5.1100000000e-04 0.0000e+00 -1.0000e+00
      -12  1    4    4    0    0 +1.7829353286e+01 +2.7396488450e+01 +1.7770508527e+01 3.7205434970e+01 0.0000000000e+00 0.0000e+00 1.0000e+00
       12  1    3    3    0    0 -1.2182414627e+01 -2.5889049615e+01 -1.4073601369e+01 3.1886052933e+01 0.0000000000e+00 0.0000e+00 -1.0000e+00
</event>
<event>
 8      3 +2.2883893e-04 9.11880000e+01 7.81616400e-03 1.18400000e-01
      -11 -1    0    0    0    0 +0.0000000000e+00 +0.0000000000e+00 +4.5593999997e+01 4.5594000000e+01 5.1100000000e-04 0.0000e+00 1.0000e+00
       11 -1    0    0    0    0 -0.0000000000e+00 -0.0000000000e+00 -4.5593999997e+01 4.5594000000e+01 5.1100000000e-04 0.0000e+00 -1.0000e+00
       23  2    1    2    0    0 +3.5527136788e-15 +3.5527136788e-15 -9.9920072216e-16 9.1188000000e+01 9.1188000000e+01 4.1308e-13 0.0000e+00
  9990012  2    3    3    0    0 +2.4426312066e+01 +2.0487301332e+01 +5.8593691678e-01 5.9301991170e+01 5.0000085977e+01 1.0867e-03 0.0000e+00
      -11  1    4    4    0    0 +1.4680183054e+01 -4.0110042899e+00 +1.6314398975e+01 2.2310435767e+01 5.1100000000e-04 0.0000e+00 1.0000e+00
       11  1    4    4    0    0 -1.0547482025e+00 -2.6022815766e+00 -5.3222503874e+00 6.0175337658e+00 5.1100000000e-04 0.0000e+00 -1.0000e+00
       12  1    4    4    0    0 +1.0800877215e+01 +2.7100587198e+01 -1.0406211671e+01 3.0974021638e+01 0.0000000000e+00 0.0000e+00 -1.0000e+00
      -12  1    3    3    0    0 -2.4426312066e+01 -2.0487301332e+01 -5.8593691678e-01 3.1886008830e+01 0.0000000000e+00 0.0000e+00 1.0000e+00
</event>
<event>
 8      4 +2.2883893e-04 9.11880000e+01 7.81616400e-03 1.18400000e-01
      -11 -1    0    0    0    0 +0.0000000000e+00 +0.0000000000e+00 +4.5593999997e+01 4.5594000000e+01 5.1100000000e-04 0.0000e+00 1.0000e+00
       11 -1    0    0    0    0 -0.0000000000e+00 -0.0000000000e+00 -4.5593999997e+01 4.5594000000e+01 5.1100000000e-04 0.0000e+00 -1.0000e+00
       23  2    1    2    0    0 +0.0000000000e+00 +0.0000000000e+00 -3.5527136788e-15 9.1188000000e+01 9.1188000000e+01 1.0183e-15 0.0000e+00
 -9990012  2    3    3    0    0 -2.1270721748e+01 -8.8093353341e+00 +2.2060667699e+01 5.9301936398e+01 4.9999986085e+01 7.8582e-04 0.0000e+00
      -11  1    4    4    0    0 -1.5980393072e+01 +1.1762512280e+01 +3.2850916543e+00 2.0112719491e+01 5.1100000000e-04 0.0000e+00 -1.0000e+00
       11  1    4    4    0    0 +3.7197639377e+00 -4.0561555815e+00 +1.9599588245e+01 2.0357625144e+01 5.1100000000e-04 0.0000e+00 1.0000e+00
      -12  1    4    4    0    0 -9.0100926139e+00 -1.6515692033e+01 -8.2401220058e-01 1.8831591763e+01 0.0000000000e+00 0.0000e+00 1.0000e+00
       12  1    3    3    0    0 +2.1270721748e+01 +8.8093353341e+00 -2.2060667699e+01 3.1886063602e+01 0.0000000000e+00 0.0000e+00 -1.0000e+00
</event>
<event>
 8      4 +2.2883893e-04 9.11880000e+01 7.81616400e-03 1.18400000e-01
      -11 -1    0    0    0    0 +0.0000000000e+00 +0.0000000000e+00 +4.5593999997e+01 4.5594000000e+01 5.1100000000e-04 0.0000e+00 -1.0000e+00
       11 -1    0    0    0    0 -0.0000000000e+00 -0.0000000000e+00 -4.5593999997e+01 4.5594000000e+01 5.1100000000e-04 0.0000e+00 1.0000e+00
       23  2    1    2    0    0 +0.0000000000e+00 +0.0000000000e+00 -1.7763568394e-15 9.1188000000e+01 9.1188000000e+01 7.2885e-15 0.0000e+00
 -9990012  2    3    3    0    0 -1.2238450090e+01 +2.8286290793e+01 -8.1747560581e+00 5.9301944364e+01 5.0000000613e+01 1.2136e-03 0.0000e+00
      -11  1    4    4    0    0 -1.1025317183e+01 +3.4238285093e+01 -3.9524099843e+00 3.6186175952e+01 5.1100000000e-04 0.0000e+00 1.0000e+00
       11  1    4    4    0    0 +2.5228176153e+00 +2.9383431738e-01 +8.2737300186e+00 8.6547995938e+00 5.1100000000e-04 0.0000e+00 -1.0000e+00
      -12  1    4    4    0    0 -3.7359505226e+00 -6.2458286177e+00 -1.2496076092e+01 1.4460968817e+01 0.0000000000e+00 0.0000e+00 1.0000e+00
       12  1    3    3    0    0 +1.2238450090e+01 -2.8286290793e+01 +8.1747560581e+00 3.1886055636e+01 0.0000000000e+00 0.0000e+00 -1.0000e+00
</event>
<event>
 8      4 +2.2883893e-04 9.11880000e+01 7.81616400e-03 1.18400000e-01
      -11 -1    0    0    0    0 +0.0000000000e+00 +0.0000000000e+00 +4.5593999997e+01 4.5594000000e+01 5.1100000000e-04 0.0000e+00 1.0000e+00
       11 -1    0    0    0    0 -0.0000000000e+00 -0.0000000000e+00 -4.5593999997e+01 4.5594000000e+01 5.1100000000e-04 0.0000e+00 -1.0000e+00
       23  2    1    2    0    0 +1.7763568394e-15 +0.0000000000e+00 -3.5527136788e-15 9.1188000000e+01 9.1188000000e+01 1.4481e-13 0.0000e+00
 -9990012  2    3    3    0    0 -7.3610284070e+00 +2.4449218140e+01 +1.9098979448e+01 5.9301952537e+01 5.0000015519e+01 5.4606e-04 0.0000e+00
      -11  1    4    4    0    0 +8.8501114936e+00 -6.7107133388e+00 -2.4280543146e+00 1.1368975107e+01 5.1100000000e-04 0.0000e+00 1.0000e+00
       11  1    4    4    0    0 -3.8217194250e+00 -1.6348000243e+00 -3.0186469455e+00 5.1371529202e+00 5.1100000000e-04 0.0000e+00 -1.0000e+00
      -12  1    4    4    0    0 -1.2389420476e+01 +3.2794731503e+01 +2.4545680708e+01 4.2795824510e+01 0.0000000000e+00 0.0000e+00 1.0000e+00
       12  1    3    3    0    0 +7.3610284070e+00 -2.4449218140e+01 -1.9098979448e+01 3.1886047463e+01 0.0000000000e+00 0.0000e+00 -1.0000e+00
</event>
<event>
 8      4 +2.2883893e-04 9.11880000e+01 7.81616400e-03 1.18400000e-01
      -11 -1    0    0    0    0 +0.0000000000e+00 +0.0000000000e+00 +4.5593999997e+01 4.5594000000e+01 5.1100000000e-04 0.0000e+00 1.0000e+00
       11 -1    0    0    0    0 -0.0000000000e+00 -0.0000000000e+00 -4.5593999997e+01 4.5594000000e+01 5.1100000000e-04 0.0000e+00 -1.0000e+00
       23  2    1    2    0    0 +1.3322676296e-15 +3.5527136788e-15 +3.5527136788e-15 9.1188000000e+01 9.1188000000e+01 4.1058e-14 0.0000e+00
 -9990012  2    3    3    0    0 +3.5043853208e+00 +1.4200891640e+01 +2.8333301145e+01 5.9301921634e+01 4.9999959159e+01 7.3723e-04 0.0000e+00
      -11  1    4    4    0    0 +1.9242990172e+01 +1.3592480544e+01 +3.1642093846e+01 3.9449591903e+01 5.1100000000e-04 0.0000e+00 1.0000e+00
       11  1    4    4    0    0 -1.2331864041e+01 +5.3623294901e+00 -3.8259184619e+00 1.3980954925e+01 5.1100000000e-04 0.0000e+00 -1.0000e+00
      -12  1    4    4    0    0 -3.4067408108e+00 -4.7539183948e+00 +5.1712576093e-01 5.8713748057e+00 0.0000000000e+00 0.0000e+00 1.0000e+00
       12  1    3    3    0    0 -3.5043853208e+00 -1.4200891640e+01 -2.8333301145e+01 3.1886078366e+01 0.0000000000e+00 0.0000e+00 -1.0000e+00
</event>
<event>
 8      4 +2.2883893e-04 9.11880000e+01 7.81616400e-03 1.18400000e-01
      -11 -1    0    0    0    0 +0.0000000000e+00 +0.0000000000e+00 +4.5593999997e+01 4.5594000000e+01 5.1100000000e-04 0.0000e+00 -1.0000e+00
       11 -1    0    0    0    0 -0.0000000000e+00 -0.0000000000e+00 -4.5593999997e+01 4.5594000000e+01 5.1100000000e-04 0.0000e+00 1.0000e+00
       23  2    1    2    0    0 +5.5511151231e-17 +0.0000000000e+00 +3.5527136788e-15 9.1188000000e+01 9.1188000000e+01 3.2573e-14 0.0000e+00
 -9990012  2    3    3    0    0 -3.2093762080e-01 +1.0500092218e+01 -3.0105887376e+01 5.9301962425e+01 5.0000033552e+01 1.9596e-03 0.0000e+00
      -11  1    4    4    0    0 -2.3671980257e+01 +1.0356479962e+00 -1.4674906425e+01 2.7870918444e+01 5.1100000000e-04 0.0000e+00 1.0000e+00
       11  1    4    4    0    0 +1.5663078230e+01 +4.8595589526e+00 -1.5359592424e+01 2.2469188070e+01 5.1100000000e-04 0.0000e+00 -1.0000e+00
      -12  1    4    4    0    0 +7.6879644056e+00 +4.6048852693e+00 -7.1388527478e-02 8.9618559108e+00 0.0000000000e+00 0.0000e+00 1.0000e+00
       12  1    3    3    0    0 +3.2093762080e-01 -1.0500092218e+01 +3.0105887376e+01 3.1886037575e+01 0.0000000000e+00 0.0000e+00 -1.0000e+00
</event>
<event>
 8      4 +2.2883893e-04 9.11880000e+01 7.81616400e-03 1.18400000e-01
      -11 -1    0    0    0    0 +0.0000000000e+00 +0.0000000000e+00 +4.5593999997e+01 4.5594000000e+01 5.1100000000e-04 0.0000e+00 1.0000e+00
       11 -1    0    0    0    0 -0.0000000000e+00 -0.0000000000e+00 -4.5593999997e+01 4.5594000000e+01 5.1100000000e-04 0.0000e+00 -1.0000e+00
       23  2    1    2    0    0 +0.0000000000e+00 -1.7763568394e-15 +8.8817841970e-16 9.1188000000e+01 9.1188000000e+01 1.1997e-13 0.0000e+00
 -9990012  2    3    3    0    0 +3.1239252010e+01 -5.0503151853e+00 +3.9147392113e+00 5.9301925725e+01 4.9999966620e+01 4.7656e-04 0.0000e+00
      -11  1    4    4    0    0 -5.1463959417e+00 -1.2597605099e+01 +8.7478522773e+00 1.6177452369e+01 5.1100000000e-04 0.0000e+00 1.0000e+00
       11  1    4    4    0    0 +1.6321199997e+01 +5.6838713989e+00 -1.2747417911e+01 2.1475209593e+01 5.1100000000e-04 0.0000e+00 -1.0000e+00
      -12  1    4    4    0    0 +2.0064447955e+01 +1.8634185150e+00 +7.9143048450e+00 2.1649263763e+01 0.0000000000e+00 0.0000e+00 1.0000e+00
       12  1    3    3    0    0 -3.1239252010e+01 +5.0503151853e+00 -3.9147392113e+00 3.1886074275e+01 0.0000000000e+00 0.0000e+00 -1.0000e+00
</event>
<event>
 8      3 +2.2883893e-04 9.11880000e+01 7.81616400e-03 1.18400000e-01
      -11 -1    0    0    0    0 +0.0000000000e+00 +0.0000000000e+00 +4.5593999997e+01 4.5594000000e+01 5.1100000000e-04 0.0000e+00 -1.0000e+00
       11 -1    0    0    0    0 -0.0000000000e+00 -0.0000000000e+00 -4.5593999997e+01 4.5594000000e+01 5.1100000000e-04 0.0000e+00 1.0000e+00
       23  2    1    2    0    0 -3.5527136788e-15 -3.5527136788e-15 +0.0000000000e+00 9.1188000000e+01 9.1188000000e+01 6.0495e-14 0.0000e+00
  9990012  2    3    3    0    0 -1.6353190666e+01 -2.4796709038e+01 +1.1593808150e+01 5.9301952714e+01 5.0000015842e+01 1.7322e-03 0.0000e+00
      -11  1    4    4    0    0 +7.0363361469e+00 -6.1434997292e+00 -2.5490308891e+00 9.6824673523e+00 5.1100000000e-04 0.0000e+00 1.0000e+00
       11  1    4    4    0    0 -2.7835463592e+01 -2.2396458229e+01 +1.5620056905e+00 3.5761071525e+01 5.1100000000e-04 0.0000e+00 -1.0000e+00
       12  1    4    4    0    0 +4.4459367782e+00 +3.7432489205e+00 +1.2580833349e+01 1.3858413837e+01 0.0000000000e+00 0.0000e+00 -1.0000e+00
      -12  1    3    3    0    0 +1.6353190666e+01 +2.4796709038e+01 -1.1593808150e+01 3.1886047286e+01 0.0000000000e+00 0.0000e+00 1.0000e+00
</event>
<event>
 8      3 +2.2883893e-04 9.11880000e+01 7.81616400e-03 1.18400000e-01
      -11 -1    0    0    0    0 +0.0000000000e+00 +0.0000000000e+00 +4.5593999997e+01 4.5594000000e+01 5.1100000000e-04 0.0000e+00 -1.0000e+00
       11 -1    0    0    0    0 -0.0000000000e+00 -0.0000000000e+00 -4.5593999997e+01 4.5594000000e+01 5.1100000000e-04 0.0000e+00 1.0000e+00
       23  2    1    2    0    0 -8.8817841970e-16 +0.0000000000e+00 +7.1054273576e-15 9.1188000000e+01 9.1188000000e+01 1.3630e-13 0.0000e+00
  9990012  2    3    3    0    0 -4.4387481086e+00 -2.1811589736e+01 +2.2831365214e+01 5.9301965924e+01 5.0000039933e+01 1.4079e-03 0.0000e+00
      -11  1    4    4    0    0 -8.6524478448e+00 -1.2096908864e+01 +6.2949639153e-01 1.4886111774e+01 5.1100000000e-04 0.0000e+00 1.0000e+00
       11  1    4    4    0    0 +7.1022394999e+00 -4.9967049898e+00 +3.2003579189e+01 3.3160789313e+01 5.1100000000e-04 0.0000e+00 -1.0000e+00
       12  1    4    4    0    0 -2.8885397637e+00 -4.7179758818e+00 -9.8017103663e+00 1.1255064837e+01 0.0000000000e+00 0.0000e+00 -1.0000e+00
      -12  1    3    3    0    0 +4.4387481086e+00 +2.1811589736e+01 -2.2831365214e+01 3.1886034076e+01 0.0000000000e+00 0.0000e+00 1.0000e+00
</event>
<event>
 8      3 +2.2883893e-04 9.11880000e+01 7.81616400e-03 1.18400000e-01
      -11 -1    0    0    0    0 +0.0000000000e+00 +0.0000000000e+00 +4.5593999997e+01 4.5594000000e+01 5.1100000000e-04 0.0000e+00 1.0000e+00
       11 -1    0    0    0    0 -0.0000000000e+00 -0.0000000000e+00 -4.5593999997e+01 4.5594000000e+01 5.1100000000e-04 0.0000e+00 -1.0000e+00
       23  2    1    2    0    0 -2.2204460493e-16 -3.5527136788e-15 +1.7763568394e-15 9.1188000000e+01 9.1188000000e+01 1.9419e-13 0.0000e+00
  9990012  2    3    3    0    0 +7.4462146424e-01 +3.1407848363e+01 +5.4514945862e+00 5.9301855781e+01 4.9999839059e+01 1.5161e-03 0.0000e+00
      -11  1    4    4    0    0 +4.1802059734e+00 +1.5743090279e+01 +2.3512648686e+01 2.8603560303e+01 5.1100000000e-04 0.0000e+00 1.0000e+00
       11  1    4    4    0    0 -6.5415128301e+00 +8.1925424947e-01 -1.3228174002e+01 1.4779957893e+01 5.1100000000e-04 0.0000e+00 -1.0000e+00
       12  1    4    4    0    0 +3.1059283210e+00 +1.4845503835e+01 -4.8329800976e+00 1.5918337585e+01 0.0000000000e+00 0.0000e+00 -1.0000e+00
      -12  1    3    3    0    0 -7.4462146424e-01 -3.1407848363e+01 -5.4514945862e+00 3.1886144219e+01 0.0000000000e+00 0.0000e+00 1.0000e+00
</event>
<event>
 8      3 +2.2883893e-04 9.11880000e+01 7.81616400e-03 1.18400000e-01
      -11 -1    0    0    0    0 +0.0000000000e+00 +0.0000000000e+00 +4.5593999997e+01 4.5594000000e+01 5.1100000000e-04 0.0000e+00 1.0000e+00
       11 -1    0    0    0    0 -0.0000000000e+00 -0.0000000000e+00 -4.5593999997e+01 4.5594000000e+01 5.1100000000e-04 0.0000e+00 -1.0000e+00
       23  2    1    2    0    0 +0.0000000000e+00 +8.8817841970e-16 +0.0000000000e+00 9.1188000000e+01 9.1188000000e+01 2.4954e-15 0.0000e+00
  9990012  2    3    3    0    0 +1.1862247959e+01 -7.5003208776e+00 -2.8631343016e+01 5.9301928702e+01 4.9999972050e+01 2.2556e-03 0.0000e+00
      -11  1    4    4    0    0 -7.5216973339e+00 -2.8652789136e+00 -3.1735339730e+00 8.6519981608e+00 5.1100000000e-04 0.0000e+00 1.0000e+00
       11  1    4    4    0    0 +1.1420611204e+01 +1.0708222777e+01 +4.3000785047e+00 1.6235364816e+01 5.1100000000e-04 0.0000e+00 -1.0000e+00
       12  1    4    4    0    0 +7.9633340897e+00 -1.5343264741e+01 -2.9757887548e+01 3.4414565725e+01 0.0000000000e+00 0.0000e+00 -1.0000e+00
      -12  1    3    3    0    0 -1.1862247959e+01 +7.5003208776e+00 +2.8631343016e+01 3.1886071298e+01 0.0000000000e+00 0.0000e+00 1.0000e+00
</event>
<event>
 8      4 +2.2883893e-04 9.11880000e+01 7.81616400e-03 1.18400000e-01
      -11 -1    0    0    0    0 +0.0000000000e+00 +0.0000000000e+00 +4.5593999997e+01 4.5594000000e+01 5.1100000000e-04 0.0000e+00 1.0000e+00
       11 -1    0    0    0    0 -0.0000000000e+00 -0.0000000000e+00 -4.5593999997e+01 4.5594000000e+01 5.1100000000e-04 0.0000e+00 -1.0000e+00
       23  2    1    2    0    0 +3.5527136788e-15 +0.0000000000e+00 +0.0000000000e+00 9.1188000000e+01 9.1188000000e+01 7.2453e-14 0.0000e+00
 -9990012  2    3    3    0    0 +2.7772641970e+01 +1.5482831103e+01 -2.3842551813e+00 5.9301915673e+01 4.9999948287e+01 9.8964e-04 0.0000e+00
      -11  1    4    4    0    0 -1.7243029020e+00 +9.1581756543e+00 +7.5506037723e+00 1.1994040995e+01 5.1100000000e-04 0.0000e+00 1.0000e+00
       11  1    4    4    0    0 +1.0362033547e+00 -8.8518216860e+00 +6.5736212343e+00 1.1074337946e+01 5.1100000000e-04 0.0000e+00 -1.0000e+00
      -12  1    4    4    0    0 +2.8460741518e+01 +1.5176477134e+01 -1.6508480188e+01 3.6233536731e+01 0.0000000000e+00 0.0000e+00 1.0000e+00
       12  1    3    3    0    0 -2.7772641970e+01 -1.5482831103e+01 +2.3842551813e+00 3.1886084327e+01 0.0000000000e+00 0.0000e+00 -1.0000e+00
</event>
<event>
 8      3 +2.2883893e-04 9.11880000e+01 7.81616400e-03 1.18400000e-01
      -11 -1    0    0    0    0 +0.0000000000e+00 +0.0000000000e+00 +4.5593999997e+01 4.5594000000e+01 5.1100000000e-04 0.0000e+00 -1.0000e+00
       11 -1    0    0    0    0 -0.0000000000e+00 -0.0000000000e+00 -4.5593999997e+01 4.5594000000e+01 5.1100000000e-04 0.0000e+00 1.0000e+00
       23  2    1    2    0    0 +3.5527136788e-15 +2.7755575616e-16 +0.0000000000e+00 9.1188000000e+01 9.1188000000e+01 5.5544e-14 0.0000e+00
  9990012  2    3    3    0    0 -2.7311914622e+01 +4.8385365557e-01 +1.6448280635e+01 5.9301941439e+01 4.9999995279e+01 1.0353e-03 0.0000e+00
      -11  1    4    4    0    0 -1.6042969023e+00 -1.0171873641e+01 +3.4267768536e+00 1.0852814464e+01 5.1100000000e-04 0.0000e+00 1.0000e+00
       11  1    4    4    0    0 +3.1529046252e+00 -7.6741434490e+00 -5.1154906084e+00 9.7468728153e+00 5.1100000000e-04 0.0000e+00 -1.0000e+00
       12  1    4    4    0    0 -2.8860522345e+01 +1.8329870746e+01 +1.8136994390e+01 3.8702254160e+01 0.0000000000e+00 0.0000e+00 -1.0000e+00
      -12  1    3    3    0    0 +2.7311914622e+01 -4.8385365557e-01 -1.6448280635e+01 3.1886058561e+01 0.0000000000e+00 0.0000e+00 1.0000e+00
</event>
<event>
 8      4 +2.2883893e-04 9.11880000e+01 7.81616400e-03 1.18400000e-01
      -11 -1    0    0    0    0 +0.0000000000e+00 +0.0000000000e+00 +4.5593999997e+01 4.5594000000e+01 5.1100000000e-04 0.0000e+00 1.0000e+00
       11 -1    0    0    0    0 -0.0000000000e+00 -0.0000000000e+00 -4.5593999997e+01 4.5594000000e+01 5.1100000000e-04 0.0000e+00 -1.0000e+00
       23  2    1    2    0    0 -1.7763568394e-15 +0.0000000000e+00 +0.0000000000e+00 9.1188000000e+01 9.1188000000e+01 1.6624e-14 0.0000e+00
 -9990012  2    3    3    0    0 +1.3862779446e+01 -2.2788817437e+01 -1.7470319559e+01 5.9301969835e+01 5.0000047067e+01 1.3119e-03 0.0000e+00
      -11  1    4    4    0    0 +4.0563922579e+00 +4.3146793847e-01 +8.5007920390e+00 9.4288890270e+00 5.1100000000e-04 0.0000e+00 1.0000e+00
       11  1    4    4    0    0 -6.6080539147e+00 -8.1107196253e+00 -2.5495045348e+01 2.7558074804e+01 5.1100000000e-04 0.0000e+00 -1.0000e+00
      -12  1    4    4    0    0 +1.6414441103e+01 -1.5109565751e+01 -4.7606624994e-01 2.2315006004e+01 0.0000000000e+00 0.0000e+00 1.0000e+00
       12  1    3    3    0    0 -1.3862779446e+01 +2.2788817437e+01 +1.7470319559e+01 3.1886030165e+01 0.0000000000e+00 0.0000e+00 -1.0000e+00
</event>
<event>
 8      3 +2.2883893e-04 9.11880000e+01 7.81616400e-03 1.18400000e-01
      -11 -1    0    0    0    0 +0.0000000000e+00 +0.0000000000e+00 +4.5593999997e+01 4.5594000000e+01 5.1100000000e-04 0.0000e+00 1.0000e+00
       11 -1    0    0    0    0 -0.0000000000e+00 -0.0000000000e+00 -4.5593999997e+01 4.5594000000e+01 5.1100000000e-04 0.0000e+00 -1.0000e+00
       23  2    1    2    0    0 -1.7763568394e-15 +0.0000000000e+00 +0.0000000000e+00 9.1188000000e+01 9.1188000000e+01 1.6549e-14 0.0000e+00
  9990012  2    3    3    0    0 +9.3847895960e+00 +6.8800573806e+00 -2.9686993160e+01 5.9301842687e+01 4.9999815178e+01 2.0411e-04 0.0000e+00
      -11  1    4    4    0    0 -1.0975214718e+01 +9.2095426085e+00 -1.3897999337e+01 1.9960596158e+01 5.1100000000e-04 0.0000e+00 1.0000e+00
       11  1    4    4    0    0 +2.7410558994e+01 -4.8069909109e+00 -1.5518232181e+01 3.1863167392e+01 5.1100000000e-04 0.0000e+00 -1.0000e+00
       12  1    4    4    0    0 -7.0505546801e+00 +2.4775056830e+00 -2.7076164214e-01 7.4780791366e+00 0.0000000000e+00 0.0000e+00 -1.0000e+00
      -12  1    3    3    0    0 -9.3847895960e+00 -6.8800573806e+00 +2.9686993160e+01 3.1886157313e+01 0.0000000000e+00 0.0000e+00 1.0000e+00
</event>
<event>
 8      3 +2.2883893e-04 9.11880000e+01 7.81616400e-03 1.18400000e-01
      -11 -1    0    0    0    0 +0.0000000000e+00 +0.0000000000e+00 +4.5593999997e+01 4.5594000000e+01 5.1100000000e-04 0.0000e+00 1.0000e+00
       11 -1    0    0    0    0 -0.0000000000e+00 -0.0000000000e+00 -4.5593999997e+01 4.5594000000e+01 5.1100000000e-04 0.0000e+00 -1.0000e+00
       23  2    1    2    0    0 +0.0000000000e+00 +0.0000000000e+00 +9.9920072216e-16 9.1188000000e+01 9.1188000000e+01 2.2105e-16 0.0000e+00
  9990012  2    3    3    0    0 -2.7209279978e+01 +1.6594803471e+01 -9.9433480844e-01 5.9301935318e+01 4.9999984116e+01 5.5662e-04 0.0000e+00
      -11  1    4    4    0    0 +5.7571772845e+00 -1.1408389250e+01 +3.8347498743e+00 1.3341729364e+01 5.1100000000e-04 0.0000e+00 1.0000e+00
       11  1    4    4    0    0 -3.2831451073e+00 +1.4384432493e+00 +3.7765548265e+00 5.2067770641e+00 5.1100000000e-04 0.0000e+00 -1.0000e+00
       12  1    4    4    0    0 -2.9683312155e+01 +2.6564749472e+01 -8.6056395092e+00 4.0753428891e+01 0.0000000000e+00 0.0000e+00 -1.0000e+00
      -12  1    3    3    0    0 +2.7209279978e+01 -1.6594803471e+01 +9.9433480844e-01 3.1886064682e+01 0.0000000000e+00 0.0000e+00 1.0000e+00
</event>
<event>
 8      4 +2.2883893e-04 9.11880000e+01 7.81616400e-03 1.18400000e-01
      -11 -1    0    0    0    0 +0.0000000000e+00 +0.0000000000e+00 +4.5593999997e+01 4.5594000000e+01 5.1100000000e-04 0.0000e+00 -1.0000e+00
       11 -1    0    0    0    0 -0.0000000000e+00 -0.0000000000e+00 -4.5593999997e+01 4.5594000000e+01 5.1100000000e-04 0.0000e+00 1.0000e+00
       23  2    1    2    0    0 -3.5527136788e-15 +0.0000000000e+00 +0.0000000000e+00 9.1188000000e+01 9.1188000000e+01 2.5810e-13 0.0000e+00
 -9990012  2    3    3    0    0 +1.4426989402e+01 +2.8204312425e+01 +3.6192826081e+00 5.9301945538e+01 5.0000002754e+01 2.5089e-03 0.0000e+00
      -11  1    4    4    0    0 -1.5810670938e+01 +2.1266329190e+01 +3.0066309296e+00 2.6669718832e+01 5.1100000000e-04 0.0000e+00 1.0000e+00
       11  1    4    4    0    0 +2.2248991618e+01 +7.2135413899e+00 +4.3796140327e+00 2.3795668235e+01 5.1100000000e-04 0.0000e+00 -1.0000e+00
      -12  1    4    4    0    0 +7.9886687222e+00 -2.7555815512e-01 -3.7669623542e+00 8.8365584719e+00 0.0000000000e+00 0.0000e+00 1.0000e+00
       12  1    3    3    0    0 -1.4426989402e+01 -2.8204312425e+01 -3.6192826081e+00 3.1886054462e+01 0.0000000000e+00 0.0000e+00 -1.0000e+00
</event>
<event>
 8      4 +2.2883893e-04 9.11880000e+01 7.81616400e-03 1.18400000e-01
      -11 -1    0    0    0    0 +0.0000000000e+00 +0.0000000000e+00 +4.5593999997e+01 4.5594000000e+01 5.1100000000e-04 0.0000e+00 -1.0000e+00
       11 -1    0    0    0    0 -0.0000000000e+00 -0.0000000000e+00 -4.5593999997e+01 4.5594000000e+01 5.1100000000e-04 0.0000e+00 1.0000e+00
       23  2    1    2    0    0 +0.0000000000e+00 +0.0000000000e+00 +0.0000000000e+00 9.1188000000e+01 9.1188000000e+01 3.7299e-14 0.0000e+00
 -9990012  2    3    3    0    0 +2.1426496794e+01 +1.5122014595e+01 +1.8137000213e+01 5.9301939300e+01 4.9999991377e+01 3.2300e-04 0.0000e+00
      -11  1    4    4    0    0 -2.8482319713e+00 +1.0321631700e+01 -5.8418088779e+00 1.2197345512e+01 5.1100000000e-04 0.0000e+00 1.0000e+00
       11  1    4    4    0    0 -9.9056936991e-01 -4.2299616564e+00 +1.9406913636e+01 1.9887234609e+01 5.1100000000e-04 0.0000e+00 -1.0000e+00
      -12  1    4    4    0    0 +2.5265298136e+01 +9.0303445514e+00 +4.5718954550e+00 2.7217359178e+01 0.0000000000e+00 0.0000e+00 1.0000e+00
       12  1    3    3    0    0 -2.1426496794e+01 -1.5122014595e+01 -1.8137000213e+01 3.1886060700e+01 0.0000000000e+00 0.0000e+00 -1.0000e+00
</event>
<event>
 8      3 +2.2883893e-04 9.11880000e+01 7.81616400e-03 1.18400000e-01
      -11 -1    0    0    0    0 +0.0000000000e+00 +0.0000000000e+00 +4.5593999997e+01 4.5594000000e+01 5.1100000000e-04 0.0000e+00 1.0000e+00
       11 -1    0    0    0    0 -0.0000000000e+00 -0.0000000000e+00 -4.5593999997e+01 4.5594000000e+01 5.1100000000e-04 0.0000e+00 -1.0000e+00
       23  2    1    2    0    0 -1.7763568394e-15 +3.5527136788e-15 +0.0000000000e+00 9.1188000000e+01 9.1188000000e+01 3.0598e-15 0.0000e+00
  9990012  2    3    3    0    0 -1.1566894264e+01 +2.5057873583e+01 -1.5969755236e+01 5.9301903442e+01 4.9999925980e+01 1.5710e-03 0.0000e+00
      -11  1    4    4    0    0 +6.8314761384e+00 -4.9726838117e+00 -1.5393446790e+01 1.7560035731e+01 5.1100000000e-04 0.0000e+00 1.0000e+00
       11  1    4    4    0    0 -4.7949564213e+00 +2.4683970235e+01 -6.4981076273e+00 2.5971434244e+01 5.1100000000e-04 0.0000e+00 -1.0000e+00
       12  1    4    4    0    0 -1.3603413981e+01 +5.3465871594e+00 +5.9217991813e+00 1.5770433467e+01 0.0000000000e+00 0.0000e+00 -1.0000e+00
      -12  1    3    3    0    0 +1.1566894264e+01 -2.5057873583e+01 +1.5969755236e+01 3.1886096558e+01 0.0000000000e+00 0.0000e+00 1.0000e+00
</event>
<event>
 8      4 +2.2883893e-04 9.11880000e+01 7.81616400e-03 1.18400000e-01
      -11 -1    0    0    0    0 +0.0000000000e+00 +0.0000000000e+00 +4.5593999997e+01 4.5594000000e+01 5.1100000000e-04 0.0000e+00 -1.0000e+00
       11 -1    0    0    0    0 -0.0000000000e+00 -0.0000000000e+00 -4.5593999997e+01 4.5594000000e+01 5.1100000000e-04 0.0000e+00 1.0000e+00
       23  2    1    2    0    0 -1.7763568394e-15 +0.0000000000e+00 -3.3306690739e-16 9.1188000000e+01 9.1188000000e+01 6.5447e-14 0.0000e+00
 -9990012  2    3    3    0    0 -2.7007882223e+00 +3.1767463576e+01 -5.0662085620e-01 5.9301911125e+01 4.9999939993e+01 1.3836e-03 0.0000e+00
      -11  1    4    4    0    0 +7.5031329006e+00 -1.3170292703e+00 -6.5585100648e+00 1.0052145241e+01 5.1100000000e-04 0.0000e+00 1.0000e+00
       11  1    4    4    0    0 -2.1723472600e+01 +1.5185982846e+01 -1.7912036343e+00 2.6565612124e+01 5.1100000000e-04 0.0000e+00 -1.0000e+00
      -12  1    4    4    0    0 +1.1519551477e+01 +1.7898510000e+01 +7.8430928429e+00 2.2684153760e+01 0.0000000000e+00 0.0000e+00 1.0000e+00
       12  1    3    3    0    0 +2.7007882223e+00 -3.1767463576e+01 +5.0662085620e-01 3.1886088875e+01 0.0000000000e+00 0.0000e+00 -1.0000e+00
</event>
<event>
 8      3 +2.2883893e-04 9.11880000e+01 7.81616400e-03 1.18400000e-01
      -11 -1    0    0    0    0 +0.0000000000e+00 +0.0000000000e+00 +4.5593999997e+01 4.5594000000e+01 5.1100000000e-04 0.0000e+00 -1.0000e+00
       11 -1    0    0    0    0 -0.0000000000e+00 -0.0000000000e+00 -4.5593999997e+01 4.5594000000e+01 5.1100000000e-04 0.0000e+00 1.0000e+00
       23  2    1    2    0    0 +3.5527136788e-15 +0.0000000000e+00 +0.0000000000e+00 9.1188000000e+01 9.1188000000e+01 5.1358e-14 0.0000e+00
  9990012  2    3    3    0    0 -1.8821739309e+01 -1.7253004227e+01 +1.9099634861e+01 5.9301951683e+01 5.0000013961e+01 1.4353e-03 0.0000e+00
      -11  1    4    4    0    0 -3.2443732390e+00 -1.3036156818e+01 -1.2225171582e+00 1.3489325067e+01 5.1100000000e-04 0.0000e+00 1.0000e+00
       11  1    4    4    0    0 -1.7238550339e+01 -1.0793504791e+01 +2.8610063877e+01 3.5102750872e+01 5.1100000000e-04 0.0000e+00 -1.0000e+00
       12  1    4    4    0    0 +1.6611842692e+00 +6.5766573817e+00 -8.2879118576e+00 1.0709875744e+01 0.0000000000e+00 0.0000e+00 -1.0000e+00
      -12  1    3    3    0    0 +1.8821739309e+01 +1.7253004227e+01 -1.9099634861e+01 3.1886048317e+01 0.0000000000e+00 0.0000e+00 1.0000e+00
</event>
<event>
 8      4 +2.2883893e-04 9.11880000e+01 7.81616400e-03 1.18400000e-01
      -11 -1    0    0    0    0 +0.0000000000e+00 +0.0000000000e+00 +4.5593999997e+01 4.5594000000e+01 5.1100000000e-04 0.0000e+00 -1.0000e+00
       11 -1    0    0    0    0 -0.0000000000e+00 -0.0000000000e+00 -4.5593999997e+01 4.5594000000e+01 5.1100000000e-04 0.0000e+00 1.0000e+00
       23  2    1    2    0    0 -5.3290705182e-15 -3.5527136788e-15 +3.5527136788e-15 9.1188000000e+01 9.1188000000e+01 1.3650e-13 0.0000e+00
 -9990012  2    3    3    0    0 +1.4322719315e+01 +2.0143187769e+01 -2.0145284846e+01 5.9301940294e+01 4.9999993190e+01 1.9934e-04 0.0000e+00
      -11  1    4    4    0    0 -6.2670197150e+00 +1.9687617400e+00 -2.2944536016e+00 6.9581661728e+00 5.1100000000e-04 0.0000e+00 1.0000e+00
       11  1    4    4    0    0 -1.2299540802e+01 +6.9692153182e+00 -7.9321475459e+00 1.6210108915e+01 5.1100000000e-04 0.0000e+00 -1.0000e+00
      -12  1    4    4    0    0 +3.2889279832e+01 +1.1205210711e+01 -9.9186836981e+00 3.6133665206e+01 0.0000000000e+00 0.0000e+00 1.0000e+00
       12  1    3    3    0    0 -1.4322719315e+01 -2.0143187769e+01 +2.0145284846e+01 3.1886059706e+01 0.0000000000e+00 0.0000e+00 -1.0000e+00
</event>
<event>
 8      3 +2.2883893e-04 9.11880000e+01 7.81616400e-03 1.18400000e-01
      -11 -1    0    0    0    0 +0.0000000000e+00 +0.0000000000e+00 +4.5593999997e+01 4.5594000000e+01 5.1100000000e-04 0.0000e+00 1.0000e+00
       11 -1    0    0    0    0 -0.0000000000e+00 -0.0000000000e+00 -4.5593999997e+01 4.5594000000e+01 5.1100000000e-04 0.0000e+00 -1.0000e+00
       23  2    1    2    0    0 -3.5527136788e-15 +0.0000000000e+00 -2.6645352591e-15 9.1188000000e+01 9.1188000000e+01 4.7538e-14 0.0000e+00
  9990012  2    3    3    0    0 -2.9919084105e+01 -9.3587871975e+00 -5.8292718551e+00 5.9301970115e+01 5.0000047576e+01 1.2348e-03 0.0000e+00
      -11  1    4    4    0    0 +3.3461266639e+00 -1.3439609223e+01 +1.2680911313e+01 1.8778316530e+01 5.1100000000e-04 0.0000e+00 1.0000e+00
       11  1    4    4    0    0 -8.7024014819e+00 +6.7575015189e+00 -8.2750958674e+00 1.3779435047e+01 5.1100000000e-04 0.0000e+00 -1.0000e+00
       12  1    4    4    0    0 -2.4562809287e+01 -2.6766794935e+00 -1.0235087300e+01 2.6744218538e+01 0.0000000000e+00 0.0000e+00 -1.0000e+00
      -12  1    3    3    0    0 +2.9919084105e+01 +9.3587871975e+00 +5.8292718551e+00 3.1886029885e+01 0.0000000000e+00 0.0000e+00 1.0000e+00
</event>
<event>
 8      3 +2.2883893e-04 9.11880000e+01 7.81616400e-03 1.18400000e-01
      -11 -1    0    0    0    0 +0.0000000000e+00 +0.0000000000e+00 +4.5593999997e+01 4.5594000000e+01 5.1100000000e-04 0.0000e+00 -1.0000e+00
       11 -1    0    0    0    0 -0.0000000000e+00 -0.0000000000e+00 -4.5593999997e+01 4.5594000000e+01 5.1100000000e-04 0.0000e+00 1.0000e+00
       23  2    1    2    0    0 +0.0000000000e+00 +4.4408920985e-16 -3.5527136788e-15 9.1188000000e+01 9.1188000000e+01 8.2386e-14 0.0000e+00
  9990012  2    3    3    0    0 +9.4953841994e+00 +1.5954104291e+00 +3.0397604801e+01 5.9301921013e+01 4.9999958027e+01 5.8721e-04 0.0000e+00
      -11  1    4    4    0    0 +1.4397740539e+01 -6.2274531294e+00 -2.6069041513e+00 1.5901951283e+01 5.1100000000e-04 0.0000e+00 1.0000e+00
       11  1    4    4    0    0 +2.2601627822e+00 +5.3693867040e+00 -3.0384247668e+00 6.5704394605e+00 5.1100000000e-04 0.0000e+00 -1.0000e+00
       12  1    4    4    0    0 -7.1625191214e+00 +2.4534768545e+00 +3.6042933719e+01 3.6829530270e+01 0.0000000000e+00 0.0000e+00 -1.0000e+00
      -12  1    3    3    0    0 -9.4953841994e+00 -1.5954104291e+00 -3.0397604801e+01 3.1886078987e+01 0.0000000000e+00 0.0000e+00 1.0000e+00
</event>
<event>
 8      4 +2.2883893e-04 9.11880000e+01 7.81616400e-03 1.18400000e-01
      -11 -1    0    0    0    0 +0.0000000000e+00 +0.0000000000e+00 +4.5593999997e+01 4.5594000000e+01 5.1100000000e-04 0.0000e+00 -1.0000e+00
       11 -1    0    0    0    0 -0.0000000000e+00 -0.0000000000e+00 -4.5593999997e+01 4.5594000000e+01 5.1100000000e-04 0.0000e+00 1.0000e+00
       23  2    1    2    0    0 +3.5527136788e-15 +3.5527136788e-15 -5.3290705182e-15 9.1188000000e+01 9.1188000000e+01 8.9130e-14 0.0000e+00
 -9990012  2    3    3    0    0 +2.5465290839e+01 +1.5189942627e+01 -1.1726207503e+01 5.9301963293e+01 5.0000035134e+01 2.2463e-04 0.0000e+00
      -11  1    4    4    0    0 +1.1046581347e+01 +6.9886119299e+00 +8.8055811694e+00 1.5760898329e+01 5.1100000000e-04 0.0000e+00 1.0000e+00
       11  1    4    4    0    0 -5.2111768949e+00 -8.6615115134e+00 +6.0689024754e-01 1.0126522718e+01 5.1100000000e-04 0.0000e+00 -1.0000e+00
      -12  1    4    4    0    0 +1.9629886387e+01 +1.6862842210e+01 -2.1138678920e+01 3.3414542245e+01 0.0000000000e+00 0.0000e+00 1.0000e+00
       12  1    3    3    0    0 -2.5465290839e+01 -1.5189942627e+01 +1.1726207503e+01 3.1886036707e+01 0.0000000000e+00 0.0000e+00 -1.0000e+00
</event>
<event>
 8      4 +2.2883893e-04 9.11880000e+01 7.81616400e-03 1.18400000e-01
      -11 -1    0    0    0    0 +0.0000000000e+00 +0.0000000000e+00 +4.5593999997e+01 4.5594000000e+01 5.1100000000e-04 0.0000e+00 -1.0000e+00
       11 -1    0    0    0    0 -0.0000000000e+00 -0.0000000000e+00 -4.5593999997e+01 4.5594000000e+01 5.1100000000e-04 0.0000e+00 1.0000e+00
       23  2    1    2    0    0 +0.0000000000e+00 +0.0000000000e+00 +0.0000000000e+00 9.1188000000e+01 9.1188000000e+01 1.5404e-13 0.0000e+00
 -9990012  2    3    3    0    0 +8.0845137307e+00 +1.7483220335e+01 -2.5410607833e+01 5.9301931789e+01 4.9999977679e+01 3.9910e-04 0.0000e+00
      -11  1    4    4    0    0 +6.5521326098e+00 +4.3274191535e+00 -3.9965321470e+00 8.8107472855e+00 5.1100000000e-04 0.0000e+00 1.0000e+00
       11  1    4    4    0    0 +1.4965143687e+01 -1.0662757668e+01 -8.2508335194e+00 2.0142645821e+01 5.1100000000e-04 0.0000e+00 -1.0000e+00
      -12  1    4    4    0    0 -1.3432762566e+01 +2.3818558849e+01 -1.3163242167e+01 3.0348538682e+01 0.0000000000e+00 0.0000e+00 1.0000e+00
       12  1    3    3    0    0 -8.0845137307e+00 -1.7483220335e+01 +2.5410607833e+01 3.1886068211e+01 0.0000000000e+00 0.0000e+00 -1.0000e+00
</event>
<event>
 8      4 +2.2883893e-04 9.11880000e+01 7.81616400e-03 1.18400000e-01
      -11 -1    0    0    0    0 +0.0000000000e+00 +0.0000000000e+00 +4.5593999997e+01 4.5594000000e+01 5.1100000000e-04 0.0000e+00 1.0000e+00
       11 -1    0    0    0    0 -0.0000000000e+00 -0.0000000000e+00 -4.5593999997e+01 4.5594000000e+01 5.1100000000e-04 0.0000e+00 -1.0000e+00
       23  2    1    2    0    0 +3.5527136788e-15 +8.8817841970e-16 +3.5527136788e-15 9.1188000000e+01 9.1188000000e+01 1.1810e-13 0.0000e+00
 -9990012  2    3    3    0    0 -2.5554624110e+01 +7.5215743233e+00 +1.7524454487e+01 5.9301962323e+01 5.0000033365e+01 1.2909e-03 0.0000e+00
      -11  1    4    4    0    0 -8.1378728078e-01 -5.8420856173e+00 -5.3199749276e+00 7.9431950492e+00 5.1100000000e-04 0.0000e+00 1.0000e+00
       11  1    4    4    0    0 -1.4089253845e+01 -8.8395491989e+00 -1.5387118152e+00 1.6703662420e+01 5.1100000000e-04 0.0000e+00 -1.0000e+00
      -12  1    4    4    0    0 -1.0651582985e+01 +2.2203209139e+01 +2.4383141229e+01 3.4655104853e+01 0.0000000000e+00 0.0000e+00 1.0000e+00
       12  1    3    3    0    0 +2.5554624110e+01 -7.5215743233e+00 -1.7524454487e+01 3.1886037677e+01 0.0000000000e+00 0.0000e+00 -1.0000e+00
</event>
<event>
 8      3 +2.2883893e-04 9.11880000e+01 7.81616400e-03 1.18400000e-01
      -11 -1    0    0    0    0 +0.0000000000e+00 +0.0000000000e+00 +4.5593999997e+01 4.5594000000e+01 5.1100000000e-04 0.0000e+00 1.0000e+00
       11 -1    0    0    0    0 -0.0000000000e+00 -0.0000000000e+00 -4.5593999997e+01 4.5594000000e+01 5.1100000000e-04 0.0000e+00 -1.0000e+00
       23  2    1    2    0    0 +1.7763568394e-15 -8.8817841970e-16 +0.0000000000e+00 9.1188000000e+01 9.1188000000e+01 1.1346e-13 0.0000e+00
  9990012  2    3    3    0    0 -1.4653692857e+01 +4.7954845022e+00 -2.7910416150e+01 5.9301973034e+01 5.0000052901e+01 2.5237e-03 0.0000e+00
      -11  1    4    4    0    0 +1.1564295697e+01 -7.8825057515e+00 -1.0286062676e+01 1.7368647544e+01 5.1100000000e-04 0.0000e+00 1.0000e+00
       11  1    4    4    0    0 -9.3541785597e+00 +7.5242845801e+00 -2.0800175394e+01 2.4015886651e+01 5.1100000000e-04 0.0000e+00 -1.0000e+00
       12  1    4    4    0    0 -1.6863809994e+01 +5.1537056736e+00 +3.1758219191e+00 1.7917438839e+01 0.0000000000e+00 0.0000e+00 -1.0000e+00
      -12  1    3    3    0    0 +1.4653692857e+01 -4.7954845022e+00 +2.7910416150e+01 3.1886026966e+01 0.0000000000e+00 0.0000e+00 1.0000e+00
</event>
<event>
 8      3 +2.2883893e-04 9.11880000e+01 7.81616400e-03 1.18400000e-01
      -11 -1    0    0    0    0 +0.0000000000e+00 +0.0000000000e+00 +4.5593999997e+01 4.5594000000e+01 5.1100000000e-04 0.0000e+00 1.0000e+00
       11 -1    0    0    0    0 -0.0000000000e+00 -0.0000000000e+00 -4.5593999997e+01 4.5594000000e+01 5.1100000000e-04 0.0000e+00 -1.0000e+00
       23  2    1    2    0    0 +1.7763568394e-15 +1.7763568394e-15 -3.5527136788e-15 9.1188000000e+01 9.1188000000e+01 1.4108e-14 0.0000e+00
  9990012  2    3    3    0    0 +6.5334947405e+00 +1.0757546576e+01 -2.9296908802e+01 5.9301949332e+01 5.0000009673e+01 3.3367e-04 0.0000e+00
      -11  1    4    4    0    0 -1.1459677108e+01 +7.0543530245e+00 +8.0637045257e-01 1.3481035924e+01 5.1100000000e-04 0.0000e+00 1.0000e+00
       11  1    4    4    0    0 -7.4585647860e+00 +3.4541011644e+00 -3.2983443949e+00 8.8566404200e+00 5.1100000000e-04 0.0000e+00 -1.0000e+00
       12  1    4    4    0    0 +2.5451736634e+01 +2.4909238725e-01 -2.6804934860e+01 3.6964272988e+01 0.0000000000e+00 0.0000e+00 -1.0000e+00
      -12  1    3    3    0    0 -6.5334947405e+00 -1.0757546576e+01 +2.9296908802e+01 3.1886050668e+01 0.0000000000e+00 0.0000e+00 1.0000e+00
</event>
<event>
 8      4 +2.2883893e-04 9.11880000e+01 7.81616400e-03 1.18400000e-01
      -11 -1    0    0    0    0 +0.0000000000e+00 +0.0000000000e+00 +4.5593999997e+01 4.5594000000e+01 5.1100000000e-04 0.0000e+00 -1.0000e+00
       11 -1    0    0    0    0 -0.0000000000e+00 -0.0000000000e+00 -4.5593999997e+01 4.5594000000e+01 5.1100000000e-04 0.0000e+00 1.0000e+00
       23  2    1    2    0    0 -3.5527136788e-15 +0.0000000000e+00 +0.0000000000e+00 9.1188000000e+01 9.1188000000e+01 8.8006e-15 0.0000e+00
 -9990012  2    3    3    0    0 -2.9497420749e+01 +4.2846035621e+00 -1.1325390961e+01 5.9301950716e+01 5.0000012198e+01 1.2841e-03 0.0000e+00
      -11  1    4    4    0    0 -6.5808488435e+00 +3.1158701319e+00 +2.7741757709e+00 7.7918078550e+00 5.1100000000e-04 0.0000e+00 1.0000e+00
       11  1    4    4    0    0 +6.4006039610e+00 -2.6329349861e+00 +1.0821077051e+01 1.2845068568e+01 5.1100000000e-04 0.0000e+00 -1.0000e+00
      -12  1    4    4    0    0 -2.9317175867e+01 +3.8016684163e+00 -2.4920643783e+01 3.8665074293e+01 0.0000000000e+00 0.0000e+00 1.0000e+00
       12  1    3    3    0    0 +2.9497420749e+01 -4.2846035621e+00 +1.1325390961e+01 3.1886049284e+01 0.0000000000e+00 0.0000e+00 -1.0000e+00
</event>
<event>
 8      3 +2.2883893e-04 9.11880000e+01 7.81616400e-03 1.18400000e-01
      -11 -1    0    0    0    0 +0.0000000000e+00 +0.0000000000e+00 +4.5593999997e+01 4.5594000000e+01 5.1100000000e-04 0.0000e+00 -1.0000e+00
       11 -1    0    0    0    0 -0.0000000000e+00 -0.0000000000e+00 -4.5593999997e+01 4.5594000000e+01 5.1100000000e-04 0.0000e+00 1.0000e+00
       23  2    1    2    0    0 -3.5527136788e-15 +0.0000000000e+00 +0.0000000000e+00 9.1188000000e+01 9.1188000000e+01 2.7890e-14 0.0000e+00
  9990012  2    3    3    0    0 -3.1574209271e+01 +2.4273837953e+00 -3.7259892583e+00 5.9302174323e+01 5.0000420001e+01 3.5124e-04 0.0000e+00
      -11  1    4    4    0    0 -2.4821012599e+01 -3.8532156318e+00 -7.8241053834e+00 2.6308678462e+01 5.1100000000e-04 0.0000e+00 1.0000e+00
       11  1    4    4    0    0 -1.8511533294e+01 +4.6524522294e+00 -2.7577014823e+00 1.9285411439e+01 5.1100000000e-04 0.0000e+00 -1.0000e+00
       12  1    4    4    0    0 +1.1758336622e+01 +1.6281471976e+00 +6.8558176074e+00 1.3708084421e+01 0.0000000000e+00 0.0000e+00 -1.0000e+00
      -12  1    3    3    0    0 +3.1574209271e+01 -2.4273837953e+00 +3.7259892583e+00 3.1885825677e+01 0.0000000000e+00 0.0000e+00 1.0000e+00
</event>
<event>
 8      3 +2.2883893e-04 9.11880000e+01 7.81616400e-03 1.18400000e-01
      -11 -1    0    0    0    0 +0.0000000000e+00 +0.0000000000e+00 +4.5593999997e+01 4.5594000000e+01 5.1100000000e-04 0.0000e+00 -1.0000e+00
       11 -1    0    0    0    0 -0.0000000000e+00 -0.0000000000e+00 -4.5593999997e+01 4.5594000000e+01 5.1100000000e-04 0.0000e+00 1.0000e+00
       23  2    1    2    0    0 +3.5527136788e-15 +2.2204460493e-16 -3.5527136788e-15 9.1188000000e+01 9.1188000000e+01 1.2146e-13 0.0000e+00
  9990012  2    3    3    0    0 -2.4060538902e+01 -1.8015284095e+00 +2.0846229584e+01 5.9301947802e+01 5.0000006884e+01 2.3207e-03 0.0000e+00
      -11  1    4    4    0    0 -2.6677208172e+01 +2.7574476102e+00 -1.0269032701e+00 2.6838991854e+01 5.1100000000e-04 0.0000e+00 1.0000e+00
       11  1    4    4    0    0 +1.2854345588e+00 -4.8800312745e-01 +2.6280961369e+01 2.6316903690e+01 5.1100000000e-04 0.0000e+00 -1.0000e+00
       12  1    4    4    0    0 +1.3312347107e+00 -4.0709728922e+00 -4.4078285148e+00 6.1460522581e+00 0.0000000000e+00 0.0000e+00 -1.0000e+00
      -12  1    3    3    0    0 +2.4060538902e+01 +1.8015284095e+00 -2.0846229584e+01 3.1886052198e+01 0.0000000000e+00 0.0000e+00 1.0000e+00
</event>
<event>
 8      4 +2.2883893e-04 9.11880000e+01 7.81616400e-03 1.18400000e-01
      -11 -1    0    0    0    0 +0.0000000000e+00 +0.0000000000e+00 +4.5593999997e+01 4.5594000000e+01 5.1100000000e-04 0.0000e+00 -1.0000e+00
       11 -1    0    0    0    0 -0.0000000000e+00 -0.0000000000e+00 -4.5593999997e+01 4.5594000000e+01 5.1100000000e-04 0.0000e+00 1.0000e+00
       23  2    1    2    0    0 +0.0000000000e+00 -1.7763568394e-15 +2.2204460493e-16 9.1188000000e+01 9.1188000000e+01 2.8628e-14 0.0000e+00
 -9990012  2    3    3    0    0 +2.9132945888e+01 +1.2830486559e+01 -1.8361301301e+00 5.9301932583e+01 4.9999979128e+01 1.6046e-03 0.0000e+00
      -11  1    4    4    0    0 +1.7294903856e+01 +1.9926448531e+01 +7.7623761595e-01 2.6396583028e+01 5.1100000000e-04 0.0000e+00 1.0000e+00
       11  1    4    4    0    0 +9.6432413218e-01 -8.2400999550e-01 +1.2893214030e+01 1.2955457606e+01 5.1100000000e-04 0.0000e+00 -1.0000e+00
      -12  1    4    4    0    0 +1.0873717900e+01 -6.2719519762e+00 -1.5505581776e+01 1.9949891949e+01 0.0000000000e+00 0.0000e+00 1.0000e+00
       12  1    3    3    0    0 -2.9132945888e+01 -1.2830486559e+01 +1.8361301301e+00 3.1886067417e+01 0.0000000000e+00 0.0000e+00 -1.0000e+00
</event>
<event>
 8      3 +2.2883893e-04 9.11880000e+01 7.81616400e-03 1.18400000e-01
      -11 -1    0    0    0    0 +0.0000000000e+00 +0.0000000000e+00 +4.5593999997e+01 4.5594000000e+01 5.1100000000e-04 0.0000e+00 -1.0000e+00
       11 -1    0    0    0    0 -0.0000000000e+00 -0.0000000000e+00 -4.5593999997e+01 4.5594000000e+01 5.1100000000e-04 0.0000e+00 1.0000e+00
       23  2    1    2    0    0 -1.7763568394e-15 -1.7763568394e-15 +0.0000000000e+00 9.1188000000e+01 9.1188000000e+01 6.1403e-14 0.0000e+00
  9990012  2    3    3    0    0 +1.5636523986e+01 -1.5847429682e+01 +2.2827225263e+01 5.9301888241e+01 4.9999898258e+01 9.8972e-05 0.0000e+00
      -11  1    4    4    0    0 +1.2587255762e+00 -7.5919774934e-01 -5.9942233216e+00 6.1718299385e+00 5.1100000000e-04 0.0000e+00 1.0000e+00
       11  1    4    4    0    0 -7.8096816742e+00 +1.8197587448e+00 +2.3369073019e+01 2.4706602838e+01 5.1100000000e-04 0.0000e+00 -1.0000e+00
       12  1    4    4    0    0 +2.2187480084e+01 -1.6907990678e+01 +5.4523755655e+00 2.8423455465e+01 0.0000000000e+00 0.0000e+00 -1.0000e+00
      -12  1    3    3    0    0 -1.5636523986e+01 +1.5847429682e+01 -2.2827225263e+01 3.1886111759e+01 0.0000000000e+00 0.0000e+00 1.0000e+00
</event>
<event>
 8      3 +2.2883893e-04 9.11880000e+01 7.81616400e-03 1.18400000e-01
      -11 -1    0    0    0    0 +0.0000000000e+00 +0.0000000000e+00 +4.5593999997e+01 4.5594000000e+01 5.1100000000e-04 0.0000e+00 1.0000e+00
       11 -1    0    0    0    0 -0.0000000000e+00 -0.0000000000e+00 -4.5593999997e+01 4.5594000000e+01 5.1100000000e-04 0.0000e+00 -1.0000e+00
       23  2    1    2    0    0 -1.7763568394e-15 -8.8817841970e-16 +3.5527136788e-15 9.1188000000e+01 9.1188000000e+01 1.6822e-13 0.0000e+00
  9990012  2    3    3    0    0 +7.7918106358e+00 -6.5724191347e+00 -3.0212763665e+01 5.9301951412e+01 5.0000013467e+01 2.3817e-03 0.0000e+00
      -11  1    4    4    0    0 -7.4455361607e+00 +3.5940593456e+00 -1.2879953902e+01 1.5305113004e+01 5.1100000000e-04 0.0000e+00 1.0000e+00
       11  1    4    4    0    0 +2.2097046381e+01 +5.6289853943e+00 -6.7356542947e+00 2.3776752814e+01 5.1100000000e-04 0.0000e+00 -1.0000e+00
       12  1    4    4    0    0 -6.8596995844e+00 -1.5795463875e+01 -1.0597155469e+01 2.0220085594e+01 0.0000000000e+00 0.0000e+00 -1.0000e+00
      -12  1    3    3    0    0 -7.7918106358e+00 +6.5724191347e+00 +3.0212763665e+01 3.1886048588e+01 0.0000000000e+00 0.0000e+00 1.0000e+00
</event>
<event>
 8      4 +2.2883893e-04 9.11880000e+01 7.81616400e-03 1.18400000e-01
      -11 -1    0    0    0    0 +0.0000000000e+00 +0.0000000000e+00 +4.5593999997e+01 4.5594000000e+01 5.1100000000e-04 0.0000e+00 -1.0000e+00
       11 -1    0    0    0    0 -0.0000000000e+00 -0.0000000000e+00 -4.5593999997e+01 4.5594000000e+01 5.1100000000e-04 0.0000e+00 1.0000e+00
       23  2    1    2    0    0 -3.5527136788e-15 +0.0000000000e+00 +1.7763568394e-15 9.1188000000e+01 9.1188000000e+01 1.1633e-13 0.0000e+00
 -9990012  2    3    3    0    0 -2.4674962366e+01 -1.6702298801e+01 +1.1353420896e+01 5.9301941619e+01 4.9999995608e+01 1.9045e-04 0.0000e+00
      -11  1    4    4    0    0 +5.6258985568e+00 -7.8492613482e+00 +6.1052439588e-01 9.6764858592e+00 5.1100000000e-04 0.0000e+00 1.0000e+00
       11  1    4    4    0    0 +1.8300141067e-01 +5.6812284770e+00 -8.8974563916e+00 1.0558152160e+01 5.1100000000e-04 0.0000e+00 -1.0000e+00
      -12  1    4    4    0    0 -3.0483862334e+01 -1.4534265930e+01 +1.9640352892e+01 3.9067303601e+01 0.0000000000e+00 0.0000e+00 1.0000e+00
       12  1    3    3    0    0 +2.4674962366e+01 +1.6702298801e+01 -1.1353420896e+01 3.1886058381e+01 0.0000000000e+00 0.0000e+00 -1.0000e+00
</event>
<event>
 8      3 +2.2883893e-04 9.11880000e+01 7.81616400e-03 1.18400000e-01
      -11 -1    0    0    0    0 +0.0000000000e+00 +0.0000000000e+00 +4.5593999997e+01 4.5594000000e+01 5.1100000000e-04 0.0000e+00 -1.0000e+00
       11 -1    0    0    0    0 -0.0000000000e+00 -0.0000000000e+00 -4.5593999997e+01 4.5594000000e+01 5.1100000000e-04 0.0000e+00 1.0000e+00
       23  2    1    2    0    0 +3.5527136788e-15 +0.0000000000e+00 +0.0000000000e+00 9.1188000000e+01 9.1188000000e+01 2.7939e-14 0.0000e+00
  9990012  2    3    3    0    0 +1.9799668761e+01 +1.8799369689e+00 +2.4923066150e+01 5.9301948624e+01 5.0000008382e+01 1.6012e-04 0.0000e+00
      -11  1    4    4    0    0 +2.0249700628e+01 -8.9407290304e+00 +3.7387734721e+00 2.2449174561e+01 5.1100000000e-04 0.0000e+00 1.0000e+00
       11  1    4    4    0    0 -1.2697592268e+01 +1.1900955546e+01 +1.5510189695e+01 2.3311533132e+01 5.1100000000e-04 0.0000e+00 -1.0000e+00
       12  1    4    4    0    0 +1.2247560401e+01 -1.0802895472e+00 +5.6741029826e+00 1.3541240931e+01 0.0000000000e+00 0.0000e+00 -1.0000e+00
      -12  1    3    3    0    0 -1.9799668761e+01 -1.8799369689e+00 -2.4923066150e+01 3.1886051376e+01 0.0000000000e+00 0.0000e+00 1.0000e+00
</event>
<event>
 8      3 +2.2883893e-04 9.11880000e+01 7.81616400e-03 1.18400000e-01
      -11 -1    0    0    0    0 +0.0000000000e+00 +0.0000000000e+00 +4.5593999997e+01 4.5594000000e+01 5.1100000000e-04 0.0000e+00 1.0000e+00
       11 -1    0    0    0    0 -0.0000000000e+00 -0.0000000000e+00 -4.5593999997e+01 4.5594000000e+01 5.1100000000e-04 0.0000e+00 -1.0000e+00
       23  2    1    2    0    0 -3.5527136788e-15 -1.7763568394e-15 +0.0000000000e+00 9.1188000000e+01 9.1188000000e+01 1.3007e-13 0.0000e+00
  9990012  2    3    3    0    0 -2.9054046164e+01 +1.3026793058e+01 -1.6990581350e+00 5.9301925697e+01 4.9999966570e+01 1.4268e-03 0.0000e+00
      -11  1    4    4    0    0 +4.7212282085e-01 +9.9659047384e+00 +1.5772981051e+01 1.8663576525e+01 5.1100000000e-04 0.0000e+00 1.0000e+00
       11  1    4    4    0    0 +3.4836848230e+00 +2.0296630652e-01 -2.4179736044e+00 4.2454507276e+00 5.1100000000e-04 0.0000e+00 -1.0000e+00
       12  1    4    4    0    0 -3.3009853808e+01 +2.8579220136e+00 -1.5054065582e+01 3.6392898445e+01 0.0000000000e+00 0.0000e+00 -1.0000e+00
      -12  1    3    3    0    0 +2.9054046164e+01 -1.3026793058e+01 +1.6990581350e+00 3.1886074303e+01 0.0000000000e+00 0.0000e+00 1.0000e+00
</event>
<event>
 8      3 +2.2883893e-04 9.11880000e+01 7.81616400e-03 1.18400000e-01
      -11 -1    0    0    0    0 +0.0000000000e+00 +0.0000000000e+00 +4.5593999997e+01 4.5594000000e+01 5.1100000000e-04 0.0000e+00 -1.0000e+00
       11 -1    0    0    0    0 -0.0000000000e+00 -0.0000000000e+00 -4.5593999997e+01 4.5594000000e+01 5.1100000000e-04 0.0000e+00 1.0000e+00
       23  2    1    2    0    0 -1.7763568394e-15 +4.4408920985e-16 -3.5527136788e-15 9.1188000000e+01 9.1188000000e+01 5.2669e-14 0.0000e+00
  9990012  2    3    3    0    0 +7.8698990235e+00 -1.9866697714e+00 +3.0835669654e+01 5.9301942069e+01 4.9999996427e+01 3.7709e-03 0.0000e+00
      -11  1    4    4    0    0 -2.0168188771e+00 -1.8336039560e+01 -4.3969065785e+00 1.8963404042e+01 5.1100000000e-04 0.0000e+00 1.0000e+00
       11  1    4    4    0    0 +8.6125938987e+00 +1.0400620184e+01 +2.2841946912e+01 2.6534962086e+01 5.1100000000e-04 0.0000e+00 -1.0000e+00
       12  1    4    4    0    0 +1.2741240019e+00 +5.9487496042e+00 +1.2390629320e+01 1.3803575941e+01 0.0000000000e+00 0.0000e+00 -1.0000e+00
      -12  1    3    3    0    0 -7.8698990235e+00 +1.9866697714e+00 -3.0835669654e+01 3.1886057931e+01 0.0000000000e+00 0.0000e+00 1.0000e+00
</event>
<event>
 8      4 +2.2883893e-04 9.11880000e+01 7.81616400e-03 1.18400000e-01
      -11 -1    0    0    0    0 +0.0000000000e+00 +0.0000000000e+00 +4.5593999997e+01 4.5594000000e+01 5.1100000000e-04 0.0000e+00 -1.0000e+00
       11 -1    0    0    0    0 -0.0000000000e+00 -0.0000000000e+00 -4.5593999997e+01 4.5594000000e+01 5.1100000000e-04 0.0000e+00 1.0000e+00
       23  2    1    2    0    0 +3.5527136788e-15 +2.2204460493e-16 +7.1054273576e-15 9.1188000000e+01 9.1188000000e+01 5.8563e-14 0.0000e+00
 -9990012  2    3    3    0    0 -2.6894823231e+01 +1.9092833113e+00 -1.7021912491e+01 5.9301915508e+01 4.9999947987e+01 1.9081e-03 0.0000e+00
      -11  1    4    4    0    0 -1.4940740566e+01 +4.4322780994e+00 -4.0725835916e+00 1.6107661381e+01 5.1100000000e-04 0.0000e+00 1.0000e+00
       11  1    4    4    0    0 -2.2871047229e+01 +1.5168390338e+00 +3.3502712429e+00 2.3164842319e+01 5.1100000000e-04 0.0000e+00 -1.0000e+00
      -12  1    4    4    0    0 +1.0916964564e+01 -4.0398338218e+00 -1.6299600142e+01 2.0029411808e+01 0.0000000000e+00 0.0000e+00 1.0000e+00
       12  1    3    3    0    0 +2.6894823231e+01 -1.9092833113e+00 +1.7021912491e+01 3.1886084492e+01 0.0000000000e+00 0.0000e+00 -1.0000e+00
</event>
<event>
 8      3 +2.2883893e-04 9.11880000e+01 7.81616400e-03 1.18400000e-01
      -11 -1    0    0    0    0 +0.0000000000e+00 +0.0000000000e+00 +4.5593999997e+01 4.5594000000e+01 5.1100000000e-04 0.0000e+00 1.0000e+00
       11 -1    0    0    0    0 -0.0000000000e+00 -0.0000000000e+00 -4.5593999997e+01 4.5594000000e+01 5.1100000000e-04 0.0000e+00 -1.0000e+00
       23  2    1    2    0    0 +0.0000000000e+00 -2.6645352591e-15 -3.5527136788e-15 9.1188000000e+01 9.1188000000e+01 3.8064e-14 0.0000e+00
  9990012  2    3    3    0    0 -1.9187756993e+01 +4.9417769352e+00 -2.4982587967e+01 5.9301939108e+01 4.9999991027e+01 4.0946e-04 0.0000e+00
      -11  1    4    4    0    0 -4.0779380308e+00 +4.0850501357e+00 +8.6641166949e+00 1.0410769979e+01 5.1100000000e-04 0.0000e+00 1.0000e+00
       11  1    4    4    0    0 -3.4743628387e+00 +1.5938590561e+01 -1.7450985335e+01 2.3888213738e+01 5.1100000000e-04 0.0000e+00 -1.0000e+00
       12  1    4    4    0    0 -1.1635456123e+01 -1.5081863761e+01 -1.6195719327e+01 2.5002955390e+01 0.0000000000e+00 0.0000e+00 -1.0000e+00
      -12  1    3    3    0    0 +1.9187756993e+01 -4.9417769352e+00 +2.4982587967e+01 3.1886060892e+01 0.0000000000e+00 0.0000e+00 1.0000e+00
</event>
<event>
 8      4 +2.2883893e-04 9.11880000e+01 7.81616400e-03 1.18400000e-01
      -11 -1    0    0    0    0 +0.0000000000e+00 +0.0000000000e+00 +4.5593999997e+01 4.5594000000e+01 5.1100000000e-04 0.0000e+00 -1.0000e+00
       11 -1    0    0    0    0 -0.0000000000e+00 -0.0000000000e+00 -4.5593999997e+01 4.5594000000e+01 5.1100000000e-04 0.0000e+00 1.0000e+00
       23  2    1    2    0    0 +0.0000000000e+00 -3.5527136788e-15 +1.7763568394e-15 9.1188000000e+01 9.1188000000e+01 4.0824e-14 0.0000e+00
 -9990012  2    3    3    0    0 +1.6087465003e+01 -2.6841186133e+01 -6.1208266377e+00 5.9301947846e+01 5.0000006963e+01 3.2302e-03 0.0000e+00
      -11  1    4    4    0    0 -2.5801388040e+00 +4.1572659874e+00 +3.2826040419e+00 5.8919832225e+00 5.1100000000e-04 0.0000e+00 1.0000e+00
       11  1    4    4    0    0 -7.5061428703e+00 -4.2042845480e+00 +8.3231997607e+00 1.1970540667e+01 5.1100000000e-04 0.0000e+00 -1.0000e+00
      -12  1    4    4    0    0 +2.6173746678e+01 -2.6794167572e+01 -1.7726630440e+01 4.1439423956e+01 0.0000000000e+00 0.0000e+00 1.0000e+00
       12  1    3    3    0    0 -1.6087465003e+01 +2.6841186133e+01 +6.1208266377e+00 3.1886052154e+01 0.0000000000e+00 0.0000e+00 -1.0000e+00
</event>
<event>
 8      3 +2.2883893e-04 9.11880000e+01 7.81616400e-03 1.18400000e-01
      -11 -1    0    0    0    0 +0.0000000000e+00 +0.0000000000e+00 +4.5593999997e+01 4.5594000000e+01 5.1100000000e-04 0.0000e+00 -1.0000e+00
       11 -1    0    0    0    0 -0.0000000000e+00 -0.0000000000e+00 -4.5593999997e+01 4.5594000000e+01 5.1100000000e-04 0.0000e+00 1.0000e+00
       23  2    1    2    0    0 +3.5527136788e-15 +0.0000000000e+00 -8.8817841970e-16 9.1188000000e+01 9.1188000000e+01 6.6660e-16 0.0000e+00
  9990012  2    3    3    0    0 +2.4211825535e+01 -2.0297088782e+01 +4.3052518786e+00 5.9301960696e+01 5.0000030399e+01 1.1804e-03 0.0000e+00
      -11  1    4    4    0    0 +3.5934305862e+01 -1.8477717965e+01 -3.1374878862e+00 4.0528313924e+01 5.1100000000e-04 0.0000e+00 1.0000e+00
       11  1    4    4    0    0 +3.8193972341e-01 +3.0988174353e+00 +4.3373068952e+00 5.3442285518e+00 5.1100000000e-04 0.0000e+00 -1.0000e+00
       12  1    4    4    0    0 -1.2104420050e+01 -4.9181882520e+00 +3.1054328697e+00 1.3429418221e+01 0.0000000000e+00 0.0000e+00 -1.0000e+00
      -12  1    3    3    0    0 -2.4211825535e+01 +2.0297088782e+01 -4.3052518786e+00 3.1886039304e+01 0.0000000000e+00 0.0000e+00 1.0000e+00
</event>
<event>
 8      4 +2.2883893e-04 9.11880000e+01 7.81616400e-03 1.18400000e-01
      -11 -1    0    0    0    0 +0.0000000000e+00 +0.0000000000e+00 +4.5593999997e+01 4.5594000000e+01 5.1100000000e-04 0.0000e+00 -1.0000e+00
       11 -1    0    0    0    0 -0.0000000000e+00 -0.0000000000e+00 -4.5593999997e+01 4.5594000000e+01 5.1100000000e-04 0.0000e+00 1.0000e+00
       23  2    1    2    0    0 -3.5527136788e-15 +3.5527136788e-15 -3.5527136788e-15 9.1188000000e+01 9.1188000000e+01 2.3817e-13 0.0000e+00
 -9990012  2    3    3    0    0 -2.2783109758e+01 +8.0248100901e+00 +2.0814730180e+01 5.9301942550e+01 4.9999997305e+01 6.9039e-04 0.0000e+00
      -11  1    4    4    0    0 +5.9625806425e+00 -8.8463174694e+00 +2.0385751982e+01 2.3008445945e+01 5.1100000000e-04 0.0000e+00 1.0000e+00
       11  1    4    4    0    0 +1.4326716202e+00 +1.3084542820e+00 -1.2315128747e+00 2.2980915563e+00 5.1100000000e-04 0.0000e+00 -1.0000e+00
      -12  1    4    4    0    0 -3.0178362021e+01 +1.5562673277e+01 +1.6604910731e+00 3.3995405048e+01 0.0000000000e+00 0.0000e+00 1.0000e+00
       12  1    3    3    0    0 +2.2783109758e+01 -8.0248100901e+00 -2.0814730180e+01 3.1886057450e+01 0.0000000000e+00 0.0000e+00 -1.0000e+00
</event>
<event>
 8      3 +2.2883893e-04 9.11880000e+01 7.81616400e-03 1.18400000e-01
      -11 -1    0    0    0    0 +0.0000000000e+00 +0.0000000000e+00 +4.5593999997e+01 4.5594000000e+01 5.1100000000e-04 0.0000e+00 -1.0000e+00
       11 -1    0    0    0    0 -0.0000000000e+00 -0.0000000000e+00 -4.5593999997e+01 4.5594000000e+01 5.1100000000e-04 0.0000e+00 1.0000e+00
       23  2    1    2    0    0 -1.7763568394e-15 +5.3290705182e-15 -7.1054273576e-15 9.1188000000e+01 9.1188000000e+01 3.1468e-14 0.0000e+00
  9990012  2    3    3    0    0 +6.3273094614e+00 -1.1934731441e+01 +2.8883406036e+01 5.9301893247e+01 4.9999907389e+01 2.4059e-03 0.0000e+00
      -11  1    4    4    0    0 -1.1042051841e+01 -1.3600321417e+00 +2.5325919091e+01 2.7661864983e+01 5.1100000000e-04 0.0000e+00 1.0000e+00
       11  1    4    4    0    0 +1.7122414136e+01 -1.7169872336e+01 +2.3129020419e-01 2.4249434577e+01 5.1100000000e-04 0.0000e+00 -1.0000e+00
       12  1    4    4    0    0 +2.4694716577e-01 +6.5951730367e+00 +3.3261967409e+00 7.3905936870e+00 0.0000000000e+00 0.0000e+00 -1.0000e+00
      -12  1    3    3    0    0 -6.3273094614e+00 +1.1934731441e+01 -2.8883406036e+01 3.1886106753e+01 0.0000000000e+00 0.0000e+00 1.0000e+00
</event>
<event>
 8      4 +2.2883893e-04 9.11880000e+01 7.81616400e-03 1.18400000e-01
      -11 -1    0    0    0    0 +0.0000000000e+00 +0.0000000000e+00 +4.5593999997e+01 4.5594000000e+01 5.1100000000e-04 0.0000e+00 1.0000e+00
       11 -1    0    0    0    0 -0.0000000000e+00 -0.0000000000e+00 -4.5593999997e+01 4.5594000000e+01 5.1100000000e-04 0.0000e+00 -1.0000e+00
       23  2    1    2    0    0 +0.0000000000e+00 +0.0000000000e+00 +0.0000000000e+00 9.1188000000e+01 9.1188000000e+01 3.3358e-14 0.0000e+00
 -9990012  2    3    3    0    0 -7.1929196518e+00 -1.0500857414e+01 +2.9235497888e+01 5.9301946053e+01 5.0000003693e+01 2.0051e-03 0.0000e+00
      -11  1    4    4    0    0 -8.2085413575e+00 +5.6406217743e+00 +2.7354334135e+00 1.0328570155e+01 5.1100000000e-04 0.0000e+00 1.0000e+00
       11  1    4    4    0    0 -3.3201675193e+00 -2.3292178382e+01 +2.6219631669e+00 2.3673271368e+01 5.1100000000e-04 0.0000e+00 -1.0000e+00
      -12  1    4    4    0    0 +4.3357892250e+00 +7.1506991942e+00 +2.3878101308e+01 2.5300104530e+01 0.0000000000e+00 0.0000e+00 1.0000e+00
       12  1    3    3    0    0 +7.1929196518e+00 +1.0500857414e+01 -2.9235497888e+01 3.1886053947e+01 0.0000000000e+00 0.0000e+00 -1.0000e+00
</event>
<event>
 8      4 +2.2883893e-04 9.11880000e+01 7.81616400e-03 1.18400000e-01
      -11 -1    0    0    0    0 +0.0000000000e+00 +0.0000000000e+00 +4.5593999997e+01 4.5594000000e+01 5.1100000000e-04 0.0000e+00 1.0000e+00
       11 -1    0    0    0    0 -0.0000000000e+00 -0.0000000000e+00 -4.5593999997e+01 4.5594000000e+01 5.1100000000e-04 0.0000e+00 -1.0000e+00
       23  2    1    2    0    0 -3.5527136788e-15 -1.1102230246e-15 +4.4408920985e-15 9.1188000000e+01 9.1188000000e+01 1.0127e-13 0.0000e+00
 -9990012  2    3    3    0    0 -3.1560041254e+01 -1.7327933263e+00 +4.2049051135e+00 5.9301952838e+01 5.0000016067e+01 2.4336e-03 0.0000e+00
      -11  1    4    4    0    0 -2.6359523980e+01 +5.2360305797e+00 -1.6702103626e+01 3.1641757007e+01 5.1100000000e-04 0.0000e+00 1.0000e+00
       11  1    4    4    0    0 +3.4778552624e+00 -2.2661455537e+00 +1.6202465524e+01 1.6725752067e+01 5.1100000000e-04 0.0000e+00 -1.0000e+00
      -12  1    4    4    0    0 -8.6783725355e+00 -4.7026783523e+00 +4.7045432154e+00 1.0934443763e+01 0.0000000000e+00 0.0000e+00 1.0000e+00
       12  1    3    3    0    0 +3.1560041254e+01 +1.7327933263e+00 -4.2049051135e+00 3.1886047162e+01 0.0000000000e+00 0.0000e+00 -1.0000e+00
</event>
<event>
 8      4 +2.2883893e-04 9.11880000e+01 7.81616400e-03 1.18400000e-01
      -11 -1    0    0    0    0 +0.0000000000e+00 +0.0000000000e+00 +4.5593999997e+01 4.5594000000e+01 5.1100000000e-04 0.0000e+00 -1.0000e+00
       11 -1    0    0    0    0 -0.0000000000e+00 -0.0000000000e+00 -4.5593999997e+01 4.5594000000e+01 5.1100000000e-04 0.0000e+00 1.0000e+00
       23  2    1    2    0    0 +8.8817841970e-16 -1.7763568394e-15 -7.1054273576e-15 9.1188000000e+01 9.1188000000e+01 3.9949e-14 0.0000e+00
 -9990012  2    3    3    0    0 -5.6685779476e+00 -1.1678166913e+01 -2.9124018036e+01 5.9301940586e+01 4.9999993723e+01 1.3545e-03 0.0000e+00
      -11  1    4    4    0    0 -2.6354721900e+00 +3.5869648480e+00 +9.1378401218e+00 1.0164258598e+01 5.1100000000e-04 0.0000e+00 1.0000e+00
       11  1    4    4    0    0 +8.5553330050e+00 +1.8126165239e+00 -5.2341514184e+00 1.0191940091e+01 5.1100000000e-04 0.0000e+00 -1.0000e+00
      -12  1    4    4    0    0 -1.1588438763e+01 -1.7077748285e+01 -3.3027706740e+01 3.8945741897e+01 0.0000000000e+00 0.0000e+00 1.0000e+00
       12  1    3    3    0    0 +5.6685779476e+00 +1.1678166913e+01 +2.9124018036e+01 3.1886059414e+01 0.0000000000e+00 0.0000e+00 -1.0000e+00
</event>
<event>
 8      4 +2.2883893e-04 9.11880000e+01 7.81616400e-03 1.18400000e-01
      -11 -1    0    0    0    0 +0.0000000000e+00 +0.0000000000e+00 +4.5593999997e+01 4.5594000000e+01 5.1100000000e-04 0.0000e+00 -1.0000e+00
       11 -1    0    0    0    0 -0.0000000000e+00 -0.0000000000e+00 -4.5593999997e+01 4.5594000000e+01 5.1100000000e-04 0.0000e+00 1.0000e+00
       23  2    1    2    0    0 +0.0000000000e+00 -1.7763568394e-15 +0.0000000000e+00 9.1188000000e+01 9.1188000000e+01 3.0356e-13 0.0000e+00
 -9990012  2    3    3    0    0 +1.0539263278e+01 +1.1466443122e+01 -2.7823837376e+01 5.9301932280e+01 4.9999978575e+01 2.9727e-04 0.0000e+00
      -11  1    4    4    0    0 -1.6543302127e-01 -1.1080127994e+00 +1.8650209633e+00 2.1756295417e+00 5.1100000000e-04 0.0000e+00 1.0000e+00
       11  1    4    4    0    0 -6.0690044642e+00 -9.5612774487e+00 +5.2592648559e+00 1.2486420973e+01 5.1100000000e-04 0.0000e+00 -1.0000e+00
      -12  1    4    4    0    0 +1.6773700764e+01 +2.2135733370e+01 -3.4948123195e+01 4.4639881765e+01 0.0000000000e+00 0.0000e+00 1.0000e+00
       12  1    3    3    0    0 -1.0539263278e+01 -1.1466443122e+01 +2.7823837376e+01 3.1886067720e+01 0.0000000000e+00 0.0000e+00 -1.0000e+00
</event>
<event>
 8      4 +2.2883893e-04 9.11880000e+01 7.81616400e-03 1.18400000e-01
      -11 -1    0    0    0    0 +0.0000000000e+00 +0.0000000000e+00 +4.5593999997e+01 4.5594000000e+01 5.1100000000e-04 0.0000e+00 1.0000e+00
       11 -1    0    0    0    0 -0.0000000000e+00 -0.0000000000e+00 -4.5593999997e+01 4.5594000000e+01 5.1100000000e-04 0.0000e+00 -1.0000e+00
       23  2    1    2    0    0 -4.4408920985e-16 +3.5527136788e-15 +0.0000000000e+00 9.1188000000e+01 9.1188000000e+01 4.2904e-14 0.0000e+00
 -9990012  2    3    3    0    0 -1.8838317659e+00 +2.4183290567e+01 +2.0696349908e+01 5.9301964432e+01 5.0000037212e+01 1.5204e-04 0.0000e+00
      -11  1    4    4    0    0 +8.9149747059e+00 +1.5549489979e+01 +1.3943220846e+01 2.2708518676e+01 5.1100000000e-04 0.0000e+00 1.0000e+00
       11  1    4    4    0    0 -6.4005831652e+00 -1.2557154675e+01 +4.6837036068e+00 1.4852160723e+01 5.1100000000e-04 0.0000e+00 -1.0000e+00
      -12  1    4    4    0    0 -4.3982233066e+00 +2.1190955262e+01 +2.0694254549e+00 2.1741285033e+01 0.0000000000e+00 0.0000e+00 1.0000e+00
       12  1    3    3    0    0 +1.8838317659e+00 -2.4183290567e+01 -2.0696349908e+01 3.1886035568e+01 0.0000000000e+00 0.0000e+00 -1.0000e+00
</event>
<event>
 7      4 +2.2883893e-04 5.93019700e+01 7.81616400e-03 1.26660500e-01
      -11 -1    0    0    0    0 +0.0000000000e+00 +0.0000000000e+00 +4.5593999997e+01 4.5594000000e+01 5.1100000000e-04 0.0000e+00 1.0000e+00
       11 -1    0    0    0    0 -0.0000000000e+00 -0.0000000000e+00 -4.5593999997e+01 4.5594000000e+01 5.1100000000e-04 0.0000e+00 -1.0000e+00
 -9990012  2    1    2    0    0 -3.5868900702e+00 -9.3215488558e+00 +3.0281376412e+01 5.9301971542e+01 5.0000050179e+01 1.7069e-03 0.0000e+00
      -11  1    3    3    0    0 +4.2464816216e-01 +1.4497755551e+01 +2.4362386249e-01 1.4506019265e+01 5.1100000000e-04 0.0000e+00 1.0000e+00
       11  1    3    3    0    0 +8.0917812718e+00 -1.5714688077e+01 +1.0977620695e+01 2.0807126229e+01 5.1100000000e-04 0.0000e+00 -1.0000e+00
      -12  1    3    3    0    0 -1.2103319504e+01 -8.1046163295e+00 +1.9060131854e+01 2.3988826048e+01 0.0000000000e+00 0.0000e+00 1.0000e+00
       12  1    1    2    0    0 +3.5868900702e+00 +9.3215488558e+00 -3.0281376412e+01 3.1886028458e+01 0.0000000000e+00 0.0000e+00 -1.0000e+00
</event>
<event>
 8      4 +2.2883893e-04 9.11880000e+01 7.81616400e-03 1.18400000e-01
      -11 -1    0    0    0    0 +0.0000000000e+00 +0.0000000000e+00 +4.5593999997e+01 4.5594000000e+01 5.1100000000e-04 0.0000e+00 1.0000e+00
       11 -1    0    0    0    0 -0.0000000000e+00 -0.0000000000e+00 -4.5593999997e+01 4.5594000000e+01 5.1100000000e-04 0.0000e+00 -1.0000e+00
       23  2    1    2    0    0 +3.5527136788e-15 -7.1054273576e-15 -2.6645352591e-15 9.1188000000e+01 9.1188000000e+01 6.0292e-13 0.0000e+00
 -9990012  2    3    3    0    0 +2.5741161164e+01 -1.8352205261e+01 -4.1605907677e+00 5.9301932015e+01 4.9999978092e+01 3.6725e-04 0.0000e+00
      -11  1    4    4    0    0 -3.8501076778e+00 +2.6529459912e+00 +9.5102038653e+00 1.0597425602e+01 5.1100000000e-04 0.0000e+00 1.0000e+00
       11  1    4    4    0    0 +2.6298506311e+01 -2.1378724855e+01 +7.5766644118e-01 3.3900374176e+01 5.1100000000e-04 0.0000e+00 -1.0000e+00
      -12  1    4    4    0    0 +3.2927625307e+00 +3.7357360295e-01 -1.4428461074e+01 1.4804132237e+01 0.0000000000e+00 0.0000e+00 1.0000e+00
       12  1    3    3    0    0 -2.5741161164e+01 +1.8352205261e+01 +4.1605907677e+00 3.1886067985e+01 0.0000000000e+00 0.0000e+00 -1.0000e+00
</event>
<event>
 8      4 +2.2883893e-04 9.11880000e+01 7.81616400e-03 1.18400000e-01
      -11 -1    0    0    0    0 +0.0000000000e+00 +0.0000000000e+00 +4.5593999997e+01 4.5594000000e+01 5.1100000000e-04 0.0000e+00 1.0000e+00
       11 -1    0    0    0    0 -0.0000000000e+00 -0.0000000000e+00 -4.5593999997e+01 4.5594000000e+01 5.1100000000e-04 0.0000e+00 -1.0000e+00
       23  2    1    2    0    0 +2.2204460493e-15 +3.5527136788e-15 +0.0000000000e+00 9.1188000000e+01 9.1188000000e+01 2.3153e-13 0.0000e+00
 -9990012  2    3    3    0    0 +8.0025471863e-01 +2.4860862645e+01 +1.9950383820e+01 5.9301941705e+01 4.9999995763e+01 2.7837e-04 0.0000e+00
      -11  1    4    4    0    0 +1.9456768473e+00 -2.9971260515e+00 -7.7677152837e+00 8.5501943810e+00 5.1100000000e-04 0.0000e+00 1.0000e+00
       11  1    4    4    0    0 +1.4373779181e+01 +2.1222120660e+01 +1.6372414931e+01 3.0414468665e+01 5.1100000000e-04 0.0000e+00 -1.0000e+00
      -12  1    4    4    0    0 -1.5519201310e+01 +6.6358680365e+00 +1.1345684173e+01 2.0337278659e+01 0.0000000000e+00 0.0000e+00 1.0000e+00
       12  1    3    3    0    0 -8.0025471863e-01 -2.4860862645e+01 -1.9950383820e+01 3.1886058295e+01 0.0000000000e+00 0.0000e+00 -1.0000e+00
</event>
<event>
 8      4 +2.2883893e-04 9.11880000e+01 7.81616400e-03 1.18400000e-01
      -11 -1    0    0    0    0 +0.0000000000e+00 +0.0000000000e+00 +4.5593999997e+01 4.5594000000e+01 5.1100000000e-04 0.0000e+00 -1.0000e+00
       11 -1    0    0    0    0 -0.0000000000e+00 -0.0000000000e+00 -4.5593999997e+01 4.5594000000e+01 5.1100000000e-04 0.0000e+00 1.0000e+00
       23  2    1    2    0    0 +3.5527136788e-15 -1.7763568394e-15 +0.0000000000e+00 9.1188000000e+01 9.1188000000e+01 1.8407e-14 0.0000e+00
 -9990012  2    3    3    0    0 -2.5136810539e+01 -1.4994066738e+01 -1.2650709125e+01 5.9301925880e+01 4.9999966903e+01 6.9395e-03 0.0000e+00
      -11  1    4    4    0    0 -4.0404601673e+00 -2.2272053124e+01 -1.3245874650e+01 2.6226377261e+01 5.1100000000e-04 0.0000e+00 1.0000e+00
       11  1    4    4    0    0 -2.0568016420e+01 +8.1572481829e-01 +8.9955422714e+00 2.2463937488e+01 5.1100000000e-04 0.0000e+00 -1.0000e+00
      -12  1    4    4    0    0 -5.2833395172e-01 +6.4622615678e+00 -8.4003767458e+00 1.0611611132e+01 0.0000000000e+00 0.0000e+00 1.0000e+00
       12  1    3    3    0    0 +2.5136810539e+01 +1.4994066738e+01 +1.2650709125e+01 3.1886074120e+01 0.0000000000e+00 0.0000e+00 -1.0000e+00
</event>
<event>
 8      4 +2.2883893e-04 9.11880000e+01 7.81616400e-03 1.18400000e-01
      -11 -1    0    0    0    0 +0.0000000000e+00 +0.0000000000e+00 +4.5593999997e+01 4.5594000000e+01 5.1100000000e-04 0.0000e+00 1.0000e+00
       11 -1    0    0    0    0 -0.0000000000e+00 -0.0000000000e+00 -4.5593999997e+01 4.5594000000e+01 5.1100000000e-04 0.0000e+00 -1.0000e+00
       23  2    1    2    0    0 +3.5527136788e-15 -1.7763568394e-15 -3.5527136788e-15 9.1188000000e+01 9.1188000000e+01 3.3830e-14 0.0000e+00
 -9990012  2    3    3    0    0 -1.6116928252e+01 -1.2534832390e+01 +2.4491564551e+01 5.9302044886e+01 5.0000183941e+01 2.4583e-03 0.0000e+00
      -11  1    4    4    0    0 -1.9292687923e+00 +1.0131186933e+01 +2.8914044948e+01 3.0698290217e+01 5.1100000000e-04 0.0000e+00 1.0000e+00
       11  1    4    4    0    0 -2.0293759871e+00 -9.4473844783e+00 -4.4632175398e+00 1.0643859800e+01 5.1100000000e-04 0.0000e+00 -1.0000e+00
      -12  1    4    4    0    0 -1.2158283473e+01 -1.3218634845e+01 +4.0737143196e-02 1.7959894869e+01 0.0000000000e+00 0.0000e+00 1.0000e+00
       12  1    3    3    0    0 +1.6116928252e+01 +1.2534832390e+01 -2.4491564551e+01 3.1885955114e+01 0.0000000000e+00 0.0000e+00 -1.0000e+00
</event>
<event>
 8      3 +2.2883893e-04 9.11880000e+01 7.81616400e-03 1.18400000e-01
      -11 -1    0    0    0    0 +0.0000000000e+00 +0.0000000000e+00 +4.5593999997e+01 4.5594000000e+01 5.1100000000e-04 0.0000e+00 -1.0000e+00
       11 -1    0    0    0    0 -0.0000000000e+00 -0.0000000000e+00 -4.5593999997e+01 4.5594000000e+01 5.1100000000e-04 0.0000e+00 1.0000e+00
       23  2    1    2    0    0 +3.5527136788e-15 -3.5527136788e-15 -7.1054273576e-15 9.1188000000e+01 9.1188000000e+01 2.8970e-14 0.0000e+00
  9990012  2    3    3    0    0 -1.5443236487e+01 +1.5353782841e+01 +2.3291393801e+01 5.9301933672e+01 4.9999981113e+01 1.8152e-03 0.0000e+00
      -11  1    4    4    0    0 +1.6087610232e+01 +1.9365832350e+00 +9.1916851224e-01 1.6229800634e+01 5.1100000000e-04 0.0000e+00 1.0000e+00
       11  1    4    4    0    0 -1.2699117927e+01 +4.3486010829e-01 +1.3498163231e+01 1.8537991000e+01 5.1100000000e-04 0.0000e+00 -1.0000e+00
       12  1    4    4    0    0 -1.8831728792e+01 +1.2982339497e+01 +8.8740620572e+00 2.4534142037e+01 0.0000000000e+00 0.0000e+00 -1.0000e+00
      -12  1    3    3    0    0 +1.5443236487e+01 -1.5353782841e+01 -2.3291393801e+01 3.1886066328e+01 0.0000000000e+00 0.0000e+00 1.0000e+00
</event>
<event>
 8      4 +2.2883893e-04 9.11880000e+01 7.81616400e-03 1.18400000e-01
      -11 -1    0    0    0    0 +0.0000000000e+00 +0.0000000000e+00 +4.5593999997e+01 4.5594000000e+01 5.1100000000e-04 0.0000e+00 -1.0000e+00
       11 -1    0    0    0    0 -0.0000000000e+00 -0.0000000000e+00 -4.5593999997e+01 4.5594000000e+01 5.1100000000e-04 0.0000e+00 1.0000e+00
       23  2    1    2    0    0 -3.7470027081e-16 -1.3322676296e-15 -3.5527136788e-15 9.1188000000e+01 9.1188000000e+01 2.3585e-13 0.0000e+00
 -9990012  2    3    3    0    0 +4.7819665870e-02 -2.4290703338e+00 -3.1793349895e+01 5.9301956549e+01 5.0000022835e+01 4.9198e-05 0.0000e+00
      -11  1    4    4    0    0 +1.0248160509e+01 -8.0231590591e+00 -6.4382169129e+00 1.4520554823e+01 5.1100000000e-04 0.0000e+00 1.0000e+00
       11  1    4    4    0    0 +1.9493029927e+00 +1.4287530414e+01 -2.6105188428e+01 2.9823047641e+01 5.1100000000e-04 0.0000e+00 -1.0000e+00
      -12  1    4    4    0    0 -1.2149643836e+01 -8.6934416888e+00 +7.5005544553e-01 1.4958354084e+01 0.0000000000e+00 0.0000e+00 1.0000e+00
       12  1    3    3    0    0 -4.7819665870e-02 +2.4290703338e+00 +3.1793349895e+01 3.1886043451e+01 0.0000000000e+00 0.0000e+00 -1.0000e+00
</event>
<event>
 8      4 +2.2883893e-04 9.11880000e+01 7.81616400e-03 1.18400000e-01
      -11 -1    0    0    0    0 +0.0000000000e+00 +0.0000000000e+00 +4.5593999997e+01 4.5594000000e+01 5.1100000000e-04 0.0000e+00 -1.0000e+00
       11 -1    0    0    0    0 -0.0000000000e+00 -0.0000000000e+00 -4.5593999997e+01 4.5594000000e+01 5.1100000000e-04 0.0000e+00 1.0000e+00
       23  2    1    2    0    0 +0.0000000000e+00 +0.0000000000e+00 +0.0000000000e+00 9.1188000000e+01 9.1188000000e+01 4.1776e-14 0.0000e+00
 -9990012  2    3    3    0    0 -8.3602378970e+00 +1.9924648307e+01 -2.3448544092e+01 5.9301962180e+01 5.0000033106e+01 1.5898e-03 0.0000e+00
      -11  1    4    4    0    0 +2.7240084195e-01 +8.6030875797e+00 +6.9082731857e+00 1.1036827297e+01 5.1100000000e-04 0.0000e+00 1.0000e+00
       11  1    4    4    0    0 +1.3030952063e+01 +6.7459440173e+00 -7.6419106958e+00 1.6544251923e+01 5.1100000000e-04 0.0000e+00 -1.0000e+00
      -12  1    4    4    0    0 -2.1663590802e+01 +4.5756167097e+00 -2.2714906581e+01 3.1720882959e+01 0.0000000000e+00 0.0000e+00 1.0000e+00
       12  1    3    3    0    0 +8.3602378970e+00 -1.9924648307e+01 +2.3448544092e+01 3.1886037820e+01 0.0000000000e+00 0.0000e+00 -1.0000e+00
</event>
<event>
 8      4 +2.2883893e-04 9.11880000e+01 7.81616400e-03 1.18400000e-01
      -11 -1    0    0    0    0 +0.0000000000e+00 +0.0000000000e+00 +4.5593999997e+01 4.5594000000e+01 5.1100000000e-04 0.0000e+00 -1.0000e+00
       11 -1    0    0    0    0 -0.0000000000e+00 -0.0000000000e+00 -4.5593999997e+01 4.5594000000e+01 5.1100000000e-04 0.0000e+00 1.0000e+00
       23  2    1    2    0    0 +0.0000000000e+00 +0.0000000000e+00 +0.0000000000e+00 9.1188000000e+01 9.1188000000e+01 1.0426e-13 0.0000e+00
 -9990012  2    3    3    0    0 +1.7185558003e+01 +1.4073225648e+01 -2.2876153155e+01 5.9301992612e+01 5.0000088605e+01 1.9612e-03 0.0000e+00
      -11  1    4    4    0    0 +1.6748733858e+01 +9.3225602068e+00 -2.4986884501e+00 1.9330640416e+01 5.1100000000e-04 0.0000e+00 1.0000e+00
       11  1    4    4    0    0 -1.2322823631e+01 -8.9112277206e+00 -1.2501256130e+01 1.9686121173e+01 5.1100000000e-04 0.0000e+00 -1.0000e+00
      -12  1    4    4    0    0 +1.2759647776e+01 +1.3661893162e+01 -7.8762085749e+00 2.0285231023e+01 0.0000000000e+00 0.0000e+00 1.0000e+00
       12  1    3    3    0    0 -1.7185558003e+01 -1.4073225648e+01 +2.2876153155e+01 3.1886007388e+01 0.0000000000e+00 0.0000e+00 -1.0000e+00
</event>
<event>
 8      3 +2.2883893e-04 9.11880000e+01 7.81616400e-03 1.18400000e-01
      -11 -1    0    0    0    0 +0.0000000000e+00 +0.0000000000e+00 +4.5593999997e+01 4.5594000000e+01 5.1100000000e-04 0.0000e+00 1.0000e+00
       11 -1    0    0    0    0 -0.0000000000e+00 -0.0000000000e+00 -4.5593999997e+01 4.5594000000e+01 5.1100000000e-04 0.0000e+00 -1.0000e+00
       23  2    1    2    0    0 +0.0000000000e+00 +0.0000000000e+00 +2.4424906542e-15 9.1188000000e+01 9.1188000000e+01 4.4022e-14 0.0000e+00
  9990012  2    3    3    0    0 -1.2649914240e+01 -2.9221811848e+01 -1.6693379774e+00 5.9301932396e+01 4.9999978787e+01 1.3160e-03 0.0000e+00
      -11  1    4    4    0    0 -1.9710145729e+00 +6.2658023759e+00 +1.4497807797e+01 1.5916394348e+01 5.1100000000e-04 0.0000e+00 1.0000e+00
       11  1    4    4    0    0 -1.2991459985e+01 -3.1426502927e+01 -1.7865312455e+01 3.8413181438e+01 5.1100000000e-04 0.0000e+00 -1.0000e+00
       12  1    4    4    0    0 +2.3125603179e+00 -4.0611112969e+00 +1.6981666813e+00 4.9723566110e+00 0.0000000000e+00 0.0000e+00 -1.0000e+00
      -12  1    3    3    0    0 +1.2649914240e+01 +2.9221811848e+01 +1.6693379774e+00 3.1886067604e+01 0.0000000000e+00 0.0000e+00 1.0000e+00
</event>
<event>
 8      4 +2.2883893e-04 9.11880000e+01 7.81616400e-03 1.18400000e-01
      -11 -1    0    0    0    0 +0.0000000000e+00 +0.0000000000e+00 +4.5593999997e+01 4.5594000000e+01 5.1100000000e-04 0.0000e+00 -1.0000e+00
       11 -1    0    0    0    0 -0.0000000000e+00 -0.0000000000e+00 -4.5593999997e+01 4.5594000000e+01 5.1100000000e-04 0.0000e+00 1.0000e+00
       23  2    1    2    0    0 +1.7763568394e-15 +0.0000000000e+00 +0.0000000000e+00 9.1188000000e+01 9.1188000000e+01 1.0677e-13 0.0000e+00
 -9990012  2    3    3    0    0 -9.2935197084e+00 +2.9080097118e+01 +9.2032258441e+00 5.9301938422e+01 4.9999989777e+01 5.5296e-03 0.0000e+00
      -11  1    4    4    0    0 -1.0074651787e+01 +2.6600925482e+01 +1.2893352214e+01 3.1230535966e+01 5.1100000000e-04 0.0000e+00 1.0000e+00
       11  1    4    4    0    0 -1.8648845949e-01 -3.9459070065e+00 +1.1172639798e+01 1.1850436294e+01 5.1100000000e-04 0.0000e+00 -1.0000e+00
      -12  1    4    4    0    0 +9.6762053831e-01 +6.4250786429e+00 -1.4862766168e+01 1.6220966162e+01 0.0000000000e+00 0.0000e+00 1.0000e+00
       12  1    3    3    0    0 +9.2935197084e+00 -2.9080097118e+01 -9.2032258441e+00 3.1886061578e+01 0.0000000000e+00 0.0000e+00 -1.0000e+00
</event>
<event>
 8      3 +2.2883893e-04 9.11880000e+01 7.81616400e-03 1.18400000e-01
      -11 -1    0    0    0    0 +0.0000000000e+00 +0.0000000000e+00 +4.5593999997e+01 4.5594000000e+01 5.1100000000e-04 0.0000e+00 1.0000e+00
       11 -1    0    0    0    0 -0.0000000000e+00 -0.0000000000e+00 -4.5593999997e+01 4.5594000000e+01 5.1100000000e-04 0.0000e+00 -1.0000e+00
       23  2    1    2    0    0 +8.8817841970e-16 -3.5527136788e-15 +3.5527136788e-15 9.1188000000e+01 9.1188000000e+01 7.9060e-14 0.0000e+00
  9990012  2    3    3    0    0 +7.7552416877e+00 +2.0926472501e+01 -2.2774096194e+01 5.9301945330e+01 5.0000002375e+01 1.2685e-03 0.0000e+00
      -11  1    4    4    0    0 +8.5623185433e+00 +2.4838370924e+01 -1.3422371283e+01 2.9502847661e+01 5.1100000000e-04 0.0000e+00 1.0000e+00
       11  1    4    4    0    0 +1.2266368050e+01 -7.5580377983e+00 -7.0229066032e+00 1.6028379142e+01 5.1100000000e-04 0.0000e+00 -1.0000e+00
       12  1    4    4    0    0 -1.3073444905e+01 +3.6461393756e+00 -2.3288183078e+00 1.3770718527e+01 0.0000000000e+00 0.0000e+00 -1.0000e+00
      -12  1    3    3    0    0 -7.7552416877e+00 -2.0926472501e+01 +2.2774096194e+01 3.1886054670e+01 0.0000000000e+00 0.0000e+00 1.0000e+00
</event>
<event>
 8      4 +2.2883893e-04 9.11880000e+01 7.81616400e-03 1.18400000e-01
      -11 -1    0    0    0    0 +0.0000000000e+00 +0.0000000000e+00 +4.5593999997e+01 4.5594000000e+01 5.1100000000e-04 0.0000e+00 -1.0000e+00
       11 -1    0    0    0    0 -0.0000000000e+00 -0.0000000000e+00 -4.5593999997e+01 4.5594000000e+01 5.1100000000e-04 0.0000e+00 1.0000e+00
       23  2    1    2    0    0 +4.4408920985e-16 +0.0000000000e+00 +8.8817841970e-16 9.1188000000e+01 9.1188000000e+01 7.1107e-16 0.0000e+00
 -9990012  2    3    3    0    0 +2.8790713040e+00 -3.1458532677e+01 +4.3349955265e+00 5.9301944803e+01 5.0000001415e+01 1.5678e-04 0.0000e+00
      -11  1    4    4    0    0 +2.3932645909e+00 -4.2653113396e+01 -2.6254296169e+00 4.2800802314e+01 5.1100000000e-04 0.0000e+00 1.0000e+00
       11  1    4    4    0    0 +2.6574009142e+00 +5.0114136046e+00 +8.0601692462e+00 9.8560831202e+00 5.1100000000e-04 0.0000e+00 -1.0000e+00
      -12  1    4    4    0    0 -2.1715942011e+00 +6.1831671139e+00 -1.0997441028e+00 6.6450593695e+00 0.0000000000e+00 0.0000e+00 1.0000e+00
       12  1    3    3    0    0 -2.8790713040e+00 +3.1458532677e+01 -4.3349955265e+00 3.1886055197e+01 0.0000000000e+00 0.0000e+00 -1.0000e+00
</event>
<event>
 8      4 +2.2883893e-04 9.11880000e+01 7.81616400e-03 1.18400000e-01
      -11 -1    0    0    0    0 +0.0000000000e+00 +0.0000000000e+00 +4.5593999997e+01 4.5594000000e+01 5.1100000000e-04 0.0000e+00 -1.0000e+00
       11 -1    0    0    0    0 -0.0000000000e+00 -0.0000000000e+00 -4.5593999997e+01 4.5594000000e+01 5.1100000000e-04 0.0000e+00 1.0000e+00
       23  2    1    2    0    0 +0.0000000000e+00 +0.0000000000e+00 -3.0531133177e-15 9.1188000000e+01 9.1188000000e+01 9.4844e-14 0.0000e+00
 -9990012  2    3    3    0    0 +1.2500481213e+01 -2.9331786909e+01 -3.2062023833e-01 5.9301975614e+01 5.0000057606e+01 1.0731e-04 0.0000e+00
      -11  1    4    4    0    0 -1.1924936333e+00 -2.4753601036e+01 -2.1141183513e+01 3.2574720964e+01 5.1100000000e-04 0.0000e+00 1.0000e+00
       11  1    4    4    0    0 +7.5374926117e+00 -5.6446553386e+00 +1.6915386383e+01 1.9359912849e+01 5.1100000000e-04 0.0000e+00 -1.0000e+00
      -12  1    4    4    0    0 +6.1554822341e+00 +1.0664694659e+00 +3.9051768918e+00 7.3673418010e+00 0.0000000000e+00 0.0000e+00 1.0000e+00
       12  1    3    3    0    0 -1.2500481213e+01 +2.9331786909e+01 +3.2062023833e-01 3.1886024386e+01 0.0000000000e+00 0.0000e+00 -1.0000e+00
</event>
<event>
 8      3 +2.2883893e-04 9.11880000e+01 7.81616400e-03 1.18400000e-01
      -11 -1    0    0    0    0 +0.0000000000e+00 +0.0000000000e+00 +4.5593999997e+01 4.5594000000e+01 5.1100000000e-04 0.0000e+00 1.0000e+00
       11 -1    0    0    0    0 -0.0000000000e+00 -0.0000000000e+00 -4.5593999997e+01 4.5594000000e+01 5.1100000000e-04 0.0000e+00 -1.0000e+00
       23  2    1    2    0    0 +3.5527136788e-15 +0.0000000000e+00 +0.0000000000e+00 9.1188000000e+01 9.1188000000e+01 1.3283e-13 0.0000e+00
  9990012  2    3    3    0    0 +2.8958678446e+01 -5.2803765970e+00 -1.2256995302e+01 5.9301931441e+01 4.9999977044e+01 2.0564e-03 0.0000e+00
      -11  1    4    4    0    0 +2.6429093339e+01 +5.0328700515e+00 +8.6148066557e-01 2.6917817610e+01 5.1100000000e-04 0.0000e+00 -1.0000e+00
       11  1    4    4    0    0 -2.8173578800e+00 +1.9762534964e+00 +7.2364871663e+00 8.0131036480e+00 5.1100000000e-04 0.0000e+00 1.0000e+00
       12  1    4    4    0    0 +5.3469429865e+00 -1.2289500145e+01 -2.0354963134e+01 2.4371010182e+01 0.0000000000e+00 0.0000e+00 -1.0000e+00
      -12  1    3    3    0    0 -2.8958678446e+01 +5.2803765970e+00 +1.2256995302e+01 3.1886068559e+01 0.0000000000e+00 0.0000e+00 1.0000e+00
</event>
<event>
 8      4 +2.2883893e-04 9.11880000e+01 7.81616400e-03 1.18400000e-01
      -11 -1    0    0    0    0 +0.0000000000e+00 +0.0000000000e+00 +4.5593999997e+01 4.5594000000e+01 5.1100000000e-04 0.0000e+00 -1.0000e+00
       11 -1    0    0    0    0 -0.0000000000e+00 -0.0000000000e+00 -4.5593999997e+01 4.5594000000e+01 5.1100000000e-04 0.0000e+00 1.0000e+00
       23  2    1    2    0    0 +7.1054273576e-15 +3.5527136788e-15 +0.0000000000e+00 9.1188000000e+01 9.1188000000e+01 1.5982e-13 0.0000e+00
 -9990012  2    3    3    0    0 -2.5120581911e+01 -1.7147334028e+01 +9.5732243040e+00 5.9301932143e+01 4.9999978325e+01 2.4495e-03 0.0000e+00
      -11  1    4    4    0    0 +7.7319094724e+00 -5.7701867233e+00 +6.0018466803e+00 1.1362202372e+01 5.1100000000e-04 0.0000e+00 1.0000e+00
       11  1    4    4    0    0 -2.1875167840e+00 -1.6047486879e+01 -2.3364208794e+00 1.6363554859e+01 5.1100000000e-04 0.0000e+00 -1.0000e+00
      -12  1    4    4    0    0 -3.0664974599e+01 +4.6703395750e+00 +5.9077985031e+00 3.1576174912e+01 0.0000000000e+00 0.0000e+00 1.0000e+00
       12  1    3    3    0    0 +2.5120581911e+01 +1.7147334028e+01 -9.5732243040e+00 3.1886067857e+01 0.0000000000e+00 0.0000e+00 -1.0000e+00
</event>
<event>
 8      3 +2.2883893e-04 9.11880000e+01 7.81616400e-03 1.18400000e-01
      -11 -1    0    0    0    0 +0.0000000000e+00 +0.0000000000e+00 +4.5593999997e+01 4.5594000000e+01 5.1100000000e-04 0.0000e+00 -1.0000e+00
       11 -1    0    0    0    0 -0.0000000000e+00 -0.0000000000e+00 -4.5593999997e+01 4.5594000000e+01 5.1100000000e-04 0.0000e+00 1.0000e+00
       23  2    1    2    0    0 +1.1102230246e-16 +8.8817841970e-16 +3.5527136788e-15 9.1188000000e+01 9.1188000000e+01 6.1177e-14 0.0000e+00
  9990012  2    3    3    0    0 -5.0769675931e-01 -4.2737850519e+00 +3.1594158840e+01 5.9302049058e+01 5.0000191550e+01 2.7991e-04 0.0000e+00
      -11  1    4    4    0    0 -4.2137534651e+00 +1.2005400649e+00 -8.4587627879e+00 9.5261578233e+00 5.1100000000e-04 0.0000e+00 1.0000e+00
       11  1    4    4    0    0 +5.5260815493e+00 +1.0399967330e+01 +8.8907723046e+00 1.4756108233e+01 5.1100000000e-04 0.0000e+00 -1.0000e+00
       12  1    4    4    0    0 -1.8200248435e+00 -1.5874292446e+01 +3.1162149323e+01 3.5019783002e+01 0.0000000000e+00 0.0000e+00 -1.0000e+00
      -12  1    3    3    0    0 +5.0769675931e-01 +4.2737850519e+00 -3.1594158840e+01 3.1885950942e+01 0.0000000000e+00 0.0000e+00 1.0000e+00
</event>
<event>
 8      4 +2.2883893e-04 9.11880000e+01 7.81616400e-03 1.18400000e-01
      -11 -1    0    0    0    0 +0.0000000000e+00 +0.0000000000e+00 +4.5593999997e+01 4.5594000000e+01 5.1100000000e-04 0.0000e+00 -1.0000e+00
       11 -1    0    0    0    0 -0.0000000000e+00 -0.0000000000e+00 -4.5593999997e+01 4.5594000000e+01 5.1100000000e-04 0.0000e+00 1.0000e+00
       23  2    1    2    0    0 +3.5527136788e-15 +1.7763568394e-15 -2.6645352591e-15 9.1188000000e+01 9.1188000000e+01 7.0073e-14 0.0000e+00
 -9990012  2    3    3    0    0 +2.9146552029e+01 +1.2643501745e+01 +2.7093153818e+00 5.9301952559e+01 5.0000015560e+01 4.8587e-03 0.0000e+00
      -11  1    4    4    0    0 -2.0211959749e+00 +6.3555688230e-01 +2.6176769154e+00 3.3676992761e+00 5.1100000000e-04 0.0000e+00 1.0000e+00
       11  1    4    4    0    0 +2.0094239583e+01 +6.9900028948e+00 +2.2171863574e+01 3.0728327965e+01 5.1100000000e-04 0.0000e+00 -1.0000e+00
      -12  1    4    4    0    0 +1.1073508421e+01 +5.0179419680e+00 -2.2080225108e+01 2.5205925319e+01 0.0000000000e+00 0.0000e+00 1.0000e+00
       12  1    3    3    0    0 -2.9146552029e+01 -1.2643501745e+01 -2.7093153818e+00 3.1886047441e+01 0.0000000000e+00 0.0000e+00 -1.0000e+00
</event>
<event>
 8      4 +2.2883893e-04 9.11880000e+01 7.81616400e-03 1.18400000e-01
      -11 -1    0    0    0    0 +0.0000000000e+00 +0.0000000000e+00 +4.5593999997e+01 4.5594000000e+01 5.1100000000e-04 0.0000e+00 1.0000e+00
       11 -1    0    0    0    0 -0.0000000000e+00 -0.0000000000e+00 -4.5593999997e+01 4.5594000000e+01 5.1100000000e-04 0.0000e+00 -1.0000e+00
       23  2    1    2    0    0 +3.5527136788e-15 -1.7763568394e-15 +0.0000000000e+00 9.1188000000e+01 9.1188000000e+01 4.1639e-14 0.0000e+00
 -9990012  2    3    3    0    0 +2.6143734161e+01 +9.1837978255e+00 +1.5776040596e+01 5.9301946069e+01 5.0000003723e+01 3.4585e-03 0.0000e+00
      -11  1    4    4    0    0 +1.4224288407e+01 +1.0837710283e-01 -9.9575634094e+00 1.7363617008e+01 5.1100000000e-04 0.0000e+00 -1.0000e+00
       11  1    4    4    0    0 +1.1313698195e+01 -8.8526521999e+00 +1.6098477002e+01 2.1576148402e+01 5.1100000000e-04 0.0000e+00 1.0000e+00
      -12  1    4    4    0    0 +6.0574755874e-01 +1.7928072923e+01 +9.6351270039e+00 2.0362180659e+01 0.0000000000e+00 0.0000e+00 1.0000e+00
       12  1    3    3    0    0 -2.6143734161e+01 -9.1837978255e+00 -1.5776040596e+01 3.1886053931e+01 0.0000000000e+00 0.0000e+00 -1.0000e+00
</event>
<event>
 8      4 +2.2883893e-04 9.11880000e+01 7.81616400e-03 1.18400000e-01
      -11 -1    0    0    0    0 +0.0000000000e+00 +0.0000000000e+00 +4.5593999997e+01 4.5594000000e+01 5.1100000000e-04 0.0000e+00 1.0000e+00
       11 -1    0    0    0    0 -0.0000000000e+00 -0.0000000000e+00 -4.5593999997e+01 4.5594000000e+01 5.1100000000e-04 0.0000e+00 -1.0000e+00
       23  2    1    2    0    0 -1.7763568394e-15 -3.5527136788e-15 -2.6645352591e-15 9.1188000000e+01 9.1188000000e+01 9.0686e-14 0.0000e+00
 -9990012  2    3    3    0    0 +1.2012003939e+01 +2.8552740011e+01 +7.5613525235e+00 5.9301933251e+01 4.9999980345e+01 2.6903e-03 0.0000e+00
      -11  1    4    4    0    0 +6.4120041519e+00 +2.2270642252e+01 -1.1967202618e+01 2.6082738398e+01 5.1100000000e-04 0.0000e+00 1.0000e+00
       11  1    4    4    0    0 -9.8843763617e-01 +1.0609746837e+01 -1.5009429969e+00 1.0760881333e+01 5.1100000000e-04 0.0000e+00 -1.0000e+00
      -12  1    4    4    0    0 +6.5884374233e+00 -4.3276490782e+00 +2.1029498139e+01 2.2458313521e+01 0.0000000000e+00 0.0000e+00 1.0000e+00
       12  1    3    3    0    0 -1.2012003939e+01 -2.8552740011e+01 -7.5613525235e+00 3.1886066749e+01 0.0000000000e+00 0.0000e+00 -1.0000e+00
</event>
<event>
 8      4 +2.2883893e-04 9.11880000e+01 7.81616400e-03 1.18400000e-01
      -11 -1    0    0    0    0 +0.0000000000e+00 +0.0000000000e+00 +4.5593999997e+01 4.5594000000e+01 5.1100000000e-04 0.0000e+00 1.0000e+00
       11 -1    0    0    0    0 -0.0000000000e+00 -0.0000000000e+00 -4.5593999997e+01 4.5594000000e+01 5.1100000000e-04 0.0000e+00 -1.0000e+00
       23  2    1    2    0    0 +0.0000000000e+00 -3.5527136788e-15 -3.5527136788e-15 9.1188000000e+01 9.1188000000e+01 1.6463e-14 0.0000e+00
 -9990012  2    3    3    0    0 +9.5069134635e+00 -1.7343470507e+01 +2.5010834953e+01 5.9301964846e+01 5.0000037967e+01 5.2917e-04 0.0000e+00
      -11  1    4    4    0    0 +1.0395109766e+01 -1.8155431526e+01 -2.1774962355e+00 2.1033770253e+01 5.1100000000e-04 0.0000e+00 1.0000e+00
       11  1    4    4    0    0 +1.2710584744e+01 -6.6974804122e-01 +9.3732477737e+00 1.5807128172e+01 5.1100000000e-04 0.0000e+00 -1.0000e+00
      -12  1    4    4    0    0 -1.3598781046e+01 +1.4817090604e+00 +1.7815083415e+01 2.2461066421e+01 0.0000000000e+00 0.0000e+00 1.0000e+00
       12  1    3    3    0    0 -9.5069134635e+00 +1.7343470507e+01 -2.5010834953e+01 3.1886035154e+01 0.0000000000e+00 0.0000e+00 -1.0000e+00
</event>
<event>
 8      4 +2.2883893e-04 9.11880000e+01 7.81616400e-03 1.18400000e-01
      -11 -1    0    0    0    0 +0.0000000000e+00 +0.0000000000e+00 +4.5593999997e+01 4.5594000000e+01 5.1100000000e-04 0.0000e+00 -1.0000e+00
       11 -1    0    0    0    0 -0.0000000000e+00 -0.0000000000e+00 -4.5593999997e+01 4.5594000000e+01 5.1100000000e-04 0.0000e+00 1.0000e+00
       23  2    1    2    0    0 +1.7763568394e-15 +0.0000000000e+00 +0.0000000000e+00 9.1188000000e+01 9.1188000000e+01 4.9938e-14 0.0000e+00
 -9990012  2    3    3    0    0 -7.7460384742e+00 +2.2453468596e+01 +2.1273730797e+01 5.9301780624e+01 4.9999701991e+01 3.7474e-03 0.0000e+00
      -11  1    4    4    0    0 +9.5241298024e+00 +1.5050027261e+01 +1.9350616682e+00 1.7915268152e+01 5.1100000000e-04 0.0000e+00 1.0000e+00
       11  1    4    4    0    0 -2.9507909284e+00 +1.4854855592e+01 +2.0169924149e+01 2.5223000262e+01 5.1100000000e-04 0.0000e+00 -1.0000e+00
      -12  1    4    4    0    0 -1.4319377348e+01 -7.4514142571e+00 -8.3125501983e-01 1.6163512210e+01 0.0000000000e+00 0.0000e+00 1.0000e+00
       12  1    3    3    0    0 +7.7460384742e+00 -2.2453468596e+01 -2.1273730797e+01 3.1886219376e+01 0.0000000000e+00 0.0000e+00 -1.0000e+00
</event>
<event>
 8      4 +2.2883893e-04 9.11880000e+01 7.81616400e-03 1.18400000e-01
      -11 -1    0    0    0    0 +0.0000000000e+00 +0.0000000000e+00 +4.5593999997e+01 4.5594000000e+01 5.1100000000e-04 0.0000e+00 1.0000e+00
       11 -1    0    0    0    0 -0.0000000000e+00 -0.0000000000e+00 -4.5593999997e+01 4.5594000000e+01 5.1100000000e-04 0.0000e+00 -1.0000e+00
       23  2    1    2    0    0 -1.9984014443e-15 +1.7763568394e-15 -3.5527136788e-15 9.1188000000e+01 9.1188000000e+01 2.2371e-14 0.0000e+00
 -9990012  2    3    3    0    0 -1.8389370530e+00 -1.4627110962e+01 +2.8273414608e+01 5.9301952296e+01 5.0000015080e+01 4.6595e-03 0.0000e+00
      -11  1    4    4    0    0 +6.9540122252e+00 +1.4938078542e-01 +1.8080004592e+01 1.9371813724e+01 5.1100000000e-04 0.0000e+00 1.0000e+00
       11  1    4    4    0    0 +7.1165384295e+00 +8.1873081339e-01 -8.3088846541e+00 1.0970551664e+01 5.1100000000e-04 0.0000e+00 -1.0000e+00
      -12  1    4    4    0    0 -1.5909487708e+01 -1.5595222561e+01 +1.8502294670e+01 2.8959586908e+01 0.0000000000e+00 0.0000e+00 1.0000e+00
       12  1    3    3    0    0 +1.8389370530e+00 +1.4627110962e+01 -2.8273414608e+01 3.1886047704e+01 0.0000000000e+00 0.0000e+00 -1.0000e+00
</event>
<event>
 8      3 +2.2883893e-04 9.11880000e+01 7.81616400e-03 1.18400000e-01
      -11 -1    0    0    0    0 +0.0000000000e+00 +0.0000000000e+00 +4.5593999997e+01 4.5594000000e+01 5.1100000000e-04 0.0000e+00 1.0000e+00
       11 -1    0    0    0    0 -0.0000000000e+00 -0.0000000000e+00 -4.5593999997e+01 4.5594000000e+01 5.1100000000e-04 0.0000e+00 -1.0000e+00
       23  2    1    2    0    0 +0.0000000000e+00 +0.0000000000e+00 +0.0000000000e+00 9.1188000000e+01 9.1188000000e+01 2.3891e-14 0.0000e+00
  9990012  2    3    3    0    0 -1.4241842863e+01 -1.8676716684e+01 -2.1565444437e+01 5.9301980682e+01 5.0000066848e+01 6.0320e-03 0.0000e+00
      -11  1    4    4    0    0 +9.3998393383e+00 -4.4064508962e+00 +3.5782398058e+00 1.0980782734e+01 5.1100000000e-04 0.0000e+00 1.0000e+00
       11  1    4    4    0    0 -2.8904480036e+01 -1.3199745995e+01 -1.1729007778e+01 3.3871402159e+01 5.1100000000e-04 0.0000e+00 -1.0000e+00
       12  1    4    4    0    0 +5.2627978352e+00 -1.0705197929e+00 -1.3414676465e+01 1.4449795789e+01 0.0000000000e+00 0.0000e+00 -1.0000e+00
      -12  1    3    3    0    0 +1.4241842863e+01 +1.8676716684e+01 +2.1565444437e+01 3.1886019318e+01 0.0000000000e+00 0.0000e+00 1.0000e+00
</event>
<event>
 8      4 +2.2883893e-04 9.11880000e+01 7.81616400e-03 1.18400000e-01
      -11 -1    0    0    0    0 +0.0000000000e+00 +0.0000000000e+00 +4.5593999997e+01 4.5594000000e+01 5.1100000000e-04 0.0000e+00 -1.0000e+00
       11 -1    0    0    0    0 -0.0000000000e+00 -0.0000000000e+00 -4.5593999997e+01 4.5594000000e+01 5.1100000000e-04 0.0000e+00 1.0000e+00
       23  2    1    2    0    0 +0.0000000000e+00 -1.7763568394e-15 +0.0000000000e+00 9.1188000000e+01 9.1188000000e+01 5.9446e-15 0.0000e+00
 -9990012  2    3    3    0    0 -2.4564746222e+01 +5.6098474269e+00 -1.9540333849e+01 5.9301924794e+01 4.9999964922e+01 6.8754e-05 0.0000e+00
      -11  1    4    4    0    0 -1.6628644116e+01 -5.3006767041e+00 -8.6859195043e+00 1.9494978240e+01 5.1100000000e-04 0.0000e+00 1.0000e+00
       11  1    4    4    0    0 -5.2347909459e+00 -7.2662412544e+00 -1.7988398311e+01 2.0094371657e+01 5.1100000000e-04 0.0000e+00 -1.0000e+00
      -12  1    4    4    0    0 -2.7013111598e+00 +1.8176765385e+01 +7.1339839664e+00 1.9712574898e+01 0.0000000000e+00 0.0000e+00 1.0000e+00
       12  1    3    3    0    0 +2.4564746222e+01 -5.6098474269e+00 +1.9540333849e+01 3.1886075206e+01 0.0000000000e+00 0.0000e+00 -1.0000e+00
</event>
<event>
 8      4 +2.2883893e-04 9.11880000e+01 7.81616400e-03 1.18400000e-01
      -11 -1    0    0    0    0 +0.0000000000e+00 +0.0000000000e+00 +4.5593999997e+01 4.5594000000e+01 5.1100000000e-04 0.0000e+00 1.0000e+00
       11 -1    0    0    0    0 -0.0000000000e+00 -0.0000000000e+00 -4.5593999997e+01 4.5594000000e+01 5.1100000000e-04 0.0000e+00 -1.0000e+00
       23  2    1    2    0    0 +0.0000000000e+00 +0.0000000000e+00 -3.5527136788e-15 9.1188000000e+01 9.1188000000e+01 5.0992e-14 0.0000e+00
 -9990012  2    3    3    0    0 +1.6012109234e+01 +1.5551855661e+01 +2.2769988856e+01 5.9301948988e+01 5.0000009046e+01 4.0365e-03 0.0000e+00
      -11  1    4    4    0    0 -2.7904453401e+00 -8.0424911483e+00 -9.9935781358e+00 1.3127827440e+01 5.1100000000e-04 0.0000e+00 -1.0000e+00
       11  1    4    4    0    0 +1.2944218524e+01 +1.0321672411e+01 +2.4219067962e+01 2.9336887493e+01 5.1100000000e-04 0.0000e+00 1.0000e+00
      -12  1    4    4    0    0 +5.8583360502e+00 +1.3272674398e+01 +8.5444990305e+00 1.6837234056e+01 0.0000000000e+00 0.0000e+00 1.0000e+00
       12  1    3    3    0    0 -1.6012109234e+01 -1.5551855661e+01 -2.2769988856e+01 3.1886051012e+01 0.0000000000e+00 0.0000e+00 -1.0000e+00
</event>
<event>
 8      3 +2.2883893e-04 9.11880000e+01 7.81616400e-03 1.18400000e-01
      -11 -1    0    0    0    0 +0.0000000000e+00 +0.0000000000e+00 +4.5593999997e+01 4.5594000000e+01 5.1100000000e-04 0.0000e+00 -1.0000e+00
       11 -1    0    0    0    0 -0.0000000000e+00 -0.0000000000e+00 -4.5593999997e+01 4.5594000000e+01 5.1100000000e-04 0.0000e+00 1.0000e+00
       23  2    1    2    0    0 +3.5527136788e-15 +3.5527136788e-15 -3.5527136788e-15 9.1188000000e+01 9.1188000000e+01 1.8854e-14 0.0000e+00
  9990012  2    3    3    0    0 -5.7809048830e+00 -1.7446434673e+01 +2.6056183548e+01 5.9301927097e+01 4.9999969123e+01 4.0425e-03 0.0000e+00
      -11  1    4    4    0    0 +1.1301487125e+01 +2.5013025208e+00 +1.1301709632e+01 1.6177415319e+01 5.1100000000e-04 0.0000e+00 1.0000e+00
       11  1    4    4    0    0 +3.3622587490e-01 -1.5114792982e+01 +1.9269499355e+01 2.4492521724e+01 5.1100000000e-04 0.0000e+00 -1.0000e+00
       12  1    4    4    0    0 -1.7418617883e+01 -4.8329442117e+00 -4.5150254386e+00 1.8631990055e+01 0.0000000000e+00 0.0000e+00 -1.0000e+00
      -12  1    3    3    0    0 +5.7809048830e+00 +1.7446434673e+01 -2.6056183548e+01 3.1886072903e+01 0.0000000000e+00 0.0000e+00 1.0000e+00
</event>
<event>
 8      3 +2.2883893e-04 9.11880000e+01 7.81616400e-03 1.18400000e-01
      -11 -1    0    0    0    0 +0.0000000000e+00 +0.0000000000e+00 +4.5593999997e+01 4.5594000000e+01 5.1100000000e-04 0.0000e+00 1.0000e+00
       11 -1    0    0    0    0 -0.0000000000e+00 -0.0000000000e+00 -4.5593999997e+01 4.5594000000e+01 5.1100000000e-04 0.0000e+00 -1.0000e+00
       23  2    1    2    0    0 +3.5527136788e-15 +3.5527136788e-15 -8.8817841970e-16 9.1188000000e+01 9.1188000000e+01 5.8639e-14 0.0000e+00
  9990012  2    3    3    0    0 +2.9975968879e+01 +8.1983357399e+00 -7.1381657113e+00 5.9301877174e+01 4.9999878075e+01 2.4113e-03 0.0000e+00
      -11  1    4    4    0    0 -9.5408977839e-01 +6.2495291775e+00 -1.2506527494e+01 1.4013569583e+01 5.1100000000e-04 0.0000e+00 1.0000e+00
       11  1    4    4    0    0 -1.9543066095e+00 -8.3521919135e+00 +6.5740027165e+00 1.0807216851e+01 5.1100000000e-04 0.0000e+00 -1.0000e+00
       12  1    4    4    0    0 +3.2884365267e+01 +1.0300998476e+01 -1.2056409342e+00 3.4481090741e+01 0.0000000000e+00 0.0000e+00 -1.0000e+00
      -12  1    3    3    0    0 -2.9975968879e+01 -8.1983357399e+00 +7.1381657113e+00 3.1886122826e+01 0.0000000000e+00 0.0000e+00 1.0000e+00
</event>
<event>
 8      3 +2.2883893e-04 9.11880000e+01 7.81616400e-03 1.18400000e-01
      -11 -1    0    0    0    0 +0.0000000000e+00 +0.0000000000e+00 +4.5593999997e+01 4.5594000000e+01 5.1100000000e-04 0.0000e+00 1.0000e+00
       11 -1    0    0    0    0 -0.0000000000e+00 -0.0000000000e+00 -4.5593999997e+01 4.5594000000e+01 5.1100000000e-04 0.0000e+00 -1.0000e+00
       23  2    1    2    0    0 +0.0000000000e+00 -1.7763568394e-15 -2.3314683517e-15 9.1188000000e+01 9.1188000000e+01 2.0339e-14 0.0000e+00
  9990012  2    3    3    0    0 -3.0152668472e+01 -1.0363509763e+01 +3.6958015982e-01 5.9301916200e+01 4.9999949249e+01 7.8930e-04 0.0000e+00
      -11  1    4    4    0    0 -1.4252757083e+01 +1.5862924290e+01 +1.0670264497e+01 2.3845922003e+01 5.1100000000e-04 0.0000e+00 1.0000e+00
       11  1    4    4    0    0 -1.3903587959e+01 -1.6129272710e+01 -1.2824828018e+01 2.4858387121e+01 5.1100000000e-04 0.0000e+00 -1.0000e+00
       12  1    4    4    0    0 -1.9963234303e+00 -1.0097161342e+01 +2.5241436810e+00 1.0597607076e+01 0.0000000000e+00 0.0000e+00 -1.0000e+00
      -12  1    3    3    0    0 +3.0152668472e+01 +1.0363509763e+01 -3.6958015982e-01 3.1886083800e+01 0.0000000000e+00 0.0000e+00 1.0000e+00
</event>
<event>
 8      3 +2.2883893e-04 9.11880000e+01 7.81616400e-03 1.18400000e-01
      -11 -1    0    0    0    0 +0.0000000000e+00 +0.0000000000e+00 +4.5593999997e+01 4.5594000000e+01 5.1100000000e-04 0.0000e+00 -1.0000e+00
       11 -1    0    0    0    0 -0.0000000000e+00 -0.0000000000e+00 -4.5593999997e+01 4.5594000000e+01 5.1100000000e-04 0.0000e+00 1.0000e+00
       23  2    1    2    0    0 +0.0000000000e+00 +0.0000000000e+00 +0.0000000000e+00 9.1188000000e+01 9.1188000000e+01 1.3403e-13 0.0000e+00
  9990012  2    3    3    0    0 -1.1059204780e+01 -2.0678896524e+01 +2.1605462929e+01 5.9301971709e+01 5.0000050483e+01 1.4096e-04 0.0000e+00
      -11  1    4    4    0    0 +5.9584332171e+00 -8.8281868587e+00 -9.7239393146e+00 1.4422025020e+01 5.1100000000e-04 0.0000e+00 1.0000e+00
       11  1    4    4    0    0 -1.7136955064e+01 -1.4364262351e+01 +1.1980469539e+01 2.5368068756e+01 5.1100000000e-04 0.0000e+00 -1.0000e+00
       12  1    4    4    0    0 +1.1931706750e-01 +2.5135526855e+00 +1.9348932705e+01 1.9511877933e+01 0.0000000000e+00 0.0000e+00 -1.0000e+00
      -12  1    3    3    0    0 +1.1059204780e+01 +2.0678896524e+01 -2.1605462929e+01 3.1886028291e+01 0.0000000000e+00 0.0000e+00 1.0000e+00
</event>
<event>
 8      4 +2.2883893e-04 9.11880000e+01 7.81616400e-03 1.18400000e-01
      -11 -1    0    0    0    0 +0.0000000000e+00 +0.0000000000e+00 +4.5593999997e+01 4.5594000000e+01 5.1100000000e-04 0.0000e+00 -1.0000e+00
       11 -1    0    0    0    0 -0.0000000000e+00 -0.0000000000e+00 -4.5593999997e+01 4.5594000000e+01 5.1100000000e-04 0.0000e+00 1.0000e+00
       23  2    1    2    0    0 +3.5527136788e-15 +1.7763568394e-15 +0.0000000000e+00 9.1188000000e+01 9.1188000000e+01 1.4189e-13 0.0000e+00
 -9990012  2    3    3    0    0 +2.4606999022e+01 +1.5630294284e+01 -1.2919374344e+01 5.9301941389e+01 4.9999995188e+01 8.1951e-04 0.0000e+00
      -11  1    4    4    0    0 +2.6310631377e+01 +1.3461027765e+01 +1.0324708144e+00 2.9572192820e+01 5.1100000000e-04 0.0000e+00 1.0000e+00
       11  1    4    4    0    0 +4.2959556108e+00 -1.0795562102e+01 -3.8766809779e+00 1.2248593853e+01 5.1100000000e-04 0.0000e+00 -1.0000e+00
      -12  1    4    4    0    0 -5.9995879660e+00 +1.2964828621e+01 -1.0075164181e+01 1.7481154716e+01 0.0000000000e+00 0.0000e+00 1.0000e+00
       12  1    3    3    0    0 -2.4606999022e+01 -1.5630294284e+01 +1.2919374344e+01 3.1886058611e+01 0.0000000000e+00 0.0000e+00 -1.0000e+00
</event>
<event>
 8      3 +2.2883893e-04 9.11880000e+01 7.81616400e-03 1.18400000e-01
      -11 -1    0    0    0    0 +0.0000000000e+00 +0.0000000000e+00 +4.5593999997e+01 4.5594000000e+01 5.1100000000e-04 0.0000e+00 1.0000e+00
       11 -1    0    0    0    0 -0.0000000000e+00 -0.0000000000e+00 -4.5593999997e+01 4.5594000000e+01 5.1100000000e-04 0.0000e+00 -1.0000e+00
       23  2    1    2    0    0 +0.0000000000e+00 +8.8817841970e-16 -3.5527136788e-15 9.1188000000e+01 9.1188000000e+01 3.3727e-14 0.0000e+00
  9990012  2    3    3    0    0 -8.2563883159e+00 -6.8620354927e+00 -3.0024479171e+01 5.9301877178e+01 4.9999878083e+01 4.3842e-04 0.0000e+00
      -11  1    4    4    0    0 -2.6805935444e+00 +1.5084300403e+01 -2.1042072098e+01 2.6028647657e+01 5.1100000000e-04 0.0000e+00 1.0000e+00
       11  1    4    4    0    0 -1.3289574371e+01 -1.9574453384e+01 -8.6665430416e+00 2.5196844659e+01 5.1100000000e-04 0.0000e+00 -1.0000e+00
       12  1    4    4    0    0 +7.7137795992e+00 -2.3718825119e+00 -3.1586403088e-01 8.0763848621e+00 0.0000000000e+00 0.0000e+00 -1.0000e+00
      -12  1    3    3    0    0 +8.2563883159e+00 +6.8620354927e+00 +3.0024479171e+01 3.1886122822e+01 0.0000000000e+00 0.0000e+00 1.0000e+00
</event>
<event>
 8      3 +2.2883893e-04 9.11880000e+01 7.81616400e-03 1.18400000e-01
      -11 -1    0    0    0    0 +0.0000000000e+00 +0.0000000000e+00 +4.5593999997e+01 4.5594000000e+01 5.1100000000e-04 0.0000e+00 -1.0000e+00
       11 -1    0    0    0    0 -0.0000000000e+00 -0.0000000000e+00 -4.5593999997e+01 4.5594000000e+01 5.1100000000e-04 0.0000e+00 1.0000e+00
       23  2    1    2    0    0 +0.0000000000e+00 -1.7763568394e-15 -3.5527136788e-15 9.1188000000e+01 9.1188000000e+01 1.2574e-13 0.0000e+00
  9990012  2    3    3    0    0 -1.7396778374e+01 -1.2933835147e+01 +2.3383919502e+01 5.9301644287e+01 4.9999453342e+01 1.9809e-04 0.0000e+00
      -11  1    4    4    0    0 -1.1659737343e+01 -2.1833426200e+00 +1.0864890472e+00 1.1912049303e+01 5.1100000000e-04 0.0000e+00 1.0000e+00
       11  1    4    4    0    0 +6.0470152163e+00 -3.5586755915e+00 -1.0028406940e+01 1.2239261048e+01 5.1100000000e-04 0.0000e+00 -1.0000e+00
       12  1    4    4    0    0 -1.1784056248e+01 -7.1918169350e+00 +3.2325837395e+01 3.5150333935e+01 0.0000000000e+00 0.0000e+00 -1.0000e+00
      -12  1    3    3    0    0 +1.7396778374e+01 +1.2933835147e+01 -2.3383919502e+01 3.1886355713e+01 0.0000000000e+00 0.0000e+00 1.0000e+00
</event>
<event>
 8      3 +2.2883893e-04 9.11880000e+01 7.81616400e-03 1.18400000e-01
      -11 -1    0    0    0    0 +0.0000000000e+00 +0.0000000000e+00 +4.5593999997e+01 4.5594000000e+01 5.1100000000e-04 0.0000e+00 -1.0000e+00
       11 -1    0    0    0    0 -0.0000000000e+00 -0.0000000000e+00 -4.5593999997e+01 4.5594000000e+01 5.1100000000e-04 0.0000e+00 1.0000e+00
       23  2    1    2    0    0 +0.0000000000e+00 +3.5527136788e-15 +0.0000000000e+00 9.1188000000e+01 9.1188000000e+01 2.4099e-14 0.0000e+00
  9990012  2    3    3    0    0 +1.6449785199e+01 +2.6518463484e+01 -6.5495109957e+00 5.9301946106e+01 5.0000003790e+01 1.9773e-03 0.0000e+00
      -11  1    4    4    0    0 +1.0888319881e+01 -4.5971272303e+00 +3.4026028254e+00 1.2299056665e+01 5.1100000000e-04 0.0000e+00 1.0000e+00
       11  1    4    4    0    0 +7.6889804831e+00 +3.0447904701e+01 +5.0750535376e+00 3.1811184987e+01 5.1100000000e-04 0.0000e+00 -1.0000e+00
       12  1    4    4    0    0 -2.1275151657e+00 +6.6768601330e-01 -1.5027167359e+01 1.5191704454e+01 0.0000000000e+00 0.0000e+00 -1.0000e+00
      -12  1    3    3    0    0 -1.6449785199e+01 -2.6518463484e+01 +6.5495109957e+00 3.1886053894e+01 0.0000000000e+00 0.0000e+00 1.0000e+00
</event>
<event>
 8      3 +2.2883893e-04 9.11880000e+01 7.81616400e-03 1.18400000e-01
      -11 -1    0    0    0    0 +0.0000000000e+00 +0.0000000000e+00 +4.5593999997e+01 4.5594000000e+01 5.1100000000e-04 0.0000e+00 1.0000e+00
       11 -1    0    0    0    0 -0.0000000000e+00 -0.0000000000e+00 -4.5593999997e+01 4.5594000000e+01 5.1100000000e-04 0.0000e+00 -1.0000e+00
       23  2    1    2    0    0 -2.2204460493e-16 +0.0000000000e+00 +0.0000000000e+00 9.1188000000e+01 9.1188000000e+01 3.2743e-13 0.0000e+00
  9990012  2    3    3    0    0 -6.7286790430e-01 -1.2923238603e+01 -2.9142009917e+01 5.9301959337e+01 5.0000027920e+01 2.5031e-03 0.0000e+00
      -11  1    4    4    0    0 -4.5340446974e+00 -2.3585457417e+01 -3.5326843142e+00 2.4275733184e+01 5.1100000000e-04 0.0000e+00 1.0000e+00
       11  1    4    4    0    0 +5.6962083343e+00 -5.2229791668e+00 -6.4163726863e+00 1.0044707038e+01 5.1100000000e-04 0.0000e+00 -1.0000e+00
       12  1    4    4    0    0 -1.8350315412e+00 +1.5885197981e+01 -1.9192952916e+01 2.4981519115e+01 0.0000000000e+00 0.0000e+00 -1.0000e+00
      -12  1    3    3    0    0 +6.7286790430e-01 +1.2923238603e+01 +2.9142009917e+01 3.1886040663e+01 0.0000000000e+00 0.0000e+00 1.0000e+00
</event>
<event>
 8      3 +2.2883893e-04 9.11880000e+01 7.81616400e-03 1.18400000e-01
      -11 -1    0    0    0    0 +0.0000000000e+00 +0.0000000000e+00 +4.5593999997e+01 4.5594000000e+01 5.1100000000e-04 0.0000e+00 -1.0000e+00
       11 -1    0    0    0    0 -0.0000000000e+00 -0.0000000000e+00 -4.5593999997e+01 4.5594000000e+01 5.1100000000e-04 0.0000e+00 1.0000e+00
       23  2    1    2    0    0 +3.5527136788e-15 +1.7763568394e-15 -3.5527136788e-15 9.1188000000e+01 9.1188000000e+01 1.0672e-14 0.0000e+00
  9990012  2    3    3    0    0 +2.2764790490e+01 +1.3892374556e+01 +1.7478207153e+01 5.9301929653e+01 4.9999973784e+01 1.3288e-03 0.0000e+00
      -11  1    4    4    0    0 -4.9029791570e+00 -1.7738403842e+00 -3.1486797041e+00 6.0909685980e+00 5.1100000000e-04 0.0000e+00 1.0000e+00
       11  1    4    4    0    0 -7.2967325058e+00 +5.0080314307e+00 -3.3865880460e+00 9.4758462908e+00 5.1100000000e-04 0.0000e+00 -1.0000e+00
       12  1    4    4    0    0 +3.4964502153e+01 +1.0658183510e+01 +2.4013474903e+01 4.3735114764e+01 0.0000000000e+00 0.0000e+00 -1.0000e+00
      -12  1    3    3    0    0 -2.2764790490e+01 -1.3892374556e+01 -1.7478207153e+01 3.1886070347e+01 0.0000000000e+00 0.0000e+00 1.0000e+00
</event>
<event>
 8      4 +2.2883893e-04 9.11880000e+01 7.81616400e-03 1.18400000e-01
      -11 -1    0    0    0    0 +0.0000000000e+00 +0.0000000000e+00 +4.5593999997e+01 4.5594000000e+01 5.1100000000e-04 0.0000e+00 -1.0000e+00
       11 -1    0    0    0    0 -0.0000000000e+00 -0.0000000000e+00 -4.5593999997e+01 4.5594000000e+01 5.1100000000e-04 0.0000e+00 1.0000e+00
       23  2    1    2    0    0 +3.5527136788e-15 +0.0000000000e+00 +0.0000000000e+00 9.1188000000e+01 9.1188000000e+01 3.7308e-14 0.0000e+00
 -9990012  2    3    3    0    0 -2.2284063257e+01 +1.0245273045e+01 -2.0375861406e+01 5.9301939989e+01 4.9999992634e+01 2.0978e-03 0.0000e+00
      -11  1    4    4    0    0 -3.2686730658e+00 -3.1652676456e-01 +1.0098287770e+01 1.0618843108e+01 5.1100000000e-04 0.0000e+00 1.0000e+00
       11  1    4    4    0    0 +1.0857411865e+00 +1.4881353394e+01 -2.1686775294e+01 2.6323938453e+01 5.1100000000e-04 0.0000e+00 -1.0000e+00
      -12  1    4    4    0    0 -2.0101131377e+01 -4.3195535844e+00 -8.7873738829e+00 2.2359158427e+01 0.0000000000e+00 0.0000e+00 1.0000e+00
       12  1    3    3    0    0 +2.2284063257e+01 -1.0245273045e+01 +2.0375861406e+01 3.1886060011e+01 0.0000000000e+00 0.0000e+00 -1.0000e+00
</event>
<event>
 8      4 +2.2883893e-04 9.11880000e+01 7.81616400e-03 1.18400000e-01
      -11 -1    0    0    0    0 +0.0000000000e+00 +0.0000000000e+00 +4.5593999997e+01 4.5594000000e+01 5.1100000000e-04 0.0000e+00 -1.0000e+00
       11 -1    0    0    0    0 -0.0000000000e+00 -0.0000000000e+00 -4.5593999997e+01 4.5594000000e+01 5.1100000000e-04 0.0000e+00 1.0000e+00
       23  2    1    2    0    0 +1.7763568394e-15 +0.0000000000e+00 +0.0000000000e+00 9.1188000000e+01 9.1188000000e+01 1.2035e-13 0.0000e+00
 -9990012  2    3    3    0    0 +1.1427017918e+01 +2.6467632538e+01 -1.3623792764e+01 5.9301952269e+01 5.0000015030e+01 1.5421e-03 0.0000e+00
      -11  1    4    4    0    0 +8.9937227803e+00 +2.6849164928e+01 -2.1724947868e+01 3.5689467170e+01 5.1100000000e-04 0.0000e+00 1.0000e+00
       11  1    4    4    0    0 -9.1752439594e+00 +2.4295021139e+00 +6.6309464541e+00 1.1578300107e+01 5.1100000000e-04 0.0000e+00 -1.0000e+00
      -12  1    4    4    0    0 +1.1608539097e+01 -2.8110345039e+00 +1.4702086498e+00 1.2034184992e+01 0.0000000000e+00 0.0000e+00 1.0000e+00
       12  1    3    3    0    0 -1.1427017918e+01 -2.6467632538e+01 +1.3623792764e+01 3.1886047731e+01 0.0000000000e+00 0.0000e+00 -1.0000e+00
</event>
<event>
 8      3 +2.2883893e-04 9.11880000e+01 7.81616400e-03 1.18400000e-01
      -11 -1    0    0    0    0 +0.0000000000e+00 +0.0000000000e+00 +4.5593999997e+01 4.5594000000e+01 5.1100000000e-04 0.0000e+00 1.0000e+00
       11 -1    0    0    0    0 -0.0000000000e+00 -0.0000000000e+00 -4.5593999997e+01 4.5594000000e+01 5.1100000000e-04 0.0000e+00 -1.0000e+00
       23  2    1    2    0    0 +0.0000000000e+00 +0.0000000000e+00 +3.5527136788e-15 9.1188000000e+01 9.1188000000e+01 5.1061e-14 0.0000e+00
  9990012  2    3    3    0    0 +2.9375045190e+00 -2.0377698877e+01 -2.4348088827e+01 5.9302125795e+01 5.0000331498e+01 3.9376e-04 0.0000e+00
      -11  1    4    4    0    0 +8.6888054997e-01 +5.6822114054e+00 -3.5535162031e+00 6.7579551295e+00 5.1100000000e-04 0.0000e+00 1.0000e+00
       11  1    4    4    0    0 -2.4875320703e+00 +1.0718925742e+01 -2.8420626594e+00 1.1364880346e+01 5.1100000000e-04 0.0000e+00 -1.0000e+00
       12  1    4    4    0    0 +4.5561560393e+00 -3.6778836024e+01 -1.7952509964e+01 4.1179290319e+01 0.0000000000e+00 0.0000e+00 -1.0000e+00
      -12  1    3    3    0    0 -2.9375045190e+00 +2.0377698877e+01 +2.4348088827e+01 3.1885874205e+01 0.0000000000e+00 0.0000e+00 1.0000e+00
</event>
<event>
 8      4 +2.2883893e-04 9.11880000e+01 7.81616400e-03 1.18400000e-01
      -11 -1    0    0    0    0 +0.0000000000e+00 +0.0000000000e+00 +4.5593999997e+01 4.5594000000e+01 5.1100000000e-04 0.0000e+00 1.0000e+00
       11 -1    0    0    0    0 -0.0000000000e+00 -0.0000000000e+00 -4.5593999997e+01 4.5594000000e+01 5.1100000000e-04 0.0000e+00 -1.0000e+00
       23  2    1    2    0    0 +0.0000000000e+00 +0.0000000000e+00 +0.0000000000e+00 9.1188000000e+01 9.1188000000e+01 5.4889e-14 0.0000e+00
 -9990012  2    3    3    0    0 -2.4900735367e+01 -3.6418909425e+00 +1.9580879287e+01 5.9301939956e+01 4.9999992574e+01 5.8954e-04 0.0000e+00
      -11  1    4    4    0    0 -9.5529570394e+00 -9.1416658231e+00 -2.8269006373e+00 1.3521109780e+01 5.1100000000e-04 0.0000e+00 1.0000e+00
       11  1    4    4    0    0 -2.6447586860e+01 +6.3055288528e-02 +1.0021330904e+01 2.8282607731e+01 5.1100000000e-04 0.0000e+00 -1.0000e+00
      -12  1    4    4    0    0 +1.1099808532e+01 +5.4367195921e+00 +1.2386449021e+01 1.7498222445e+01 0.0000000000e+00 0.0000e+00 1.0000e+00
       12  1    3    3    0    0 +2.4900735367e+01 +3.6418909425e+00 -1.9580879287e+01 3.1886060044e+01 0.0000000000e+00 0.0000e+00 -1.0000e+00
</event>
<event>
 8      4 +2.2883893e-04 9.11880000e+01 7.81616400e-03 1.18400000e-01
      -11 -1    0    0    0    0 +0.0000000000e+00 +0.0000000000e+00 +4.5593999997e+01 4.5594000000e+01 5.1100000000e-04 0.0000e+00 -1.0000e+00
       11 -1    0    0    0    0 -0.0000000000e+00 -0.0000000000e+00 -4.5593999997e+01 4.5594000000e+01 5.1100000000e-04 0.0000e+00 1.0000e+00
       23  2    1    2    0    0 +0.0000000000e+00 +8.8817841970e-16 +3.5527136788e-15 9.1188000000e+01 9.1188000000e+01 4.0838e-14 0.0000e+00
 -9990012  2    3    3    0    0 +3.0608593610e+01 -7.6858226434e+00 +4.5566674332e+00 5.9301935794e+01 4.9999984983e+01 6.7169e-04 0.0000e+00
      -11  1    4    4    0    0 +1.2946823212e+01 -1.9356455570e+01 -1.1265030465e+01 2.5868774906e+01 5.1100000000e-04 0.0000e+00 1.0000e+00
       11  1    4    4    0    0 +1.5888296477e+01 +1.2322643371e+01 +2.8303057549e+00 2.0305076595e+01 5.1100000000e-04 0.0000e+00 -1.0000e+00
      -12  1    4    4    0    0 +1.7734739202e+00 -6.5201044437e-01 +1.2991392143e+01 1.3128084292e+01 0.0000000000e+00 0.0000e+00 1.0000e+00
       12  1    3    3    0    0 -3.0608593610e+01 +7.6858226434e+00 -4.5566674332e+00 3.1886064206e+01 0.0000000000e+00 0.0000e+00 -1.0000e+00
</event>
<event>
 8      4 +2.2883893e-04 9.11880000e+01 7.81616400e-03 1.18400000e-01
      -11 -1    0    0    0    0 +0.0000000000e+00 +0.0000000000e+00 +4.5593999997e+01 4.5594000000e+01 5.1100000000e-04 0.0000e+00 -1.0000e+00
       11 -1    0    0    0    0 -0.0000000000e+00 -0.0000000000e+00 -4.5593999997e+01 4.5594000000e+01 5.1100000000e-04 0.0000e+00 1.0000e+00
       23  2    1    2    0    0 +0.0000000000e+00 +0.0000000000e+00 +0.0000000000e+00 9.1188000000e+01 9.1188000000e+01 2.9563e-14 0.0000e+00
 -9990012  2    3    3    0    0 +1.5544760357e+01 +8.1840000348e+00 -2.6610226286e+01 5.9301928211e+01 4.9999971154e+01 2.9329e-03 0.0000e+00
      -11  1    4    4    0    0 -9.1465105809e+00 +1.8511909171e-01 +7.6761929602e+00 1.1942230257e+01 5.1100000000e-04 0.0000e+00 1.0000e+00
       11  1    4    4    0    0 +9.9610342657e+00 +7.6229501222e+00 -3.1803509974e+00 1.2940100654e+01 5.1100000000e-04 0.0000e+00 -1.0000e+00
      -12  1    4    4    0    0 +1.4730236672e+01 +3.7593082092e-01 -3.1106068249e+01 3.4419597300e+01 0.0000000000e+00 0.0000e+00 1.0000e+00
       12  1    3    3    0    0 -1.5544760357e+01 -8.1840000348e+00 +2.6610226286e+01 3.1886071789e+01 0.0000000000e+00 0.0000e+00 -1.0000e+00
</event>
<event>
 8      4 +2.2883893e-04 9.11880000e+01 7.81616400e-03 1.18400000e-01
      -11 -1    0    0    0    0 +0.0000000000e+00 +0.0000000000e+00 +4.5593999997e+01 4.5594000000e+01 5.1100000000e-04 0.0000e+00 1.0000e+00
       11 -1    0    0    0    0 -0.0000000000e+00 -0.0000000000e+00 -4.5593999997e+01 4.5594000000e+01 5.1100000000e-04 0.0000e+00 -1.0000e+00
       23  2    1    2    0    0 +4.4408920985e-16 +8.8817841970e-16 -3.5527136788e-15 9.1188000000e+01 9.1188000000e+01 7.7788e-14 0.0000e+00
 -9990012  2    3    3    0    0 -3.0590466608e+00 +6.8909118785e+00 +3.0981893700e+01 5.9301950225e+01 5.0000011302e+01 1.2973e-02 0.0000e+00
      -11  1    4    4    0    0 -1.1404448980e+00 -7.5613322024e+00 -5.7820346990e+00 9.5867765574e+00 5.1100000000e-04 0.0000e+00 1.0000e+00
       11  1    4    4    0    0 +8.6063525791e+00 -4.0448565140e+00 +3.3166050256e+00 1.0071248090e+01 5.1100000000e-04 0.0000e+00 -1.0000e+00
      -12  1    4    4    0    0 -1.0524954342e+01 +1.8497100595e+01 +3.3447323374e+01 3.9643925577e+01 0.0000000000e+00 0.0000e+00 1.0000e+00
       12  1    3    3    0    0 +3.0590466608e+00 -6.8909118785e+00 -3.0981893700e+01 3.1886049775e+01 0.0000000000e+00 0.0000e+00 -1.0000e+00
</event>
<event>
 8      3 +2.2883893e-04 9.11880000e+01 7.81616400e-03 1.18400000e-01
      -11 -1    0    0    0    0 +0.0000000000e+00 +0.0000000000e+00 +4.5593999997e+01 4.5594000000e+01 5.1100000000e-04 0.0000e+00 1.0000e+00
       11 -1    0    0    0    0 -0.0000000000e+00 -0.0000000000e+00 -4.5593999997e+01 4.5594000000e+01 5.1100000000e-04 0.0000e+00 -1.0000e+00
       23  2    1    2    0    0 +0.0000000000e+00 -1.7763568394e-15 -3.5527136788e-15 9.1188000000e+01 9.1188000000e+01 4.4194e-14 0.0000e+00
  9990012  2    3    3    0    0 -2.1366900028e+01 +1.4258250738e+01 +1.8891560349e+01 5.9301746170e+01 4.9999639153e+01 3.0451e-03 0.0000e+00
      -11  1    4    4    0    0 -2.5635987355e+01 +1.1506338880e+01 +2.9949370664e+01 4.1067803515e+01 5.1100000000e-04 0.0000e+00 -1.0000e+00
       11  1    4    4    0    0 -4.9216931813e+00 +1.8483118509e+00 -4.2631903269e+00 6.7686123019e+00 5.1100000000e-04 0.0000e+00 1.0000e+00
       12  1    4    4    0    0 +9.1907805083e+00 +9.0360000690e-01 -6.7946199882e+00 1.1465330353e+01 0.0000000000e+00 0.0000e+00 -1.0000e+00
      -12  1    3    3    0    0 +2.1366900028e+01 -1.4258250738e+01 -1.8891560349e+01 3.1886253830e+01 0.0000000000e+00 0.0000e+00 1.0000e+00
</event>
<event>
 8      3 +2.2883893e-04 9.11880000e+01 7.81616400e-03 1.18400000e-01
      -11 -1    0    0    0    0 +0.0000000000e+00 +0.0000000000e+00 +4.5593999997e+01 4.5594000000e+01 5.1100000000e-04 0.0000e+00 1.0000e+00
       11 -1    0    0    0    0 -0.0000000000e+00 -0.0000000000e+00 -4.5593999997e+01 4.5594000000e+01 5.1100000000e-04 0.0000e+00 -1.0000e+00
       23  2    1    2    0    0 +8.8817841970e-16 -1.1102230246e-15 +0.0000000000e+00 9.1188000000e+01 9.1188000000e+01 1.0714e-13 0.0000e+00
  9990012  2    3    3    0    0 +2.7694695088e+00 -1.2492409481e+00 -3.1740940247e+01 5.9301986576e+01 5.0000077598e+01 5.7208e-04 0.0000e+00
      -11  1    4    4    0    0 +7.9398829896e+00 +1.8079117796e+01 -1.5172029438e+01 2.4901540508e+01 5.1100000000e-04 0.0000e+00 1.0000e+00
       11  1    4    4    0    0 +4.2810072260e+00 -6.9770077581e+00 +3.5908621484e+00 8.9386772710e+00 5.1100000000e-04 0.0000e+00 -1.0000e+00
       12  1    4    4    0    0 -9.4514207068e+00 -1.2351350986e+01 -2.0159772958e+01 2.5461768797e+01 0.0000000000e+00 0.0000e+00 -1.0000e+00
      -12  1    3    3    0    0 -2.7694695088e+00 +1.2492409481e+00 +3.1740940247e+01 3.1886013424e+01 0.0000000000e+00 0.0000e+00 1.0000e+00
</event>
<event>
 8      4 +2.2883893e-04 9.11880000e+01 7.81616400e-03 1.18400000e-01
      -11 -1    0    0    0    0 +0.0000000000e+00 +0.0000000000e+00 +4.5593999997e+01 4.5594000000e+01 5.1100000000e-04 0.0000e+00 -1.0000e+00
       11 -1    0    0    0    0 -0.0000000000e+00 -0.0000000000e+00 -4.5593999997e+01 4.5594000000e+01 5.1100000000e-04 0.0000e+00 1.0000e+00
       23  2    1    2    0    0 +3.5527136788e-15 +3.5527136788e-15 +3.5527136788e-15 9.1188000000e+01 9.1188000000e+01 6.7806e-15 0.0000e+00
 -9990012  2    3    3    0    0 -1.5028901660e+01 -2.3717356546e+01 -1.5110925065e+01 5.9301938108e+01 4.9999989204e+01 1.1791e-03 0.0000e+00
      -11  1    4    4    0    0 +1.8261784470e+00 +2.3273940824e+00 -2.8644912058e+00 4.1178879374e+00 5.1100000000e-04 0.0000e+00 1.0000e+00
       11  1    4    4    0    0 +3.2217101329e-01 -2.5752384657e+00 +1.5064930594e+01 1.5286849949e+01 5.1100000000e-04 0.0000e+00 -1.0000e+00
      -12  1    4    4    0    0 -1.7177251121e+01 -2.3469512163e+01 -2.7311364453e+01 3.9897200221e+01 0.0000000000e+00 0.0000e+00 1.0000e+00
       12  1    3    3    0    0 +1.5028901660e+01 +2.3717356546e+01 +1.5110925065e+01 3.1886061892e+01 0.0000000000e+00 0.0000e+00 -1.0000e+00
</event>
<event>
 8      4 +2.2883893e-04 9.11880000e+01 7.81616400e-03 1.18400000e-01
      -11 -1    0    0    0    0 +0.0000000000e+00 +0.0000000000e+00 +4.5593999997e+01 4.5594000000e+01 5.1100000000e-04 0.0000e+00 -1.0000e+00
       11 -1    0    0    0    0 -0.0000000000e+00 -0.0000000000e+00 -4.5593999997e+01 4.5594000000e+01 5.1100000000e-04 0.0000e+00 1.0000e+00
       23  2    1    2    0    0 +0.0000000000e+00 -1.3322676296e-15 +3.5527136788e-15 9.1188000000e+01 9.1188000000e+01 9.5020e-15 0.0000e+00
 -9990012  2    3    3    0    0 -2.9642064659e+01 +2.6956792484e-01 -1.1747180719e+01 5.9301938485e+01 4.9999989891e+01 4.6446e-03 0.0000e+00
      -11  1    4    4    0    0 -2.0032050247e+01 +9.0794529566e+00 -1.2947694969e+01 2.5521800649e+01 5.1100000000e-04 0.0000e+00 1.0000e+00
       11  1    4    4    0    0 +2.4119334169e+00 -1.1877792895e+01 -1.1008439041e+01 1.6373305019e+01 5.1100000000e-04 0.0000e+00 -1.0000e+00
      -12  1    4    4    0    0 -1.2021947829e+01 +3.0679078628e+00 +1.2208953291e+01 1.7406832817e+01 0.0000000000e+00 0.0000e+00 1.0000e+00
       12  1    3    3    0    0 +2.9642064659e+01 -2.6956792484e-01 +1.1747180719e+01 3.1886061515e+01 0.0000000000e+00 0.0000e+00 -1.0000e+00
</event>
<event>
 8      4 +2.2883893e-04 9.11880000e+01 7.81616400e-03 1.18400000e-01
      -11 -1    0    0    0    0 +0.0000000000e+00 +0.0000000000e+00 +4.5593999997e+01 4.5594000000e+01 5.1100000000e-04 0.0000e+00 -1.0000e+00
       11 -1    0    0    0    0 -0.0000000000e+00 -0.0000000000e+00 -4.5593999997e+01 4.5594000000e+01 5.1100000000e-04 0.0000e+00 1.0000e+00
       23  2    1    2    0    0 +3.5527136788e-15 +0.0000000000e+00 +0.0000000000e+00 9.1188000000e+01 9.1188000000e+01 5.2396e-14 0.0000e+00
 -9990012  2    3    3    0    0 +8.6209166956e+00 +7.0444865578e-01 -3.0690419738e+01 5.9301979297e+01 5.0000064323e+01 4.1572e-03 0.0000e+00
      -11  1    4    4    0    0 -8.7057183731e+00 +1.0231386511e+01 -1.1814682722e+00 1.3485795114e+01 5.1100000000e-04 0.0000e+00 1.0000e+00
       11  1    4    4    0    0 +7.3250415211e-01 -8.0401746224e+00 -2.7938624064e+01 2.9081741440e+01 5.1100000000e-04 0.0000e+00 -1.0000e+00
      -12  1    4    4    0    0 +1.6594130917e+01 -1.4867632324e+00 -1.5703274013e+00 1.6734442743e+01 0.0000000000e+00 0.0000e+00 1.0000e+00
       12  1    3    3    0    0 -8.6209166956e+00 -7.0444865578e-01 +3.0690419738e+01 3.1886020703e+01 0.0000000000e+00 0.0000e+00 -1.0000e+00
</event>
<event>
 8      4 +2.2883893e-04 9.11880000e+01 7.81616400e-03 1.18400000e-01
      -11 -1    0    0    0    0 +0.0000000000e+00 +0.0000000000e+00 +4.5593999997e+01 4.5594000000e+01 5.1100000000e-04 0.0000e+00 -1.0000e+00
       11 -1    0    0    0    0 -0.0000000000e+00 -0.0000000000e+00 -4.5593999997e+01 4.5594000000e+01 5.1100000000e-04 0.0000e+00 1.0000e+00
       23  2    1    2    0    0 +4.4408920985e-16 +7.1054273576e-15 +1.7763568394e-15 9.1188000000e+01 9.1188000000e+01 1.7166e-13 0.0000e+00
 -9990012  2    3    3    0    0 +3.9250027245e+00 +3.1038322280e+01 -6.1594093703e+00 5.9301930626e+01 4.9999975559e+01 2.9765e-04 0.0000e+00
      -11  1    4    4    0    0 +6.3313689235e+00 +1.8528043080e+01 -2.0517200798e+01 2.8360714760e+01 5.1100000000e-04 0.0000e+00 1.0000e+00
       11  1    4    4    0    0 -4.2478367014e-02 -7.1036717161e+00 +6.6633141995e+00 9.7398004417e+00 5.1100000000e-04 0.0000e+00 -1.0000e+00
      -12  1    4    4    0    0 -2.3638878319e+00 +1.9613950915e+01 +7.6944772284e+00 2.1201415425e+01 0.0000000000e+00 0.0000e+00 1.0000e+00
       12  1    3    3    0    0 -3.9250027245e+00 -3.1038322280e+01 +6.1594093703e+00 3.1886069374e+01 0.0000000000e+00 0.0000e+00 -1.0000e+00
</event>
<event>
 8      4 +2.2883893e-04 9.11880000e+01 7.81616400e-03 1.18400000e-01
      -11 -1    0    0    0    0 +0.0000000000e+00 +0.0000000000e+00 +4.5593999997e+01 4.5594000000e+01 5.1100000000e-04 0.0000e+00 1.0000e+00
       11 -1    0    0    0    0 -0.0000000000e+00 -0.0000000000e+00 -4.5593999997e+01 4.5594000000e+01 5.1100000000e-04 0.0000e+00 -1.0000e+00
       23  2    1    2    0    0 +3.5527136788e-15 +0.0000000000e+00 +0.0000000000e+00 9.1188000000e+01 9.1188000000e+01 9.9019e-16 0.0000e+00
 -9990012  2    3    3    0    0 +2.8104019054e+01 +1.0184879319e+01 +1.1097394860e+01 5.9301955616e+01 5.0000021135e+01 1.2699e-04 0.0000e+00
      -11  1    4    4    0    0 +1.0246094489e+01 -2.8249822346e+00 +2.2438787062e+01 2.4828655662e+01 5.1100000000e-04 0.0000e+00 1.0000e+00
       11  1    4    4    0    0 -5.6895409017e+00 +3.4762039364e+00 -3.7151378144e-02 6.6675520219e+00 5.1100000000e-04 0.0000e+00 -1.0000e+00
      -12  1    4    4    0    0 +2.3547465467e+01 +9.5336576171e+00 -1.1304240824e+01 2.7805747932e+01 0.0000000000e+00 0.0000e+00 1.0000e+00
       12  1    3    3    0    0 -2.8104019054e+01 -1.0184879319e+01 -1.1097394860e+01 3.1886044384e+01 0.0000000000e+00 0.0000e+00 -1.0000e+00
</event>
<event>
 8      4 +2.2883893e-04 9.11880000e+01 7.81616400e-03 1.18400000e-01
      -11 -1    0    0    0    0 +0.0000000000e+00 +0.0000000000e+00 +4.5593999997e+01 4.5594000000e+01 5.1100000000e-04 0.0000e+00 1.0000e+00
       11 -1    0    0    0    0 -0.0000000000e+00 -0.0000000000e+00 -4.5593999997e+01 4.5594000000e+01 5.1100000000e-04 0.0000e+00 -1.0000e+00
       23  2    1    2    0    0 +0.0000000000e+00 +8.8817841970e-16 +3.5527136788e-15 9.1188000000e+01 9.1188000000e+01 1.2584e-15 0.0000e+00
 -9990012  2    3    3    0    0 +2.0802799212e+01 -7.1763908186e+00 +2.3075311840e+01 5.9301842239e+01 4.9999814362e+01 1.4774e-03 0.0000e+00
      -11  1    4    4    0    0 +2.9386320939e+00 +6.2863140714e+00 -9.3119320209e+00 1.1613155532e+01 5.1100000000e-04 0.0000e+00 1.0000e+00
       11  1    4    4    0    0 +1.3583546918e+01 -4.4964127416e+00 +5.3022741159e-01 1.4318226698e+01 5.1100000000e-04 0.0000e+00 -1.0000e+00
      -12  1    4    4    0    0 +4.2806201999e+00 -8.9662921484e+00 +3.1857016449e+01 3.3370460009e+01 0.0000000000e+00 0.0000e+00 1.0000e+00
       12  1    3    3    0    0 -2.0802799212e+01 +7.1763908186e+00 -2.3075311840e+01 3.1886157761e+01 0.0000000000e+00 0.0000e+00 -1.0000e+00
</event>
<event>
 8      3 +2.2883893e-04 9.11880000e+01 7.81616400e-03 1.18400000e-01
      -11 -1    0    0    0    0 +0.0000000000e+00 +0.0000000000e+00 +4.5593999997e+01 4.5594000000e+01 5.1100000000e-04 0.0000e+00 -1.0000e+00
       11 -1    0    0    0    0 -0.0000000000e+00 -0.0000000000e+00 -4.5593999997e+01 4.5594000000e+01 5.1100000000e-04 0.0000e+00 1.0000e+00
       23  2    1    2    0    0 +0.0000000000e+00 +0.0000000000e+00 +3.5527136788e-15 9.1188000000e+01 9.1188000000e+01 2.9455e-14 0.0000e+00
  9990012  2    3    3    0    0 -1.8304879637e+01 -1.6116037890e+01 +2.0540844597e+01 5.9301927922e+01 4.9999970627e+01 1.6856e-03 0.0000e+00
      -11  1    4    4    0    0 +2.9532644828e+00 -4.6127249952e+00 -5.4838461687e+00 7.7505852715e+00 5.1100000000e-04 0.0000e+00 1.0000e+00
       11  1    4    4    0    0 -2.4813766951e+01 +6.8998745666e+00 +1.5259166711e+01 2.9936156539e+01 5.1100000000e-04 0.0000e+00 -1.0000e+00
       12  1    4    4    0    0 +3.5556228314e+00 -1.8403187462e+01 +1.0765524055e+01 2.1615186112e+01 0.0000000000e+00 0.0000e+00 -1.0000e+00
      -12  1    3    3    0    0 +1.8304879637e+01 +1.6116037890e+01 -2.0540844597e+01 3.1886072078e+01 0.0000000000e+00 0.0000e+00 1.0000e+00
</event>
<event>
 8      4 +2.2883893e-04 9.11880000e+01 7.81616400e-03 1.18400000e-01
      -11 -1    0    0    0    0 +0.0000000000e+00 +0.0000000000e+00 +4.5593999997e+01 4.5594000000e+01 5.1100000000e-04 0.0000e+00 1.0000e+00
       11 -1    0    0    0    0 -0.0000000000e+00 -0.0000000000e+00 -4.5593999997e+01 4.5594000000e+01 5.1100000000e-04 0.0000e+00 -1.0000e+00
       23  2    1    2    0    0 +8.8817841970e-16 +0.0000000000e+00 -3.5527136788e-15 9.1188000000e+01 9.1188000000e+01 1.5157e-14 0.0000e+00
 -9990012  2    3    3    0    0 +6.3983695198e+00 -1.5411273503e+01 +2.7171215734e+01 5.9301930189e+01 4.9999974762e+01 1.5635e-03 0.0000e+00
      -11  1    4    4    0    0 -6.0166874057e+00 -8.5360809594e+00 -5.8008370550e+00 1.1946334847e+01 5.1100000000e-04 0.0000e+00 1.0000e+00
       11  1    4    4    0    0 -1.0215691935e+01 -4.6026172819e+00 +1.2001291930e+01 1.6418753174e+01 5.1100000000e-04 0.0000e+00 -1.0000e+00
      -12  1    4    4    0    0 +2.2630748860e+01 -2.2725752621e+00 +2.0970760859e+01 3.0936842168e+01 0.0000000000e+00 0.0000e+00 1.0000e+00
       12  1    3    3    0    0 -6.3983695198e+00 +1.5411273503e+01 -2.7171215734e+01 3.1886069811e+01 0.0000000000e+00 0.0000e+00 -1.0000e+00
</event>
<event>
 8      3 +2.2883893e-04 9.11880000e+01 7.81616400e-03 1.18400000e-01
      -11 -1    0    0    0    0 +0.0000000000e+00 +0.0000000000e+00 +4.5593999997e+01 4.5594000000e+01 5.1100000000e-04 0.0000e+00 -1.0000e+00
       11 -1    0    0    0    0 -0.0000000000e+00 -0.0000000000e+00 -4.5593999997e+01 4.5594000000e+01 5.1100000000e-04 0.0000e+00 1.0000e+00
       23  2    1    2    0    0 +0.0000000000e+00 +3.5527136788e-15 -1.7763568394e-15 9.1188000000e+01 9.1188000000e+01 1.1948e-13 0.0000e+00
  9990012  2    3    3    0    0 -9.6921419017e+00 +2.9339669887e+01 -7.8718798272e+00 5.9301947630e+01 5.0000006570e+01 3.8697e-04 0.0000e+00
      -11  1    4    4    0    0 +9.3758353006e+00 +1.0632915649e+00 +3.4644621456e+00 1.0051834397e+01 5.1100000000e-04 0.0000e+00 1.0000e+00
       11  1    4    4    0    0 -1.9833514516e+01 +3.5407837852e+01 -1.1095385762e+01 4.2073636221e+01 5.1100000000e-04 0.0000e+00 -1.0000e+00
       12  1    4    4    0    0 +7.6553731410e-01 -7.1314595294e+00 -2.4095621032e-01 7.1764770113e+00 0.0000000000e+00 0.0000e+00 -1.0000e+00
      -12  1    3    3    0    0 +9.6921419017e+00 -2.9339669887e+01 +7.8718798272e+00 3.1886052370e+01 0.0000000000e+00 0.0000e+00 1.0000e+00
</event>
<event>
 8      4 +2.2883893e-04 9.11880000e+01 7.81616400e-03 1.18400000e-01
      -11 -1    0    0    0    0 +0.0000000000e+00 +0.0000000000e+00 +4.5593999997e+01 4.5594000000e+01 5.1100000000e-04 0.0000e+00 -1.0000e+00
       11 -1    0    0    0    0 -0.0000000000e+00 -0.0000000000e+00 -4.5593999997e+01 4.5594000000e+01 5.1100000000e-04 0.0000e+00 1.0000e+00
       23  2    1    2    0    0 +3.5527136788e-15 +0.0000000000e+00 +0.0000000000e+00 9.1188000000e+01 9.1188000000e+01 1.0309e-14 0.0000e+00
 -9990012  2    3    3    0    0 -1.9971477981e+01 +1.2504995927e+01 -2.1482233685e+01 5.9301933765e+01 4.9999981282e+01 2.3901e-03 0.0000e+00
      -11  1    4    4    0    0 -4.1465460906e+00 +4.4241778450e+00 -2.5364249671e+01 2.6078963854e+01 5.1100000000e-04 0.0000e+00 1.0000e+00
       11  1    4    4    0    0 +6.9906292738e+00 -2.6612508743e+00 +2.7835000697e+00 7.9811670048e+00 5.1100000000e-04 0.0000e+00 -1.0000e+00
      -12  1    4    4    0    0 -2.2815561164e+01 +1.0742068956e+01 +1.0985159162e+00 2.5241802906e+01 0.0000000000e+00 0.0000e+00 1.0000e+00
       12  1    3    3    0    0 +1.9971477981e+01 -1.2504995927e+01 +2.1482233685e+01 3.1886066235e+01 0.0000000000e+00 0.0000e+00 -1.0000e+00
</event>
<event>
 8      3 +2.2883893e-04 9.11880000e+01 7.81616400e-03 1.18400000e-01
      -11 -1    0    0    0    0 +0.0000000000e+00 +0.0000000000e+00 +4.5593999997e+01 4.5594000000e+01 5.1100000000e-04 0.0000e+00 -1.0000e+00
       11 -1    0    0    0    0 -0.0000000000e+00 -0.0000000000e+00 -4.5593999997e+01 4.5594000000e+01 5.1100000000e-04 0.0000e+00 1.0000e+00
       23  2    1    2    0    0 -3.5527136788e-15 +8.8817841970e-16 +0.0000000000e+00 9.1188000000e+01 9.1188000000e+01 9.3027e-14 0.0000e+00
  9990012  2    3    3    0    0 +2.9095980303e+01 -3.7251638894e+00 +1.2500633074e+01 5.9301972605e+01 5.0000052117e+01 1.1790e-03 0.0000e+00
      -11  1    4    4    0    0 +2.0373132544e+01 -2.3809157637e+00 +6.9865959331e+00 2.1669005804e+01 5.1100000000e-04 0.0000e+00 1.0000e+00
       11  1    4    4    0    0 +1.4833821216e+01 +1.0654259091e+01 +1.2819692157e+01 2.2313672847e+01 5.1100000000e-04 0.0000e+00 -1.0000e+00
       12  1    4    4    0    0 -6.1109734566e+00 -1.1998507217e+01 -7.3056550165e+00 1.5319293954e+01 0.0000000000e+00 0.0000e+00 -1.0000e+00
      -12  1    3    3    0    0 -2.9095980303e+01 +3.7251638894e+00 -1.2500633074e+01 3.1886027395e+01 0.0000000000e+00 0.0000e+00 1.0000e+00
</event>
<event>
 8      4 +2.2883893e-04 9.11880000e+01 7.81616400e-03 1.18400000e-01
      -11 -1    0    0    0    0 +0.0000000000e+00 +0.0000000000e+00 +4.5593999997e+01 4.5594000000e+01 5.1100000000e-04 0.0000e+00 -1.0000e+00
       11 -1    0    0    0    0 -0.0000000000e+00 -0.0000000000e+00 -4.5593999997e+01 4.5594000000e+01 5.1100000000e-04 0.0000e+00 1.0000e+00
       23  2    1    2    0    0 -1.7763568394e-15 +0.0000000000e+00 -3.5527136788e-15 9.1188000000e+01 9.1188000000e+01 1.8625e-13 0.0000e+00
 -9990012  2    3    3    0    0 +9.0822837525e+00 -1.9988932949e+01 -2.3123102838e+01 5.9301902662e+01 4.9999924559e+01 1.7231e-03 0.0000e+00
      -11  1    4    4    0    0 +4.3943285121e+00 -3.2874544527e+00 -1.8961072394e+01 1.9739294477e+01 5.1100000000e-04 0.0000e+00 1.0000e+00
       11  1    4    4    0    0 -5.0504209671e+00 -1.4346759843e+01 -1.7303211601e+01 2.3037738645e+01 5.1100000000e-04 0.0000e+00 -1.0000e+00
      -12  1    4    4    0    0 +9.7383762075e+00 -2.3547186540e+00 +1.3141181157e+01 1.6524869540e+01 0.0000000000e+00 0.0000e+00 1.0000e+00
       12  1    3    3    0    0 -9.0822837525e+00 +1.9988932949e+01 +2.3123102838e+01 3.1886097338e+01 0.0000000000e+00 0.0000e+00 -1.0000e+00
</event>
<event>
 8      4 +2.2883893e-04 9.11880000e+01 7.81616400e-03 1.18400000e-01
      -11 -1    0    0    0    0 +0.0000000000e+00 +0.0000000000e+00 +4.5593999997e+01 4.5594000000e+01 5.1100000000e-04 0.0000e+00 1.0000e+00
       11 -1    0    0    0    0 -0.0000000000e+00 -0.0000000000e+00 -4.5593999997e+01 4.5594000000e+01 5.1100000000e-04 0.0000e+00 -1.0000e+00
       23  2    1    2    0    0 +0.0000000000e+00 -1.7763568394e-15 -3.5527136788e-15 9.1188000000e+01 9.1188000000e+01 1.0353e-13 0.0000e+00
 -9990012  2    3    3    0    0 -1.6289093090e+01 +5.0802319601e+00 +2.6936483562e+01 5.9301992769e+01 5.0000088892e+01 1.0902e-03 0.0000e+00
      -11  1    4    4    0    0 -1.2610487713e+01 +1.4844542529e+01 +3.1799781298e+01 3.7290896129e+01 5.1100000000e-04 0.0000e+00 1.0000e+00
       11  1    4    4    0    0 -5.5679682186e+00 -1.3441704260e+01 -8.1975746800e+00 1.6699757914e+01 5.1100000000e-04 0.0000e+00 -1.0000e+00
      -12  1    4    4    0    0 +1.8893628419e+00 +3.6773936917e+00 +3.3342769442e+00 5.3113387251e+00 0.0000000000e+00 0.0000e+00 1.0000e+00
       12  1    3    3    0    0 +1.6289093090e+01 -5.0802319601e+00 -2.6936483562e+01 3.1886007231e+01 0.0000000000e+00 0.0000e+00 -1.0000e+00
</event>
<event>
 8      3 +2.2883893e-04 9.11880000e+01 7.81616400e-03 1.18400000e-01
      -11 -1    0    0    0    0 +0.0000000000e+00 +0.0000000000e+00 +4.5593999997e+01 4.5594000000e+01 5.1100000000e-04 0.0000e+00 1.0000e+00
       11 -1    0    0    0    0 -0.0000000000e+00 -0.0000000000e+00 -4.5593999997e+01 4.5594000000e+01 5.1100000000e-04 0.0000e+00 -1.0000e+00
       23  2    1    2    0    0 +3.5527136788e-15 -8.8817841970e-16 +8.8817841970e-16 9.1188000000e+01 9.1188000000e+01 3.0758e-14 0.0000e+00
  9990012  2    3    3    0    0 +3.0955770858e+01 -7.0764494663e+00 +2.8965456284e+00 5.9301860958e+01 4.9999848500e+01 2.1868e-03 0.0000e+00
      -11  1    4    4    0    0 +4.1979049513e+00 -1.9673903661e+01 +5.5520462312e+00 2.0868878955e+01 5.1100000000e-04 0.0000e+00 1.0000e+00
       11  1    4    4    0    0 +8.5384730222e+00 +2.0302833907e+00 +1.0434389303e+01 1.3634663640e+01 5.1100000000e-04 0.0000e+00 -1.0000e+00
       12  1    4    4    0    0 +1.8219392884e+01 +1.0567170804e+01 -1.3089889906e+01 2.4798318362e+01 0.0000000000e+00 0.0000e+00 -1.0000e+00
      -12  1    3    3    0    0 -3.0955770858e+01 +7.0764494663e+00 -2.8965456284e+00 3.1886139042e+01 0.0000000000e+00 0.0000e+00 1.0000e+00
</event>
<event>
 8      3 +2.2883893e-04 9.11880000e+01 7.81616400e-03 1.18400000e-01
      -11 -1    0    0    0    0 +0.0000000000e+00 +0.0000000000e+00 +4.5593999997e+01 4.5594000000e+01 5.1100000000e-04 0.0000e+00 1.0000e+00
       11 -1    0    0    0    0 -0.0000000000e+00 -0.0000000000e+00 -4.5593999997e+01 4.5594000000e+01 5.1100000000e-04 0.0000e+00 -1.0000e+00
       23  2    1    2    0    0 +0.0000000000e+00 -1.7763568394e-15 -3.5527136788e-15 9.1188000000e+01 9.1188000000e+01 9.1086e-14 0.0000e+00
  9990012  2    3    3    0    0 -6.4347330683e+00 -1.1437546537e+01 -2.9060242946e+01 5.9301937519e+01 4.9999988129e+01 8.0939e-04 0.0000e+00
      -11  1    4    4    0    0 -1.8953194508e+01 -9.2720782827e+00 -2.3483903344e+01 3.1570377480e+01 5.1100000000e-04 0.0000e+00 1.0000e+00
       11  1    4    4    0    0 -5.9570265053e+00 +3.3799643333e+00 -4.9155337512e+00 8.4304683144e+00 5.1100000000e-04 0.0000e+00 -1.0000e+00
       12  1    4    4    0    0 +1.8475487945e+01 -5.5454325875e+00 -6.6080585145e-01 1.9301091724e+01 0.0000000000e+00 0.0000e+00 -1.0000e+00
      -12  1    3    3    0    0 +6.4347330683e+00 +1.1437546537e+01 +2.9060242946e+01 3.1886062481e+01 0.0000000000e+00 0.0000e+00 1.0000e+00
</event>
<event>
 8      4 +2.2883893e-04 9.11880000e+01 7.81616400e-03 1.18400000e-01
      -11 -1    0    0    0    0 +0.0000000000e+00 +0.0000000000e+00 +4.5593999997e+01 4.5594000000e+01 5.1100000000e-04 0.0000e+00 1.0000e+00
       11 -1    0    0    0    0 -0.0000000000e+00 -0.0000000000e+00 -4.5593999997e+01 4.5594000000e+01 5.1100000000e-04 0.0000e+00 -1.0000e+00
       23  2    1    2    0    0 +8.8817841970e-16 -4.4408920985e-16 -3.5527136788e-15 9.1188000000e+01 9.1188000000e+01 7.7699e-14 0.0000e+00
 -9990012  2    3    3    0    0 -4.5817236187e+00 +1.7683920584e+00 +3.1505615302e+01 5.9301902757e+01 4.9999924733e+01 7.9742e-04 0.0000e+00
      -11  1    4    4    0    0 -2.1201857211e+01 -7.9411855440e+00 +2.3738021620e+01 3.2803579800e+01 5.1100000000e-04 0.0000e+00 1.0000e+00
       11  1    4    4    0    0 +1.2596299037e+01 -2.0377456314e+00 +2.4640817453e+00 1.2995801468e+01 5.1100000000e-04 0.0000e+00 -1.0000e+00
      -12  1    4    4    0    0 +4.0238345553e+00 +1.1747323234e+01 +5.3035119372e+00 1.3502521489e+01 0.0000000000e+00 0.0000e+00 1.0000e+00
       12  1    3    3    0    0 +4.5817236187e+00 -1.7683920584e+00 -3.1505615302e+01 3.1886097243e+01 0.0000000000e+00 0.0000e+00 -1.0000e+00
</event>
<event>
 8      4 +2.2883893e-04 9.11880000e+01 7.81616400e-03 1.18400000e-01
      -11 -1    0    0    0    0 +0.0000000000e+00 +0.0000000000e+00 +4.5593999997e+01 4.5594000000e+01 5.1100000000e-04 0.0000e+00 1.0000e+00
       11 -1    0    0    0    0 -0.0000000000e+00 -0.0000000000e+00 -4.5593999997e+01 4.5594000000e+01 5.1100000000e-04 0.0000e+00 -1.0000e+00
       23  2    1    2    0    0 -8.8817841970e-16 +0.0000000000e+00 +3.5527136788e-15 9.1188000000e+01 9.1188000000e+01 6.3274e-14 0.0000e+00
 -9990012  2    3    3    0    0 +6.0017972874e+00 -1.9197730235e+01 +2.4741748971e+01 5.9301818683e+01 4.9999771400e+01 3.6219e-04 0.0000e+00
      -11  1    4    4    0    0 -6.9927634040e+00 -6.5268066143e+00 -7.1074521224e+00 1.1916955171e+01 5.1100000000e-04 0.0000e+00 1.0000e+00
       11  1    4    4    0    0 +1.0264579915e+01 +3.3758559328e+00 +2.8884857811e+01 3.0839795964e+01 5.1100000000e-04 0.0000e+00 -1.0000e+00
      -12  1    4    4    0    0 +2.7299807766e+00 -1.6046779553e+01 +2.9643432828e+00 1.6545067548e+01 0.0000000000e+00 0.0000e+00 1.0000e+00
       12  1    3    3    0    0 -6.0017972874e+00 +1.9197730235e+01 -2.4741748971e+01 3.1886181317e+01 0.0000000000e+00 0.0000e+00 -1.0000e+00
</event>
<event>
 8      4 +2.2883893e-04 9.11880000e+01 7.81616400e-03 1.18400000e-01
      -11 -1    0    0    0    0 +0.0000000000e+00 +0.0000000000e+00 +4.5593999997e+01 4.5594000000e+01 5.1100000000e-04 0.0000e+00 1.0000e+00
       11 -1    0    0    0    0 -0.0000000000e+00 -0.0000000000e+00 -4.5593999997e+01 4.5594000000e+01 5.1100000000e-04 0.0000e+00 -1.0000e+00
       23  2    1    2    0    0 -3.5527136788e-15 +0.0000000000e+00 +3.5527136788e-15 9.1188000000e+01 9.1188000000e+01 1.0294e-14 0.0000e+00
 -9990012  2    3    3    0    0 +1.8060316196e+01 -2.4549565680e+01 -9.3738421358e+00 5.9301872726e+01 4.9999869962e+01 2.9182e-03 0.0000e+00
      -11  1    4    4    0    0 +5.6698945181e+00 -1.2542826632e+01 +4.9372414152e+00 1.4623493318e+01 5.1100000000e-04 0.0000e+00 1.0000e+00
       11  1    4    4    0    0 +2.4502717703e+01 -1.4241707164e+00 -2.3940907692e+00 2.4660557737e+01 5.1100000000e-04 0.0000e+00 -1.0000e+00
      -12  1    4    4    0    0 -1.2112296025e+01 -1.0582568332e+01 -1.1916992782e+01 2.0017821671e+01 0.0000000000e+00 0.0000e+00 1.0000e+00
       12  1    3    3    0    0 -1.8060316196e+01 +2.4549565680e+01 +9.3738421358e+00 3.1886127274e+01 0.0000000000e+00 0.0000e+00 -1.0000e+00
</event>
<event>
 8      4 +2.2883893e-04 9.11880000e+01 7.81616400e-03 1.18400000e-01
      -11 -1    0    0    0    0 +0.0000000000e+00 +0.0000000000e+00 +4.5593999997e+01 4.5594000000e+01 5.1100000000e-04 0.0000e+00 -1.0000e+00
       11 -1    0    0    0    0 -0.0000000000e+00 -0.0000000000e+00 -4.5593999997e+01 4.5594000000e+01 5.1100000000e-04 0.0000e+00 1.0000e+00
       23  2    1    2    0    0 +3.5527136788e-15 +0.0000000000e+00 +0.0000000000e+00 9.1188000000e+01 9.1188000000e+01 4.8427e-14 0.0000e+00
 -9990012  2    3    3    0    0 +2.2197586029e+01 -2.2405718753e+01 -4.6872756831e+00 5.9301958984e+01 5.0000027277e+01 2.0757e-03 0.0000e+00
      -11  1    4    4    0    0 +2.5204291974e+01 -6.2420835388e+00 +7.1248697974e-01 2.5975518836e+01 5.1100000000e-04 0.0000e+00 1.0000e+00
       11  1    4    4    0    0 -8.5132507350e-01 +8.2506398884e+00 -3.4641172426e-01 8.3016753907e+00 5.1100000000e-04 0.0000e+00 -1.0000e+00
      -12  1    4    4    0    0 -2.1553808717e+00 -2.4414275102e+01 -5.0533509385e+00 2.5024764758e+01 0.0000000000e+00 0.0000e+00 1.0000e+00
       12  1    3    3    0    0 -2.2197586029e+01 +2.2405718753e+01 +4.6872756831e+00 3.1886041016e+01 0.0000000000e+00 0.0000e+00 -1.0000e+00
</event>
<event>
 8      3 +2.2883893e-04 9.11880000e+01 7.81616400e-03 1.18400000e-01
      -11 -1    0    0    0    0 +0.0000000000e+00 +0.0000000000e+00 +4.5593999997e+01 4.5594000000e+01 5.1100000000e-04 0.0000e+00 -1.0000e+00
       11 -1    0    0    0    0 -0.0000000000e+00 -0.0000000000e+00 -4.5593999997e+01 4.5594000000e+01 5.1100000000e-04 0.0000e+00 1.0000e+00
       23  2    1    2    0    0 +0.0000000000e+00 +1.7763568394e-15 +0.0000000000e+00 9.1188000000e+01 9.1188000000e+01 1.0116e-14 0.0000e+00
  9990012  2    3    3    0    0 -3.6086933281e+00 +7.8216766313e+00 +3.0700499629e+01 5.9301921998e+01 4.9999959823e+01 2.8189e-04 0.0000e+00
      -11  1    4    4    0    0 -4.5381562232e-01 +3.2017983652e+00 -1.0122493474e+01 1.0626492167e+01 5.1100000000e-04 0.0000e+00 1.0000e+00
       11  1    4    4    0    0 -1.0602169672e+01 +3.0901066209e+00 +5.1209928530e+00 1.2172893195e+01 5.1100000000e-04 0.0000e+00 -1.0000e+00
       12  1    4    4    0    0 +7.4472919664e+00 +1.5297716453e+00 +3.5702000250e+01 3.6502536635e+01 0.0000000000e+00 0.0000e+00 -1.0000e+00
      -12  1    3    3    0    0 +3.6086933281e+00 -7.8216766313e+00 -3.0700499629e+01 3.1886078002e+01 0.0000000000e+00 0.0000e+00 1.0000e+00
</event>
<event>
 8      3 +2.2883893e-04 9.11880000e+01 7.81616400e-03 1.18400000e-01
      -11 -1    0    0    0    0 +0.0000000000e+00 +0.0000000000e+00 +4.5593999997e+01 4.5594000000e+01 5.1100000000e-04 0.0000e+00 1.0000e+00
       11 -1    0    0    0    0 -0.0000000000e+00 -0.0000000000e+00 -4.5593999997e+01 4.5594000000e+01 5.1100000000e-04 0.0000e+00 -1.0000e+00
       23  2    1    2    0    0 -3.5527136788e-15 +3.5527136788e-15 +3.5527136788e-15 9.1188000000e+01 9.1188000000e+01 1.1186e-13 0.0000e+00
  9990012  2    3    3    0    0 +1.6725675422e+01 -1.8793938978e+01 -1.9589796047e+01 5.9301945528e+01 5.0000002737e+01 3.8165e-03 0.0000e+00
      -11  1    4    4    0    0 -1.1390415998e+01 -8.8921426964e+00 +4.4355722241e-01 1.4457127018e+01 5.1100000000e-04 0.0000e+00 1.0000e+00
       11  1    4    4    0    0 +2.8601460543e+01 +1.2344478567e+00 -1.6989847996e+01 3.3289973594e+01 5.1100000000e-04 0.0000e+00 -1.0000e+00
       12  1    4    4    0    0 -4.8536912305e-01 -1.1136244138e+01 -3.0435052736e+00 1.1554844916e+01 0.0000000000e+00 0.0000e+00 -1.0000e+00
      -12  1    3    3    0    0 -1.6725675422e+01 +1.8793938978e+01 +1.9589796047e+01 3.1886054472e+01 0.0000000000e+00 0.0000e+00 1.0000e+00
</event>
<event>
 8      3 +2.2883893e-04 9.11880000e+01 7.81616400e-03 1.18400000e-01
      -11 -1    0    0    0    0 +0.0000000000e+00 +0.0000000000e+00 +4.5593999997e+01 4.5594000000e+01 5.1100000000e-04 0.0000e+00 1.0000e+00
       11 -1    0    0    0    0 -0.0000000000e+00 -0.0000000000e+00 -4.5593999997e+01 4.5594000000e+01 5.1100000000e-04 0.0000e+00 -1.0000e+00
       23  2    1    2    0    0 +3.5527136788e-15 +0.0000000000e+00 +8.8817841970e-16 9.1188000000e+01 9.1188000000e+01 2.5292e-13 0.0000e+00
  9990012  2    3    3    0    0 -1.2203434050e+01 -2.8424758685e+01 +7.7350321374e+00 5.9301930454e+01 4.9999975245e+01 2.4268e-04 0.0000e+00
      -11  1    4    4    0    0 -1.2816619471e+01 +7.4267997836e+00 +7.8439529347e+00 1.6761583684e+01 5.1100000000e-04 0.0000e+00 1.0000e+00
       11  1    4    4    0    0 -3.4419595079e+00 +1.0744290689e+00 +3.7380535485e+00 5.1937007683e+00 5.1100000000e-04 0.0000e+00 -1.0000e+00
       12  1    4    4    0    0 +4.0551449280e+00 -3.6925987537e+01 -3.8469743459e+00 3.7346646002e+01 0.0000000000e+00 0.0000e+00 -1.0000e+00
      -12  1    3    3    0    0 +1.2203434050e+01 +2.8424758685e+01 -7.7350321374e+00 3.1886069546e+01 0.0000000000e+00 0.0000e+00 1.0000e+00
</event>
<event>
 8      4 +2.2883893e-04 9.11880000e+01 7.81616400e-03 1.18400000e-01
      -11 -1    0    0    0    0 +0.0000000000e+00 +0.0000000000e+00 +4.5593999997e+01 4.5594000000e+01 5.1100000000e-04 0.0000e+00 1.0000e+00
       11 -1    0    0    0    0 -0.0000000000e+00 -0.0000000000e+00 -4.5593999997e+01 4.5594000000e+01 5.1100000000e-04 0.0000e+00 -1.0000e+00
       23  2    1    2    0    0 +0.0000000000e+00 -1.7763568394e-15 +0.0000000000e+00 9.1188000000e+01 9.1188000000e+01 3.7729e-14 0.0000e+00
 -9990012  2    3    3    0    0 +2.4450627572e+01 +1.0431715171e+01 +1.7609015114e+01 5.9301775963e+01 4.9999693490e+01 1.2670e-04 0.0000e+00
      -11  1    4    4    0    0 +2.9870541170e+01 +1.7561438147e+01 +1.7931787430e+01 3.9015411574e+01 5.1100000000e-04 0.0000e+00 1.0000e+00
       11  1    4    4    0    0 +5.6250206314e+00 -6.8831967496e+00 +1.7126048540e+00 9.0527493196e+00 5.1100000000e-04 0.0000e+00 -1.0000e+00
      -12  1    4    4    0    0 -1.1044934229e+01 -2.4652622659e-01 -2.0353771707e+00 1.1233615070e+01 0.0000000000e+00 0.0000e+00 1.0000e+00
       12  1    3    3    0    0 -2.4450627572e+01 -1.0431715171e+01 -1.7609015114e+01 3.1886224037e+01 0.0000000000e+00 0.0000e+00 -1.0000e+00
</event>
<event>
 8      3 +2.2883893e-04 9.11880000e+01 7.81616400e-03 1.18400000e-01
      -11 -1    0    0    0    0 +0.0000000000e+00 +0.0000000000e+00 +4.5593999997e+01 4.5594000000e+01 5.1100000000e-04 0.0000e+00 1.0000e+00
       11 -1    0    0    0    0 -0.0000000000e+00 -0.0000000000e+00 -4.5593999997e+01 4.5594000000e+01 5.1100000000e-04 0.0000e+00 -1.0000e+00
       23  2    1    2    0    0 +0.0000000000e+00 -1.1102230246e-16 +0.0000000000e+00 9.1188000000e+01 9.1188000000e+01 1.0639e-14 0.0000e+00
  9990012  2    3    3    0    0 +1.6238259080e+00 +3.0557757922e-01 -3.1843234255e+01 5.9301925358e+01 4.9999965951e+01 1.9732e-04 0.0000e+00
      -11  1    4    4    0    0 -1.2672567606e+00 +7.4911841549e+00 -4.3391611490e-01 7.6099975818e+00 5.1100000000e-04 0.0000e+00 1.0000e+00
       11  1    4    4    0    0 +9.7649196085e+00 -2.2267471508e+01 -2.0933963478e+01 3.2084650060e+01 5.1100000000e-04 0.0000e+00 -1.0000e+00
       12  1    4    4    0    0 -6.8738369400e+00 +1.5081864933e+01 -1.0475354663e+01 1.9607277716e+01 0.0000000000e+00 0.0000e+00 -1.0000e+00
      -12  1    3    3    0    0 -1.6238259080e+00 -3.0557757922e-01 +3.1843234255e+01 3.1886074642e+01 0.0000000000e+00 0.0000e+00 1.0000e+00
</event>
<event>
 8      4 +2.2883893e-04 9.11880000e+01 7.81616400e-03 1.18400000e-01
      -11 -1    0    0    0    0 +0.0000000000e+00 +0.0000000000e+00 +4.5593999997e+01 4.5594000000e+01 5.1100000000e-04 0.0000e+00 1.0000e+00
       11 -1    0    0    0    0 -0.0000000000e+00 -0.0000000000e+00 -4.5593999997e+01 4.5594000000e+01 5.1100000000e-04 0.0000e+00 -1.0000e+00
       23  2    1    2    0    0 -1.7763568394e-15 -3.5527136788e-15 -3.5527136788e-15 9.1188000000e+01 9.1188000000e+01 3.6964e-13 0.0000e+00
 -9990012  2    3    3    0    0 +8.1665826114e+00 -2.6211466335e+01 +1.6216877369e+01 5.9301934852e+01 4.9999983267e+01 2.0157e-03 0.0000e+00
      -11  1    4    4    0    0 -2.2170106233e+00 +7.6871077277e+00 +1.2670388863e+01 1.4984842859e+01 5.1100000000e-04 0.0000e+00 -1.0000e+00
       11  1    4    4    0    0 +8.3815270780e+00 -3.4992916602e+01 +1.0103662097e+01 3.7374298609e+01 5.1100000000e-04 0.0000e+00 1.0000e+00
      -12  1    4    4    0    0 +2.0020661568e+00 +1.0943425387e+00 -6.5571735905e+00 6.9427933848e+00 0.0000000000e+00 0.0000e+00 1.0000e+00
       12  1    3    3    0    0 -8.1665826114e+00 +2.6211466335e+01 -1.6216877369e+01 3.1886065148e+01 0.0000000000e+00 0.0000e+00 -1.0000e+00
</event>
<event>
 7      3 +2.2883893e-04 5.93019400e+01 7.81616400e-03 1.26660500e-01
      -11 -1    0    0    0    0 +0.0000000000e+00 +0.0000000000e+00 +4.5593999997e+01 4.5594000000e+01 5.1100000000e-04 0.0000e+00 1.0000e+00
       11 -1    0    0    0    0 -0.0000000000e+00 -0.0000000000e+00 -4.5593999997e+01 4.5594000000e+01 5.1100000000e-04 0.0000e+00 -1.0000e+00
  9990012  2    1    2    0    0 -1.8845965952e+00 -6.4292655380e+00 -3.1174245997e+01 5.9301940771e+01 4.9999994060e+01 3.0831e-03 0.0000e+00
      -11  1    3    3    0    0 -1.0358728343e+01 +1.2323174835e+01 -5.6521915289e+00 1.7061979963e+01 5.1100000000e-04 0.0000e+00 1.0000e+00
       11  1    3    3    0    0 +4.5895925175e+00 +2.6101238058e-01 -2.2051865464e+01 2.2525924124e+01 5.1100000000e-04 0.0000e+00 -1.0000e+00
       12  1    3    3    0    0 +3.8845392302e+00 -1.9013452754e+01 -3.4701890044e+00 1.9714036684e+01 0.0000000000e+00 0.0000e+00 -1.0000e+00
      -12  1    1    2    0    0 +1.8845965952e+00 +6.4292655380e+00 +3.1174245997e+01 3.1886059229e+01 0.0000000000e+00 0.0000e+00 1.0000e+00
</event>
<event>
 8      4 +2.2883893e-04 9.11880000e+01 7.81616400e-03 1.18400000e-01
      -11 -1    0    0    0    0 +0.0000000000e+00 +0.0000000000e+00 +4.5593999997e+01 4.5594000000e+01 5.1100000000e-04 0.0000e+00 -1.0000e+00
       11 -1    0    0    0    0 -0.0000000000e+00 -0.0000000000e+00 -4.5593999997e+01 4.5594000000e+01 5.1100000000e-04 0.0000e+00 1.0000e+00
       23  2    1    2    0    0 +3.5527136788e-15 -4.4408920985e-16 -1.7763568394e-15 9.1188000000e+01 9.1188000000e+01 3.7670e-14 0.0000e+00
 -9990012  2    3    3    0    0 -2.9005849754e+01 +2.3077206117e+00 -1.3040580311e+01 5.9301927347e+01 4.9999969579e+01 9.1344e-04 0.0000e+00
      -11  1    4    4    0    0 +2.8792595701e+00 +1.0251773845e+01 -7.5168176850e+00 1.3034245318e+01 5.1100000000e-04 0.0000e+00 1.0000e+00
       11  1    4    4    0    0 +9.1159052305e-01 -6.5030434387e-01 +9.4270932729e+00 9.4933650967e+00 5.1100000000e-04 0.0000e+00 -1.0000e+00
      -12  1    4    4    0    0 -3.2796699847e+01 -7.2937488896e+00 -1.4950855899e+01 3.6774316932e+01 0.0000000000e+00 0.0000e+00 1.0000e+00
       12  1    3    3    0    0 +2.9005849754e+01 -2.3077206117e+00 +1.3040580311e+01 3.1886072653e+01 0.0000000000e+00 0.0000e+00 -1.0000e+00
</event>
<event>
 8      3 +2.2883893e-04 9.11880000e+01 7.81616400e-03 1.18400000e-01
      -11 -1    0    0    0    0 +0.0000000000e+00 +0.0000000000e+00 +4.5593999997e+01 4.5594000000e+01 5.1100000000e-04 0.0000e+00 -1.0000e+00
       11 -1    0    0    0    0 -0.0000000000e+00 -0.0000000000e+00 -4.5593999997e+01 4.5594000000e+01 5.1100000000e-04 0.0000e+00 1.0000e+00
       23  2    1    2    0    0 -3.5527136788e-15 +4.4408920985e-16 +0.0000000000e+00 9.1188000000e+01 9.1188000000e+01 2.2292e-16 0.0000e+00
  9990012  2    3    3    0    0 -2.7621510577e+01 +3.8132121795e+00 +1.5467126085e+01 5.9301946262e+01 5.0000004075e+01 1.6940e-03 0.0000e+00
      -11  1    4    4    0    0 -1.9371511661e+01 +7.7826478138e+00 -2.8122339408e+00 2.1064988275e+01 5.1100000000e-04 0.0000e+00 1.0000e+00
       11  1    4    4    0    0 -3.6308419594e+00 -1.6578393950e+01 +1.8093468550e+01 2.4807252240e+01 5.1100000000e-04 0.0000e+00 -1.0000e+00
       12  1    4    4    0    0 -4.6191569558e+00 +1.2608958316e+01 +1.8589147556e-01 1.3429705746e+01 0.0000000000e+00 0.0000e+00 -1.0000e+00
      -12  1    3    3    0    0 +2.7621510577e+01 -3.8132121795e+00 -1.5467126085e+01 3.1886053738e+01 0.0000000000e+00 0.0000e+00 1.0000e+00
</event>
<event>
 8      3 +2.2883893e-04 9.11880000e+01 7.81616400e-03 1.18400000e-01
      -11 -1    0    0    0    0 +0.0000000000e+00 +0.0000000000e+00 +4.5593999997e+01 4.5594000000e+01 5.1100000000e-04 0.0000e+00 1.0000e+00
       11 -1    0    0    0    0 -0.0000000000e+00 -0.0000000000e+00 -4.5593999997e+01 4.5594000000e+01 5.1100000000e-04 0.0000e+00 -1.0000e+00
       23  2    1    2    0    0 +0.0000000000e+00 +0.0000000000e+00 -1.7763568394e-15 9.1188000000e+01 9.1188000000e+01 5.4767e-15 0.0000e+00
  9990012  2    3    3    0    0 -2.9492420667e+01 -5.2672241351e+00 -1.0916687464e+01 5.9301943611e+01 4.9999999240e+01 1.0151e-03 0.0000e+00
      -11  1    4    4    0    0 +7.0083960827e+00 -2.2464808965e+00 +9.7032452228e+00 1.2178557393e+01 5.1100000000e-04 0.0000e+00 1.0000e+00
       11  1    4    4    0    0 +1.2449974660e+00 +3.1542514655e+00 -4.4582804095e+00 5.6013913869e+00 5.1100000000e-04 0.0000e+00 -1.0000e+00
       12  1    4    4    0    0 -3.7745814215e+01 -6.1749947041e+00 -1.6161652277e+01 4.1521994830e+01 0.0000000000e+00 0.0000e+00 -1.0000e+00
      -12  1    3    3    0    0 +2.9492420667e+01 +5.2672241351e+00 +1.0916687464e+01 3.1886056389e+01 0.0000000000e+00 0.0000e+00 1.0000e+00
</event>
<event>
 8      4 +2.2883893e-04 9.11880000e+01 7.81616400e-03 1.18400000e-01
      -11 -1    0    0    0    0 +0.0000000000e+00 +0.0000000000e+00 +4.5593999997e+01 4.5594000000e+01 5.1100000000e-04 0.0000e+00 1.0000e+00
       11 -1    0    0    0    0 -0.0000000000e+00 -0.0000000000e+00 -4.5593999997e+01 4.5594000000e+01 5.1100000000e-04 0.0000e+00 -1.0000e+00
       23  2    1    2    0    0 -8.8817841970e-16 +0.0000000000e+00 +3.5527136788e-15 9.1188000000e+01 9.1188000000e+01 2.5157e-14 0.0000e+00
 -9990012  2    3    3    0    0 -7.0028689756e+00 +2.5089252636e+01 +1.8390511473e+01 5.9301926489e+01 4.9999968013e+01 1.9465e-04 0.0000e+00
      -11  1    4    4    0    0 -7.4703776488e+00 +1.8058268573e+01 -6.2187104476e+00 2.0508046371e+01 5.1100000000e-04 0.0000e+00 1.0000e+00
       11  1    4    4    0    0 +9.5610541960e+00 -3.0535998332e+00 -7.1129544222e-01 1.0062016237e+01 5.1100000000e-04 0.0000e+00 -1.0000e+00
      -12  1    4    4    0    0 -9.0935455228e+00 +1.0084583896e+01 +2.5320517363e+01 2.8731863881e+01 0.0000000000e+00 0.0000e+00 1.0000e+00
       12  1    3    3    0    0 +7.0028689756e+00 -2.5089252636e+01 -1.8390511473e+01 3.1886073511e+01 0.0000000000e+00 0.0000e+00 -1.0000e+00
</event>
<event>
 8      3 +2.2883893e-04 9.11880000e+01 7.81616400e-03 1.18400000e-01
      -11 -1    0    0    0    0 +0.0000000000e+00 +0.0000000000e+00 +4.5593999997e+01 4.5594000000e+01 5.1100000000e-04 0.0000e+00 1.0000e+00
       11 -1    0    0    0    0 -0.0000000000e+00 -0.0000000000e+00 -4.5593999997e+01 4.5594000000e+01 5.1100000000e-04 0.0000e+00 -1.0000e+00
       23  2    1    2    0    0 +2.6645352591e-15 +0.0000000000e+00 +3.5527136788e-15 9.1188000000e+01 9.1188000000e+01 1.0769e-13 0.0000e+00
  9990012  2    3    3    0    0 -5.5799238219e+00 -1.0885155648e+01 -2.9446555884e+01 5.9301924406e+01 4.9999964215e+01 7.7495e-04 0.0000e+00
      -11  1    4    4    0    0 +4.8107164200e-01 +4.5284317583e+00 +1.3696165363e+00 4.7554152113e+00 5.1100000000e-04 0.0000e+00 1.0000e+00
       11  1    4    4    0    0 +1.4598593625e+01 -1.0810520030e+01 -1.2816956287e+00 1.8210684311e+01 5.1100000000e-04 0.0000e+00 -1.0000e+00
       12  1    4    4    0    0 -2.0659589089e+01 -4.6030673771e+00 -2.9534476792e+01 3.6335824883e+01 0.0000000000e+00 0.0000e+00 -1.0000e+00
      -12  1    3    3    0    0 +5.5799238219e+00 +1.0885155648e+01 +2.9446555884e+01 3.1886075594e+01 0.0000000000e+00 0.0000e+00 1.0000e+00
</event>
<event>
 8      3 +2.2883893e-04 9.11880000e+01 7.81616400e-03 1.18400000e-01
      -11 -1    0    0    0    0 +0.0000000000e+00 +0.0000000000e+00 +4.5593999997e+01 4.5594000000e+01 5.1100000000e-04 0.0000e+00 -1.0000e+00
       11 -1    0    0    0    0 -0.0000000000e+00 -0.0000000000e+00 -4.5593999997e+01 4.5594000000e+01 5.1100000000e-04 0.0000e+00 1.0000e+00
       23  2    1    2    0    0 -1.7763568394e-15 -3.5527136788e-15 +1.7763568394e-15 9.1188000000e+01 9.1188000000e+01 3.4092e-14 0.0000e+00
  9990012  2    3    3    0    0 -8.4967570935e+00 -2.8448469391e+01 +1.1627890510e+01 5.9301982226e+01 5.0000069664e+01 1.0989e-03 0.0000e+00
      -11  1    4    4    0    0 -1.9112202947e+01 -5.4884231218e+00 +1.1160584334e+01 2.2802581713e+01 5.1100000000e-04 0.0000e+00 1.0000e+00
       11  1    4    4    0    0 -1.3281113997e+00 -2.4412129781e+01 +8.3179413651e-01 2.4462376052e+01 5.1100000000e-04 0.0000e+00 -1.0000e+00
       12  1    4    4    0    0 +1.1943557253e+01 +1.4520835122e+00 -3.6448796122e-01 1.2037024460e+01 0.0000000000e+00 0.0000e+00 -1.0000e+00
      -12  1    3    3    0    0 +8.4967570935e+00 +2.8448469391e+01 -1.1627890510e+01 3.1886017774e+01 0.0000000000e+00 0.0000e+00 1.0000e+00
</event>
<event>
 8      4 +2.2883893e-04 9.11880000e+01 7.81616400e-03 1.18400000e-01
      -11 -1    0    0    0    0 +0.0000000000e+00 +0.0000000000e+00 +4.5593999997e+01 4.5594000000e+01 5.1100000000e-04 0.0000e+00 -1.0000e+00
       11 -1    0    0    0    0 -0.0000000000e+00 -0.0000000000e+00 -4.5593999997e+01 4.5594000000e+01 5.1100000000e-04 0.0000e+00 1.0000e+00
       23  2    1    2    0    0 -1.7763568394e-15 +3.5527136788e-15 +0.0000000000e+00 9.1188000000e+01 9.1188000000e+01 8.0248e-15 0.0000e+00
 -9990012  2    3    3    0    0 +1.2660669967e+01 -2.8201448520e+01 -7.8170154080e+00 5.9301953012e+01 5.0000016385e+01 4.8246e-04 0.0000e+00
      -11  1    4    4    0    0 -5.7204217768e-01 +1.2274272637e+01 +1.4338101800e-02 1.2287603788e+01 5.1100000000e-04 0.0000e+00 1.0000e+00
       11  1    4    4    0    0 -3.4258335915e-01 +1.8251899374e+00 +2.0203311988e-01 1.8680201573e+00 5.1100000000e-04 0.0000e+00 -1.0000e+00
      -12  1    4    4    0    0 +1.3575295504e+01 -4.2300911094e+01 -8.0333866297e+00 4.5146329066e+01 0.0000000000e+00 0.0000e+00 1.0000e+00
       12  1    3    3    0    0 -1.2660669967e+01 +2.8201448520e+01 +7.8170154080e+00 3.1886046988e+01 0.0000000000e+00 0.0000e+00 -1.0000e+00
</event>
<event>
 8      4 +2.2883893e-04 9.11880000e+01 7.81616400e-03 1.18400000e-01
      -11 -1    0    0    0    0 +0.0000000000e+00 +0.0000000000e+00 +4.5593999997e+01 4.5594000000e+01 5.1100000000e-04 0.0000e+00 -1.0000e+00
       11 -1    0    0    0    0 -0.0000000000e+00 -0.0000000000e+00 -4.5593999997e+01 4.5594000000e+01 5.1100000000e-04 0.0000e+00 1.0000e+00
       23  2    1    2    0    0 +1.7763568394e-15 -3.5527136788e-15 +0.0000000000e+00 9.1188000000e+01 9.1188000000e+01 1.6318e-14 0.0000e+00
 -9990012  2    3    3    0    0 -1.2501645392e+01 -1.6879557242e+01 -2.3989830818e+01 5.9301912550e+01 4.9999942591e+01 3.6111e-04 0.0000e+00
      -11  1    4    4    0    0 -3.3650465352e+00 -7.2669988318e+00 -2.9367144302e+01 3.0439480530e+01 5.1100000000e-04 0.0000e+00 1.0000e+00
       11  1    4    4    0    0 +8.4112261066e+00 -6.1587935612e-01 +3.2100734027e+00 9.0240015242e+00 5.1100000000e-04 0.0000e+00 -1.0000e+00
      -12  1    4    4    0    0 -1.7547824963e+01 -8.9966790545e+00 +2.1672400812e+00 1.9838430495e+01 0.0000000000e+00 0.0000e+00 1.0000e+00
       12  1    3    3    0    0 +1.2501645392e+01 +1.6879557242e+01 +2.3989830818e+01 3.1886087450e+01 0.0000000000e+00 0.0000e+00 -1.0000e+00
</event>
<event>
 8      4 +2.2883893e-04 9.11880000e+01 7.81616400e-03 1.18400000e-01
      -11 -1    0    0    0    0 +0.0000000000e+00 +0.0000000000e+00 +4.5593999997e+01 4.5594000000e+01 5.1100000000e-04 0.0000e+00 -1.0000e+00
       11 -1    0    0    0    0 -0.0000000000e+00 -0.0000000000e+00 -4.5593999997e+01 4.5594000000e+01 5.1100000000e-04 0.0000e+00 1.0000e+00
       23  2    1    2    0    0 +3.5527136788e-15 +4.4408920985e-16 +1.7763568394e-15 9.1188000000e+01 9.1188000000e+01 1.1231e-13 0.0000e+00
 -9990012  2    3    3    0    0 -3.1642794164e+01 -1.4205803983e+00 -3.6661857615e+00 5.9301868387e+01 4.9999862049e+01 2.5638e-03 0.0000e+00
      -11  1    4    4    0    0 -2.9675235555e+01 -1.1166356590e+01 -1.5428903365e+01 3.5261284492e+01 5.1100000000e-04 0.0000e+00 1.0000e+00
       11  1    4    4    0    0 -7.5604045806e+00 +9.8510051982e+00 +1.7082070523e+00 1.2534751391e+01 5.1100000000e-04 0.0000e+00 -1.0000e+00
      -12  1    4    4    0    0 +5.5928459707e+00 -1.0522900626e-01 +1.0054510551e+01 1.1505832504e+01 0.0000000000e+00 0.0000e+00 1.0000e+00
       12  1    3    3    0    0 +3.1642794164e+01 +1.4205803983e+00 +3.6661857615e+00 3.1886131613e+01 0.0000000000e+00 0.0000e+00 -1.0000e+00
</event>
<event>
 8      3 +2.2883893e-04 9.11880000e+01 7.81616400e-03 1.18400000e-01
      -11 -1    0    0    0    0 +0.0000000000e+00 +0.0000000000e+00 +4.5593999997e+01 4.5594000000e+01 5.1100000000e-04 0.0000e+00 -1.0000e+00
       11 -1    0    0    0    0 -0.0000000000e+00 -0.0000000000e+00 -4.5593999997e+01 4.5594000000e+01 5.1100000000e-04 0.0000e+00 1.0000e+00
       23  2    1    2    0    0 +0.0000000000e+00 -7.7715611724e-16 +0.0000000000e+00 9.1188000000e+01 9.1188000000e+01 5.5906e-14 0.0000e+00
  9990012  2    3    3    0    0 +2.7033919564e+01 +9.9239779622e-01 +1.6879127883e+01 5.9301911835e+01 4.9999941288e+01 2.6550e-04 0.0000e+00
      -11  1    4    4    0    0 -2.9711148288e+00 +1.3964951852e+01 -3.1607944825e+00 1.4623201618e+01 5.1100000000e-04 0.0000e+00 1.0000e+00
       11  1    4    4    0    0 -3.0358304513e+00 -2.7353326685e+00 +6.1929732726e+00 7.4196515789e+00 5.1100000000e-04 0.0000e+00 -1.0000e+00
       12  1    4    4    0    0 +3.3040864844e+01 -1.0237221387e+01 +1.3846949093e+01 3.7259058638e+01 0.0000000000e+00 0.0000e+00 -1.0000e+00
      -12  1    3    3    0    0 -2.7033919564e+01 -9.9239779622e-01 -1.6879127883e+01 3.1886088165e+01 0.0000000000e+00 0.0000e+00 1.0000e+00
</event>
<event>
 8      4 +2.2883893e-04 9.11880000e+01 7.81616400e-03 1.18400000e-01
      -11 -1    0    0    0    0 +0.0000000000e+00 +0.0000000000e+00 +4.5593999997e+01 4.5594000000e+01 5.1100000000e-04 0.0000e+00 1.0000e+00
       11 -1    0    0    0    0 -0.0000000000e+00 -0.0000000000e+00 -4.5593999997e+01 4.5594000000e+01 5.1100000000e-04 0.0000e+00 -1.0000e+00
       23  2    1    2    0    0 +3.5527136788e-15 +0.0000000000e+00 -3.5527136788e-15 9.1188000000e+01 9.1188000000e+01 5.4850e-14 0.0000e+00
 -9990012  2    3    3    0    0 -9.4573862828e+00 +1.1624799251e+01 +2.8145032807e+01 5.9301937455e+01 4.9999988013e+01 2.7112e-03 0.0000e+00
      -11  1    4    4    0    0 +1.4242883520e+01 +2.5851319900e+00 +1.5818746556e+01 2.1442373498e+01 5.1100000000e-04 0.0000e+00 1.0000e+00
       11  1    4    4    0    0 +3.4227778478e+00 +6.6777501236e+00 +6.6976116423e+00 1.0058118953e+01 5.1100000000e-04 0.0000e+00 -1.0000e+00
      -12  1    4    4    0    0 -2.7123047651e+01 +2.3619171372e+00 +5.6286746083e+00 2.7801445003e+01 0.0000000000e+00 0.0000e+00 1.0000e+00
       12  1    3    3    0    0 +9.4573862828e+00 -1.1624799251e+01 -2.8145032807e+01 3.1886062545e+01 0.0000000000e+00 0.0000e+00 -1.0000e+00
</event>
<event>
 8      4 +2.2883893e-04 9.11880000e+01 7.81616400e-03 1.18400000e-01
      -11 -1    0    0    0    0 +0.0000000000e+00 +0.0000000000e+00 +4.5593999997e+01 4.5594000000e+01 5.1100000000e-04 0.0000e+00 -1.0000e+00
       11 -1    0    0    0    0 -0.0000000000e+00 -0.0000000000e+00 -4.5593999997e+01 4.5594000000e+01 5.1100000000e-04 0.0000e+00 1.0000e+00
       23  2    1    2    0    0 +1.7763568394e-15 +3.5527136788e-15 +0.0000000000e+00 9.1188000000e+01 9.1188000000e+01 9.4428e-14 0.0000e+00
 -9990012  2    3    3    0    0 -1.1696806013e+01 -1.7200187430e+01 -2.4167353522e+01 5.9301910638e+01 4.9999939105e+01 1.7613e-03 0.0000e+00
      -11  1    4    4    0    0 -1.6165171063e+01 -1.7784145387e+00 -1.0539777373e+01 1.9379432941e+01 5.1100000000e-04 0.0000e+00 1.0000e+00
       11  1    4    4    0    0 +1.9251190454e+00 +5.7606076529e+00 -1.7245103156e+01 1.8283442427e+01 5.1100000000e-04 0.0000e+00 -1.0000e+00
      -12  1    4    4    0    0 +2.5432460053e+00 -2.1182380544e+01 +3.6175270072e+00 2.1639035270e+01 0.0000000000e+00 0.0000e+00 1.0000e+00
       12  1    3    3    0    0 +1.1696806013e+01 +1.7200187430e+01 +2.4167353522e+01 3.1886089362e+01 0.0000000000e+00 0.0000e+00 -1.0000e+00
</event>
<event>
 8      3 +2.2883893e-04 9.11880000e+01 7.81616400e-03 1.18400000e-01
      -11 -1    0    0    0    0 +0.0000000000e+00 +0.0000000000e+00 +4.5593999997e+01 4.5594000000e+01 5.1100000000e-04 0.0000e+00 -1.0000e+00
       11 -1    0    0    0    0 -0.0000000000e+00 -0.0000000000e+00 -4.5593999997e+01 4.5594000000e+01 5.1100000000e-04 0.0000e+00 1.0000e+00
       23  2    1    2    0    0 +0.0000000000e+00 -3.5527136788e-15 +8.8817841970e-16 9.1188000000e+01 9.1188000000e+01 1.2925e-13 0.0000e+00
  9990012  2    3    3    0    0 +2.0399297473e+01 -2.4098729459e+01 +4.4542986687e+00 5.9301939165e+01 4.9999991132e+01 4.2297e-04 0.0000e+00
      -11  1    4    4    0    0 -1.9853064326e-01 -3.8700155935e-01 -3.7321978906e+00 3.7574573822e+00 5.1100000000e-04 0.0000e+00 1.0000e+00
       11  1    4    4    0    0 +1.1532221119e+01 -3.5815280873e+01 -1.3781359011e+00 3.7651370848e+01 5.1100000000e-04 0.0000e+00 -1.0000e+00
       12  1    4    4    0    0 +9.0656069976e+00 +1.2103552973e+01 +9.5646324605e+00 1.7893110935e+01 0.0000000000e+00 0.0000e+00 -1.0000e+00
      -12  1    3    3    0    0 -2.0399297473e+01 +2.4098729459e+01 -4.4542986687e+00 3.1886060835e+01 0.0000000000e+00 0.0000e+00 1.0000e+00
</event>
<event>
 8      4 +2.2883893e-04 9.11880000e+01 7.81616400e-03 1.18400000e-01
      -11 -1    0    0    0    0 +0.0000000000e+00 +0.0000000000e+00 +4.5593999997e+01 4.5594000000e+01 5.1100000000e-04 0.0000e+00 1.0000e+00
       11 -1    0    0    0    0 -0.0000000000e+00 -0.0000000000e+00 -4.5593999997e+01 4.5594000000e+01 5.1100000000e-04 0.0000e+00 -1.0000e+00
       23  2    1    2    0    0 +3.5527136788e-15 +0.0000000000e+00 -4.4408920985e-16 9.1188000000e+01 9.1188000000e+01 2.9089e-14 0.0000e+00
 -9990012  2    3    3    0    0 -3.0602854566e+01 +8.7556123298e+00 +1.8772470126e+00 5.9301960560e+01 5.0000030150e+01 2.7760e-04 0.0000e+00
      -11  1    4    4    0    0 +8.5264927190e+00 +1.0129791704e+01 +5.7532919088e+00 1.4436555202e+01 5.1100000000e-04 0.0000e+00 1.0000e+00
       11  1    4    4    0    0 -3.8414995369e-01 -4.4264390323e+00 +3.0481956180e+00 5.3881750603e+00 5.1100000000e-04 0.0000e+00 -1.0000e+00
      -12  1    4    4    0    0 -3.8745197331e+01 +3.0522596583e+00 -6.9242405142e+00 3.9477230297e+01 0.0000000000e+00 0.0000e+00 1.0000e+00
       12  1    3    3    0    0 +3.0602854566e+01 -8.7556123298e+00 -1.8772470126e+00 3.1886039440e+01 0.0000000000e+00 0.0000e+00 -1.0000e+00
</event>
<event>
 8      4 +2.2883893e-04 9.11880000e+01 7.81616400e-03 1.18400000e-01
      -11 -1    0    0    0    0 +0.0000000000e+00 +0.0000000000e+00 +4.5593999997e+01 4.5594000000e+01 5.1100000000e-04 0.0000e+00 1.0000e+00
       11 -1    0    0    0    0 -0.0000000000e+00 -0.0000000000e+00 -4.5593999997e+01 4.5594000000e+01 5.1100000000e-04 0.0000e+00 -1.0000e+00
       23  2    1    2    0    0 +1.7763568394e-15 +0.0000000000e+00 +0.0000000000e+00 9.1188000000e+01 9.1188000000e+01 2.9647e-13 0.0000e+00
 -9990012  2    3    3    0    0 -1.3230012643e+01 -2.7142505448e+01 +1.0245538993e+01 5.9301954373e+01 5.0000018867e+01 9.3749e-04 0.0000e+00
      -11  1    4    4    0    0 -4.8818628386e+00 -2.1504321284e+01 -7.1177526250e+00 2.3171767765e+01 5.1100000000e-04 0.0000e+00 1.0000e+00
       11  1    4    4    0    0 -1.7118691102e+01 +1.7572723999e+00 +2.5541362046e+00 1.7397160784e+01 5.1100000000e-04 0.0000e+00 -1.0000e+00
      -12  1    4    4    0    0 +8.7705412984e+00 -7.3954565638e+00 +1.4809155413e+01 1.8733025824e+01 0.0000000000e+00 0.0000e+00 1.0000e+00
       12  1    3    3    0    0 +1.3230012643e+01 +2.7142505448e+01 -1.0245538993e+01 3.1886045627e+01 0.0000000000e+00 0.0000e+00 -1.0000e+00
</event>
<event>
 8      3 +2.2883893e-04 9.11880000e+01 7.81616400e-03 1.18400000e-01
      -11 -1    0    0    0    0 +0.0000000000e+00 +0.0000000000e+00 +4.5593999997e+01 4.5594000000e+01 5.1100000000e-04 0.0000e+00 1.0000e+00
       11 -1    0    0    0    0 -0.0000000000e+00 -0.0000000000e+00 -4.5593999997e+01 4.5594000000e+01 5.1100000000e-04 0.0000e+00 -1.0000e+00
       23  2    1    2    0    0 -3.5527136788e-15 +3.5527136788e-15 +0.0000000000e+00 9.1188000000e+01 9.1188000000e+01 1.2939e-13 0.0000e+00
  9990012  2    3    3    0    0 -8.9702334176e+00 +2.5731220907e+01 -1.6557784606e+01 5.9301936461e+01 4.9999986201e+01 3.2533e-03 0.0000e+00
      -11  1    4    4    0    0 +1.3843794902e+01 +1.1047217554e+01 -8.6820187337e+00 1.9724835171e+01 5.1100000000e-04 0.0000e+00 1.0000e+00
       11  1    4    4    0    0 -2.4537801824e+01 +2.9116305645e+00 +1.0048518460e+00 2.4730366726e+01 5.1100000000e-04 0.0000e+00 -1.0000e+00
       12  1    4    4    0    0 +1.7237735042e+00 +1.1772372788e+01 -8.8806177184e+00 1.4846734564e+01 0.0000000000e+00 0.0000e+00 -1.0000e+00
      -12  1    3    3    0    0 +8.9702334176e+00 -2.5731220907e+01 +1.6557784606e+01 3.1886063539e+01 0.0000000000e+00 0.0000e+00 1.0000e+00
</event>
<event>
 8      4 +2.2883893e-04 9.11880000e+01 7.81616400e-03 1.18400000e-01
      -11 -1    0    0    0    0 +0.0000000000e+00 +0.0000000000e+00 +4.5593999997e+01 4.5594000000e+01 5.1100000000e-04 0.0000e+00 1.0000e+00
       11 -1    0    0    0    0 -0.0000000000e+00 -0.0000000000e+00 -4.5593999997e+01 4.5594000000e+01 5.1100000000e-04 0.0000e+00 -1.0000e+00
       23  2    1    2    0    0 +3.5527136788e-15 +0.0000000000e+00 +0.0000000000e+00 9.1188000000e+01 9.1188000000e+01 1.4964e-14 0.0000e+00
 -9990012  2    3    3    0    0 +1.7233116819e+01 -2.4789154549e+01 +1.0258557736e+01 5.9301944970e+01 5.0000001718e+01 2.4638e-03 0.0000e+00
      -11  1    4    4    0    0 +1.6730253754e+00 +1.1924115438e+01 -5.9924102553e+00 1.3449629133e+01 5.1100000000e-04 0.0000e+00 1.0000e+00
       11  1    4    4    0    0 +1.1288638084e+01 -1.6293842684e+01 +7.0379746978e-01 1.9834767212e+01 5.1100000000e-04 0.0000e+00 -1.0000e+00
      -12  1    4    4    0    0 +4.2714533589e+00 -2.0419427304e+01 +1.5547170522e+01 2.6017548625e+01 0.0000000000e+00 0.0000e+00 1.0000e+00
       12  1    3    3    0    0 -1.7233116819e+01 +2.4789154549e+01 -1.0258557736e+01 3.1886055030e+01 0.0000000000e+00 0.0000e+00 -1.0000e+00
</event>
<event>
 8      4 +2.2883893e-04 9.11880000e+01 7.81616400e-03 1.18400000e-01
      -11 -1    0    0    0    0 +0.0000000000e+00 +0.0000000000e+00 +4.5593999997e+01 4.5594000000e+01 5.1100000000e-04 0.0000e+00 -1.0000e+00
       11 -1    0    0    0    0 -0.0000000000e+00 -0.0000000000e+00 -4.5593999997e+01 4.5594000000e+01 5.1100000000e-04 0.0000e+00 1.0000e+00
       23  2    1    2    0    0 +0.0000000000e+00 +0.0000000000e+00 +3.5527136788e-15 9.1188000000e+01 9.1188000000e+01 3.2168e-14 0.0000e+00
 -9990012  2    3    3    0    0 -2.0583789371e+01 +1.3962962714e+01 -1.9951508874e+01 5.9301962006e+01 5.0000032788e+01 4.1536e-03 0.0000e+00
      -11  1    4    4    0    0 -1.3549836814e+01 +1.5001916563e+00 -2.3517637425e+01 2.7183228708e+01 5.1100000000e-04 0.0000e+00 1.0000e+00
       11  1    4    4    0    0 +9.7304381456e+00 -1.7578966752e+00 +1.9294161607e+00 1.0074436670e+01 5.1100000000e-04 0.0000e+00 -1.0000e+00
      -12  1    4    4    0    0 -1.6764390702e+01 +1.4220667733e+01 +1.6367123902e+00 2.2044296629e+01 0.0000000000e+00 0.0000e+00 1.0000e+00
       12  1    3    3    0    0 +2.0583789371e+01 -1.3962962714e+01 +1.9951508874e+01 3.1886037994e+01 0.0000000000e+00 0.0000e+00 -1.0000e+00
</event>
<event>
 8      4 +2.2883893e-04 9.11880000e+01 7.81616400e-03 1.18400000e-01
      -11 -1    0    0    0    0 +0.0000000000e+00 +0.0000000000e+00 +4.5593999997e+01 4.5594000000e+01 5.1100000000e-04 0.0000e+00 1.0000e+00
       11 -1    0    0    0    0 -0.0000000000e+00 -0.0000000000e+00 -4.5593999997e+01 4.5594000000e+01 5.1100000000e-04 0.0000e+00 -1.0000e+00
       23  2    1    2    0    0 +3.5527136788e-15 -8.8817841970e-16 +0.0000000000e+00 9.1188000000e+01 9.1188000000e+01 3.3418e-14 0.0000e+00
 -9990012  2    3    3    0    0 +2.4280315931e+01 -3.5273015910e+00 +2.0365244660e+01 5.9301971896e+01 5.0000050824e+01 7.8177e-04 0.0000e+00
      -11  1    4    4    0    0 +7.0456270683e-01 -1.0710520948e+00 -3.3282167257e+00 3.5665933370e+00 5.1100000000e-04 0.0000e+00 1.0000e+00
       11  1    4    4    0    0 +1.9742287927e+01 -1.9943348307e+01 +2.7704916515e+00 2.8198771224e+01 5.1100000000e-04 0.0000e+00 -1.0000e+00
      -12  1    4    4    0    0 +3.8334652962e+00 +1.7487098810e+01 +2.0922969735e+01 2.7536607335e+01 0.0000000000e+00 0.0000e+00 1.0000e+00
       12  1    3    3    0    0 -2.4280315931e+01 +3.5273015910e+00 -2.0365244660e+01 3.1886028104e+01 0.0000000000e+00 0.0000e+00 -1.0000e+00
</event>
<event>
 8      3 +2.2883893e-04 9.11880000e+01 7.81616400e-03 1.18400000e-01
      -11 -1    0    0    0    0 +0.0000000000e+00 +0.0000000000e+00 +4.5593999997e+01 4.5594000000e+01 5.1100000000e-04 0.0000e+00 -1.0000e+00
       11 -1    0    0    0    0 -0.0000000000e+00 -0.0000000000e+00 -4.5593999997e+01 4.5594000000e+01 5.1100000000e-04 0.0000e+00 1.0000e+00
       23  2    1    2    0    0 +0.0000000000e+00 +8.8817841970e-16 +3.5527136788e-15 9.1188000000e+01 9.1188000000e+01 6.1441e-14 0.0000e+00
  9990012  2    3    3    0    0 +3.3764320888e+00 +4.6188996189e+00 +3.1368287408e+01 5.9302204067e+01 5.0000474247e+01 3.4243e-03 0.0000e+00
      -11  1    4    4    0    0 -2.9565865138e+00 -8.3951238358e+00 -9.6842554458e+00 1.3153110348e+01 5.1100000000e-04 0.0000e+00 1.0000e+00
       11  1    4    4    0    0 +4.4678571720e+00 -2.4952362986e+00 +6.8713043559e+00 8.5675419875e+00 5.1100000000e-04 0.0000e+00 -1.0000e+00
       12  1    4    4    0    0 +1.8651614305e+00 +1.5509259753e+01 +3.4181238498e+01 3.7581551731e+01 0.0000000000e+00 0.0000e+00 -1.0000e+00
      -12  1    3    3    0    0 -3.3764320888e+00 -4.6188996189e+00 -3.1368287408e+01 3.1885795933e+01 0.0000000000e+00 0.0000e+00 1.0000e+00
</event>
<event>
 8      3 +2.2883893e-04 9.11880000e+01 7.81616400e-03 1.18400000e-01
      -11 -1    0    0    0    0 +0.0000000000e+00 +0.0000000000e+00 +4.5593999997e+01 4.5594000000e+01 5.1100000000e-04 0.0000e+00 -1.0000e+00
       11 -1    0    0    0    0 -0.0000000000e+00 -0.0000000000e+00 -4.5593999997e+01 4.5594000000e+01 5.1100000000e-04 0.0000e+00 1.0000e+00
       23  2    1    2    0    0 +0.0000000000e+00 -1.7763568394e-15 -3.5527136788e-15 9.1188000000e+01 9.1188000000e+01 1.5060e-13 0.0000e+00
  9990012  2    3    3    0    0 -6.0840182472e+00 -9.5696819738e+00 +2.9801441788e+01 5.9301952522e+01 5.0000015492e+01 2.4467e-03 0.0000e+00
      -11  1    4    4    0    0 +8.2030717480e+00 +6.9352429489e+00 +5.1751841729e+00 1.1923527681e+01 5.1100000000e-04 0.0000e+00 1.0000e+00
       11  1    4    4    0    0 -1.8538834812e-03 -1.9935849859e+00 -8.3703176251e+00 8.6044524485e+00 5.1100000000e-04 0.0000e+00 -1.0000e+00
       12  1    4    4    0    0 -1.4285236112e+01 -1.4511339937e+01 +3.2996575240e+01 3.8773972393e+01 0.0000000000e+00 0.0000e+00 -1.0000e+00
      -12  1    3    3    0    0 +6.0840182472e+00 +9.5696819738e+00 -2.9801441788e+01 3.1886047478e+01 0.0000000000e+00 0.0000e+00 1.0000e+00
</event>
<event>
 8      3 +2.2883893e-04 9.11880000e+01 7.81616400e-03 1.18400000e-01
      -11 -1    0    0    0    0 +0.0000000000e+00 +0.0000000000e+00 +4.5593999997e+01 4.5594000000e+01 5.1100000000e-04 0.0000e+00 1.0000e+00
       11 -1    0    0    0    0 -0.0000000000e+00 -0.0000000000e+00 -4.5593999997e+01 4.5594000000e+01 5.1100000000e-04 0.0000e+00 -1.0000e+00
       23  2    1    2    0    0 +0.0000000000e+00 -1.7763568394e-15 +0.0000000000e+00 9.1188000000e+01 9.1188000000e+01 2.6573e-13 0.0000e+00
  9990012  2    3    3    0    0 +1.3869271867e+01 -9.3615074685e+00 -2.7142674060e+01 5.9301964196e+01 5.0000036781e+01 9.6276e-04 0.0000e+00
      -11  1    4    4    0    0 +6.5226410544e+00 -6.9800433414e+00 +6.6636905274e+00 1.1647773310e+01 5.1100000000e-04 0.0000e+00 1.0000e+00
       11  1    4    4    0    0 +8.7083321386e+00 -1.8669222741e+00 -4.0160118722e+01 4.1135818740e+01 5.1100000000e-04 0.0000e+00 -1.0000e+00
       12  1    4    4    0    0 -1.3617013257e+00 -5.1454185291e-01 +6.3537541350e+00 6.5183721454e+00 0.0000000000e+00 0.0000e+00 -1.0000e+00
      -12  1    3    3    0    0 -1.3869271867e+01 +9.3615074685e+00 +2.7142674060e+01 3.1886035804e+01 0.0000000000e+00 0.0000e+00 1.0000e+00
</event>
<event>
 8      4 +2.2883893e-04 9.11880000e+01 7.81616400e-03 1.18400000e-01
      -11 -1    0    0    0    0 +0.0000000000e+00 +0.0000000000e+00 +4.5593999997e+01 4.5594000000e+01 5.1100000000e-04 0.0000e+00 -1.0000e+00
       11 -1    0    0    0    0 -0.0000000000e+00 -0.0000000000e+00 -4.5593999997e+01 4.5594000000e+01 5.1100000000e-04 0.0000e+00 1.0000e+00
       23  2    1    2    0    0 +3.5527136788e-15 +0.0000000000e+00 +3.5527136788e-15 9.1188000000e+01 9.1188000000e+01 5.3445e-13 0.0000e+00
 -9990012  2    3    3    0    0 -2.1883862485e+01 +1.2249593603e+01 +1.9691754757e+01 5.9301934296e+01 4.9999982251e+01 1.2762e-03 0.0000e+00
      -11  1    4    4    0    0 -1.8144573995e+01 -1.2430972801e+01 -4.2118920217e+00 2.2394077005e+01 5.1100000000e-04 0.0000e+00 1.0000e+00
       11  1    4    4    0    0 -5.4910534129e+00 +3.2194170142e+00 +7.5121042088e+00 9.8462187362e+00 5.1100000000e-04 0.0000e+00 -1.0000e+00
      -12  1    4    4    0    0 +1.7517649226e+00 +2.1461149389e+01 +1.6391542569e+01 2.7061638555e+01 0.0000000000e+00 0.0000e+00 1.0000e+00
       12  1    3    3    0    0 +2.1883862485e+01 -1.2249593603e+01 -1.9691754757e+01 3.1886065704e+01 0.0000000000e+00 0.0000e+00 -1.0000e+00
</event>
<event>
 8      3 +2.2883893e-04 9.11880000e+01 7.81616400e-03 1.18400000e-01
      -11 -1    0    0    0    0 +0.0000000000e+00 +0.0000000000e+00 +4.5593999997e+01 4.5594000000e+01 5.1100000000e-04 0.0000e+00 1.0000e+00
       11 -1    0    0    0    0 -0.0000000000e+00 -0.0000000000e+00 -4.5593999997e+01 4.5594000000e+01 5.1100000000e-04 0.0000e+00 -1.0000e+00
       23  2    1    2    0    0 -6.6613381478e-16 +3.5527136788e-15 -3.5527136788e-15 9.1188000000e+01 9.1188000000e+01 4.5635e-14 0.0000e+00
  9990012  2    3    3    0    0 -1.5489785447e+00 -2.9799595621e+01 -1.1238453772e+01 5.9301983050e+01 5.0000071168e+01 1.0227e-02 0.0000e+00
      -11  1    4    4    0    0 -3.4469856345e+00 -3.3633506155e+00 +7.3011839841e+00 8.7464921630e+00 5.1100000000e-04 0.0000e+00 1.0000e+00
       11  1    4    4    0    0 +1.1086451706e+01 -2.5904762708e+01 -2.6279235177e+01 3.8530044694e+01 5.1100000000e-04 0.0000e+00 -1.0000e+00
       12  1    4    4    0    0 -9.1884446166e+00 -5.3148229829e-01 +7.7395974211e+00 1.2025446193e+01 0.0000000000e+00 0.0000e+00 -1.0000e+00
      -12  1    3    3    0    0 +1.5489785447e+00 +2.9799595621e+01 +1.1238453772e+01 3.1886016950e+01 0.0000000000e+00 0.0000e+00 1.0000e+00
</event>
<event>
 8      4 +2.2883893e-04 9.11880000e+01 7.81616400e-03 1.18400000e-01
      -11 -1    0    0    0    0 +0.0000000000e+00 +0.0000000000e+00 +4.5593999997e+01 4.5594000000e+01 5.1100000000e-04 0.0000e+00 1.0000e+00
       11 -1    0    0    0    0 -0.0000000000e+00 -0.0000000000e+00 -4.5593999997e+01 4.5594000000e+01 5.1100000000e-04 0.0000e+00 -1.0000e+00
       23  2    1    2    0    0 +3.5527136788e-15 +4.4408920985e-16 +0.0000000000e+00 9.1188000000e+01 9.1188000000e+01 1.4163e-13 0.0000e+00
 -9990012  2    3    3    0    0 -2.2978725101e+01 +3.7765075837e+00 +2.1781681505e+01 5.9301867184e+01 4.9999859856e+01 1.1464e-03 0.0000e+00
      -11  1    4    4    0    0 +2.5071817752e+00 -1.2258119174e+01 +1.1333449386e+01 1.6881780753e+01 5.1100000000e-04 0.0000e+00 1.0000e+00
       11  1    4    4    0    0 +4.5608250373e+00 +4.7967117071e+00 +7.8023331035e+00 1.0231616214e+01 5.1100000000e-04 0.0000e+00 -1.0000e+00
      -12  1    4    4    0    0 -3.0046731913e+01 +1.1237915051e+01 +2.6458990151e+00 3.2188470218e+01 0.0000000000e+00 0.0000e+00 1.0000e+00
       12  1    3    3    0    0 +2.2978725101e+01 -3.7765075837e+00 -2.1781681505e+01 3.1886132816e+01 0.0000000000e+00 0.0000e+00 -1.0000e+00
</event>
<event>
 8      4 +2.2883893e-04 9.11880000e+01 7.81616400e-03 1.18400000e-01
      -11 -1    0    0    0    0 +0.0000000000e+00 +0.0000000000e+00 +4.5593999997e+01 4.5594000000e+01 5.1100000000e-04 0.0000e+00 1.0000e+00
       11 -1    0    0    0    0 -0.0000000000e+00 -0.0000000000e+00 -4.5593999997e+01 4.5594000000e+01 5.1100000000e-04 0.0000e+00 -1.0000e+00
       23  2    1    2    0    0 +4.4408920985e-16 +3.5527136788e-15 +3.5527136788e-15 9.1188000000e+01 9.1188000000e+01 2.1110e-14 0.0000e+00
 -9990012  2    3    3    0    0 +1.4549773332e+00 +2.1932869053e+01 +2.3098745158e+01 5.9301957100e+01 5.0000023841e+01 7.4989e-04 0.0000e+00
      -11  1    4    4    0    0 +6.9658366203e+00 +2.2563492544e+00 -1.4162241470e-01 7.3235270839e+00 5.1100000000e-04 0.0000e+00 1.0000e+00
       11  1    4    4    0    0 +3.4136900359e+00 +2.3822253017e+01 -2.7169110113e+00 2.4218476917e+01 5.1100000000e-04 0.0000e+00 -1.0000e+00
      -12  1    4    4    0    0 -8.9245493230e+00 -4.1457332190e+00 +2.5957278584e+01 2.7759953099e+01 0.0000000000e+00 0.0000e+00 1.0000e+00
       12  1    3    3    0    0 -1.4549773332e+00 -2.1932869053e+01 -2.3098745158e+01 3.1886042900e+01 0.0000000000e+00 0.0000e+00 -1.0000e+00
</event>
<event>
 8      3 +2.2883893e-04 9.11880000e+01 7.81616400e-03 1.18400000e-01
      -11 -1    0    0    0    0 +0.0000000000e+00 +0.0000000000e+00 +4.5593999997e+01 4.5594000000e+01 5.1100000000e-04 0.0000e+00 1.0000e+00
       11 -1    0    0    0    0 -0.0000000000e+00 -0.0000000000e+00 -4.5593999997e+01 4.5594000000e+01 5.1100000000e-04 0.0000e+00 -1.0000e+00
       23  2    1    2    0    0 +0.0000000000e+00 -8.8817841970e-16 +0.0000000000e+00 9.1188000000e+01 9.1188000000e+01 5.1325e-14 0.0000e+00
  9990012  2    3    3    0    0 -2.6389502274e+01 -5.9690898058e+00 -1.6872651148e+01 5.9301918081e+01 4.9999952679e+01 1.6492e-04 0.0000e+00
      -11  1    4    4    0    0 +5.5671964514e+00 -8.9639922586e+00 -1.1386713458e+01 1.5524306012e+01 5.1100000000e-04 0.0000e+00 1.0000e+00
       11  1    4    4    0    0 -2.5997709308e+01 +1.7004277620e+00 -1.6746987318e+01 3.0971501874e+01 5.1100000000e-04 0.0000e+00 -1.0000e+00
       12  1    4    4    0    0 -5.9589894178e+00 +1.2944746908e+00 +1.1261049627e+01 1.2806110195e+01 0.0000000000e+00 0.0000e+00 -1.0000e+00
      -12  1    3    3    0    0 +2.6389502274e+01 +5.9690898058e+00 +1.6872651148e+01 3.1886081919e+01 0.0000000000e+00 0.0000e+00 1.0000e+00
</event>
<event>
 8      4 +2.2883893e-04 9.11880000e+01 7.81616400e-03 1.18400000e-01
      -11 -1    0    0    0    0 +0.0000000000e+00 +0.0000000000e+00 +4.5593999997e+01 4.5594000000e+01 5.1100000000e-04 0.0000e+00 1.0000e+00
       11 -1    0    0    0    0 -0.0000000000e+00 -0.0000000000e+00 -4.5593999997e+01 4.5594000000e+01 5.1100000000e-04 0.0000e+00 -1.0000e+00
       23  2    1    2    0    0 -8.8817841970e-16 +0.0000000000e+00 -3.5527136788e-15 9.1188000000e+01 9.1188000000e+01 6.8230e-14 0.0000e+00
 -9990012  2    3    3    0    0 -4.6528615066e+00 -1.3794570761e+01 +2.8368684132e+01 5.9301928714e+01 4.9999972072e+01 1.8641e-03 0.0000e+00
      -11  1    4    4    0    0 +6.0212839137e+00 +1.3184833566e+01 +2.5728502576e+01 2.9530518810e+01 5.1100000000e-04 0.0000e+00 1.0000e+00
       11  1    4    4    0    0 -3.4615924562e+00 -1.6879404198e+01 +1.9608874470e+00 1.7341914204e+01 5.1100000000e-04 0.0000e+00 -1.0000e+00
      -12  1    4    4    0    0 -7.2125529641e+00 -1.0100000129e+01 +6.7929410856e-01 1.2429495700e+01 0.0000000000e+00 0.0000e+00 1.0000e+00
       12  1    3    3    0    0 +4.6528615066e+00 +1.3794570761e+01 -2.8368684132e+01 3.1886071286e+01 0.0000000000e+00 0.0000e+00 -1.0000e+00
</event>
<event>
 8      4 +2.2883893e-04 9.11880000e+01 7.81616400e-03 1.18400000e-01
      -11 -1    0    0    0    0 +0.0000000000e+00 +0.0000000000e+00 +4.5593999997e+01 4.5594000000e+01 5.1100000000e-04 0.0000e+00 1.0000e+00
       11 -1    0    0    0    0 -0.0000000000e+00 -0.0000000000e+00 -4.5593999997e+01 4.5594000000e+01 5.1100000000e-04 0.0000e+00 -1.0000e+00
       23  2    1    2    0    0 +0.0000000000e+00 +0.0000000000e+00 +0.0000000000e+00 9.1188000000e+01 9.1188000000e+01 3.8042e-14 0.0000e+00
 -9990012  2    3    3    0    0 +4.7275824302e+00 -1.7716256884e+01 +2.6086450269e+01 5.9301973574e+01 5.0000053885e+01 2.1363e-03 0.0000e+00
      -11  1    4    4    0    0 +2.5854311625e+00 +1.8992111794e+00 +1.0849614947e+01 1.1313956079e+01 5.1100000000e-04 0.0000e+00 1.0000e+00
       11  1    4    4    0    0 -8.9634402565e+00 -3.8884518609e+00 +2.4680238961e+01 2.6543879041e+01 5.1100000000e-04 0.0000e+00 -1.0000e+00
      -12  1    4    4    0    0 +1.1105591524e+01 -1.5727016203e+01 -9.4434036387e+00 2.1444138454e+01 0.0000000000e+00 0.0000e+00 1.0000e+00
       12  1    3    3    0    0 -4.7275824302e+00 +1.7716256884e+01 -2.6086450269e+01 3.1886026426e+01 0.0000000000e+00 0.0000e+00 -1.0000e+00
</event>
<event>
 8      3 +2.2883893e-04 9.11880000e+01 7.81616400e-03 1.18400000e-01
      -11 -1    0    0    0    0 +0.0000000000e+00 +0.0000000000e+00 +4.5593999997e+01 4.5594000000e+01 5.1100000000e-04 0.0000e+00 -1.0000e+00
       11 -1    0    0    0    0 -0.0000000000e+00 -0.0000000000e+00 -4.5593999997e+01 4.5594000000e+01 5.1100000000e-04 0.0000e+00 1.0000e+00
       23  2    1    2    0    0 +3.5527136788e-15 +3.5527136788e-15 +8.8817841970e-16 9.1188000000e+01 9.1188000000e+01 5.7126e-14 0.0000e+00
  9990012  2    3    3    0    0 +2.1828964789e+01 +2.3218496253e+01 +1.0579243900e+00 5.9301929749e+01 4.9999973959e+01 1.1084e-03 0.0000e+00
      -11  1    4    4    0    0 +1.4083638640e+01 -6.5630047303e-01 -1.0644332362e+01 1.7665826314e+01 5.1100000000e-04 0.0000e+00 1.0000e+00
       11  1    4    4    0    0 +4.9629373152e+00 +3.0830020932e+00 -9.9185034074e+00 1.1511401253e+01 5.1100000000e-04 0.0000e+00 -1.0000e+00
       12  1    4    4    0    0 +2.7823888338e+00 +2.0791794633e+01 +2.1620760160e+01 3.0124702182e+01 0.0000000000e+00 0.0000e+00 -1.0000e+00
      -12  1    3    3    0    0 -2.1828964789e+01 -2.3218496253e+01 -1.0579243900e+00 3.1886070251e+01 0.0000000000e+00 0.0000e+00 1.0000e+00
</event>
<event>
 8      4 +2.2883893e-04 9.11880000e+01 7.81616400e-03 1.18400000e-01
      -11 -1    0    0    0    0 +0.0000000000e+00 +0.0000000000e+00 +4.5593999997e+01 4.5594000000e+01 5.1100000000e-04 0.0000e+00 -1.0000e+00
       11 -1    0    0    0    0 -0.0000000000e+00 -0.0000000000e+00 -4.5593999997e+01 4.5594000000e+01 5.1100000000e-04 0.0000e+00 1.0000e+00
       23  2    1    2    0    0 +1.3322676296e-15 +0.0000000000e+00 +0.0000000000e+00 9.1188000000e+01 9.1188000000e+01 1.7524e-13 0.0000e+00
 -9990012  2    3    3    0    0 -1.3436803507e+00 -3.1629083520e+01 +3.8097992734e+00 5.9301969020e+01 5.0000045579e+01 4.4381e-04 0.0000e+00
      -11  1    4    4    0    0 +1.4403426937e+01 -1.6506327642e+01 -1.5956220924e+00 2.1965053378e+01 5.1100000000e-04 0.0000e+00 1.0000e+00
       11  1    4    4    0    0 -1.3850917802e+01 -2.2875275090e+01 -1.4989770850e+00 2.6783820993e+01 5.1100000000e-04 0.0000e+00 -1.0000e+00
      -12  1    4    4    0    0 -1.8961894857e+00 +7.7525192127e+00 +6.9043984508e+00 1.0553094649e+01 0.0000000000e+00 0.0000e+00 1.0000e+00
       12  1    3    3    0    0 +1.3436803507e+00 +3.1629083520e+01 -3.8097992734e+00 3.1886030980e+01 0.0000000000e+00 0.0000e+00 -1.0000e+00
</event>
<event>
 8      4 +2.2883893e-04 9.11880000e+01 7.81616400e-03 1.18400000e-01
      -11 -1    0    0    0    0 +0.0000000000e+00 +0.0000000000e+00 +4.5593999997e+01 4.5594000000e+01 5.1100000000e-04 0.0000e+00 -1.0000e+00
       11 -1    0    0    0    0 -0.0000000000e+00 -0.0000000000e+00 -4.5593999997e+01 4.5594000000e+01 5.1100000000e-04 0.0000e+00 1.0000e+00
       23  2    1    2    0    0 -1.7763568394e-15 -1.7763568394e-15 +0.0000000000e+00 9.1188000000e+01 9.1188000000e+01 1.0783e-13 0.0000e+00
 -9990012  2    3    3    0    0 +1.3801882079e+01 +1.4587964829e+01 -2.4767290830e+01 5.9301962902e+01 5.0000034421e+01 3.3829e-03 0.0000e+00
      -11  1    4    4    0    0 -1.1750840758e+01 +2.4278069518e+00 -1.6795128409e+01 2.0641047542e+01 5.1100000000e-04 0.0000e+00 1.0000e+00
       11  1    4    4    0    0 +1.3417489541e+01 -3.5329561331e+00 +5.2342218686e+00 1.4829291401e+01 5.1100000000e-04 0.0000e+00 -1.0000e+00
      -12  1    4    4    0    0 +1.2135233296e+01 +1.5693114010e+01 -1.3206384290e+01 2.3831623958e+01 0.0000000000e+00 0.0000e+00 1.0000e+00
       12  1    3    3    0    0 -1.3801882079e+01 -1.4587964829e+01 +2.4767290830e+01 3.1886037098e+01 0.0000000000e+00 0.0000e+00 -1.0000e+00
</event>
<event>
 8      3 +2.2883893e-04 9.11880000e+01 7.81616400e-03 1.18400000e-01
      -11 -1    0    0    0    0 +0.0000000000e+00 +0.0000000000e+00 +4.5593999997e+01 4.5594000000e+01 5.1100000000e-04 0.0000e+00 1.0000e+00
       11 -1    0    0    0    0 -0.0000000000e+00 -0.0000000000e+00 -4.5593999997e+01 4.5594000000e+01 5.1100000000e-04 0.0000e+00 -1.0000e+00
       23  2    1    2    0    0 -4.4408920985e-16 -7.1054273576e-15 +3.5527136788e-15 9.1188000000e+01 9.1188000000e+01 1.4850e-13 0.0000e+00
  9990012  2    3    3    0    0 -2.5131442161e+00 -2.9465309185e+01 +1.1924824380e+01 5.9301925050e+01 4.9999965389e+01 7.3629e-04 0.0000e+00
      -11  1    4    4    0    0 -6.9645438230e+00 -4.0411330513e+01 +8.6748141562e+00 4.1914590603e+01 5.1100000000e-04 0.0000e+00 1.0000e+00
       11  1    4    4    0    0 -2.7283264865e+00 -7.5204334247e-01 -1.0271532715e+00 3.0107106653e+00 5.1100000000e-04 0.0000e+00 -1.0000e+00
       12  1    4    4    0    0 +7.1797260934e+00 +1.1698064670e+01 +4.2771634952e+00 1.4376623782e+01 0.0000000000e+00 0.0000e+00 -1.0000e+00
      -12  1    3    3    0    0 +2.5131442161e+00 +2.9465309185e+01 -1.1924824380e+01 3.1886074950e+01 0.0000000000e+00 0.0000e+00 1.0000e+00
</event>
<event>
 8      3 +2.2883893e-04 9.11880000e+01 7.81616400e-03 1.18400000e-01
      -11 -1    0    0    0    0 +0.0000000000e+00 +0.0000000000e+00 +4.5593999997e+01 4.5594000000e+01 5.1100000000e-04 0.0000e+00 1.0000e+00
       11 -1    0    0    0    0 -0.0000000000e+00 -0.0000000000e+00 -4.5593999997e+01 4.5594000000e+01 5.1100000000e-04 0.0000e+00 -1.0000e+00
       23  2    1    2    0    0 +3.5527136788e-15 -8.8817841970e-16 +0.0000000000e+00 9.1188000000e+01 9.1188000000e+01 9.3197e-14 0.0000e+00
  9990012  2    3    3    0    0 +2.7335439403e+01 +2.2192339530e+00 -1.6265602696e+01 5.9301935994e+01 4.9999985349e+01 6.6654e-04 0.0000e+00
      -11  1    4    4    0    0 -2.6126973541e+00 -9.9587610062e+00 +1.0597009359e+01 1.4774969234e+01 5.1100000000e-04 0.0000e+00 1.0000e+00
       11  1    4    4    0    0 +2.9050075751e+01 +7.1727344527e+00 -2.5362476388e+01 3.9225122427e+01 5.1100000000e-04 0.0000e+00 -1.0000e+00
       12  1    4    4    0    0 +8.9806100643e-01 +5.0052605065e+00 -1.5001356678e+00 5.3018443330e+00 0.0000000000e+00 0.0000e+00 -1.0000e+00
      -12  1    3    3    0    0 -2.7335439403e+01 -2.2192339530e+00 +1.6265602696e+01 3.1886064006e+01 0.0000000000e+00 0.0000e+00 1.0000e+00
</event>
<event>
 8      4 +2.2883893e-04 9.11880000e+01 7.81616400e-03 1.18400000e-01
      -11 -1    0    0    0    0 +0.0000000000e+00 +0.0000000000e+00 +4.5593999997e+01 4.5594000000e+01 5.1100000000e-04 0.0000e+00 1.0000e+00
       11 -1    0    0    0    0 -0.0000000000e+00 -0.0000000000e+00 -4.5593999997e+01 4.5594000000e+01 5.1100000000e-04 0.0000e+00 -1.0000e+00
       23  2    1    2    0    0 +8.8817841970e-16 +0.0000000000e+00 +0.0000000000e+00 9.1188000000e+01 9.1188000000e+01 6.9327e-14 0.0000e+00
 -9990012  2    3    3    0    0 -3.0642009173e+00 -2.7266206618e+01 +1.6244783482e+01 5.9301822101e+01 4.9999777635e+01 3.3695e-03 0.0000e+00
      -11  1    4    4    0    0 +7.4292685318e+00 -3.3557176711e+01 +2.1378123177e+01 4.0475947062e+01 5.1100000000e-04 0.0000e+00 1.0000e+00
       11  1    4    4    0    0 -1.0096232818e+01 -1.4718568221e+00 -4.0516642875e+00 1.0977989952e+01 5.1100000000e-04 0.0000e+00 -1.0000e+00
      -12  1    4    4    0    0 -3.9723663099e-01 +7.7628269151e+00 -1.0816754074e+00 7.8478850872e+00 0.0000000000e+00 0.0000e+00 1.0000e+00
       12  1    3    3    0    0 +3.0642009173e+00 +2.7266206618e+01 -1.6244783482e+01 3.1886177899e+01 0.0000000000e+00 0.0000e+00 -1.0000e+00
</event>
<event>
 8      4 +2.2883893e-04 9.11880000e+01 7.81616400e-03 1.18400000e-01
      -11 -1    0    0    0    0 +0.0000000000e+00 +0.0000000000e+00 +4.5593999997e+01 4.5594000000e+01 5.1100000000e-04 0.0000e+00 -1.0000e+00
       11 -1    0    0    0    0 -0.0000000000e+00 -0.0000000000e+00 -4.5593999997e+01 4.5594000000e+01 5.1100000000e-04 0.0000e+00 1.0000e+00
       23  2    1    2    0    0 +7.1054273576e-15 +0.0000000000e+00 -8.8817841970e-16 9.1188000000e+01 9.1188000000e+01 3.0463e-15 0.0000e+00
 -9990012  2    3    3    0    0 +1.7504851804e+01 +2.5700325931e+01 -7.0563673508e+00 5.9301969990e+01 5.0000047349e+01 4.1940e-03 0.0000e+00
      -11  1    4    4    0    0 +2.3626534685e+00 +1.4864012260e+01 -2.9571319946e+00 1.5338370897e+01 5.1100000000e-04 0.0000e+00 1.0000e+00
       11  1    4    4    0    0 +1.8945300025e+01 +8.3117345199e+00 +1.4207028854e+01 2.5096792482e+01 5.1100000000e-04 0.0000e+00 -1.0000e+00
      -12  1    4    4    0    0 -3.8031016894e+00 +2.5245791509e+00 -1.8306264211e+01 1.8866806611e+01 0.0000000000e+00 0.0000e+00 1.0000e+00
       12  1    3    3    0    0 -1.7504851804e+01 -2.5700325931e+01 +7.0563673508e+00 3.1886030010e+01 0.0000000000e+00 0.0000e+00 -1.0000e+00
</event>
<event>
 8      3 +2.2883893e-04 9.11880000e+01 7.81616400e-03 1.18400000e-01
      -11 -1    0    0    0    0 +0.0000000000e+00 +0.0000000000e+00 +4.5593999997e+01 4.5594000000e+01 5.1100000000e-04 0.0000e+00 -1.0000e+00
       11 -1    0    0    0    0 -0.0000000000e+00 -0.0000000000e+00 -4.5593999997e+01 4.5594000000e+01 5.1100000000e-04 0.0000e+00 1.0000e+00
       23  2    1    2    0    0 -1.7763568394e-15 +0.0000000000e+00 -3.5527136788e-15 9.1188000000e+01 9.1188000000e+01 1.7514e-14 0.0000e+00
  9990012  2    3    3    0    0 +8.1004973046e+00 +1.8467491677e+01 +2.4699292449e+01 5.9301931680e+01 4.9999977480e+01 1.8301e-03 0.0000e+00
      -11  1    4    4    0    0 -5.0212083904e-01 +7.4035128333e+00 -8.3237232104e+00 1.1151165677e+01 5.1100000000e-04 0.0000e+00 1.0000e+00
       11  1    4    4    0    0 -1.0489737273e+01 +8.5809295497e+00 +5.6455796821e+00 1.4681263917e+01 5.1100000000e-04 0.0000e+00 -1.0000e+00
       12  1    4    4    0    0 +1.9092355417e+01 +2.4830492943e+00 +2.7377435977e+01 3.3469502086e+01 0.0000000000e+00 0.0000e+00 -1.0000e+00
      -12  1    3    3    0    0 -8.1004973046e+00 -1.8467491677e+01 -2.4699292449e+01 3.1886068320e+01 0.0000000000e+00 0.0000e+00 1.0000e+00
</event>
<event>
 8      4 +2.2883893e-04 9.11880000e+01 7.81616400e-03 1.18400000e-01
      -11 -1    0    0    0    0 +0.0000000000e+00 +0.0000000000e+00 +4.5593999997e+01 4.5594000000e+01 5.1100000000e-04 0.0000e+00 -1.0000e+00
       11 -1    0    0    0    0 -0.0000000000e+00 -0.0000000000e+00 -4.5593999997e+01 4.5594000000e+01 5.1100000000e-04 0.0000e+00 1.0000e+00
       23  2    1    2    0    0 +0.0000000000e+00 +7.1054273576e-15 +0.0000000000e+00 9.1188000000e+01 9.1188000000e+01 2.1422e-13 0.0000e+00
 -9990012  2    3    3    0    0 -2.4321328375e+01 +9.9250211809e+00 -1.8074485646e+01 5.9301951472e+01 5.0000013577e+01 9.0042e-04 0.0000e+00
      -11  1    4    4    0    0 -2.5961681924e+00 -1.6917182239e+01 -1.7079540731e+01 2.4179368396e+01 5.1100000000e-04 0.0000e+00 1.0000e+00
       11  1    4    4    0    0 -1.5947123577e+01 +1.8971805956e+01 +2.1192486074e+00 2.4874311780e+01 5.1100000000e-04 0.0000e+00 -1.0000e+00
      -12  1    4    4    0    0 -5.7780366052e+00 +7.8703974644e+00 -3.1141935220e+00 1.0248271296e+01 0.0000000000e+00 0.0000e+00 1.0000e+00
       12  1    3    3    0    0 +2.4321328375e+01 -9.9250211809e+00 +1.8074485646e+01 3.1886048528e+01 0.0000000000e+00 0.0000e+00 -1.0000e+00
</event>
<event>
 8      3 +2.2883893e-04 9.11880000e+01 7.81616400e-03 1.18400000e-01
      -11 -1    0    0    0    0 +0.0000000000e+00 +0.0000000000e+00 +4.5593999997e+01 4.5594000000e+01 5.1100000000e-04 0.0000e+00 1.0000e+00
       11 -1    0    0    0    0 -0.0000000000e+00 -0.0000000000e+00 -4.5593999997e+01 4.5594000000e+01 5.1100000000e-04 0.0000e+00 -1.0000e+00
       23  2    1    2    0    0 +0.0000000000e+00 +3.5527136788e-15 +0.0000000000e+00 9.1188000000e+01 9.1188000000e+01 5.0507e-14 0.0000e+00
  9990012  2    3    3    0    0 +2.1816555130e+01 +2.0884265636e+01 +1.0227700744e+01 5.9301945189e+01 5.0000002118e+01 8.5084e-04 0.0000e+00
      -11  1    4    4    0    0 +1.2994568327e+01 +4.8764695781e+00 +1.3067599775e+01 1.9063077550e+01 5.1100000000e-04 0.0000e+00 1.0000e+00
       11  1    4    4    0    0 -6.7784480317e+00 +1.9205651674e+01 -1.0104226662e+01 2.2735430733e+01 5.1100000000e-04 0.0000e+00 -1.0000e+00
       12  1    4    4    0    0 +1.5600434835e+01 -3.1978556162e+00 +7.2643276305e+00 1.7503436906e+01 0.0000000000e+00 0.0000e+00 -1.0000e+00
      -12  1    3    3    0    0 -2.1816555130e+01 -2.0884265636e+01 -1.0227700744e+01 3.1886054811e+01 0.0000000000e+00 0.0000e+00 1.0000e+00
</event>
<event>
 8      3 +2.2883893e-04 9.11880000e+01 7.81616400e-03 1.18400000e-01
      -11 -1    0    0    0    0 +0.0000000000e+00 +0.0000000000e+00 +4.5593999997e+01 4.5594000000e+01 5.1100000000e-04 0.0000e+00 1.0000e+00
       11 -1    0    0    0    0 -0.0000000000e+00 -0.0000000000e+00 -4.5593999997e+01 4.5594000000e+01 5.1100000000e-04 0.0000e+00 -1.0000e+00
       23  2    1    2    0    0 +0.0000000000e+00 +2.2204460493e-16 +0.0000000000e+00 9.1188000000e+01 9.1188000000e+01 9.1605e-14 0.0000e+00
  9990012  2    3    3    0    0 +1.4439528600e+01 -1.2824366519e+00 -2.8400279553e+01 5.9301944918e+01 5.0000001624e+01 2.9799e-03 0.0000e+00
      -11  1    4    4    0    0 -1.2090608320e+00 -6.6999778261e+00 -2.3596861085e+00 7.2055291102e+00 5.1100000000e-04 0.0000e+00 1.0000e+00
       11  1    4    4    0    0 -4.0161576063e-02 +9.7014865909e+00 -3.3007600805e+01 3.4403810344e+01 5.1100000000e-04 0.0000e+00 -1.0000e+00
       12  1    4    4    0    0 +1.5688751008e+01 -4.2839454167e+00 +6.9670073602e+00 1.7692605464e+01 0.0000000000e+00 0.0000e+00 -1.0000e+00
      -12  1    3    3    0    0 -1.4439528600e+01 +1.2824366519e+00 +2.8400279553e+01 3.1886055082e+01 0.0000000000e+00 0.0000e+00 1.0000e+00
</event>
<event>
 8      3 +2.2883893e-04 9.11880000e+01 7.81616400e-03 1.18400000e-01
      -11 -1    0    0    0    0 +0.0000000000e+00 +0.0000000000e+00 +4.5593999997e+01 4.5594000000e+01 5.1100000000e-04 0.0000e+00 1.0000e+00
       11 -1    0    0    0    0 -0.0000000000e+00 -0.0000000000e+00 -4.5593999997e+01 4.5594000000e+01 5.1100000000e-04 0.0000e+00 -1.0000e+00
       23  2    1    2    0    0 +6.6613381478e-16 +0.0000000000e+00 -1.7763568394e-15 9.1188000000e+01 9.1188000000e+01 8.0697e-14 0.0000e+00
  9990012  2    3    3    0    0 +3.0064607236e-01 +3.0425110330e+01 +9.5360551739e+00 5.9302045805e+01 5.0000185616e+01 7.3602e-04 0.0000e+00
      -11  1    4    4    0    0 +4.4963870970e+00 -1.3982513149e+00 +2.2894386526e-01 4.7143418650e+00 5.1100000000e-04 0.0000e+00 -1.0000e+00
       11  1    4    4    0    0 +3.1755110736e+00 -5.9605377648e+00 -9.5693290658e+00 1.1712554805e+01 5.1100000000e-04 0.0000e+00 1.0000e+00
       12  1    4    4    0    0 -7.3712520983e+00 +3.7783899410e+01 +1.8876440374e+01 4.2875149135e+01 0.0000000000e+00 0.0000e+00 -1.0000e+00
      -12  1    3    3    0    0 -3.0064607236e-01 -3.0425110330e+01 -9.5360551739e+00 3.1885954195e+01 0.0000000000e+00 0.0000e+00 1.0000e+00
</event>
<event>
 8      4 +2.2883893e-04 9.11880000e+01 7.81616400e-03 1.18400000e-01
      -11 -1    0    0    0    0 +0.0000000000e+00 +0.0000000000e+00 +4.5593999997e+01 4.5594000000e+01 5.1100000000e-04 0.0000e+00 1.0000e+00
       11 -1    0    0    0    0 -0.0000000000e+00 -0.0000000000e+00 -4.5593999997e+01 4.5594000000e+01 5.1100000000e-04 0.0000e+00 -1.0000e+00
       23  2    1    2    0    0 +0.0000000000e+00 +7.1054273576e-15 +0.0000000000e+00 9.1188000000e+01 9.1188000000e+01 4.2160e-14 0.0000e+00
 -9990012  2    3    3    0    0 -8.1997241268e+00 +2.6208319629e+01 +1.6205229294e+01 5.9301937998e+01 4.9999989003e+01 3.3769e-03 0.0000e+00
      -11  1    4    4    0    0 +6.1560620178e+00 -9.2896339454e+00 +2.6416379294e+00 1.1453062892e+01 5.1100000000e-04 0.0000e+00 -1.0000e+00
       11  1    4    4    0    0 -1.0515253019e+01 +3.6791241651e+01 +1.7609946978e+01 4.2122158552e+01 5.1100000000e-04 0.0000e+00 1.0000e+00
      -12  1    4    4    0    0 -3.8405331258e+00 -1.2932880762e+00 -4.0463556126e+00 5.7267165534e+00 0.0000000000e+00 0.0000e+00 1.0000e+00
       12  1    3    3    0    0 +8.1997241268e+00 -2.6208319629e+01 -1.6205229294e+01 3.1886062002e+01 0.0000000000e+00 0.0000e+00 -1.0000e+00
</event>
<event>
 8      4 +2.2883893e-04 9.11880000e+01 7.81616400e-03 1.18400000e-01
      -11 -1    0    0    0    0 +0.0000000000e+00 +0.0000000000e+00 +4.5593999997e+01 4.5594000000e+01 5.1100000000e-04 0.0000e+00 1.0000e+00
       11 -1    0    0    0    0 -0.0000000000e+00 -0.0000000000e+00 -4.5593999997e+01 4.5594000000e+01 5.1100000000e-04 0.0000e+00 -1.0000e+00
       23  2    1    2    0    0 +0.0000000000e+00 +1.7763568394e-15 +0.0000000000e+00 9.1188000000e+01 9.1188000000e+01 1.1477e-13 0.0000e+00
 -9990012  2    3    3    0    0 -9.9187556344e+00 -1.1890400701e+01 +2.7873981171e+01 5.9301918891e+01 4.9999954157e+01 1.6232e-03 0.0000e+00
      -11  1    4    4    0    0 +1.1372817038e+00 +1.1012993064e+01 +1.9271748650e+01 2.2225654596e+01 5.1100000000e-04 0.0000e+00 1.0000e+00
       11  1    4    4    0    0 -5.4777170396e+00 +2.0851520995e+00 -5.3345302505e+00 7.9253048205e+00 5.1100000000e-04 0.0000e+00 -1.0000e+00
      -12  1    4    4    0    0 -5.5783202986e+00 -2.4988545864e+01 +1.3936762771e+01 2.9150959475e+01 0.0000000000e+00 0.0000e+00 1.0000e+00
       12  1    3    3    0    0 +9.9187556344e+00 +1.1890400701e+01 -2.7873981171e+01 3.1886081109e+01 0.0000000000e+00 0.0000e+00 -1.0000e+00
</event>
<event>
 8      4 +2.2883893e-04 9.11880000e+01 7.81616400e-03 1.18400000e-01
      -11 -1    0    0    0    0 +0.0000000000e+00 +0.0000000000e+00 +4.5593999997e+01 4.5594000000e+01 5.1100000000e-04 0.0000e+00 -1.0000e+00
       11 -1    0    0    0    0 -0.0000000000e+00 -0.0000000000e+00 -4.5593999997e+01 4.5594000000e+01 5.1100000000e-04 0.0000e+00 1.0000e+00
       23  2    1    2    0    0 +3.5527136788e-15 +0.0000000000e+00 +0.0000000000e+00 9.1188000000e+01 9.1188000000e+01 5.2296e-14 0.0000e+00
 -9990012  2    3    3    0    0 +3.0132062687e+01 +4.8231615370e+00 +9.2475359937e+00 5.9301937042e+01 4.9999987260e+01 2.1824e-03 0.0000e+00
      -11  1    4    4    0    0 +4.1507775733e+01 +6.1851561244e+00 +5.4772328677e+00 4.2321999985e+01 5.1100000000e-04 0.0000e+00 1.0000e+00
       11  1    4    4    0    0 -3.5935588271e+00 +4.9696513829e+00 -3.3043522980e-01 6.1416844280e+00 5.1100000000e-04 0.0000e+00 -1.0000e+00
      -12  1    4    4    0    0 -7.7821542187e+00 -6.3316459703e+00 +4.1007383558e+00 1.0838252629e+01 0.0000000000e+00 0.0000e+00 1.0000e+00
       12  1    3    3    0    0 -3.0132062687e+01 -4.8231615370e+00 -9.2475359937e+00 3.1886062958e+01 0.0000000000e+00 0.0000e+00 -1.0000e+00
</event>
<event>
 8      3 +2.2883893e-04 9.11880000e+01 7.81616400e-03 1.18400000e-01
      -11 -1    0    0    0    0 +0.0000000000e+00 +0.0000000000e+00 +4.5593999997e+01 4.5594000000e+01 5.1100000000e-04 0.0000e+00 1.0000e+00
       11 -1    0    0    0    0 -0.0000000000e+00 -0.0000000000e+00 -4.5593999997e+01 4.5594000000e+01 5.1100000000e-04 0.0000e+00 -1.0000e+00
       23  2    1    2    0    0 +0.0000000000e+00 +0.0000000000e+00 +0.0000000000e+00 9.1188000000e+01 9.1188000000e+01 8.3534e-15 0.0000e+00
  9990012  2    3    3    0    0 +1.0174502220e+01 -1.5364885950e+01 -2.6021519028e+01 5.9301958097e+01 5.0000025660e+01 3.2361e-03 0.0000e+00
      -11  1    4    4    0    0 -1.5624133294e+01 -2.3564356110e+00 -1.3929863635e+01 2.1064364009e+01 5.1100000000e-04 0.0000e+00 1.0000e+00
       11  1    4    4    0    0 +5.8960727554e+00 +5.2145261873e+00 -7.4857087435e+00 1.0862356694e+01 5.1100000000e-04 0.0000e+00 -1.0000e+00
       12  1    4    4    0    0 +1.9902562758e+01 -1.8222976527e+01 -4.6059466497e+00 2.7375237394e+01 0.0000000000e+00 0.0000e+00 -1.0000e+00
      -12  1    3    3    0    0 -1.0174502220e+01 +1.5364885950e+01 +2.6021519028e+01 3.1886041903e+01 0.0000000000e+00 0.0000e+00 1.0000e+00
</event>
<event>
 8      3 +2.2883893e-04 9.11880000e+01 7.81616400e-03 1.18400000e-01
      -11 -1    0    0    0    0 +0.0000000000e+00 +0.0000000000e+00 +4.5593999997e+01 4.5594000000e+01 5.1100000000e-04 0.0000e+00 -1.0000e+00
       11 -1    0    0    0    0 -0.0000000000e+00 -0.0000000000e+00 -4.5593999997e+01 4.5594000000e+01 5.1100000000e-04 0.0000e+00 1.0000e+00
       23  2    1    2    0    0 -3.5527136788e-15 +0.0000000000e+00 +0.0000000000e+00 9.1188000000e+01 9.1188000000e+01 2.1790e-14 0.0000e+00
  9990012  2    3    3    0    0 +2.0717891380e+01 -1.9629033538e+01 +1.4219372193e+01 5.9301944639e+01 5.0000001116e+01 1.6595e-03 0.0000e+00
      -11  1    4    4    0    0 -5.2253032842e+00 -7.1696600352e-01 +5.1927115787e+00 7.4014923133e+00 5.1100000000e-04 0.0000e+00 1.0000e+00
       11  1    4    4    0    0 -4.0554183002e+00 -1.2925599098e+01 +1.5549210025e+01 2.0622692896e+01 5.1100000000e-04 0.0000e+00 -1.0000e+00
       12  1    4    4    0    0 +2.9998612964e+01 -5.9864684364e+00 -6.5225494103e+00 3.1277759430e+01 0.0000000000e+00 0.0000e+00 -1.0000e+00
      -12  1    3    3    0    0 -2.0717891380e+01 +1.9629033538e+01 -1.4219372193e+01 3.1886055361e+01 0.0000000000e+00 0.0000e+00 1.0000e+00
</event>
<event>
 8      3 +2.2883893e-04 9.11880000e+01 7.81616400e-03 1.18400000e-01
      -11 -1    0    0    0    0 +0.0000000000e+00 +0.0000000000e+00 +4.5593999997e+01 4.5594000000e+01 5.1100000000e-04 0.0000e+00 -1.0000e+00
       11 -1    0    0    0    0 -0.0000000000e+00 -0.0000000000e+00 -4.5593999997e+01 4.5594000000e+01 5.1100000000e-04 0.0000e+00 1.0000e+00
       23  2    1    2    0    0 +0.0000000000e+00 +8.8817841970e-16 +0.0000000000e+00 9.1188000000e+01 9.1188000000e+01 2.0650e-13 0.0000e+00
  9990012  2    3    3    0    0 -1.4759336215e+01 -4.9806511957e+00 +2.7822199685e+01 5.9301957801e+01 5.0000025118e+01 2.5273e-04 0.0000e+00
      -11  1    4    4    0    0 -2.4144687637e+00 +1.2075506109e+01 +1.0012469271e+01 1.5871264863e+01 5.1100000000e-04 0.0000e+00 1.0000e+00
       11  1    4    4    0    0 -1.3231730275e+01 +2.1975493631e+00 -4.3131167055e+00 1.4089389102e+01 5.1100000000e-04 0.0000e+00 -1.0000e+00
       12  1    4    4    0    0 +8.8686282400e-01 -1.9253706668e+01 +2.2122847119e+01 2.9341303836e+01 0.0000000000e+00 0.0000e+00 -1.0000e+00
      -12  1    3    3    0    0 +1.4759336215e+01 +4.9806511957e+00 -2.7822199685e+01 3.1886042199e+01 0.0000000000e+00 0.0000e+00 1.0000e+00
</event>
<event>
 7      3 +2.2883893e-04 5.93019100e+01 7.81616400e-03 1.26660500e-01
      -11 -1    0    0    0    0 +0.0000000000e+00 +0.0000000000e+00 +4.5593999997e+01 4.5594000000e+01 5.1100000000e-04 0.0000e+00 1.0000e+00
       11 -1    0    0    0    0 -0.0000000000e+00 -0.0000000000e+00 -4.5593999997e+01 4.5594000000e+01 5.1100000000e-04 0.0000e+00 -1.0000e+00
  9990012  2    1    2    0    0 -7.0470130606e-01 -3.1105401090e+01 -6.9771209773e+00 5.9301909019e+01 4.9999936153e+01 9.4708e-04 0.0000e+00
      -11  1    3    3    0    0 -1.0555480722e+01 -2.0762390807e+00 +1.4069210788e+00 1.0849348790e+01 5.1100000000e-04 0.0000e+00 1.0000e+00
       11  1    3    3    0    0 -5.9699209286e+00 -1.7789581172e+01 -1.8685409248e+01 2.6481194709e+01 5.1100000000e-04 0.0000e+00 -1.0000e+00
       12  1    3    3    0    0 +1.5820700344e+01 -1.1239580837e+01 +1.0301367192e+01 2.1971365520e+01 0.0000000000e+00 0.0000e+00 -1.0000e+00
      -12  1    1    2    0    0 +7.0470130606e-01 +3.1105401090e+01 +6.9771209773e+00 3.1886090981e+01 0.0000000000e+00 0.0000e+00 1.0000e+00
</event>
<event>
 8      4 +2.2883893e-04 9.11880000e+01 7.81616400e-03 1.18400000e-01
      -11 -1    0    0    0    0 +0.0000000000e+00 +0.0000000000e+00 +4.5593999997e+01 4.5594000000e+01 5.1100000000e-04 0.0000e+00 1.0000e+00
       11 -1    0    0    0    0 -0.0000000000e+00 -0.0000000000e+00 -4.5593999997e+01 4.5594000000e+01 5.1100000000e-04 0.0000e+00 -1.0000e+00
       23  2    1    2    0    0 +0.0000000000e+00 +1.7763568394e-15 -3.5527136788e-15 9.1188000000e+01 9.1188000000e+01 1.3074e-14 0.0000e+00
 -9990012  2    3    3    0    0 -2.1075467705e+01 -8.4492991783e+00 +2.2386497721e+01 5.9301932889e+01 4.9999979686e+01 6.3211e-05 0.0000e+00
      -11  1    4    4    0    0 -3.9677222816e+00 +1.3573920439e+01 +2.2677516348e+01 2.6725715784e+01 5.1100000000e-04 0.0000e+00 1.0000e+00
       11  1    4    4    0    0 +1.0388050898e+00 -1.5503210271e+00 -4.5233583430e+00 4.8931975498e+00 5.1100000000e-04 0.0000e+00 -1.0000e+00
      -12  1    4    4    0    0 -1.8146550513e+01 -2.0472898590e+01 +4.2323397160e+00 2.7683019555e+01 0.0000000000e+00 0.0000e+00 1.0000e+00
       12  1    3    3    0    0 +2.1075467705e+01 +8.4492991783e+00 -2.2386497721e+01 3.1886067111e+01 0.0000000000e+00 0.0000e+00 -1.0000e+00
</event>
<event>
 8      3 +2.2883893e-04 9.11880000e+01 7.81616400e-03 1.18400000e-01
      -11 -1    0    0    0    0 +0.0000000000e+00 +0.0000000000e+00 +4.5593999997e+01 4.5594000000e+01 5.1100000000e-04 0.0000e+00 1.0000e+00
       11 -1    0    0    0    0 -0.0000000000e+00 -0.0000000000e+00 -4.5593999997e+01 4.5594000000e+01 5.1100000000e-04 0.0000e+00 -1.0000e+00
       23  2    1    2    0    0 -3.5527136788e-15 +0.0000000000e+00 +4.4408920985e-16 9.1188000000e+01 9.1188000000e+01 6.0628e-14 0.0000e+00
  9990012  2    3    3    0    0 -2.9880318429e+01 +1.0598031348e+01 +3.4013602748e+00 5.9301938004e+01 4.9999989014e+01 6.7233e-04 0.0000e+00
      -11  1    4    4    0    0 +2.1828972863e+00 -1.2779135469e+00 -1.7114203485e+01 1.7300117479e+01 5.1100000000e-04 0.0000e+00 1.0000e+00
       11  1    4    4    0    0 -1.7897039723e+01 -8.2413372748e-02 +7.8100462459e+00 1.9527100282e+01 5.1100000000e-04 0.0000e+00 -1.0000e+00
       12  1    4    4    0    0 -1.4166175993e+01 +1.1958358268e+01 +1.2705517513e+01 2.2474720243e+01 0.0000000000e+00 0.0000e+00 -1.0000e+00
      -12  1    3    3    0    0 +2.9880318429e+01 -1.0598031348e+01 -3.4013602748e+00 3.1886061996e+01 0.0000000000e+00 0.0000e+00 1.0000e+00
</event>
<event>
 8      4 +2.2883893e-04 9.11880000e+01 7.81616400e-03 1.18400000e-01
      -11 -1    0    0    0    0 +0.0000000000e+00 +0.0000000000e+00 +4.5593999997e+01 4.5594000000e+01 5.1100000000e-04 0.0000e+00 -1.0000e+00
       11 -1    0    0    0    0 -0.0000000000e+00 -0.0000000000e+00 -4.5593999997e+01 4.5594000000e+01 5.1100000000e-04 0.0000e+00 1.0000e+00
       23  2    1    2    0    0 -1.7763568394e-15 +0.0000000000e+00 +0.0000000000e+00 9.1188000000e+01 9.1188000000e+01 2.4138e-13 0.0000e+00
 -9990012  2    3    3    0    0 +1.1396816575e+01 +2.3253172015e+01 -1.8604378787e+01 5.9301947456e+01 5.0000006252e+01 2.9286e-03 0.0000e+00
      -11  1    4    4    0    0 +1.9937547650e+01 +2.4763293839e+01 -2.0777895453e+01 3.7979566451e+01 5.1100000000e-04 0.0000e+00 1.0000e+00
       11  1    4    4    0    0 -1.1642334650e+01 +1.3945805626e+00 -5.1883238763e+00 1.2822149428e+01 5.1100000000e-04 0.0000e+00 -1.0000e+00
      -12  1    4    4    0    0 +3.1016035748e+00 -2.9047023864e+00 +7.3618405426e+00 8.5002315770e+00 0.0000000000e+00 0.0000e+00 1.0000e+00
       12  1    3    3    0    0 -1.1396816575e+01 -2.3253172015e+01 +1.8604378787e+01 3.1886052544e+01 0.0000000000e+00 0.0000e+00 -1.0000e+00
</event>
<event>
 8      4 +2.2883893e-04 9.11880000e+01 7.81616400e-03 1.18400000e-01
      -11 -1    0    0    0    0 +0.0000000000e+00 +0.0000000000e+00 +4.5593999997e+01 4.5594000000e+01 5.1100000000e-04 0.0000e+00 -1.0000e+00
       11 -1    0    0    0    0 -0.0000000000e+00 -0.0000000000e+00 -4.5593999997e+01 4.5594000000e+01 5.1100000000e-04 0.0000e+00 1.0000e+00
       23  2    1    2    0    0 +3.5527136788e-15 -3.5527136788e-15 -1.1102230246e-15 9.1188000000e+01 9.1188000000e+01 8.1976e-16 0.0000e+00
 -9990012  2    3    3    0    0 +2.0017729022e+01 -2.4783028472e+01 +1.3462951292e+00 5.9301945274e+01 5.0000002272e+01 1.3953e-03 0.0000e+00
      -11  1    4    4    0    0 +6.6005130214e+00 +4.6151699328e+00 -1.8594912980e+01 2.0264188971e+01 5.1100000000e-04 0.0000e+00 1.0000e+00
       11  1    4    4    0    0 +8.3088394648e+00 -1.6454698848e+01 +1.6414810231e+01 2.4682785957e+01 5.1100000000e-04 0.0000e+00 -1.0000e+00
      -12  1    4    4    0    0 +5.1083765356e+00 -1.2943499557e+01 +3.5263978787e+00 1.4354970345e+01 0.0000000000e+00 0.0000e+00 1.0000e+00
       12  1    3    3    0    0 -2.0017729022e+01 +2.4783028472e+01 -1.3462951292e+00 3.1886054726e+01 0.0000000000e+00 0.0000e+00 -1.0000e+00
</event>
<event>
 8      4 +2.2883893e-04 9.11880000e+01 7.81616400e-03 1.18400000e-01
      -11 -1    0    0    0    0 +0.0000000000e+00 +0.0000000000e+00 +4.5593999997e+01 4.5594000000e+01 5.1100000000e-04 0.0000e+00 1.0000e+00
       11 -1    0    0    0    0 -0.0000000000e+00 -0.0000000000e+00 -4.5593999997e+01 4.5594000000e+01 5.1100000000e-04 0.0000e+00 -1.0000e+00
       23  2    1    2    0    0 +0.0000000000e+00 -3.5527136788e-15 -3.5527136788e-15 9.1188000000e+01 9.1188000000e+01 5.5585e-14 0.0000e+00
 -9990012  2    3    3    0    0 -1.2642540194e+01 +1.7232903037e+01 +2.3662453409e+01 5.9301976871e+01 5.0000059898e+01 9.6091e-04 0.0000e+00
      -11  1    4    4    0    0 -1.8535901974e+01 -1.0806187109e+01 +5.4029542574e+00 2.2125669635e+01 5.1100000000e-04 0.0000e+00 1.0000e+00
       11  1    4    4    0    0 -4.2811954977e+00 +1.5998428621e+01 +8.2430343051e+00 1.8499350476e+01 5.1100000000e-04 0.0000e+00 -1.0000e+00
      -12  1    4    4    0    0 +1.0174557277e+01 +1.2040661525e+01 +1.0016464847e+01 1.8676956759e+01 0.0000000000e+00 0.0000e+00 1.0000e+00
       12  1    3    3    0    0 +1.2642540194e+01 -1.7232903037e+01 -2.3662453409e+01 3.1886023129e+01 0.0000000000e+00 0.0000e+00 -1.0000e+00
</event>
<event>
 8      3 +2.2883893e-04 9.11880000e+01 7.81616400e-03 1.18400000e-01
      -11 -1    0    0    0    0 +0.0000000000e+00 +0.0000000000e+00 +4.5593999997e+01 4.5594000000e+01 5.1100000000e-04 0.0000e+00 -1.0000e+00
       11 -1    0    0    0    0 -0.0000000000e+00 -0.0000000000e+00 -4.5593999997e+01 4.5594000000e+01 5.1100000000e-04 0.0000e+00 1.0000e+00
       23  2    1    2    0    0 +0.0000000000e+00 +0.0000000000e+00 +8.8817841970e-16 9.1188000000e+01 9.1188000000e+01 8.1584e-14 0.0000e+00
  9990012  2    3    3    0    0 +3.1730467989e+01 -6.1785385759e-02 +3.1449057536e+00 5.9302002314e+01 5.0000106300e+01 1.1750e-03 0.0000e+00
      -11  1    4    4    0    0 +2.8047129143e+00 +7.6381788610e+00 -1.1786893294e+01 1.4322675889e+01 5.1100000000e-04 0.0000e+00 1.0000e+00
       11  1    4    4    0    0 +1.9206534407e+00 +1.6602026451e+00 +1.6173083930e+01 1.6371127833e+01 5.1100000000e-04 0.0000e+00 -1.0000e+00
       12  1    4    4    0    0 +2.7005101634e+01 -9.3601668919e+00 -1.2412848824e+00 2.8608198592e+01 0.0000000000e+00 0.0000e+00 -1.0000e+00
      -12  1    3    3    0    0 -3.1730467989e+01 +6.1785385759e-02 -3.1449057536e+00 3.1885997686e+01 0.0000000000e+00 0.0000e+00 1.0000e+00
</event>
<event>
 8      3 +2.2883893e-04 9.11880000e+01 7.81616400e-03 1.18400000e-01
      -11 -1    0    0    0    0 +0.0000000000e+00 +0.0000000000e+00 +4.5593999997e+01 4.5594000000e+01 5.1100000000e-04 0.0000e+00 1.0000e+00
       11 -1    0    0    0    0 -0.0000000000e+00 -0.0000000000e+00 -4.5593999997e+01 4.5594000000e+01 5.1100000000e-04 0.0000e+00 -1.0000e+00
       23  2    1    2    0    0 +3.5527136788e-15 -1.1102230246e-15 +1.7763568394e-15 9.1188000000e+01 9.1188000000e+01 7.9519e-14 0.0000e+00
  9990012  2    3    3    0    0 +3.0054712602e+01 +1.5366782158e+00 -1.0539104617e+01 5.9301955158e+01 5.0000020300e+01 6.4554e-04 0.0000e+00
      -11  1    4    4    0    0 +5.2235655189e-01 +1.2867620488e+01 -1.1887638978e+01 1.7526108356e+01 5.1100000000e-04 0.0000e+00 1.0000e+00
       11  1    4    4    0    0 +2.4958575901e+01 -1.7737408530e+01 -5.7753197521e+00 3.1159276161e+01 5.1100000000e-04 0.0000e+00 -1.0000e+00
       12  1    4    4    0    0 +4.5737801491e+00 +6.4064662585e+00 +7.1238541126e+00 1.0616570642e+01 0.0000000000e+00 0.0000e+00 -1.0000e+00
      -12  1    3    3    0    0 -3.0054712602e+01 -1.5366782158e+00 +1.0539104617e+01 3.1886044842e+01 0.0000000000e+00 0.0000e+00 1.0000e+00
</event>
<event>
 8      4 +2.2883893e-04 9.11880000e+01 7.81616400e-03 1.18400000e-01
      -11 -1    0    0    0    0 +0.0000000000e+00 +0.0000000000e+00 +4.5593999997e+01 4.5594000000e+01 5.1100000000e-04 0.0000e+00 1.0000e+00
       11 -1    0    0    0    0 -0.0000000000e+00 -0.0000000000e+00 -4.5593999997e+01 4.5594000000e+01 5.1100000000e-04 0.0000e+00 -1.0000e+00
       23  2    1    2    0    0 +0.0000000000e+00 -4.4408920985e-16 +3.5527136788e-15 9.1188000000e+01 9.1188000000e+01 6.9402e-15 0.0000e+00
 -9990012  2    3    3    0    0 +1.8303962758e+01 +1.5256515177e+00 +2.6064491889e+01 5.9301946581e+01 5.0000004657e+01 2.6252e-04 0.0000e+00
      -11  1    4    4    0    0 +2.0047137531e+00 +9.3389931601e-01 +2.3764887784e+01 2.3867570819e+01 5.1100000000e-04 0.0000e+00 1.0000e+00
       11  1    4    4    0    0 +5.5751989921e+00 -1.4780280789e+01 -2.7233979616e+00 1.6029860908e+01 5.1100000000e-04 0.0000e+00 -1.0000e+00
      -12  1    4    4    0    0 +1.0724050013e+01 +1.5372032991e+01 +5.0230020672e+00 1.9404514854e+01 0.0000000000e+00 0.0000e+00 1.0000e+00
       12  1    3    3    0    0 -1.8303962758e+01 -1.5256515177e+00 -2.6064491889e+01 3.1886053419e+01 0.0000000000e+00 0.0000e+00 -1.0000e+00
</event>
<event>
 8      3 +2.2883893e-04 9.11880000e+01 7.81616400e-03 1.18400000e-01
      -11 -1    0    0    0    0 +0.0000000000e+00 +0.0000000000e+00 +4.5593999997e+01 4.5594000000e+01 5.1100000000e-04 0.0000e+00 -1.0000e+00
       11 -1    0    0    0    0 -0.0000000000e+00 -0.0000000000e+00 -4.5593999997e+01 4.5594000000e+01 5.1100000000e-04 0.0000e+00 1.0000e+00
       23  2    1    2    0    0 +0.0000000000e+00 +6.6613381478e-16 +8.8817841970e-16 9.1188000000e+01 9.1188000000e+01 2.8260e-13 0.0000e+00
  9990012  2    3    3    0    0 +3.1505305980e+01 -1.9362060563e+00 -4.5151794841e+00 5.9301952196e+01 5.0000014897e+01 6.7900e-04 0.0000e+00
      -11  1    4    4    0    0 +2.2662960953e+01 -4.8057938115e+00 -1.6431521040e+01 2.8402470619e+01 5.1100000000e-04 0.0000e+00 1.0000e+00
       11  1    4    4    0    0 +8.0246801475e+00 +1.4191250223e+01 +1.0660553478e+01 1.9479077881e+01 5.1100000000e-04 0.0000e+00 -1.0000e+00
       12  1    4    4    0    0 +8.1766487953e-01 -1.1321662468e+01 +1.2557880772e+00 1.1420403696e+01 0.0000000000e+00 0.0000e+00 -1.0000e+00
      -12  1    3    3    0    0 -3.1505305980e+01 +1.9362060563e+00 +4.5151794841e+00 3.1886047804e+01 0.0000000000e+00 0.0000e+00 1.0000e+00
</event>
<event>
 8      4 +2.2883893e-04 9.11880000e+01 7.81616400e-03 1.18400000e-01
      -11 -1    0    0    0    0 +0.0000000000e+00 +0.0000000000e+00 +4.5593999997e+01 4.5594000000e+01 5.1100000000e-04 0.0000e+00 -1.0000e+00
       11 -1    0    0    0    0 -0.0000000000e+00 -0.0000000000e+00 -4.5593999997e+01 4.5594000000e+01 5.1100000000e-04 0.0000e+00 1.0000e+00
       23  2    1    2    0    0 -3.1225022568e-16 +4.4408920985e-16 +7.1054273576e-15 9.1188000000e+01 9.1188000000e+01 1.2437e-13 0.0000e+00
 -9990012  2    3    3    0    0 -5.3718936335e-02 -3.0702978094e+00 -3.1737858370e+01 5.9301933007e+01 4.9999979902e+01 2.9528e-05 0.0000e+00
      -11  1    4    4    0    0 -3.4656121125e+00 -1.0151462322e+01 -4.4670045298e+00 1.1619672298e+01 5.1100000000e-04 0.0000e+00 1.0000e+00
       11  1    4    4    0    0 -1.5652067708e+01 -1.1519518056e+00 -3.4283587127e+00 1.6064490661e+01 5.1100000000e-04 0.0000e+00 -1.0000e+00
      -12  1    4    4    0    0 +1.9063960884e+01 +8.2331163185e+00 -2.3842495127e+01 3.1617770048e+01 0.0000000000e+00 0.0000e+00 1.0000e+00
       12  1    3    3    0    0 +5.3718936335e-02 +3.0702978094e+00 +3.1737858370e+01 3.1886066993e+01 0.0000000000e+00 0.0000e+00 -1.0000e+00
</event>
<event>
 8      3 +2.2883893e-04 9.11880000e+01 7.81616400e-03 1.18400000e-01
      -11 -1    0    0    0    0 +0.0000000000e+00 +0.0000000000e+00 +4.5593999997e+01 4.5594000000e+01 5.1100000000e-04 0.0000e+00 1.0000e+00
       11 -1    0    0    0    0 -0.0000000000e+00 -0.0000000000e+00 -4.5593999997e+01 4.5594000000e+01 5.1100000000e-04 0.0000e+00 -1.0000e+00
       23  2    1    2    0    0 +0.0000000000e+00 +0.0000000000e+00 +0.0000000000e+00 9.1188000000e+01 9.1188000000e+01 1.0151e-14 0.0000e+00
  9990012  2    3    3    0    0 +2.4333837624e+01 -1.6155926904e+01 -1.2789277527e+01 5.9302027421e+01 5.0000152089e+01 5.9440e-04 0.0000e+00
      -11  1    4    4    0    0 -8.5117552800e+00 +1.5434700186e+00 +1.2913976152e+00 8.7464270252e+00 5.1100000000e-04 0.0000e+00 1.0000e+00
       11  1    4    4    0    0 +1.8289412389e+01 -1.1919061949e+01 -2.3663084733e+01 3.2194847765e+01 5.1100000000e-04 0.0000e+00 -1.0000e+00
       12  1    4    4    0    0 +1.4556180516e+01 -5.7803349735e+00 +9.5824095906e+00 1.8360752631e+01 0.0000000000e+00 0.0000e+00 -1.0000e+00
      -12  1    3    3    0    0 -2.4333837624e+01 +1.6155926904e+01 +1.2789277527e+01 3.1885972579e+01 0.0000000000e+00 0.0000e+00 1.0000e+00
</event>
<event>
 8      4 +2.2883893e-04 9.11880000e+01 7.81616400e-03 1.18400000e-01
      -11 -1    0    0    0    0 +0.0000000000e+00 +0.0000000000e+00 +4.5593999997e+01 4.5594000000e+01 5.1100000000e-04 0.0000e+00 -1.0000e+00
       11 -1    0    0    0    0 -0.0000000000e+00 -0.0000000000e+00 -4.5593999997e+01 4.5594000000e+01 5.1100000000e-04 0.0000e+00 1.0000e+00
       23  2    1    2    0    0 +0.0000000000e+00 +1.7763568394e-15 +3.5527136788e-15 9.1188000000e+01 9.1188000000e+01 6.0663e-14 0.0000e+00
 -9990012  2    3    3    0    0 -1.4426618777e+01 +9.4503043802e+00 -2.6819509775e+01 5.9301926445e+01 4.9999967933e+01 2.4784e-04 0.0000e+00
      -11  1    4    4    0    0 -6.0431601778e+00 +1.5038349789e+01 +4.0394287470e+00 1.6702955852e+01 5.1100000000e-04 0.0000e+00 1.0000e+00
       11  1    4    4    0    0 -7.7965073177e+00 +7.5977259981e+00 -2.2844034724e+00 1.1123374766e+01 5.1100000000e-04 0.0000e+00 -1.0000e+00
      -12  1    4    4    0    0 -5.8695128112e-01 -1.3185771407e+01 -2.8574535049e+01 3.1475595827e+01 0.0000000000e+00 0.0000e+00 1.0000e+00
       12  1    3    3    0    0 +1.4426618777e+01 -9.4503043802e+00 +2.6819509775e+01 3.1886073555e+01 0.0000000000e+00 0.0000e+00 -1.0000e+00
</event>
<event>
 8      4 +2.2883893e-04 9.11880000e+01 7.81616400e-03 1.18400000e-01
      -11 -1    0    0    0    0 +0.0000000000e+00 +0.0000000000e+00 +4.5593999997e+01 4.5594000000e+01 5.1100000000e-04 0.0000e+00 1.0000e+00
       11 -1    0    0    0    0 -0.0000000000e+00 -0.0000000000e+00 -4.5593999997e+01 4.5594000000e+01 5.1100000000e-04 0.0000e+00 -1.0000e+00
       23  2    1    2    0    0 -4.4408920985e-16 +1.7763568394e-15 +7.1054273576e-15 9.1188000000e+01 9.1188000000e+01 9.0625e-14 0.0000e+00
 -9990012  2    3    3    0    0 +2.9404019507e+00 -1.3024878482e+01 +2.8955599980e+01 5.9301949864e+01 5.0000010644e+01 2.9897e-04 0.0000e+00
      -11  1    4    4    0    0 +3.5013358202e+00 +7.3535614825e+00 +3.0743821040e+00 8.7055180538e+00 5.1100000000e-04 0.0000e+00 1.0000e+00
       11  1    4    4    0    0 -1.7599863665e+01 -4.3802195418e+00 +3.9843437490e+00 1.8569235839e+01 5.1100000000e-04 0.0000e+00 -1.0000e+00
      -12  1    4    4    0    0 +1.7038929795e+01 -1.5998220422e+01 +2.1896874127e+01 3.2027195971e+01 0.0000000000e+00 0.0000e+00 1.0000e+00
       12  1    3    3    0    0 -2.9404019507e+00 +1.3024878482e+01 -2.8955599980e+01 3.1886050136e+01 0.0000000000e+00 0.0000e+00 -1.0000e+00
</event>
<event>
 8      4 +2.2883893e-04 9.11880000e+01 7.81616400e-03 1.18400000e-01
      -11 -1    0    0    0    0 +0.0000000000e+00 +0.0000000000e+00 +4.5593999997e+01 4.5594000000e+01 5.1100000000e-04 0.0000e+00 1.0000e+00
       11 -1    0    0    0    0 -0.0000000000e+00 -0.0000000000e+00 -4.5593999997e+01 4.5594000000e+01 5.1100000000e-04 0.0000e+00 -1.0000e+00
       23  2    1    2    0    0 +1.7763568394e-15 -4.4408920985e-16 +3.5527136788e-15 9.1188000000e+01 9.1188000000e+01 7.4290e-14 0.0000e+00
 -9990012  2    3    3    0    0 +9.6132171105e+00 -2.7206848931e+00 +3.0280447213e+01 5.9301928544e+01 4.9999971761e+01 3.1588e-03 0.0000e+00
      -11  1    4    4    0    0 +9.8404562331e+00 -1.0905929162e+01 -6.3866509495e-01 1.4703120864e+01 5.1100000000e-04 0.0000e+00 1.0000e+00
       11  1    4    4    0    0 -1.6727833112e+00 -2.6710979251e+00 -5.6255773044e+00 6.4482624327e+00 5.1100000000e-04 0.0000e+00 -1.0000e+00
      -12  1    4    4    0    0 +1.4455441885e+00 +1.0856342194e+01 +3.6544689612e+01 3.8150545248e+01 0.0000000000e+00 0.0000e+00 1.0000e+00
       12  1    3    3    0    0 -9.6132171105e+00 +2.7206848931e+00 -3.0280447213e+01 3.1886071456e+01 0.0000000000e+00 0.0000e+00 -1.0000e+00
</event>
<event>
 8      3 +2.2883893e-04 9.11880000e+01 7.81616400e-03 1.18400000e-01
      -11 -1    0    0    0    0 +0.0000000000e+00 +0.0000000000e+00 +4.5593999997e+01 4.5594000000e+01 5.1100000000e-04 0.0000e+00 1.0000e+00
       11 -1    0    0    0    0 -0.0000000000e+00 -0.0000000000e+00 -4.5593999997e+01 4.5594000000e+01 5.1100000000e-04 0.0000e+00 -1.0000e+00
       23  2    1    2    0    0 -8.8817841970e-16 +0.0000000000e+00 -1.7763568394e-15 9.1188000000e+01 9.1188000000e+01 1.6675e-14 0.0000e+00
  9990012  2    3    3    0    0 -7.6141738347e+00 +3.0682186409e+01 -4.1654235808e+00 5.9301906485e+01 4.9999931531e+01 1.0410e-03 0.0000e+00
      -11  1    4    4    0    0 +4.9409709607e+00 -6.1103421751e+00 -7.9190913494e+00 1.1156230707e+01 5.1100000000e-04 0.0000e+00 1.0000e+00
       11  1    4    4    0    0 +3.1462954387e+00 +7.8189980534e+00 +1.1533893531e+01 1.4285188336e+01 5.1100000000e-04 0.0000e+00 -1.0000e+00
       12  1    4    4    0    0 -1.5701440234e+01 +2.8973530531e+01 -7.7802257625e+00 3.3860487442e+01 0.0000000000e+00 0.0000e+00 -1.0000e+00
      -12  1    3    3    0    0 +7.6141738347e+00 -3.0682186409e+01 +4.1654235808e+00 3.1886093515e+01 0.0000000000e+00 0.0000e+00 1.0000e+00
</event>
<event>
 8      4 +2.2883893e-04 9.11880000e+01 7.81616400e-03 1.18400000e-01
      -11 -1    0    0    0    0 +0.0000000000e+00 +0.0000000000e+00 +4.5593999997e+01 4.5594000000e+01 5.1100000000e-04 0.0000e+00 1.0000e+00
       11 -1    0    0    0    0 -0.0000000000e+00 -0.0000000000e+00 -4.5593999997e+01 4.5594000000e+01 5.1100000000e-04 0.0000e+00 -1.0000e+00
       23  2    1    2    0    0 +0.0000000000e+00 +0.0000000000e+00 +0.0000000000e+00 9.1188000000e+01 9.1188000000e+01 8.3305e-14 0.0000e+00
 -9990012  2    3    3    0    0 -1.7311484025e+01 +2.6484135758e+01 +3.9526527613e+00 5.9301946781e+01 5.0000005021e+01 1.6031e-03 0.0000e+00
      -11  1    4    4    0    0 -1.5746720182e+01 +4.9548384697e+00 -6.2553737424e+00 1.7653309086e+01 5.1100000000e-04 0.0000e+00 1.0000e+00
       11  1    4    4    0    0 -6.8335890393e+00 -7.9188750478e+00 +2.4332522660e+00 1.0739052008e+01 5.1100000000e-04 0.0000e+00 -1.0000e+00
      -12  1    4    4    0    0 +5.2688251961e+00 +2.9448172337e+01 +7.7747742376e+00 3.0909585687e+01 0.0000000000e+00 0.0000e+00 1.0000e+00
       12  1    3    3    0    0 +1.7311484025e+01 -2.6484135758e+01 -3.9526527613e+00 3.1886053219e+01 0.0000000000e+00 0.0000e+00 -1.0000e+00
</event>
<event>
 8      4 +2.2883893e-04 9.11880000e+01 7.81616400e-03 1.18400000e-01
      -11 -1    0    0    0    0 +0.0000000000e+00 +0.0000000000e+00 +4.5593999997e+01 4.5594000000e+01 5.1100000000e-04 0.0000e+00 -1.0000e+00
       11 -1    0    0    0    0 -0.0000000000e+00 -0.0000000000e+00 -4.5593999997e+01 4.5594000000e+01 5.1100000000e-04 0.0000e+00 1.0000e+00
       23  2    1    2    0    0 -3.5527136788e-15 +0.0000000000e+00 +0.0000000000e+00 9.1188000000e+01 9.1188000000e+01 4.7484e-14 0.0000e+00
 -9990012  2    3    3    0    0 -2.3676744886e+01 +7.2329760725e+00 +2.0095339434e+01 5.9301845352e+01 4.9999820039e+01 1.8052e-03 0.0000e+00
      -11  1    4    4    0    0 -1.9219182592e+01 +6.2492493225e+00 +3.1812656940e+00 2.0458507968e+01 5.1100000000e-04 0.0000e+00 1.0000e+00
       11  1    4    4    0    0 -8.9915708777e-01 -1.2298250513e+01 +2.1126743412e+01 2.4462108180e+01 5.1100000000e-04 0.0000e+00 -1.0000e+00
      -12  1    4    4    0    0 -3.5584052057e+00 +1.3281977263e+01 -4.2126696718e+00 1.4381229203e+01 0.0000000000e+00 0.0000e+00 1.0000e+00
       12  1    3    3    0    0 +2.3676744886e+01 -7.2329760725e+00 -2.0095339434e+01 3.1886154648e+01 0.0000000000e+00 0.0000e+00 -1.0000e+00
</event>
<event>
 8      4 +2.2883893e-04 9.11880000e+01 7.81616400e-03 1.18400000e-01
      -11 -1    0    0    0    0 +0.0000000000e+00 +0.0000000000e+00 +4.5593999997e+01 4.5594000000e+01 5.1100000000e-04 0.0000e+00 1.0000e+00
       11 -1    0    0    0    0 -0.0000000000e+00 -0.0000000000e+00 -4.5593999997e+01 4.5594000000e+01 5.1100000000e-04 0.0000e+00 -1.0000e+00
       23  2    1    2    0    0 +0.0000000000e+00 +3.5527136788e-15 -4.1633363423e-16 9.1188000000e+01 9.1188000000e+01 1.3346e-14 0.0000e+00
 -9990012  2    3    3    0    0 +2.5264444656e+01 +1.9452292699e+01 -1.7882394785e-01 5.9302018237e+01 5.0000135339e+01 8.7197e-04 0.0000e+00
      -11  1    4    4    0    0 -1.0579725567e+01 -3.0657570819e-01 +4.0261994075e-01 1.0591821600e+01 5.1100000000e-04 0.0000e+00 1.0000e+00
       11  1    4    4    0    0 +1.6362218304e+01 +1.1323541539e+01 -1.3326385267e+01 2.3948639322e+01 5.1100000000e-04 0.0000e+00 -1.0000e+00
      -12  1    4    4    0    0 +1.9481951918e+01 +8.4353268684e+00 +1.2744941378e+01 2.4761557315e+01 0.0000000000e+00 0.0000e+00 1.0000e+00
       12  1    3    3    0    0 -2.5264444656e+01 -1.9452292699e+01 +1.7882394785e-01 3.1885981763e+01 0.0000000000e+00 0.0000e+00 -1.0000e+00
</event>
<event>
 8      4 +2.2883893e-04 9.11880000e+01 7.81616400e-03 1.18400000e-01
      -11 -1    0    0    0    0 +0.0000000000e+00 +0.0000000000e+00 +4.5593999997e+01 4.5594000000e+01 5.1100000000e-04 0.0000e+00 1.0000e+00
       11 -1    0    0    0    0 -0.0000000000e+00 -0.0000000000e+00 -4.5593999997e+01 4.5594000000e+01 5.1100000000e-04 0.0000e+00 -1.0000e+00
       23  2    1    2    0    0 +0.0000000000e+00 -3.5527136788e-15 +0.0000000000e+00 9.1188000000e+01 9.1188000000e+01 2.7369e-14 0.0000e+00
 -9990012  2    3    3    0    0 -1.6101078963e+01 +2.1052663233e+01 +1.7727481755e+01 5.9301906129e+01 4.9999930882e+01 1.0285e-03 0.0000e+00
      -11  1    4    4    0    0 +2.2208316980e+00 -5.6687384070e+00 +2.9953757968e+00 6.7852019118e+00 5.1100000000e-04 0.0000e+00 1.0000e+00
       11  1    4    4    0    0 -2.2792547930e+01 -6.8324881470e-02 +1.0241174933e+01 2.4987728462e+01 5.1100000000e-04 0.0000e+00 -1.0000e+00
      -12  1    4    4    0    0 +4.4706372686e+00 +2.6789726522e+01 +4.4909310247e+00 2.7528975756e+01 0.0000000000e+00 0.0000e+00 1.0000e+00
       12  1    3    3    0    0 +1.6101078963e+01 -2.1052663233e+01 -1.7727481755e+01 3.1886093871e+01 0.0000000000e+00 0.0000e+00 -1.0000e+00
</event>
<event>
 8      4 +2.2883893e-04 9.11880000e+01 7.81616400e-03 1.18400000e-01
      -11 -1    0    0    0    0 +0.0000000000e+00 +0.0000000000e+00 +4.5593999997e+01 4.5594000000e+01 5.1100000000e-04 0.0000e+00 -1.0000e+00
       11 -1    0    0    0    0 -0.0000000000e+00 -0.0000000000e+00 -4.5593999997e+01 4.5594000000e+01 5.1100000000e-04 0.0000e+00 1.0000e+00
       23  2    1    2    0    0 -3.5527136788e-15 +0.0000000000e+00 +0.0000000000e+00 9.1188000000e+01 9.1188000000e+01 4.8291e-14 0.0000e+00
 -9990012  2    3    3    0    0 +2.2788670628e+01 +8.8699958159e+00 -2.0462592138e+01 5.9301984072e+01 5.0000073031e+01 1.8954e-03 0.0000e+00
      -11  1    4    4    0    0 +6.8101664255e+00 -5.7310637502e-01 -3.2971297747e+00 7.5880091376e+00 5.1100000000e-04 0.0000e+00 1.0000e+00
       11  1    4    4    0    0 +1.4493309353e+01 -1.5635018535e+01 -1.5835058934e+01 2.6556711248e+01 5.1100000000e-04 0.0000e+00 -1.0000e+00
      -12  1    4    4    0    0 +1.4851948495e+00 +2.5078120726e+01 -1.3304034291e+00 2.5157263686e+01 0.0000000000e+00 0.0000e+00 1.0000e+00
       12  1    3    3    0    0 -2.2788670628e+01 -8.8699958159e+00 +2.0462592138e+01 3.1886015928e+01 0.0000000000e+00 0.0000e+00 -1.0000e+00
</event>
<event>
 8      3 +2.2883893e-04 9.11880000e+01 7.81616400e-03 1.18400000e-01
      -11 -1    0    0    0    0 +0.0000000000e+00 +0.0000000000e+00 +4.5593999997e+01 4.5594000000e+01 5.1100000000e-04 0.0000e+00 -1.0000e+00
       11 -1    0    0    0    0 -0.0000000000e+00 -0.0000000000e+00 -4.5593999997e+01 4.5594000000e+01 5.1100000000e-04 0.0000e+00 1.0000e+00
       23  2    1    2    0    0 +1.0658141036e-14 +0.0000000000e+00 +3.5527136788e-15 9.1188000000e+01 9.1188000000e+01 4.5079e-14 0.0000e+00
  9990012  2    3    3    0    0 +2.4546316227e+01 -1.4811337817e+01 +1.3957932784e+01 5.9301933202e+01 4.9999980257e+01 9.1190e-04 0.0000e+00
      -11  1    4    4    0    0 +3.3460048854e+01 -2.3496529272e+01 +2.7015352944e+00 4.0975115014e+01 5.1100000000e-04 0.0000e+00 -1.0000e+00
       11  1    4    4    0    0 -9.9819818684e-01 +4.9386521963e+00 +1.5901641036e+00 5.2834938510e+00 5.1100000000e-04 0.0000e+00 1.0000e+00
       12  1    4    4    0    0 -7.9155344404e+00 +3.7465392592e+00 +9.6662333857e+00 1.3043324337e+01 0.0000000000e+00 0.0000e+00 -1.0000e+00
      -12  1    3    3    0    0 -2.4546316227e+01 +1.4811337817e+01 -1.3957932784e+01 3.1886066798e+01 0.0000000000e+00 0.0000e+00 1.0000e+00
</event>
<event>
 8      3 +2.2883893e-04 9.11880000e+01 7.81616400e-03 1.18400000e-01
      -11 -1    0    0    0    0 +0.0000000000e+00 +0.0000000000e+00 +4.5593999997e+01 4.5594000000e+01 5.1100000000e-04 0.0000e+00 -1.0000e+00
       11 -1    0    0    0    0 -0.0000000000e+00 -0.0000000000e+00 -4.5593999997e+01 4.5594000000e+01 5.1100000000e-04 0.0000e+00 1.0000e+00
       23  2    1    2    0    0 +0.0000000000e+00 +0.0000000000e+00 -4.4408920985e-15 9.1188000000e+01 9.1188000000e+01 2.0858e-14 0.0000e+00
  9990012  2    3    3    0    0 +2.5447511437e+01 +1.8969452884e+01 +3.0503131525e+00 5.9301946758e+01 5.0000004979e+01 4.8886e-04 0.0000e+00
      -11  1    4    4    0    0 +2.4191029838e+01 +3.0021531111e+00 -1.4240350085e+01 2.8231302108e+01 5.1100000000e-04 0.0000e+00 1.0000e+00
       11  1    4    4    0    0 -7.3650363345e+00 +4.7098045641e+00 +4.2674224450e-02 8.7423017902e+00 5.1100000000e-04 0.0000e+00 -1.0000e+00
       12  1    4    4    0    0 +8.6215179332e+00 +1.1257495209e+01 +1.7247989013e+01 2.2328342859e+01 0.0000000000e+00 0.0000e+00 -1.0000e+00
      -12  1    3    3    0    0 -2.5447511437e+01 -1.8969452884e+01 -3.0503131525e+00 3.1886053242e+01 0.0000000000e+00 0.0000e+00 1.0000e+00
</event>
<event>
 8      4 +2.2883893e-04 9.11880000e+01 7.81616400e-03 1.18400000e-01
      -11 -1    0    0    0    0 +0.0000000000e+00 +0.0000000000e+00 +4.5593999997e+01 4.5594000000e+01 5.1100000000e-04 0.0000e+00 1.0000e+00
       11 -1    0    0    0    0 -0.0000000000e+00 -0.0000000000e+00 -4.5593999997e+01 4.5594000000e+01 5.1100000000e-04 0.0000e+00 -1.0000e+00
       23  2    1    2    0    0 +0.0000000000e+00 +1.7763568394e-15 +0.0000000000e+00 9.1188000000e+01 9.1188000000e+01 1.7790e-13 0.0000e+00
 -9990012  2    3    3    0    0 +4.4093437145e+00 +9.3119440665e+00 +3.0175486277e+01 5.9302037785e+01 5.0000170991e+01 2.4690e-04 0.0000e+00
      -11  1    4    4    0    0 +3.9283908233e+00 -9.0120509949e-01 +2.0085993827e+00 4.5032096147e+00 5.1100000000e-04 0.0000e+00 1.0000e+00
       11  1    4    4    0    0 +7.0442398351e+00 +1.1200687424e+01 -9.6672316931e+00 1.6386948541e+01 5.1100000000e-04 0.0000e+00 -1.0000e+00
      -12  1    4    4    0    0 -6.5632869439e+00 -9.8753825815e-01 +3.7834118588e+01 3.8411879629e+01 0.0000000000e+00 0.0000e+00 1.0000e+00
       12  1    3    3    0    0 -4.4093437145e+00 -9.3119440665e+00 -3.0175486277e+01 3.1885962215e+01 0.0000000000e+00 0.0000e+00 -1.0000e+00
</event>
<event>
 8      4 +2.2883893e-04 9.11880000e+01 7.81616400e-03 1.18400000e-01
      -11 -1    0    0    0    0 +0.0000000000e+00 +0.0000000000e+00 +4.5593999997e+01 4.5594000000e+01 5.1100000000e-04 0.0000e+00 1.0000e+00
       11 -1    0    0    0    0 -0.0000000000e+00 -0.0000000000e+00 -4.5593999997e+01 4.5594000000e+01 5.1100000000e-04 0.0000e+00 -1.0000e+00
       23  2    1    2    0    0 +0.0000000000e+00 -8.8817841970e-16 -7.1054273576e-15 9.1188000000e+01 9.1188000000e+01 2.9891e-16 0.0000e+00
 -9990012  2    3    3    0    0 -1.9240414643e+01 +5.0794139145e+00 +2.4914403830e+01 5.9301929067e+01 4.9999972715e+01 1.8305e-03 0.0000e+00
      -11  1    4    4    0    0 -1.5982307315e+01 -6.7235874151e+00 +3.6595326070e+01 4.0495168418e+01 5.1100000000e-04 0.0000e+00 1.0000e+00
       11  1    4    4    0    0 +2.6484572607e+00 +3.7140240717e+00 -4.9940175511e+00 6.7637646491e+00 5.1100000000e-04 0.0000e+00 -1.0000e+00
      -12  1    4    4    0    0 -5.9065645889e+00 +8.0889772580e+00 -6.6869046886e+00 1.2042995999e+01 0.0000000000e+00 0.0000e+00 1.0000e+00
       12  1    3    3    0    0 +1.9240414643e+01 -5.0794139145e+00 -2.4914403830e+01 3.1886070933e+01 0.0000000000e+00 0.0000e+00 -1.0000e+00
</event>
<event>
 8      4 +2.2883893e-04 9.11880000e+01 7.81616400e-03 1.18400000e-01
      -11 -1    0    0    0    0 +0.0000000000e+00 +0.0000000000e+00 +4.5593999997e+01 4.5594000000e+01 5.1100000000e-04 0.0000e+00 -1.0000e+00
       11 -1    0    0    0    0 -0.0000000000e+00 -0.0000000000e+00 -4.5593999997e+01 4.5594000000e+01 5.1100000000e-04 0.0000e+00 1.0000e+00
       23  2    1    2    0    0 -1.7763568394e-15 -3.5527136788e-15 -8.8817841970e-16 9.1188000000e+01 9.1188000000e+01 3.0165e-14 0.0000e+00
 -9990012  2    3    3    0    0 +1.4733051600e+01 +2.7487403637e+01 +6.6396848474e+00 5.9302178966e+01 5.0000428469e+01 5.7443e-03 0.0000e+00
      -11  1    4    4    0    0 -5.5642194523e+00 +9.9395685293e+00 -2.2891121688e+00 1.1618760495e+01 5.1100000000e-04 0.0000e+00 1.0000e+00
       11  1    4    4    0    0 +4.3493143898e+00 +8.3722508827e-01 -1.4272413643e+01 1.4943870749e+01 5.1100000000e-04 0.0000e+00 -1.0000e+00
      -12  1    4    4    0    0 +1.5947956663e+01 +1.6710610019e+01 +2.3201210659e+01 3.2739547721e+01 0.0000000000e+00 0.0000e+00 1.0000e+00
       12  1    3    3    0    0 -1.4733051600e+01 -2.7487403637e+01 -6.6396848474e+00 3.1885821034e+01 0.0000000000e+00 0.0000e+00 -1.0000e+00
</event>
<event>
 8      4 +2.2883893e-04 9.11880000e+01 7.81616400e-03 1.18400000e-01
      -11 -1    0    0    0    0 +0.0000000000e+00 +0.0000000000e+00 +4.5593999997e+01 4.5594000000e+01 5.1100000000e-04 0.0000e+00 -1.0000e+00
       11 -1    0    0    0    0 -0.0000000000e+00 -0.0000000000e+00 -4.5593999997e+01 4.5594000000e+01 5.1100000000e-04 0.0000e+00 1.0000e+00
       23  2    1    2    0    0 +0.0000000000e+00 -1.2212453271e-15 -3.5527136788e-15 9.1188000000e+01 9.1188000000e+01 3.1304e-14 0.0000e+00
 -9990012  2    3    3    0    0 -2.4559493712e+01 -7.7777014726e-01 -2.0321102625e+01 5.9301939257e+01 4.9999991299e+01 9.7367e-04 0.0000e+00
      -11  1    4    4    0    0 -1.1154543250e+01 -8.4771267234e+00 -8.3673344622e+00 1.6318633486e+01 5.1100000000e-04 0.0000e+00 1.0000e+00
       11  1    4    4    0    0 -1.7456018281e+01 -1.0650129244e+01 +4.7436276753e-01 2.0453920099e+01 5.1100000000e-04 0.0000e+00 -1.0000e+00
      -12  1    4    4    0    0 +4.0510678179e+00 +1.8349485820e+01 -1.2428130931e+01 2.2529385672e+01 0.0000000000e+00 0.0000e+00 1.0000e+00
       12  1    3    3    0    0 +2.4559493712e+01 +7.7777014726e-01 +2.0321102625e+01 3.1886060743e+01 0.0000000000e+00 0.0000e+00 -1.0000e+00
</event>
<event>
 8      3 +2.2883893e-04 9.11880000e+01 7.81616400e-03 1.18400000e-01
      -11 -1    0    0    0    0 +0.0000000000e+00 +0.0000000000e+00 +4.5593999997e+01 4.5594000000e+01 5.1100000000e-04 0.0000e+00 1.0000e+00
       11 -1    0    0    0    0 -0.0000000000e+00 -0.0000000000e+00 -4.5593999997e+01 4.5594000000e+01 5.1100000000e-04 0.0000e+00 -1.0000e+00
       23  2    1    2    0    0 +8.8817841970e-16 +0.0000000000e+00 +1.7763568394e-15 9.1188000000e+01 9.1188000000e+01 5.2982e-15 0.0000e+00
  9990012  2    3    3    0    0 +2.2126630419e+00 +2.9733692125e+01 -1.1301897862e+01 5.9301933758e+01 4.9999981270e+01 3.7178e-05 0.0000e+00
      -11  1    4    4    0    0 -8.3662121503e+00 +9.8109854390e+00 -3.1482830248e+00 1.3272551650e+01 5.1100000000e-04 0.0000e+00 1.0000e+00
       11  1    4    4    0    0 +1.1292524480e+01 +3.1335825061e+01 -9.1733567147e+00 3.4548596427e+01 5.1100000000e-04 0.0000e+00 -1.0000e+00
       12  1    4    4    0    0 -7.1364928773e-01 -1.1413118375e+01 +1.0197418777e+00 1.1480785681e+01 0.0000000000e+00 0.0000e+00 -1.0000e+00
      -12  1    3    3    0    0 -2.2126630419e+00 -2.9733692125e+01 +1.1301897862e+01 3.1886066242e+01 0.0000000000e+00 0.0000e+00 1.0000e+00
</event>
<event>
 8      3 +2.2883893e-04 9.11880000e+01 7.81616400e-03 1.18400000e-01
      -11 -1    0    0    0    0 +0.0000000000e+00 +0.0000000000e+00 +4.5593999997e+01 4.5594000000e+01 5.1100000000e-04 0.0000e+00 -1.0000e+00
       11 -1    0    0    0    0 -0.0000000000e+00 -0.0000000000e+00 -4.5593999997e+01 4.5594000000e+01 5.1100000000e-04 0.0000e+00 1.0000e+00
       23  2    1    2    0    0 +0.0000000000e+00 +0.0000000000e+00 +0.0000000000e+00 9.1188000000e+01 9.1188000000e+01 2.5191e-13 0.0000e+00
  9990012  2    3    3    0    0 +2.3329919531e+01 -2.0593896318e+01 +6.9519483407e+00 5.9301901201e+01 4.9999921894e+01 3.1783e-03 0.0000e+00
      -11  1    4    4    0    0 +1.7146628387e+01 +1.1508818782e+00 -1.1531596855e+01 2.0695630467e+01 5.1100000000e-04 0.0000e+00 1.0000e+00
       11  1    4    4    0    0 +1.0881850368e+01 -2.8142384198e+00 -6.8269990748e-01 1.1260581012e+01 5.1100000000e-04 0.0000e+00 -1.0000e+00
       12  1    4    4    0    0 -4.6985592231e+00 -1.8930539776e+01 +1.9166245103e+01 2.7345689722e+01 0.0000000000e+00 0.0000e+00 -1.0000e+00
      -12  1    3    3    0    0 -2.3329919531e+01 +2.0593896318e+01 -6.9519483407e+00 3.1886098799e+01 0.0000000000e+00 0.0000e+00 1.0000e+00
</event>
<event>
 8      4 +2.2883893e-04 9.11880000e+01 7.81616400e-03 1.18400000e-01
      -11 -1    0    0    0    0 +0.0000000000e+00 +0.0000000000e+00 +4.5593999997e+01 4.5594000000e+01 5.1100000000e-04 0.0000e+00 1.0000e+00
       11 -1    0    0    0    0 -0.0000000000e+00 -0.0000000000e+00 -4.5593999997e+01 4.5594000000e+01 5.1100000000e-04 0.0000e+00 -1.0000e+00
       23  2    1    2    0    0 +0.0000000000e+00 -3.5527136788e-15 +0.0000000000e+00 9.1188000000e+01 9.1188000000e+01 2.5830e-14 0.0000e+00
 -9990012  2    3    3    0    0 -1.5812520483e+01 +7.3291584765e+00 +2.6701446280e+01 5.9301959144e+01 5.0000027569e+01 9.6112e-04 0.0000e+00
      -11  1    4    4    0    0 +5.1527891964e+00 -6.6583617481e+00 +7.5292926852e+00 1.1294922145e+01 5.1100000000e-04 0.0000e+00 -1.0000e+00
       11  1    4    4    0    0 -1.2034517823e+01 +1.8596122582e+01 +2.7247280022e+01 3.5114949283e+01 5.1100000000e-04 0.0000e+00 1.0000e+00
      -12  1    4    4    0    0 -8.9307918563e+00 -4.6086023570e+00 -8.0751264267e+00 1.2892087716e+01 0.0000000000e+00 0.0000e+00 1.0000e+00
       12  1    3    3    0    0 +1.5812520483e+01 -7.3291584765e+00 -2.6701446280e+01 3.1886040856e+01 0.0000000000e+00 0.0000e+00 -1.0000e+00
</event>
<event>
 8      3 +2.2883893e-04 9.11880000e+01 7.81616400e-03 1.18400000e-01
      -11 -1    0    0    0    0 +0.0000000000e+00 +0.0000000000e+00 +4.5593999997e+01 4.5594000000e+01 5.1100000000e-04 0.0000e+00 1.0000e+00
       11 -1    0    0    0    0 -0.0000000000e+00 -0.0000000000e+00 -4.5593999997e+01 4.5594000000e+01 5.1100000000e-04 0.0000e+00 -1.0000e+00
       23  2    1    2    0    0 +3.5527136788e-15 +0.0000000000e+00 +3.5527136788e-15 9.1188000000e+01 9.1188000000e+01 7.3426e-15 0.0000e+00
  9990012  2    3    3    0    0 -1.9745070150e+01 +1.4093526390e+01 -2.0693693455e+01 5.9301886563e+01 4.9999895198e+01 5.0190e-04 0.0000e+00
      -11  1    4    4    0    0 +6.4900166016e+00 +1.1699942728e+01 +8.5662994682e+00 1.5886801509e+01 5.1100000000e-04 0.0000e+00 1.0000e+00
       11  1    4    4    0    0 +2.4399192939e+00 +2.1442879078e+00 -1.8101069321e+00 3.7185567307e+00 5.1100000000e-04 0.0000e+00 -1.0000e+00
       12  1    4    4    0    0 -2.8675006045e+01 +2.4929575350e-01 -2.7449885991e+01 3.9696528324e+01 0.0000000000e+00 0.0000e+00 -1.0000e+00
      -12  1    3    3    0    0 +1.9745070150e+01 -1.4093526390e+01 +2.0693693455e+01 3.1886113437e+01 0.0000000000e+00 0.0000e+00 1.0000e+00
</event>
<event>
 8      4 +2.2883893e-04 9.11880000e+01 7.81616400e-03 1.18400000e-01
      -11 -1    0    0    0    0 +0.0000000000e+00 +0.0000000000e+00 +4.5593999997e+01 4.5594000000e+01 5.1100000000e-04 0.0000e+00 -1.0000e+00
       11 -1    0    0    0    0 -0.0000000000e+00 -0.0000000000e+00 -4.5593999997e+01 4.5594000000e+01 5.1100000000e-04 0.0000e+00 1.0000e+00
       23  2    1    2    0    0 -1.7763568394e-15 +0.0000000000e+00 +3.5527136788e-15 9.1188000000e+01 9.1188000000e+01 1.9780e-13 0.0000e+00
 -9990012  2    3    3    0    0 -1.0142399384e+01 +8.2603695353e+00 -2.9079540578e+01 5.9301927015e+01 4.9999968973e+01 1.6194e-04 0.0000e+00
      -11  1    4    4    0    0 -5.8119470511e+00 +4.6148376146e+00 -9.6595305503e+00 1.2181214449e+01 5.1100000000e-04 0.0000e+00 1.0000e+00
       11  1    4    4    0    0 -2.1529698354e+01 +5.2130510975e-01 -7.5660937908e-01 2.1549295307e+01 5.1100000000e-04 0.0000e+00 -1.0000e+00
      -12  1    4    4    0    0 +1.7199246021e+01 +3.1242268109e+00 -1.8663400649e+01 2.5571417259e+01 0.0000000000e+00 0.0000e+00 1.0000e+00
       12  1    3    3    0    0 +1.0142399384e+01 -8.2603695353e+00 +2.9079540578e+01 3.1886072985e+01 0.0000000000e+00 0.0000e+00 -1.0000e+00
</event>
<event>
 8      4 +2.2883893e-04 9.11880000e+01 7.81616400e-03 1.18400000e-01
      -11 -1    0    0    0    0 +0.0000000000e+00 +0.0000000000e+00 +4.5593999997e+01 4.5594000000e+01 5.1100000000e-04 0.0000e+00 -1.0000e+00
       11 -1    0    0    0    0 -0.0000000000e+00 -0.0000000000e+00 -4.5593999997e+01 4.5594000000e+01 5.1100000000e-04 0.0000e+00 1.0000e+00
       23  2    1    2    0    0 +3.5527136788e-15 -1.7763568394e-15 -3.5527136788e-15 9.1188000000e+01 9.1188000000e+01 3.3395e-14 0.0000e+00
 -9990012  2    3    3    0    0 +2.0988386446e+01 -8.1758856239e+00 -2.2569094936e+01 5.9301929098e+01 4.9999972772e+01 2.1949e-03 0.0000e+00
      -11  1    4    4    0    0 +2.8505396933e+00 +1.0047176908e+01 +9.4578337644e+00 1.4089782119e+01 5.1100000000e-04 0.0000e+00 -1.0000e+00
       11  1    4    4    0    0 +9.7508271520e+00 -4.0435696164e-01 -1.9682751701e+01 2.1969361609e+01 5.1100000000e-04 0.0000e+00 1.0000e+00
      -12  1    4    4    0    0 +8.3870196006e+00 -1.7818705571e+01 -1.2344176999e+01 2.3242785371e+01 0.0000000000e+00 0.0000e+00 1.0000e+00
       12  1    3    3    0    0 -2.0988386446e+01 +8.1758856239e+00 +2.2569094936e+01 3.1886070902e+01 0.0000000000e+00 0.0000e+00 -1.0000e+00
</event>
<event>
 8      3 +2.2883893e-04 9.11880000e+01 7.81616400e-03 1.18400000e-01
      -11 -1    0    0    0    0 +0.0000000000e+00 +0.0000000000e+00 +4.5593999997e+01 4.5594000000e+01 5.1100000000e-04 0.0000e+00 1.0000e+00
       11 -1    0    0    0    0 -0.0000000000e+00 -0.0000000000e+00 -4.5593999997e+01 4.5594000000e+01 5.1100000000e-04 0.0000e+00 -1.0000e+00
       23  2    1    2    0    0 +3.5527136788e-15 +0.0000000000e+00 +8.8817841970e-16 9.1188000000e+01 9.1188000000e+01 6.3780e-14 0.0000e+00
  9990012  2    3    3    0    0 -2.4583654029e+01 +1.9321478549e+01 -6.2487354871e+00 5.9301917238e+01 4.9999951141e+01 4.5288e-04 0.0000e+00
      -11  1    4    4    0    0 +2.1722715034e+00 -7.4780778878e+00 +7.9276695847e-01 7.8274447997e+00 5.1100000000e-04 0.0000e+00 -1.0000e+00
       11  1    4    4    0    0 -7.0922906160e+00 +3.0211544572e+01 -4.3656478148e+00 3.1338425180e+01 5.1100000000e-04 0.0000e+00 1.0000e+00
       12  1    4    4    0    0 -1.9663634917e+01 -3.4119881359e+00 -2.6758546308e+00 2.0136047258e+01 0.0000000000e+00 0.0000e+00 -1.0000e+00
      -12  1    3    3    0    0 +2.4583654029e+01 -1.9321478549e+01 +6.2487354871e+00 3.1886082762e+01 0.0000000000e+00 0.0000e+00 1.0000e+00
</event>
<event>
 8      4 +2.2883893e-04 9.11880000e+01 7.81616400e-03 1.18400000e-01
      -11 -1    0    0    0    0 +0.0000000000e+00 +0.0000000000e+00 +4.5593999997e+01 4.5594000000e+01 5.1100000000e-04 0.0000e+00 1.0000e+00
       11 -1    0    0    0    0 -0.0000000000e+00 -0.0000000000e+00 -4.5593999997e+01 4.5594000000e+01 5.1100000000e-04 0.0000e+00 -1.0000e+00
       23  2    1    2    0    0 +0.0000000000e+00 -4.4408920985e-16 -3.5527136788e-15 9.1188000000e+01 9.1188000000e+01 8.4359e-14 0.0000e+00
 -9990012  2    3    3    0    0 +2.7540811536e+01 +7.1465852397e-01 +1.6053449043e+01 5.9301948770e+01 5.0000008650e+01 4.2807e-04 0.0000e+00
      -11  1    4    4    0    0 +1.5835975775e+00 +6.5069120569e+00 -9.7563816573e+00 1.1833624513e+01 5.1100000000e-04 0.0000e+00 -1.0000e+00
       11  1    4    4    0    0 +5.8190597390e-01 +3.0563959812e+00 +1.9653592506e+01 1.9898338363e+01 5.1100000000e-04 0.0000e+00 1.0000e+00
      -12  1    4    4    0    0 +2.5375307984e+01 -8.8486495141e+00 +6.1562381936e+00 2.7569985894e+01 0.0000000000e+00 0.0000e+00 1.0000e+00
       12  1    3    3    0    0 -2.7540811536e+01 -7.1465852397e-01 -1.6053449043e+01 3.1886051230e+01 0.0000000000e+00 0.0000e+00 -1.0000e+00
</event>
<event>
 8      3 +2.2883893e-04 9.11880000e+01 7.81616400e-03 1.18400000e-01
      -11 -1    0    0    0    0 +0.0000000000e+00 +0.0000000000e+00 +4.5593999997e+01 4.5594000000e+01 5.1100000000e-04 0.0000e+00 -1.0000e+00
       11 -1    0    0    0    0 -0.0000000000e+00 -0.0000000000e+00 -4.5593999997e+01 4.5594000000e+01 5.1100000000e-04 0.0000e+00 1.0000e+00
       23  2    1    2    0    0 +0.0000000000e+00 -8.8817841970e-16 +0.0000000000e+00 9.1188000000e+01 9.1188000000e+01 5.2464e-14 0.0000e+00
  9990012  2    3    3    0    0 +2.2358175810e+01 +4.8752480368e+00 +2.2205019628e+01 5.9301969114e+01 5.0000045751e+01 1.1056e-03 0.0000e+00
      -11  1    4    4    0    0 -9.7917392776e+00 -5.0394935534e+00 -1.1856126691e-01 1.1013115381e+01 5.1100000000e-04 0.0000e+00 1.0000e+00
       11  1    4    4    0    0 +3.3786631848e+01 +3.2999709656e+00 +1.2174657349e+01 3.6064505845e+01 5.1100000000e-04 0.0000e+00 -1.0000e+00
       12  1    4    4    0    0 -1.6367167596e+00 +6.6147706247e+00 +1.0148923546e+01 1.2224347889e+01 0.0000000000e+00 0.0000e+00 -1.0000e+00
      -12  1    3    3    0    0 -2.2358175810e+01 -4.8752480368e+00 -2.2205019628e+01 3.1886030886e+01 0.0000000000e+00 0.0000e+00 1.0000e+00
</event>
<event>
 8      3 +2.2883893e-04 9.11880000e+01 7.81616400e-03 1.18400000e-01
      -11 -1    0    0    0    0 +0.0000000000e+00 +0.0000000000e+00 +4.5593999997e+01 4.5594000000e+01 5.1100000000e-04 0.0000e+00 1.0000e+00
       11 -1    0    0    0    0 -0.0000000000e+00 -0.0000000000e+00 -4.5593999997e+01 4.5594000000e+01 5.1100000000e-04 0.0000e+00 -1.0000e+00
       23  2    1    2    0    0 +1.7763568394e-15 +3.5527136788e-15 -7.1054273576e-15 9.1188000000e+01 9.1188000000e+01 5.1128e-14 0.0000e+00
  9990012  2    3    3    0    0 +1.4196310004e+01 +1.9138150879e+01 -2.1187651567e+01 5.9301943240e+01 4.9999998563e+01 2.4532e-05 0.0000e+00
      -11  1    4    4    0    0 +7.0293634563e+00 -1.1357914865e+01 -8.5259100007e+00 1.5846303111e+01 5.1100000000e-04 0.0000e+00 1.0000e+00
       11  1    4    4    0    0 -7.4571187231e+00 +1.5337652109e+01 -1.4400804679e+01 2.2321186517e+01 5.1100000000e-04 0.0000e+00 -1.0000e+00
       12  1    4    4    0    0 +1.4624065270e+01 +1.5158413635e+01 +1.7390631123e+00 2.1134453612e+01 0.0000000000e+00 0.0000e+00 -1.0000e+00
      -12  1    3    3    0    0 -1.4196310004e+01 -1.9138150879e+01 +2.1187651567e+01 3.1886056760e+01 0.0000000000e+00 0.0000e+00 1.0000e+00
</event>
<event>
 8      3 +2.2883893e-04 9.11880000e+01 7.81616400e-03 1.18400000e-01
      -11 -1    0    0    0    0 +0.0000000000e+00 +0.0000000000e+00 +4.5593999997e+01 4.5594000000e+01 5.1100000000e-04 0.0000e+00 -1.0000e+00
       11 -1    0    0    0    0 -0.0000000000e+00 -0.0000000000e+00 -4.5593999997e+01 4.5594000000e+01 5.1100000000e-04 0.0000e+00 1.0000e+00
       23  2    1    2    0    0 +0.0000000000e+00 +0.0000000000e+00 +0.0000000000e+00 9.1188000000e+01 9.1188000000e+01 2.9939e-14 0.0000e+00
  9990012  2    3    3    0    0 -1.5828467224e+01 -1.1644252840e+01 +2.5111575074e+01 5.9301949734e+01 5.0000010407e+01 4.5472e-04 0.0000e+00
      -11  1    4    4    0    0 +1.0406094989e+01 +3.8602379605e+00 -1.5876559792e+00 1.1211998118e+01 5.1100000000e-04 0.0000e+00 1.0000e+00
       11  1    4    4    0    0 -4.0758754817e+00 -1.1406381971e+01 -1.2622287088e+00 1.2178322223e+01 5.1100000000e-04 0.0000e+00 -1.0000e+00
       12  1    4    4    0    0 -2.2158686731e+01 -4.0981088297e+00 +2.7961459762e+01 3.5911629393e+01 0.0000000000e+00 0.0000e+00 -1.0000e+00
      -12  1    3    3    0    0 +1.5828467224e+01 +1.1644252840e+01 -2.5111575074e+01 3.1886050266e+01 0.0000000000e+00 0.0000e+00 1.0000e+00
</event>
<event>
 8      4 +2.2883893e-04 9.11880000e+01 7.81616400e-03 1.18400000e-01
      -11 -1    0    0    0    0 +0.0000000000e+00 +0.0000000000e+00 +4.5593999997e+01 4.5594000000e+01 5.1100000000e-04 0.0000e+00 1.0000e+00
       11 -1    0    0    0    0 -0.0000000000e+00 -0.0000000000e+00 -4.5593999997e+01 4.5594000000e+01 5.1100000000e-04 0.0000e+00 -1.0000e+00
       23  2    1    2    0    0 +0.0000000000e+00 -1.7763568394e-15 +0.0000000000e+00 9.1188000000e+01 9.1188000000e+01 5.9356e-14 0.0000e+00
 -9990012  2    3    3    0    0 +2.8934325935e+01 -1.1628208070e+01 -6.6565950379e+00 5.9301941954e+01 4.9999996218e+01 3.2709e-04 0.0000e+00
      -11  1    4    4    0    0 +2.5996541080e+01 +1.3221227137e+01 -1.1158137181e+01 3.1226991862e+01 5.1100000000e-04 0.0000e+00 1.0000e+00
       11  1    4    4    0    0 -1.3090206183e+00 -2.1553130462e+01 +9.1461181628e-01 2.1612206799e+01 5.1100000000e-04 0.0000e+00 -1.0000e+00
      -12  1    4    4    0    0 +4.2468054726e+00 -3.2963047460e+00 +3.5869303271e+00 6.4627432931e+00 0.0000000000e+00 0.0000e+00 1.0000e+00
       12  1    3    3    0    0 -2.8934325935e+01 +1.1628208070e+01 +6.6565950379e+00 3.1886058046e+01 0.0000000000e+00 0.0000e+00 -1.0000e+00
</event>
<event>
 8      4 +2.2883893e-04 9.11880000e+01 7.81616400e-03 1.18400000e-01
      -11 -1    0    0    0    0 +0.0000000000e+00 +0.0000000000e+00 +4.5593999997e+01 4.5594000000e+01 5.1100000000e-04 0.0000e+00 1.0000e+00
       11 -1    0    0    0    0 -0.0000000000e+00 -0.0000000000e+00 -4.5593999997e+01 4.5594000000e+01 5.1100000000e-04 0.0000e+00 -1.0000e+00
       23  2    1    2    0    0 +3.5527136788e-15 +3.5527136788e-15 +0.0000000000e+00 9.1188000000e+01 9.1188000000e+01 5.9535e-14 0.0000e+00
 -9990012  2    3    3    0    0 -8.9661703520e+00 +2.3522911945e+01 +1.9570476978e+01 5.9301903244e+01 4.9999925621e+01 2.6770e-04 0.0000e+00
      -11  1    4    4    0    0 +9.5431077824e+00 +6.9945153928e+00 +1.3159977094e+01 1.7696868341e+01 5.1100000000e-04 0.0000e+00 1.0000e+00
       11  1    4    4    0    0 -6.1267511950e+00 +1.9482945852e+01 -8.3928463387e+00 2.2080809070e+01 5.1100000000e-04 0.0000e+00 -1.0000e+00
      -12  1    4    4    0    0 -1.2382526939e+01 -2.9545492996e+00 +1.4803346223e+01 1.9524225833e+01 0.0000000000e+00 0.0000e+00 1.0000e+00
       12  1    3    3    0    0 +8.9661703520e+00 -2.3522911945e+01 -1.9570476978e+01 3.1886096756e+01 0.0000000000e+00 0.0000e+00 -1.0000e+00
</event>
<event>
 8      4 +2.2883893e-04 9.11880000e+01 7.81616400e-03 1.18400000e-01
      -11 -1    0    0    0    0 +0.0000000000e+00 +0.0000000000e+00 +4.5593999997e+01 4.5594000000e+01 5.1100000000e-04 0.0000e+00 -1.0000e+00
       11 -1    0    0    0    0 -0.0000000000e+00 -0.0000000000e+00 -4.5593999997e+01 4.5594000000e+01 5.1100000000e-04 0.0000e+00 1.0000e+00
       23  2    1    2    0    0 +0.0000000000e+00 -1.7763568394e-15 -7.1054273576e-15 9.1188000000e+01 9.1188000000e+01 2.8801e-15 0.0000e+00
 -9990012  2    3    3    0    0 -4.7235838746e+00 -1.2435184346e+01 -2.8978845780e+01 5.9301959840e+01 5.0000028838e+01 5.8874e-04 0.0000e+00
      -11  1    4    4    0    0 +2.3160185238e+00 -8.2970994614e+00 -6.2263352986e+00 1.0628878247e+01 5.1100000000e-04 0.0000e+00 1.0000e+00
       11  1    4    4    0    0 -3.2359338715e+00 -1.1292387698e+01 +9.6939042438e+00 1.5230268142e+01 5.1100000000e-04 0.0000e+00 -1.0000e+00
      -12  1    4    4    0    0 -3.8036685269e+00 +7.1543028132e+00 -3.2446414725e+01 3.3442813451e+01 0.0000000000e+00 0.0000e+00 1.0000e+00
       12  1    3    3    0    0 +4.7235838746e+00 +1.2435184346e+01 +2.8978845780e+01 3.1886040160e+01 0.0000000000e+00 0.0000e+00 -1.0000e+00
</event>
<event>
 8      4 +2.2883893e-04 9.11880000e+01 7.81616400e-03 1.18400000e-01
      -11 -1    0    0    0    0 +0.0000000000e+00 +0.0000000000e+00 +4.5593999997e+01 4.5594000000e+01 5.1100000000e-04 0.0000e+00 1.0000e+00
       11 -1    0    0    0    0 -0.0000000000e+00 -0.0000000000e+00 -4.5593999997e+01 4.5594000000e+01 5.1100000000e-04 0.0000e+00 -1.0000e+00
       23  2    1    2    0    0 +0.0000000000e+00 +0.0000000000e+00 -2.6645352591e-15 9.1188000000e+01 9.1188000000e+01 2.9078e-13 0.0000e+00
 -9990012  2    3    3    0    0 +2.2003854818e+01 -2.2435740849e+01 -5.4028739002e+00 5.9301903647e+01 4.9999926355e+01 2.5546e-04 0.0000e+00
      -11  1    4    4    0    0 +1.2113988270e+01 -9.1256622053e+00 +1.8248873039e+01 2.3728628067e+01 5.1100000000e-04 0.0000e+00 1.0000e+00
       11  1    4    4    0    0 -6.2360486431e+00 -3.4474061189e+00 -3.4837718274e+00 7.9315558395e+00 5.1100000000e-04 0.0000e+00 -1.0000e+00
      -12  1    4    4    0    0 +1.6125915191e+01 -9.8626725247e+00 -2.0167975112e+01 2.7641719740e+01 0.0000000000e+00 0.0000e+00 1.0000e+00
       12  1    3    3    0    0 -2.2003854818e+01 +2.2435740849e+01 +5.4028739002e+00 3.1886096353e+01 0.0000000000e+00 0.0000e+00 -1.0000e+00
</event>
<event>
 8      3 +2.2883893e-04 9.11880000e+01 7.81616400e-03 1.18400000e-01
      -11 -1    0    0    0    0 +0.0000000000e+00 +0.0000000000e+00 +4.5593999997e+01 4.5594000000e+01 5.1100000000e-04 0.0000e+00 -1.0000e+00
       11 -1    0    0    0    0 -0.0000000000e+00 -0.0000000000e+00 -4.5593999997e+01 4.5594000000e+01 5.1100000000e-04 0.0000e+00 1.0000e+00
       23  2    1    2    0    0 +0.0000000000e+00 +0.0000000000e+00 +3.5527136788e-15 9.1188000000e+01 9.1188000000e+01 8.2334e-15 0.0000e+00
  9990012  2    3    3    0    0 +2.7139254660e+01 +3.9109727618e+00 -1.6274846426e+01 5.9302180618e+01 5.0000431482e+01 1.6212e-04 0.0000e+00
      -11  1    4    4    0    0 +2.4410690933e+01 -7.5731176231e+00 +1.6430241057e+00 2.5611198153e+01 5.1100000000e-04 0.0000e+00 1.0000e+00
       11  1    4    4    0    0 +1.0982826212e+01 +5.7848434191e+00 +8.1683343912e-01 1.2440020181e+01 5.1100000000e-04 0.0000e+00 -1.0000e+00
       12  1    4    4    0    0 -8.2542624843e+00 +5.6992469658e+00 -1.8734703971e+01 2.1250962284e+01 0.0000000000e+00 0.0000e+00 -1.0000e+00
      -12  1    3    3    0    0 -2.7139254660e+01 -3.9109727618e+00 +1.6274846426e+01 3.1885819382e+01 0.0000000000e+00 0.0000e+00 1.0000e+00
</event>
<event>
 8      3 +2.2883893e-04 9.11880000e+01 7.81616400e-03 1.18400000e-01
      -11 -1    0    0    0    0 +0.0000000000e+00 +0.0000000000e+00 +4.5593999997e+01 4.5594000000e+01 5.1100000000e-04 0.0000e+00 1.0000e+00
       11 -1    0    0    0    0 -0.0000000000e+00 -0.0000000000e+00 -4.5593999997e+01 4.5594000000e+01 5.1100000000e-04 0.0000e+00 -1.0000e+00
       23  2    1    2    0    0 +1.7763568394e-15 +3.5527136788e-15 +0.0000000000e+00 9.1188000000e+01 9.1188000000e+01 9.0022e-14 0.0000e+00
  9990012  2    3    3    0    0 +1.5395504609e+01 +2.3433049562e+01 -1.5184780386e+01 5.9302157855e+01 5.0000389967e+01 2.2628e-03 0.0000e+00
      -11  1    4    4    0    0 -6.5864627831e-01 -7.0890069499e+00 -9.0256882683e+00 1.1495689776e+01 5.1100000000e-04 0.0000e+00 1.0000e+00
       11  1    4    4    0    0 -9.2650410729e-01 -6.3739284925e+00 -2.8887581443e+00 7.0590578809e+00 5.1100000000e-04 0.0000e+00 -1.0000e+00
       12  1    4    4    0    0 +1.6980654994e+01 +3.6895985005e+01 -3.2703339735e+00 4.0747410197e+01 0.0000000000e+00 0.0000e+00 -1.0000e+00
      -12  1    3    3    0    0 -1.5395504609e+01 -2.3433049562e+01 +1.5184780386e+01 3.1885842145e+01 0.0000000000e+00 0.0000e+00 1.0000e+00
</event>
<event>
 8      4 +2.2883893e-04 9.11880000e+01 7.81616400e-03 1.18400000e-01
      -11 -1    0    0    0    0 +0.0000000000e+00 +0.0000000000e+00 +4.5593999997e+01 4.5594000000e+01 5.1100000000e-04 0.0000e+00 -1.0000e+00
       11 -1    0    0    0    0 -0.0000000000e+00 -0.0000000000e+00 -4.5593999997e+01 4.5594000000e+01 5.1100000000e-04 0.0000e+00 1.0000e+00
       23  2    1    2    0    0 -3.5527136788e-15 -1.7763568394e-15 +0.0000000000e+00 9.1188000000e+01 9.1188000000e+01 2.2633e-13 0.0000e+00
 -9990012  2    3    3    0    0 +2.6757414585e+01 +1.3863106467e+01 +1.0419990612e+01 5.9301934697e+01 4.9999982983e+01 2.2373e-03 0.0000e+00
      -11  1    4    4    0    0 +1.4934613689e+01 +2.1531725881e+00 +7.5146198690e+00 1.6856700456e+01 5.1100000000e-04 0.0000e+00 1.0000e+00
       11  1    4    4    0    0 +1.5287498040e+01 +1.7823023915e+01 +1.5420826540e+01 2.8092163841e+01 5.1100000000e-04 0.0000e+00 -1.0000e+00
      -12  1    4    4    0    0 -3.4646971446e+00 -6.1130900363e+00 -1.2515455798e+01 1.4353070400e+01 0.0000000000e+00 0.0000e+00 1.0000e+00
       12  1    3    3    0    0 -2.6757414585e+01 -1.3863106467e+01 -1.0419990612e+01 3.1886065303e+01 0.0000000000e+00 0.0000e+00 -1.0000e+00
</event>
<event>
 8      3 +2.2883893e-04 9.11880000e+01 7.81616400e-03 1.18400000e-01
      -11 -1    0    0    0    0 +0.0000000000e+00 +0.0000000000e+00 +4.5593999997e+01 4.5594000000e+01 5.1100000000e-04 0.0000e+00 -1.0000e+00
       11 -1    0    0    0    0 -0.0000000000e+00 -0.0000000000e+00 -4.5593999997e+01 4.5594000000e+01 5.1100000000e-04 0.0000e+00 1.0000e+00
       23  2    1    2    0    0 +0.0000000000e+00 +3.5527136788e-15 +0.0000000000e+00 9.1188000000e+01 9.1188000000e+01 1.8593e-14 0.0000e+00
  9990012  2    3    3    0    0 +3.6344889709e+00 -1.5245309685e+01 +2.7768523073e+01 5.9301955229e+01 5.0000020428e+01 3.1087e-03 0.0000e+00
      -11  1    4    4    0    0 +1.8494944366e+00 +1.7777493476e+00 -9.1299312615e+00 9.4834944781e+00 5.1100000000e-04 0.0000e+00 1.0000e+00
       11  1    4    4    0    0 +1.7101954052e+00 +7.2880310437e+00 +2.9130961161e+00 8.0328260320e+00 5.1100000000e-04 0.0000e+00 -1.0000e+00
       12  1    4    4    0    0 +7.4799129141e-02 -2.4311090076e+01 +3.3985358219e+01 4.1785634719e+01 0.0000000000e+00 0.0000e+00 -1.0000e+00
      -12  1    3    3    0    0 -3.6344889709e+00 +1.5245309685e+01 -2.7768523073e+01 3.1886044771e+01 0.0000000000e+00 0.0000e+00 1.0000e+00
</event>
<event>
 8      4 +2.2883893e-04 9.11880000e+01 7.81616400e-03 1.18400000e-01
      -11 -1    0    0    0    0 +0.0000000000e+00 +0.0000000000e+00 +4.5593999997e+01 4.5594000000e+01 5.1100000000e-04 0.0000e+00 -1.0000e+00
       11 -1    0    0    0    0 -0.0000000000e+00 -0.0000000000e+00 -4.5593999997e+01 4.5594000000e+01 5.1100000000e-04 0.0000e+00 1.0000e+00
       23  2    1    2    0    0 +0.0000000000e+00 +3.5527136788e-15 +1.7763568394e-15 9.1188000000e+01 9.1188000000e+01 1.0675e-13 0.0000e+00
 -9990012  2    3    3    0    0 +2.3901008344e+01 -1.8147272374e+01 -1.0776771669e+01 5.9301945022e+01 5.0000001813e+01 1.4880e-03 0.0000e+00
      -11  1    4    4    0    0 +5.0029896124e+00 -1.5139960148e-01 -2.0727467056e+01 2.1323243603e+01 5.1100000000e-04 0.0000e+00 1.0000e+00
       11  1    4    4    0    0 +4.7350895727e+00 -1.8647319067e+00 +1.5073674716e+01 1.5909555872e+01 5.1100000000e-04 0.0000e+00 -1.0000e+00
      -12  1    4    4    0    0 +1.4162929159e+01 -1.6131140865e+01 -5.1229793291e+00 2.2069145547e+01 0.0000000000e+00 0.0000e+00 1.0000e+00
       12  1    3    3    0    0 -2.3901008344e+01 +1.8147272374e+01 +1.0776771669e+01 3.1886054978e+01 0.0000000000e+00 0.0000e+00 -1.0000e+00
</event>
<event>
 8      4 +2.2883893e-04 9.11880000e+01 7.81616400e-03 1.18400000e-01
      -11 -1    0    0    0    0 +0.0000000000e+00 +0.0000000000e+00 +4.5593999997e+01 4.5594000000e+01 5.1100000000e-04 0.0000e+00 -1.0000e+00
       11 -1    0    0    0    0 -0.0000000000e+00 -0.0000000000e+00 -4.5593999997e+01 4.5594000000e+01 5.1100000000e-04 0.0000e+00 1.0000e+00
       23  2    1    2    0    0 -3.5527136788e-15 +0.0000000000e+00 +0.0000000000e+00 9.1188000000e+01 9.1188000000e+01 6.9780e-14 0.0000e+00
 -9990012  2    3    3    0    0 -1.9570075738e+01 -1.7100744465e+01 -1.8474285782e+01 5.9301912739e+01 4.9999942937e+01 4.5178e-04 0.0000e+00
      -11  1    4    4    0    0 -3.4138408965e+01 -3.4722789630e+00 -1.3743550495e+01 3.6964481172e+01 5.1100000000e-04 0.0000e+00 1.0000e+00
       11  1    4    4    0    0 +2.3863712297e-01 -3.6430367850e+00 +1.2764934013e+00 3.8675703431e+00 5.1100000000e-04 0.0000e+00 -1.0000e+00
      -12  1    4    4    0    0 +1.4329696105e+01 -9.9854287171e+00 -6.0072286884e+00 1.8469861224e+01 0.0000000000e+00 0.0000e+00 1.0000e+00
       12  1    3    3    0    0 +1.9570075738e+01 +1.7100744465e+01 +1.8474285782e+01 3.1886087261e+01 0.0000000000e+00 0.0000e+00 -1.0000e+00
</event>
<event>
 8      4 +2.2883893e-04 9.11880000e+01 7.81616400e-03 1.18400000e-01
      -11 -1    0    0    0    0 +0.0000000000e+00 +0.0000000000e+00 +4.5593999997e+01 4.5594000000e+01 5.1100000000e-04 0.0000e+00 1.0000e+00
       11 -1    0    0    0    0 -0.0000000000e+00 -0.0000000000e+00 -4.5593999997e+01 4.5594000000e+01 5.1100000000e-04 0.0000e+00 -1.0000e+00
       23  2    1    2    0    0 -4.4408920985e-16 +0.0000000000e+00 -7.1054273576e-15 9.1188000000e+01 9.1188000000e+01 1.0114e-13 0.0000e+00
 -9990012  2    3    3    0    0 -1.5726775222e+00 +2.2977655382e+01 +2.2051625241e+01 5.9301950743e+01 5.0000012246e+01 1.4876e-03 0.0000e+00
      -11  1    4    4    0    0 -1.5502659411e+01 +5.8476587318e+00 -7.7479450506e+00 1.8290932569e+01 5.1100000000e-04 0.0000e+00 1.0000e+00
       11  1    4    4    0    0 +8.1619898323e+00 +1.8523792809e+01 +1.5392875891e+01 2.5430092539e+01 5.1100000000e-04 0.0000e+00 -1.0000e+00
      -12  1    4    4    0    0 +5.7679920566e+00 -1.3937961589e+00 +1.4406694401e+01 1.5580925635e+01 0.0000000000e+00 0.0000e+00 1.0000e+00
       12  1    3    3    0    0 +1.5726775222e+00 -2.2977655382e+01 -2.2051625241e+01 3.1886049257e+01 0.0000000000e+00 0.0000e+00 -1.0000e+00
</event>
<event>
 8      3 +2.2883893e-04 9.11880000e+01 7.81616400e-03 1.18400000e-01
      -11 -1    0    0    0    0 +0.0000000000e+00 +0.0000000000e+00 +4.5593999997e+01 4.5594000000e+01 5.1100000000e-04 0.0000e+00 -1.0000e+00
       11 -1    0    0    0    0 -0.0000000000e+00 -0.0000000000e+00 -4.5593999997e+01 4.5594000000e+01 5.1100000000e-04 0.0000e+00 1.0000e+00
       23  2    1    2    0    0 +3.5527136788e-15 -1.7763568394e-15 +0.0000000000e+00 9.1188000000e+01 9.1188000000e+01 3.5896e-14 0.0000e+00
  9990012  2    3    3    0    0 +9.6431580963e+00 -8.3841597405e+00 +2.9213563849e+01 5.9302000794e+01 5.0000103528e+01 3.3877e-03 0.0000e+00
      -11  1    4    4    0    0 +1.5070989458e+01 -1.0793468581e+01 +4.0489214343e+00 1.8974389379e+01 5.1100000000e-04 0.0000e+00 1.0000e+00
       11  1    4    4    0    0 -1.5976587845e+01 +9.5840700857e+00 +1.6677671741e+01 2.5005009369e+01 5.1100000000e-04 0.0000e+00 -1.0000e+00
       12  1    4    4    0    0 +1.0548756483e+01 -7.1747612452e+00 +8.4869706732e+00 1.5322602046e+01 0.0000000000e+00 0.0000e+00 -1.0000e+00
      -12  1    3    3    0    0 -9.6431580963e+00 +8.3841597405e+00 -2.9213563849e+01 3.1885999206e+01 0.0000000000e+00 0.0000e+00 1.0000e+00
</event>
<event>
 8      3 +2.2883893e-04 9.11880000e+01 7.81616400e-03 1.18400000e-01
      -11 -1    0    0    0    0 +0.0000000000e+00 +0.0000000000e+00 +4.5593999997e+01 4.5594000000e+01 5.1100000000e-04 0.0000e+00 1.0000e+00
       11 -1    0    0    0    0 -0.0000000000e+00 -0.0000000000e+00 -4.5593999997e+01 4.5594000000e+01 5.1100000000e-04 0.0000e+00 -1.0000e+00
       23  2    1    2    0    0 +0.0000000000e+00 +0.0000000000e+00 -3.5527136788e-15 9.1188000000e+01 9.1188000000e+01 7.3784e-14 0.0000e+00
  9990012  2    3    3    0    0 +1.8943354417e+01 +5.8741210045e+00 -2.4967232942e+01 5.9301973359e+01 5.0000053493e+01 4.3985e-03 0.0000e+00
      -11  1    4    4    0    0 +2.8908968253e+00 -5.5145710980e-01 -1.7824047165e+01 1.8065382559e+01 5.1100000000e-04 0.0000e+00 1.0000e+00
       11  1    4    4    0    0 +3.9942777749e+00 +1.3425756124e+01 +1.1383420497e+01 1.8049582957e+01 5.1100000000e-04 0.0000e+00 -1.0000e+00
       12  1    4    4    0    0 +1.2058179817e+01 -7.0001780095e+00 -1.8526606275e+01 2.3187007843e+01 0.0000000000e+00 0.0000e+00 -1.0000e+00
      -12  1    3    3    0    0 -1.8943354417e+01 -5.8741210045e+00 +2.4967232942e+01 3.1886026641e+01 0.0000000000e+00 0.0000e+00 1.0000e+00
</event>
<event>
 8      3 +2.2883893e-04 9.11880000e+01 7.81616400e-03 1.18400000e-01
      -11 -1    0    0    0    0 +0.0000000000e+00 +0.0000000000e+00 +4.5593999997e+01 4.5594000000e+01 5.1100000000e-04 0.0000e+00 -1.0000e+00
       11 -1    0    0    0    0 -0.0000000000e+00 -0.0000000000e+00 -4.5593999997e+01 4.5594000000e+01 5.1100000000e-04 0.0000e+00 1.0000e+00
       23  2    1    2    0    0 -3.5527136788e-15 -1.7763568394e-15 +0.0000000000e+00 9.1188000000e+01 9.1188000000e+01 8.4236e-14 0.0000e+00
  9990012  2    3    3    0    0 +3.0426228077e+01 +6.8165448758e+00 +6.6701252855e+00 5.9302090724e+01 5.0000267538e+01 4.3785e-03 0.0000e+00
      -11  1    4    4    0    0 -9.9460682882e+00 +7.4854602300e-01 +1.6762397174e+00 1.0114068192e+01 5.1100000000e-04 0.0000e+00 1.0000e+00
       11  1    4    4    0    0 +3.6840879439e+01 -3.1001116015e+00 -2.1608839293e+00 3.7034180285e+01 5.1100000000e-04 0.0000e+00 -1.0000e+00
       12  1    4    4    0    0 +3.5314169263e+00 +9.1681104544e+00 +7.1547694974e+00 1.2153842247e+01 0.0000000000e+00 0.0000e+00 -1.0000e+00
      -12  1    3    3    0    0 -3.0426228077e+01 -6.8165448758e+00 -6.6701252855e+00 3.1885909276e+01 0.0000000000e+00 0.0000e+00 1.0000e+00
</event>
<event>
 8      3 +2.2883893e-04 9.11880000e+01 7.81616400e-03 1.18400000e-01
      -11 -1    0    0    0    0 +0.0000000000e+00 +0.0000000000e+00 +4.5593999997e+01 4.5594000000e+01 5.1100000000e-04 0.0000e+00 1.0000e+00
       11 -1    0    0    0    0 -0.0000000000e+00 -0.0000000000e+00 -4.5593999997e+01 4.5594000000e+01 5.1100000000e-04 0.0000e+00 -1.0000e+00
       23  2    1    2    0    0 -7.1054273576e-15 +0.0000000000e+00 -6.6613381478e-16 9.1188000000e+01 9.1188000000e+01 3.9389e-14 0.0000e+00
  9990012  2    3    3    0    0 -2.8360840085e+01 +1.4490800445e+01 +1.5498095986e+00 5.9301914356e+01 4.9999945886e+01 1.4257e-03 0.0000e+00
      -11  1    4    4    0    0 -2.6826071014e+01 +6.1871325014e+00 +1.0659534398e+00 2.7550951919e+01 5.1100000000e-04 0.0000e+00 1.0000e+00
       11  1    4    4    0    0 +1.1194403037e+01 -4.1696039345e+00 -5.2232271189e+00 1.3037728258e+01 5.1100000000e-04 0.0000e+00 -1.0000e+00
       12  1    4    4    0    0 -1.2729172108e+01 +1.2473271879e+01 +5.7070832777e+00 1.8713234179e+01 0.0000000000e+00 0.0000e+00 -1.0000e+00
      -12  1    3    3    0    0 +2.8360840085e+01 -1.4490800445e+01 -1.5498095986e+00 3.1886085644e+01 0.0000000000e+00 0.0000e+00 1.0000e+00
</event>
<event>
 8      3 +2.2883893e-04 9.11880000e+01 7.81616400e-03 1.18400000e-01
      -11 -1    0    0    0    0 +0.0000000000e+00 +0.0000000000e+00 +4.5593999997e+01 4.5594000000e+01 5.1100000000e-04 0.0000e+00 1.0000e+00
       11 -1    0    0    0    0 -0.0000000000e+00 -0.0000000000e+00 -4.5593999997e+01 4.5594000000e+01 5.1100000000e-04 0.0000e+00 -1.0000e+00
       23  2    1    2    0    0 +1.7763568394e-15 +0.0000000000e+00 +0.0000000000e+00 9.1188000000e+01 9.1188000000e+01 1.0179e-14 0.0000e+00
  9990012  2    3    3    0    0 -9.9941263355e+00 -1.4351717775e+01 +2.6662002617e+01 5.9302003891e+01 5.0000109176e+01 1.0848e-03 0.0000e+00
      -11  1    4    4    0    0 +1.0168854011e+00 -9.1969040921e+00 +1.9051813146e+01 2.1179912304e+01 5.1100000000e-04 0.0000e+00 1.0000e+00
       11  1    4    4    0    0 +2.3720422023e+00 +1.2506416368e-01 +1.9385610206e+01 1.9530594168e+01 5.1100000000e-04 0.0000e+00 -1.0000e+00
       12  1    4    4    0    0 -1.3383053939e+01 -5.2798778464e+00 -1.1775420734e+01 1.8591497419e+01 0.0000000000e+00 0.0000e+00 -1.0000e+00
      -12  1    3    3    0    0 +9.9941263355e+00 +1.4351717775e+01 -2.6662002617e+01 3.1885996109e+01 0.0000000000e+00 0.0000e+00 1.0000e+00
</event>
<event>
 8      3 +2.2883893e-04 9.11880000e+01 7.81616400e-03 1.18400000e-01
      -11 -1    0    0    0    0 +0.0000000000e+00 +0.0000000000e+00 +4.5593999997e+01 4.5594000000e+01 5.1100000000e-04 0.0000e+00 -1.0000e+00
       11 -1    0    0    0    0 -0.0000000000e+00 -0.0000000000e+00 -4.5593999997e+01 4.5594000000e+01 5.1100000000e-04 0.0000e+00 1.0000e+00
       23  2    1    2    0    0 +0.0000000000e+00 -1.7763568394e-15 -3.5527136788e-15 9.1188000000e+01 9.1188000000e+01 4.8927e-14 0.0000e+00
  9990012  2    3    3    0    0 +1.4001112089e+01 -9.8067220556e+00 +2.6916836855e+01 5.9301967894e+01 5.0000043525e+01 9.1901e-04 0.0000e+00
      -11  1    4    4    0    0 -8.7356690362e+00 +1.2954371709e+01 +1.3377073575e+01 2.0568756831e+01 5.1100000000e-04 0.0000e+00 1.0000e+00
       11  1    4    4    0    0 +1.1995063157e+01 -5.1543525497e+00 -1.5928286319e+00 1.3152413986e+01 5.1100000000e-04 0.0000e+00 -1.0000e+00
       12  1    4    4    0    0 +1.0741717969e+01 -1.7606741214e+01 +1.5132591912e+01 2.5580797077e+01 0.0000000000e+00 0.0000e+00 -1.0000e+00
      -12  1    3    3    0    0 -1.4001112089e+01 +9.8067220556e+00 -2.6916836855e+01 3.1886032106e+01 0.0000000000e+00 0.0000e+00 1.0000e+00
</event>
<event>
 8      3 +2.2883893e-04 9.11880000e+01 7.81616400e-03 1.18400000e-01
      -11 -1    0    0    0    0 +0.0000000000e+00 +0.0000000000e+00 +4.5593999997e+01 4.5594000000e+01 5.1100000000e-04 0.0000e+00 1.0000e+00
       11 -1    0    0    0    0 -0.0000000000e+00 -0.0000000000e+00 -4.5593999997e+01 4.5594000000e+01 5.1100000000e-04 0.0000e+00 -1.0000e+00
       23  2    1    2    0    0 +0.0000000000e+00 +0.0000000000e+00 +0.0000000000e+00 9.1188000000e+01 9.1188000000e+01 1.9353e-14 0.0000e+00
  9990012  2    3    3    0    0 +1.7174058178e+01 +2.5894710316e+01 -7.1580602848e+00 5.9301919593e+01 4.9999955438e+01 1.9333e-04 0.0000e+00
      -11  1    4    4    0    0 +2.5912208965e+00 +7.7040196881e+00 +1.0869833675e+01 1.3572753202e+01 5.1100000000e-04 0.0000e+00 1.0000e+00
       11  1    4    4    0    0 -4.4083842233e+00 +1.2704522441e+01 -2.1791029789e+01 2.5606400009e+01 5.1100000000e-04 0.0000e+00 -1.0000e+00
       12  1    4    4    0    0 +1.8991221505e+01 +5.4861681867e+00 +3.7631358284e+00 2.0122766382e+01 0.0000000000e+00 0.0000e+00 -1.0000e+00
      -12  1    3    3    0    0 -1.7174058178e+01 -2.5894710316e+01 +7.1580602848e+00 3.1886080407e+01 0.0000000000e+00 0.0000e+00 1.0000e+00
</event>
<event>
 8      3 +2.2883893e-04 9.11880000e+01 7.81616400e-03 1.18400000e-01
      -11 -1    0    0    0    0 +0.0000000000e+00 +0.0000000000e+00 +4.5593999997e+01 4.5594000000e+01 5.1100000000e-04 0.0000e+00 -1.0000e+00
       11 -1    0    0    0    0 -0.0000000000e+00 -0.0000000000e+00 -4.5593999997e+01 4.5594000000e+01 5.1100000000e-04 0.0000e+00 1.0000e+00
       23  2    1    2    0    0 -1.7763568394e-15 -1.6653345369e-16 -3.5527136788e-15 9.1188000000e+01 9.1188000000e+01 2.4276e-14 0.0000e+00
  9990012  2    3    3    0    0 +1.5746225541e+01 +3.2426546931e-01 +2.7724908027e+01 5.9301963997e+01 5.0000036420e+01 9.9630e-05 0.0000e+00
      -11  1    4    4    0    0 +1.5254033151e+01 -1.3803262581e+01 +2.8365310661e+01 3.5040068984e+01 5.1100000000e-04 0.0000e+00 1.0000e+00
       11  1    4    4    0    0 -3.0279535587e+00 -4.3677384883e+00 +8.2223296551e-01 5.3778908102e+00 5.1100000000e-04 0.0000e+00 -1.0000e+00
       12  1    4    4    0    0 +3.5201459484e+00 +1.8495266538e+01 -1.4626356002e+00 1.8884004203e+01 0.0000000000e+00 0.0000e+00 -1.0000e+00
      -12  1    3    3    0    0 -1.5746225541e+01 -3.2426546931e-01 -2.7724908027e+01 3.1886036003e+01 0.0000000000e+00 0.0000e+00 1.0000e+00
</event>
<event>
 8      4 +2.2883893e-04 9.11880000e+01 7.81616400e-03 1.18400000e-01
      -11 -1    0    0    0    0 +0.0000000000e+00 +0.0000000000e+00 +4.5593999997e+01 4.5594000000e+01 5.1100000000e-04 0.0000e+00 1.0000e+00
       11 -1    0    0    0    0 -0.0000000000e+00 -0.0000000000e+00 -4.5593999997e+01 4.5594000000e+01 5.1100000000e-04 0.0000e+00 -1.0000e+00
       23  2    1    2    0    0 +3.5527136788e-15 +1.7763568394e-15 -8.8817841970e-16 9.1188000000e+01 9.1188000000e+01 1.7860e-13 0.0000e+00
 -9990012  2    3    3    0    0 -2.8008362999e+01 +1.3865226379e+01 -6.3254548294e+00 5.9301885793e+01 4.9999893794e+01 2.1351e-03 0.0000e+00
      -11  1    4    4    0    0 +3.6542112909e-01 +1.3860095905e+01 +2.9397700464e+00 1.4173145003e+01 5.1100000000e-04 0.0000e+00 1.0000e+00
       11  1    4    4    0    0 -8.7072965409e+00 +1.4978091768e+01 -1.0711236022e+01 2.0368868978e+01 5.1100000000e-04 0.0000e+00 -1.0000e+00
      -12  1    4    4    0    0 -1.9666487587e+01 -1.4972961294e+01 +1.4460111462e+00 2.4759871812e+01 0.0000000000e+00 0.0000e+00 1.0000e+00
       12  1    3    3    0    0 +2.8008362999e+01 -1.3865226379e+01 +6.3254548294e+00 3.1886114207e+01 0.0000000000e+00 0.0000e+00 -1.0000e+00
</event>
<event>
 8      4 +2.2883893e-04 9.11880000e+01 7.81616400e-03 1.18400000e-01
      -11 -1    0    0    0    0 +0.0000000000e+00 +0.0000000000e+00 +4.5593999997e+01 4.5594000000e+01 5.1100000000e-04 0.0000e+00 1.0000e+00
       11 -1    0    0    0    0 -0.0000000000e+00 -0.0000000000e+00 -4.5593999997e+01 4.5594000000e+01 5.1100000000e-04 0.0000e+00 -1.0000e+00
       23  2    1    2    0    0 +3.5527136788e-15 +0.0000000000e+00 -1.7763568394e-15 9.1188000000e+01 9.1188000000e+01 6.5726e-16 0.0000e+00
 -9990012  2    3    3    0    0 +2.1816089615e+01 -1.8031573462e+01 -1.4684725738e+01 5.9301943837e+01 4.9999999652e+01 3.4240e-03 0.0000e+00
      -11  1    4    4    0    0 -5.3957895850e+00 -2.2490273584e+00 +4.9587613414e+00 7.6656365428e+00 5.1100000000e-04 0.0000e+00 1.0000e+00
       11  1    4    4    0    0 +5.4989281823e+00 -8.6541509064e+00 -2.5972329559e+01 2.7923009187e+01 5.1100000000e-04 0.0000e+00 -1.0000e+00
      -12  1    4    4    0    0 +2.1712951018e+01 -7.1283951968e+00 +6.3288424793e+00 2.3713298107e+01 0.0000000000e+00 0.0000e+00 1.0000e+00
       12  1    3    3    0    0 -2.1816089615e+01 +1.8031573462e+01 +1.4684725738e+01 3.1886056163e+01 0.0000000000e+00 0.0000e+00 -1.0000e+00
</event>
<event>
 8      3 +2.2883893e-04 9.11880000e+01 7.81616400e-03 1.18400000e-01
      -11 -1    0    0    0    0 +0.0000000000e+00 +0.0000000000e+00 +4.5593999997e+01 4.5594000000e+01 5.1100000000e-04 0.0000e+00 1.0000e+00
       11 -1    0    0    0    0 -0.0000000000e+00 -0.0000000000e+00 -4.5593999997e+01 4.5594000000e+01 5.1100000000e-04 0.0000e+00 -1.0000e+00
       23  2    1    2    0    0 -1.7763568394e-15 +0.0000000000e+00 -7.1054273576e-15 9.1188000000e+01 9.1188000000e+01 2.9040e-14 0.0000e+00
  9990012  2    3    3    0    0 -8.9526004965e+00 +9.3885509442e+00 -2.9127768974e+01 5.9301939254e+01 4.9999991294e+01 2.3016e-03 0.0000e+00
      -11  1    4    4    0    0 -9.0571675288e+00 -3.6655028477e+00 +5.4534052673e+00 1.1189630201e+01 5.1100000000e-04 0.0000e+00 1.0000e+00
       11  1    4    4    0    0 +6.1922376922e+00 -3.7062366713e+00 +1.9378942977e+00 7.4723110529e+00 5.1100000000e-04 0.0000e+00 -1.0000e+00
       12  1    4    4    0    0 -6.0876706599e+00 +1.6760290463e+01 -3.6519068539e+01 4.0639998000e+01 0.0000000000e+00 0.0000e+00 -1.0000e+00
      -12  1    3    3    0    0 +8.9526004965e+00 -9.3885509442e+00 +2.9127768974e+01 3.1886060746e+01 0.0000000000e+00 0.0000e+00 1.0000e+00
</event>
<event>
 8      4 +2.2883893e-04 9.11880000e+01 7.81616400e-03 1.18400000e-01
      -11 -1    0    0    0    0 +0.0000000000e+00 +0.0000000000e+00 +4.5593999997e+01 4.5594000000e+01 5.1100000000e-04 0.0000e+00 1.0000e+00
       11 -1    0    0    0    0 -0.0000000000e+00 -0.0000000000e+00 -4.5593999997e+01 4.5594000000e+01 5.1100000000e-04 0.0000e+00 -1.0000e+00
       23  2    1    2    0    0 +3.5527136788e-15 +2.6645352591e-15 -1.7763568394e-15 9.1188000000e+01 9.1188000000e+01 2.1826e-15 0.0000e+00
 -9990012  2    3    3    0    0 +2.9621254415e+01 +5.8142458013e+00 -1.0271191190e+01 5.9301928812e+01 4.9999972250e+01 2.5357e-03 0.0000e+00
      -11  1    4    4    0    0 +1.0942657446e+01 +2.1834847850e+01 -1.1057066009e+01 2.6809719163e+01 5.1100000000e-04 0.0000e+00 1.0000e+00
       11  1    4    4    0    0 +7.3653870174e+00 -1.0593888825e+01 -9.6983391910e+00 1.6141164446e+01 5.1100000000e-04 0.0000e+00 -1.0000e+00
      -12  1    4    4    0    0 +1.1313209951e+01 -5.4267132240e+00 +1.0484214010e+01 1.6351045203e+01 0.0000000000e+00 0.0000e+00 1.0000e+00
       12  1    3    3    0    0 -2.9621254415e+01 -5.8142458013e+00 +1.0271191190e+01 3.1886071188e+01 0.0000000000e+00 0.0000e+00 -1.0000e+00
</event>
<event>
 8      4 +2.2883893e-04 9.11880000e+01 7.81616400e-03 1.18400000e-01
      -11 -1    0    0    0    0 +0.0000000000e+00 +0.0000000000e+00 +4.5593999997e+01 4.5594000000e+01 5.1100000000e-04 0.0000e+00 -1.0000e+00
       11 -1    0    0    0    0 -0.0000000000e+00 -0.0000000000e+00 -4.5593999997e+01 4.5594000000e+01 5.1100000000e-04 0.0000e+00 1.0000e+00
       23  2    1    2    0    0 +0.0000000000e+00 +0.0000000000e+00 -8.8817841970e-16 9.1188000000e+01 9.1188000000e+01 2.7195e-14 0.0000e+00
 -9990012  2    3    3    0    0 -2.5524018569e+01 -1.7442650083e+01 -7.8102186537e+00 5.9301935940e+01 4.9999985250e+01 6.6349e-05 0.0000e+00
      -11  1    4    4    0    0 +4.1473638889e+00 -2.5195614176e+00 +1.3465594796e-01 4.8545802547e+00 5.1100000000e-04 0.0000e+00 1.0000e+00
       11  1    4    4    0    0 +8.1720477905e+00 -5.1980450215e+00 +7.6854640035e+00 1.2363995889e+01 5.1100000000e-04 0.0000e+00 -1.0000e+00
      -12  1    4    4    0    0 -3.7843430248e+01 -9.7250436438e+00 -1.5630338605e+01 4.2083359796e+01 0.0000000000e+00 0.0000e+00 1.0000e+00
       12  1    3    3    0    0 +2.5524018569e+01 +1.7442650083e+01 +7.8102186537e+00 3.1886064060e+01 0.0000000000e+00 0.0000e+00 -1.0000e+00
</event>
<event>
 8      4 +2.2883893e-04 9.11880000e+01 7.81616400e-03 1.18400000e-01
      -11 -1    0    0    0    0 +0.0000000000e+00 +0.0000000000e+00 +4.5593999997e+01 4.5594000000e+01 5.1100000000e-04 0.0000e+00 -1.0000e+00
       11 -1    0    0    0    0 -0.0000000000e+00 -0.0000000000e+00 -4.5593999997e+01 4.5594000000e+01 5.1100000000e-04 0.0000e+00 1.0000e+00
       23  2    1    2    0    0 +3.5527136788e-15 -8.8817841970e-16 -1.7763568394e-15 9.1188000000e+01 9.1188000000e+01 6.8572e-14 0.0000e+00
 -9990012  2    3    3    0    0 -3.1014849528e+01 -4.1197779241e+00 -6.1502647759e+00 5.9301965154e+01 5.0000038529e+01 6.2103e-05 0.0000e+00
      -11  1    4    4    0    0 -6.5527243736e+00 +5.7377391669e+00 -1.9849356697e+01 2.1676180684e+01 5.1100000000e-04 0.0000e+00 1.0000e+00
       11  1    4    4    0    0 -3.3357915679e+00 -8.6191035859e+00 +1.3624082119e+01 1.6463051535e+01 5.1100000000e-04 0.0000e+00 -1.0000e+00
      -12  1    4    4    0    0 -2.1126333587e+01 -1.2384135051e+00 +7.5009802829e-02 2.1162732935e+01 0.0000000000e+00 0.0000e+00 1.0000e+00
       12  1    3    3    0    0 +3.1014849528e+01 +4.1197779241e+00 +6.1502647759e+00 3.1886034846e+01 0.0000000000e+00 0.0000e+00 -1.0000e+00
</event>
<event>
 8      3 +2.2883893e-04 9.11880000e+01 7.81616400e-03 1.18400000e-01
      -11 -1    0    0    0    0 +0.0000000000e+00 +0.0000000000e+00 +4.5593999997e+01 4.5594000000e+01 5.1100000000e-04 0.0000e+00 -1.0000e+00
       11 -1    0    0    0    0 -0.0000000000e+00 -0.0000000000e+00 -4.5593999997e+01 4.5594000000e+01 5.1100000000e-04 0.0000e+00 1.0000e+00
       23  2    1    2    0    0 +1.1102230246e-15 +3.5527136788e-15 +3.5527136788e-15 9.1188000000e+01 9.1188000000e+01 5.8473e-14 0.0000e+00
  9990012  2    3    3    0    0 +5.8211382761e-01 -1.9314913904e+01 +2.5363662938e+01 5.9301950491e+01 5.0000011788e+01 3.2133e-03 0.0000e+00
      -11  1    4    4    0    0 +1.5784690279e+01 -1.6061072918e+01 +1.8706812788e+01 2.9275576090e+01 5.1100000000e-04 0.0000e+00 -1.0000e+00
       11  1    4    4    0    0 -2.7043635475e+00 +1.0331172250e+01 +1.0331553180e+00 1.0729124495e+01 5.1100000000e-04 0.0000e+00 1.0000e+00
       12  1    4    4    0    0 -1.2498212903e+01 -1.3585013236e+01 +5.6236948323e+00 1.9297249907e+01 0.0000000000e+00 0.0000e+00 -1.0000e+00
      -12  1    3    3    0    0 -5.8211382761e-01 +1.9314913904e+01 -2.5363662938e+01 3.1886049509e+01 0.0000000000e+00 0.0000e+00 1.0000e+00
</event>
<event>
 8      3 +2.2883893e-04 9.11880000e+01 7.81616400e-03 1.18400000e-01
      -11 -1    0    0    0    0 +0.0000000000e+00 +0.0000000000e+00 +4.5593999997e+01 4.5594000000e+01 5.1100000000e-04 0.0000e+00 -1.0000e+00
       11 -1    0    0    0    0 -0.0000000000e+00 -0.0000000000e+00 -4.5593999997e+01 4.5594000000e+01 5.1100000000e-04 0.0000e+00 1.0000e+00
       23  2    1    2    0    0 -4.4408920985e-16 +0.0000000000e+00 +3.5527136788e-15 9.1188000000e+01 9.1188000000e+01 8.8784e-14 0.0000e+00
  9990012  2    3    3    0    0 -2.5985369708e+00 -1.3227944192e+01 +2.8896217406e+01 5.9301917106e+01 4.9999950902e+01 7.7826e-04 0.0000e+00
      -11  1    4    4    0    0 +3.9947926329e+00 -2.5604623690e+01 +2.4832712760e+01 3.5891764316e+01 5.1100000000e-04 0.0000e+00 1.0000e+00
       11  1    4    4    0    0 +2.3010743564e+00 -2.2507565813e+00 -3.4466086118e+00 4.7159261621e+00 5.1100000000e-04 0.0000e+00 -1.0000e+00
       12  1    4    4    0    0 -8.8944039600e+00 +1.4627436080e+01 +7.5101132581e+00 1.8694226628e+01 0.0000000000e+00 0.0000e+00 -1.0000e+00
      -12  1    3    3    0    0 +2.5985369708e+00 +1.3227944192e+01 -2.8896217406e+01 3.1886082894e+01 0.0000000000e+00 0.0000e+00 1.0000e+00
</event>
<event>
 8      3 +2.2883893e-04 9.11880000e+01 7.81616400e-03 1.18400000e-01
      -11 -1    0    0    0    0 +0.0000000000e+00 +0.0000000000e+00 +4.5593999997e+01 4.5594000000e+01 5.1100000000e-04 0.0000e+00 1.0000e+00
       11 -1    0    0    0    0 -0.0000000000e+00 -0.0000000000e+00 -4.5593999997e+01 4.5594000000e+01 5.1100000000e-04 0.0000e+00 -1.0000e+00
       23  2    1    2    0    0 +7.1054273576e-15 +0.0000000000e+00 -8.8817841970e-16 9.1188000000e+01 9.1188000000e+01 3.2116e-14 0.0000e+00
  9990012  2    3    3    0    0 +2.4896179398e+01 +1.8978639659e+01 -6.0590666103e+00 5.9301940349e+01 4.9999993290e+01 1.1624e-03 0.0000e+00
      -11  1    4    4    0    0 -2.2407612651e-01 +6.5093062043e-02 +1.7065686552e+01 1.7067281710e+01 5.1100000000e-04 0.0000e+00 1.0000e+00
       11  1    4    4    0    0 -1.3985222091e+00 +1.8437387937e+00 -5.8158948655e+00 6.2593825939e+00 5.1100000000e-04 0.0000e+00 -1.0000e+00
       12  1    4    4    0    0 +2.6518777733e+01 +1.7069807804e+01 -1.7308858297e+01 3.5975276044e+01 0.0000000000e+00 0.0000e+00 -1.0000e+00
      -12  1    3    3    0    0 -2.4896179398e+01 -1.8978639659e+01 +6.0590666103e+00 3.1886059651e+01 0.0000000000e+00 0.0000e+00 1.0000e+00
</event>
<event>
 8      3 +2.2883893e-04 9.11880000e+01 7.81616400e-03 1.18400000e-01
      -11 -1    0    0    0    0 +0.0000000000e+00 +0.0000000000e+00 +4.5593999997e+01 4.5594000000e+01 5.1100000000e-04 0.0000e+00 -1.0000e+00
       11 -1    0    0    0    0 -0.0000000000e+00 -0.0000000000e+00 -4.5593999997e+01 4.5594000000e+01 5.1100000000e-04 0.0000e+00 1.0000e+00
       23  2    1    2    0    0 +0.0000000000e+00 +0.0000000000e+00 +1.7763568394e-15 9.1188000000e+01 9.1188000000e+01 2.7447e-13 0.0000e+00
  9990012  2    3    3    0    0 +9.3875946102e+00 -2.8783712855e+01 +1.0004404543e+01 5.9301997294e+01 5.0000097146e+01 4.0282e-04 0.0000e+00
      -11  1    4    4    0    0 -3.2878050823e+00 +3.0421539810e+00 +2.3748963536e+00 5.0699601630e+00 5.1100000000e-04 0.0000e+00 1.0000e+00
       11  1    4    4    0    0 +6.0868522784e-01 +1.1594961028e+00 +1.7656977078e+01 1.7705472846e+01 5.1100000000e-04 0.0000e+00 -1.0000e+00
       12  1    4    4    0    0 +1.2066714465e+01 -3.2985362939e+01 -1.0027468889e+01 3.6526564285e+01 0.0000000000e+00 0.0000e+00 -1.0000e+00
      -12  1    3    3    0    0 -9.3875946102e+00 +2.8783712855e+01 -1.0004404543e+01 3.1886002706e+01 0.0000000000e+00 0.0000e+00 1.0000e+00
</event>
<event>
 8      3 +2.2883893e-04 9.11880000e+01 7.81616400e-03 1.18400000e-01
      -11 -1    0    0    0    0 +0.0000000000e+00 +0.0000000000e+00 +4.5593999997e+01 4.5594000000e+01 5.1100000000e-04 0.0000e+00 -1.0000e+00
       11 -1    0    0    0    0 -0.0000000000e+00 -0.0000000000e+00 -4.5593999997e+01 4.5594000000e+01 5.1100000000e-04 0.0000e+00 1.0000e+00
       23  2    1    2    0    0 +8.8817841970e-16 +0.0000000000e+00 +0.0000000000e+00 9.1188000000e+01 9.1188000000e+01 5.6054e-14 0.0000e+00
  9990012  2    3    3    0    0 -5.1562398086e+00 -3.1044561631e+01 +5.1351330262e+00 5.9301933967e+01 4.9999981652e+01 6.1994e-04 0.0000e+00
      -11  1    4    4    0    0 +7.5758749157e+00 -2.2309656135e+01 +1.0977078340e+01 2.5992515975e+01 5.1100000000e-04 0.0000e+00 1.0000e+00
       11  1    4    4    0    0 -6.6017295221e+00 -1.8725713981e+01 +7.3442926163e-01 1.9868935134e+01 5.1100000000e-04 0.0000e+00 -1.0000e+00
       12  1    4    4    0    0 -6.1303852022e+00 +9.9908084844e+00 -6.5763745751e+00 1.3440482858e+01 0.0000000000e+00 0.0000e+00 -1.0000e+00
      -12  1    3    3    0    0 +5.1562398086e+00 +3.1044561631e+01 -5.1351330262e+00 3.1886066033e+01 0.0000000000e+00 0.0000e+00 1.0000e+00
</event>
<event>
 8      4 +2.2883893e-04 9.11880000e+01 7.81616400e-03 1.18400000e-01
      -11 -1    0    0    0    0 +0.0000000000e+00 +0.0000000000e+00 +4.5593999997e+01 4.5594000000e+01 5.1100000000e-04 0.0000e+00 -1.0000e+00
       11 -1    0    0    0    0 -0.0000000000e+00 -0.0000000000e+00 -4.5593999997e+01 4.5594000000e+01 5.1100000000e-04 0.0000e+00 1.0000e+00
       23  2    1    2    0    0 +0.0000000000e+00 +8.8817841970e-16 +0.0000000000e+00 9.1188000000e+01 9.1188000000e+01 5.5124e-15 0.0000e+00
 -9990012  2    3    3    0    0 -1.3015765181e+01 -5.6326625784e+00 -2.8558410316e+01 5.9301955549e+01 5.0000021013e+01 7.1579e-03 0.0000e+00
      -11  1    4    4    0    0 -4.6102903589e+00 +9.7222104269e+00 -1.6648639530e+01 1.9823051007e+01 5.1100000000e-04 0.0000e+00 1.0000e+00
       11  1    4    4    0    0 +1.0730328630e+01 -1.4028736870e+01 -1.6848755221e+00 1.7742159295e+01 5.1100000000e-04 0.0000e+00 -1.0000e+00
      -12  1    4    4    0    0 -1.9135803451e+01 -1.3261361356e+00 -1.0224895264e+01 2.1736745247e+01 0.0000000000e+00 0.0000e+00 1.0000e+00
       12  1    3    3    0    0 +1.3015765181e+01 +5.6326625784e+00 +2.8558410316e+01 3.1886044451e+01 0.0000000000e+00 0.0000e+00 -1.0000e+00
</event>
<event>
 8      3 +2.2883893e-04 9.11880000e+01 7.81616400e-03 1.18400000e-01
      -11 -1    0    0    0    0 +0.0000000000e+00 +0.0000000000e+00 +4.5593999997e+01 4.5594000000e+01 5.1100000000e-04 0.0000e+00 1.0000e+00
       11 -1    0    0    0    0 -0.0000000000e+00 -0.0000000000e+00 -4.5593999997e+01 4.5594000000e+01 5.1100000000e-04 0.0000e+00 -1.0000e+00
       23  2    1    2    0    0 +1.7763568394e-15 +3.5527136788e-15 -3.5527136788e-15 9.1188000000e+01 9.1188000000e+01 2.8285e-13 0.0000e+00
  9990012  2    3    3    0    0 +1.2181170323e+01 +2.1710025510e+01 -1.9925198996e+01 5.9301958021e+01 5.0000025520e+01 1.3015e-03 0.0000e+00
      -11  1    4    4    0    0 -7.0272956714e-01 +1.4586279920e+01 +3.5894660833e+00 1.5037874111e+01 5.1100000000e-04 0.0000e+00 1.0000e+00
       11  1    4    4    0    0 +5.9694151894e+00 +2.0084245021e+01 -6.8376636144e+00 2.2040064876e+01 5.1100000000e-04 0.0000e+00 -1.0000e+00
       12  1    4    4    0    0 +6.9144847008e+00 -1.2960499431e+01 -1.6677001464e+01 2.2224019034e+01 0.0000000000e+00 0.0000e+00 -1.0000e+00
      -12  1    3    3    0    0 -1.2181170323e+01 -2.1710025510e+01 +1.9925198996e+01 3.1886041979e+01 0.0000000000e+00 0.0000e+00 1.0000e+00
</event>
<event>
 8      3 +2.2883893e-04 9.11880000e+01 7.81616400e-03 1.18400000e-01
      -11 -1    0    0    0    0 +0.0000000000e+00 +0.0000000000e+00 +4.5593999997e+01 4.5594000000e+01 5.1100000000e-04 0.0000e+00 1.0000e+00
       11 -1    0    0    0    0 -0.0000000000e+00 -0.0000000000e+00 -4.5593999997e+01 4.5594000000e+01 5.1100000000e-04 0.0000e+00 -1.0000e+00
       23  2    1    2    0    0 +0.0000000000e+00 +0.0000000000e+00 -2.6645352591e-15 9.1188000000e+01 9.1188000000e+01 2.1310e-13 0.0000e+00
  9990012  2    3    3    0    0 -2.5637027949e+01 +1.7553252546e+01 +7.1656683148e+00 5.9301942241e+01 4.9999996741e+01 2.1262e-03 0.0000e+00
      -11  1    4    4    0    0 -4.2118669256e+00 +2.7086146705e+00 -1.7028325421e+01 1.7749374167e+01 5.1100000000e-04 0.0000e+00 1.0000e+00
       11  1    4    4    0    0 -1.6829838252e+01 +9.5409622196e+00 +2.7637399317e+01 3.3735726714e+01 5.1100000000e-04 0.0000e+00 -1.0000e+00
       12  1    4    4    0    0 -4.5953227720e+00 +5.3036756560e+00 -3.4434055813e+00 7.8168413596e+00 0.0000000000e+00 0.0000e+00 -1.0000e+00
      -12  1    3    3    0    0 +2.5637027949e+01 -1.7553252546e+01 -7.1656683148e+00 3.1886057759e+01 0.0000000000e+00 0.0000e+00 1.0000e+00
</event>
<event>
 8      4 +2.2883893e-04 9.11880000e+01 7.81616400e-03 1.18400000e-01
      -11 -1    0    0    0    0 +0.0000000000e+00 +0.0000000000e+00 +4.5593999997e+01 4.5594000000e+01 5.1100000000e-04 0.0000e+00 1.0000e+00
       11 -1    0    0    0    0 -0.0000000000e+00 -0.0000000000e+00 -4.5593999997e+01 4.5594000000e+01 5.1100000000e-04 0.0000e+00 -1.0000e+00
       23  2    1    2    0    0 -3.5527136788e-15 -1.7763568394e-15 -3.5527136788e-15 9.1188000000e+01 9.1188000000e+01 1.8933e-15 0.0000e+00
 -9990012  2    3    3    0    0 +1.5751964730e+01 -1.5867748882e+01 +2.2733481361e+01 5.9301936866e+01 4.9999986938e+01 1.5972e-03 0.0000e+00
      -11  1    4    4    0    0 +1.4323520729e+00 -7.4046714209e+00 -3.5121329308e+00 8.3196075206e+00 5.1100000000e-04 0.0000e+00 -1.0000e+00
       11  1    4    4    0    0 +4.6157485137e+00 -2.3830376998e+01 +8.8844822860e+00 2.5848133935e+01 5.1100000000e-04 0.0000e+00 1.0000e+00
      -12  1    4    4    0    0 +9.7038641438e+00 +1.5367299537e+01 +1.7361132005e+01 2.5134195410e+01 0.0000000000e+00 0.0000e+00 1.0000e+00
       12  1    3    3    0    0 -1.5751964730e+01 +1.5867748882e+01 -2.2733481361e+01 3.1886063134e+01 0.0000000000e+00 0.0000e+00 -1.0000e+00
</event>
<event>
 8      3 +2.2883893e-04 9.11880000e+01 7.81616400e-03 1.18400000e-01
      -11 -1    0    0    0    0 +0.0000000000e+00 +0.0000000000e+00 +4.5593999997e+01 4.5594000000e+01 5.1100000000e-04 0.0000e+00 1.0000e+00
       11 -1    0    0    0    0 -0.0000000000e+00 -0.0000000000e+00 -4.5593999997e+01 4.5594000000e+01 5.1100000000e-04 0.0000e+00 -1.0000e+00
       23  2    1    2    0    0 +0.0000000000e+00 +0.0000000000e+00 +0.0000000000e+00 9.1188000000e+01 9.1188000000e+01 1.6782e-14 0.0000e+00
  9990012  2    3    3    0    0 -2.2011947316e+01 +1.7179828592e+01 -1.5396432404e+01 5.9301914228e+01 4.9999945652e+01 1.0428e-03 0.0000e+00
      -11  1    4    4    0    0 -1.0340383261e+00 +1.1723077637e+00 +4.6721040340e+00 4.9266720124e+00 5.1100000000e-04 0.0000e+00 1.0000e+00
       11  1    4    4    0    0 -1.7108416733e+01 +2.4427803192e-01 -3.0577388018e+01 3.5039038987e+01 5.1100000000e-04 0.0000e+00 -1.0000e+00
       12  1    4    4    0    0 -3.8694922566e+00 +1.5763242796e+01 +1.0508851580e+01 1.9336203229e+01 0.0000000000e+00 0.0000e+00 -1.0000e+00
      -12  1    3    3    0    0 +2.2011947316e+01 -1.7179828592e+01 +1.5396432404e+01 3.1886085772e+01 0.0000000000e+00 0.0000e+00 1.0000e+00
</event>
<event>
 8      4 +2.2883893e-04 9.11880000e+01 7.81616400e-03 1.18400000e-01
      -11 -1    0    0    0    0 +0.0000000000e+00 +0.0000000000e+00 +4.5593999997e+01 4.5594000000e+01 5.1100000000e-04 0.0000e+00 -1.0000e+00
       11 -1    0    0    0    0 -0.0000000000e+00 -0.0000000000e+00 -4.5593999997e+01 4.5594000000e+01 5.1100000000e-04 0.0000e+00 1.0000e+00
       23  2    1    2    0    0 +8.8817841970e-16 -3.5527136788e-15 +3.5527136788e-15 9.1188000000e+01 9.1188000000e+01 1.9305e-14 0.0000e+00
 -9990012  2    3    3    0    0 -2.7225028917e+00 -1.6135990858e+01 -2.7366770819e+01 5.9301915762e+01 4.9999948450e+01 6.9220e-05 0.0000e+00
      -11  1    4    4    0    0 -7.5433568328e+00 -3.0839741489e+00 +7.9361807740e+00 1.1375240411e+01 5.1100000000e-04 0.0000e+00 1.0000e+00
       11  1    4    4    0    0 +1.6814956116e+01 -9.9034471670e+00 -2.5551964654e+01 3.2151577145e+01 5.1100000000e-04 0.0000e+00 -1.0000e+00
      -12  1    4    4    0    0 -1.1994102175e+01 -3.1485695420e+00 -9.7509869389e+00 1.5775098207e+01 0.0000000000e+00 0.0000e+00 1.0000e+00
       12  1    3    3    0    0 +2.7225028917e+00 +1.6135990858e+01 +2.7366770819e+01 3.1886084238e+01 0.0000000000e+00 0.0000e+00 -1.0000e+00
</event>
<event>
 8      4 +2.2883893e-04 9.11880000e+01 7.81616400e-03 1.18400000e-01
      -11 -1    0    0    0    0 +0.0000000000e+00 +0.0000000000e+00 +4.5593999997e+01 4.5594000000e+01 5.1100000000e-04 0.0000e+00 -1.0000e+00
       11 -1    0    0    0    0 -0.0000000000e+00 -0.0000000000e+00 -4.5593999997e+01 4.5594000000e+01 5.1100000000e-04 0.0000e+00 1.0000e+00
       23  2    1    2    0    0 +3.5527136788e-15 +0.0000000000e+00 -8.8817841970e-16 9.1188000000e+01 9.1188000000e+01 1.4284e-13 0.0000e+00
 -9990012  2    3    3    0    0 -2.0974039471e+01 +2.3476956957e+01 +5.0639831877e+00 5.9301925212e+01 4.9999965684e+01 4.1959e-03 0.0000e+00
      -11  1    4    4    0    0 -2.1192219088e+01 +1.8090398030e+01 -1.7822618134e+00 2.7920406662e+01 5.1100000000e-04 0.0000e+00 1.0000e+00
       11  1    4    4    0    0 +2.9324614654e+00 +1.5603750582e+01 +1.1726380340e+01 1.9737891443e+01 5.1100000000e-04 0.0000e+00 -1.0000e+00
      -12  1    4    4    0    0 -2.7142818483e+00 -1.0217191655e+01 -4.8801353390e+00 1.1643627107e+01 0.0000000000e+00 0.0000e+00 1.0000e+00
       12  1    3    3    0    0 +2.0974039471e+01 -2.3476956957e+01 -5.0639831877e+00 3.1886074788e+01 0.0000000000e+00 0.0000e+00 -1.0000e+00
</event>
<event>
 8      4 +2.2883893e-04 9.11880000e+01 7.81616400e-03 1.18400000e-01
      -11 -1    0    0    0    0 +0.0000000000e+00 +0.0000000000e+00 +4.5593999997e+01 4.5594000000e+01 5.1100000000e-04 0.0000e+00 1.0000e+00
       11 -1    0    0    0    0 -0.0000000000e+00 -0.0000000000e+00 -4.5593999997e+01 4.5594000000e+01 5.1100000000e-04 0.0000e+00 -1.0000e+00
       23  2    1    2    0    0 +0.0000000000e+00 +0.0000000000e+00 +1.7763568394e-15 9.1188000000e+01 9.1188000000e+01 1.0554e-13 0.0000e+00
 -9990012  2    3    3    0    0 -1.1400871440e+01 -2.6019656975e+01 +1.4481665020e+01 5.9301936580e+01 4.9999986417e+01 1.3359e-03 0.0000e+00
      -11  1    4    4    0    0 -4.3730033193e-01 +5.4023037409e+00 +1.1866646503e-01 5.4212728469e+00 5.1100000000e-04 0.0000e+00 -1.0000e+00
       11  1    4    4    0    0 -2.7931914327e+00 +9.4916360907e+00 +5.1498175788e+00 1.1154088731e+01 5.1100000000e-04 0.0000e+00 1.0000e+00
      -12  1    4    4    0    0 -8.1703796753e+00 -4.0913596807e+01 +9.2131809759e+00 4.2726575002e+01 0.0000000000e+00 0.0000e+00 1.0000e+00
       12  1    3    3    0    0 +1.1400871440e+01 +2.6019656975e+01 -1.4481665020e+01 3.1886063420e+01 0.0000000000e+00 0.0000e+00 -1.0000e+00
</event>
<event>
 8      3 +2.2883893e-04 9.11880000e+01 7.81616400e-03 1.18400000e-01
      -11 -1    0    0    0    0 +0.0000000000e+00 +0.0000000000e+00 +4.5593999997e+01 4.5594000000e+01 5.1100000000e-04 0.0000e+00 1.0000e+00
       11 -1    0    0    0    0 -0.0000000000e+00 -0.0000000000e+00 -4.5593999997e+01 4.5594000000e+01 5.1100000000e-04 0.0000e+00 -1.0000e+00
       23  2    1    2    0    0 +0.0000000000e+00 -1.7763568394e-15 -3.5527136788e-15 9.1188000000e+01 9.1188000000e+01 9.9759e-14 0.0000e+00
  9990012  2    3    3    0    0 +1.9230966365e+01 +1.1393719847e+01 -2.2739260348e+01 5.9301939088e+01 4.9999990991e+01 2.1595e-04 0.0000e+00
      -11  1    4    4    0    0 +8.2342403807e-01 +1.1341842686e+01 +6.9605019157e+00 1.3332817025e+01 5.1100000000e-04 0.0000e+00 1.0000e+00
       11  1    4    4    0    0 -1.4670061817e+00 +9.9663884366e+00 -1.6776324846e+00 1.0212514706e+01 5.1100000000e-04 0.0000e+00 -1.0000e+00
       12  1    4    4    0    0 +1.9874548509e+01 -9.9145112757e+00 -2.8022129779e+01 3.5756607357e+01 0.0000000000e+00 0.0000e+00 -1.0000e+00
      -12  1    3    3    0    0 -1.9230966365e+01 -1.1393719847e+01 +2.2739260348e+01 3.1886060912e+01 0.0000000000e+00 0.0000e+00 1.0000e+00
</event>
<event>
 8      3 +2.2883893e-04 9.11880000e+01 7.81616400e-03 1.18400000e-01
      -11 -1    0    0    0    0 +0.0000000000e+00 +0.0000000000e+00 +4.5593999997e+01 4.5594000000e+01 5.1100000000e-04 0.0000e+00 1.0000e+00
       11 -1    0    0    0    0 -0.0000000000e+00 -0.0000000000e+00 -4.5593999997e+01 4.5594000000e+01 5.1100000000e-04 0.0000e+00 -1.0000e+00
       23  2    1    2    0    0 +8.8817841970e-16 +0.0000000000e+00 +7.1054273576e-15 9.1188000000e+01 9.1188000000e+01 2.3989e-16 0.0000e+00
  9990012  2    3    3    0    0 -6.5639446181e-01 -2.1319935749e+01 +2.3701275459e+01 5.9301937646e+01 4.9999988362e+01 1.9427e-03 0.0000e+00
      -11  1    4    4    0    0 -1.4733148887e+01 +5.2554806761e-01 +3.5958963039e+00 1.5174727259e+01 5.1100000000e-04 0.0000e+00 1.0000e+00
       11  1    4    4    0    0 -3.0549887290e+00 +5.4673166064e+00 +2.6084346103e-01 6.2683767102e+00 5.1100000000e-04 0.0000e+00 -1.0000e+00
       12  1    4    4    0    0 +1.7131743154e+01 -2.7312800423e+01 +1.9844535694e+01 3.7858833677e+01 0.0000000000e+00 0.0000e+00 -1.0000e+00
      -12  1    3    3    0    0 +6.5639446181e-01 +2.1319935749e+01 -2.3701275459e+01 3.1886062354e+01 0.0000000000e+00 0.0000e+00 1.0000e+00
</event>
<event>
 8      4 +2.2883893e-04 9.11880000e+01 7.81616400e-03 1.18400000e-01
      -11 -1    0    0    0    0 +0.0000000000e+00 +0.0000000000e+00 +4.5593999997e+01 4.5594000000e+01 5.1100000000e-04 0.0000e+00 1.0000e+00
       11 -1    0    0    0    0 -0.0000000000e+00 -0.0000000000e+00 -4.5593999997e+01 4.5594000000e+01 5.1100000000e-04 0.0000e+00 -1.0000e+00
       23  2    1    2    0    0 +1.7763568394e-15 +0.0000000000e+00 +0.0000000000e+00 9.1188000000e+01 9.1188000000e+01 8.2575e-14 0.0000e+00
 -9990012  2    3    3    0    0 +9.5865781734e+00 -2.5910574758e+01 +1.5920412065e+01 5.9301954687e+01 5.0000019440e+01 1.0229e-03 0.0000e+00
      -11  1    4    4    0    0 +2.3219390257e+01 -3.1293767769e+01 +1.4122575804e+01 4.1447402001e+01 5.1100000000e-04 0.0000e+00 1.0000e+00
       11  1    4    4    0    0 -6.8541316354e+00 +1.2677579166e+00 -3.9948839365e+00 8.0340169615e+00 5.1100000000e-04 0.0000e+00 -1.0000e+00
      -12  1    4    4    0    0 -6.7786804481e+00 +4.1154350936e+00 +5.7927201978e+00 9.8205357245e+00 0.0000000000e+00 0.0000e+00 1.0000e+00
       12  1    3    3    0    0 -9.5865781734e+00 +2.5910574758e+01 -1.5920412065e+01 3.1886045313e+01 0.0000000000e+00 0.0000e+00 -1.0000e+00
</event>
<event>
 8      3 +2.2883893e-04 9.11880000e+01 7.81616400e-03 1.18400000e-01
      -11 -1    0    0    0    0 +0.0000000000e+00 +0.0000000000e+00 +4.5593999997e+01 4.5594000000e+01 5.1100000000e-04 0.0000e+00 1.0000e+00
       11 -1    0    0    0    0 -0.0000000000e+00 -0.0000000000e+00 -4.5593999997e+01 4.5594000000e+01 5.1100000000e-04 0.0000e+00 -1.0000e+00
       23  2    1    2    0    0 +0.0000000000e+00 -2.6645352591e-15 +0.0000000000e+00 9.1188000000e+01 9.1188000000e+01 6.3159e-14 0.0000e+00
  9990012  2    3    3    0    0 -1.5155829164e+01 +6.2085142802e+00 -2.7358282850e+01 5.9301945874e+01 5.0000003367e+01 6.7678e-04 0.0000e+00
      -11  1    4    4    0    0 +2.8316928731e+00 +8.0914069875e+00 -2.2734132614e+01 2.4296710427e+01 5.1100000000e-04 0.0000e+00 1.0000e+00
       11  1    4    4    0    0 -5.9572891185e+00 +1.2691208103e+01 +3.4762886138e+00 1.4444398206e+01 5.1100000000e-04 0.0000e+00 -1.0000e+00
       12  1    4    4    0    0 -1.2030232919e+01 -1.4574100810e+01 -8.1004388494e+00 2.0560837241e+01 0.0000000000e+00 0.0000e+00 -1.0000e+00
      -12  1    3    3    0    0 +1.5155829164e+01 -6.2085142802e+00 +2.7358282850e+01 3.1886054126e+01 0.0000000000e+00 0.0000e+00 1.0000e+00
</event>
<event>
 8      3 +2.2883893e-04 9.11880000e+01 7.81616400e-03 1.18400000e-01
      -11 -1    0    0    0    0 +0.0000000000e+00 +0.0000000000e+00 +4.5593999997e+01 4.5594000000e+01 5.1100000000e-04 0.0000e+00 1.0000e+00
       11 -1    0    0    0    0 -0.0000000000e+00 -0.0000000000e+00 -4.5593999997e+01 4.5594000000e+01 5.1100000000e-04 0.0000e+00 -1.0000e+00
       23  2    1    2    0    0 +0.0000000000e+00 +3.5527136788e-15 +0.0000000000e+00 9.1188000000e+01 9.1188000000e+01 5.5141e-14 0.0000e+00
  9990012  2    3    3    0    0 -1.8373043012e+01 +8.9325705805e+00 -2.4481927968e+01 5.9301885095e+01 4.9999892521e+01 5.2947e-04 0.0000e+00
      -11  1    4    4    0    0 -4.3112404971e+00 +8.2702491817e+00 +3.3086610573e+00 9.8960120455e+00 5.1100000000e-04 0.0000e+00 1.0000e+00
       11  1    4    4    0    0 +1.1740029241e+01 -6.6621557866e+00 -1.3167611612e+01 1.8857322242e+01 5.1100000000e-04 0.0000e+00 -1.0000e+00
       12  1    4    4    0    0 -2.5801831757e+01 +7.3244771855e+00 -1.4622977413e+01 3.0548550808e+01 0.0000000000e+00 0.0000e+00 -1.0000e+00
      -12  1    3    3    0    0 +1.8373043012e+01 -8.9325705805e+00 +2.4481927968e+01 3.1886114905e+01 0.0000000000e+00 0.0000e+00 1.0000e+00
</event>
<event>
 8      4 +2.2883893e-04 9.11880000e+01 7.81616400e-03 1.18400000e-01
      -11 -1    0    0    0    0 +0.0000000000e+00 +0.0000000000e+00 +4.5593999997e+01 4.5594000000e+01 5.1100000000e-04 0.0000e+00 1.0000e+00
       11 -1    0    0    0    0 -0.0000000000e+00 -0.0000000000e+00 -4.5593999997e+01 4.5594000000e+01 5.1100000000e-04 0.0000e+00 -1.0000e+00
       23  2    1    2    0    0 -3.5527136788e-15 +0.0000000000e+00 +0.0000000000e+00 9.1188000000e+01 9.1188000000e+01 6.9365e-14 0.0000e+00
 -9990012  2    3    3    0    0 -1.7269766499e+01 -1.4941668221e+01 +2.2253633541e+01 5.9301913851e+01 4.9999944965e+01 2.0832e-03 0.0000e+00
      -11  1    4    4    0    0 +4.9828093013e+00 +9.5529591356e+00 +1.2697616172e+01 1.6652833798e+01 5.1100000000e-04 0.0000e+00 1.0000e+00
       11  1    4    4    0    0 +1.3407737287e+00 -1.6133621070e+00 -5.9496838903e+00 6.3086726128e+00 5.1100000000e-04 0.0000e+00 -1.0000e+00
      -12  1    4    4    0    0 -2.3593349529e+01 -2.2881265249e+01 +1.5505701259e+01 3.6340407440e+01 0.0000000000e+00 0.0000e+00 1.0000e+00
       12  1    3    3    0    0 +1.7269766499e+01 +1.4941668221e+01 -2.2253633541e+01 3.1886086149e+01 0.0000000000e+00 0.0000e+00 -1.0000e+00
</event>
<event>
 8      4 +2.2883893e-04 9.11880000e+01 7.81616400e-03 1.18400000e-01
      -11 -1    0    0    0    0 +0.0000000000e+00 +0.0000000000e+00 +4.5593999997e+01 4.5594000000e+01 5.1100000000e-04 0.0000e+00 1.0000e+00
       11 -1    0    0    0    0 -0.0000000000e+00 -0.0000000000e+00 -4.5593999997e+01 4.5594000000e+01 5.1100000000e-04 0.0000e+00 -1.0000e+00
       23  2    1    2    0    0 +0.0000000000e+00 +0.0000000000e+00 +0.0000000000e+00 9.1188000000e+01 9.1188000000e+01 2.7620e-14 0.0000e+00
 -9990012  2    3    3    0    0 -8.4130081982e+00 -2.9281923192e+01 -9.4079965518e+00 5.9301950826e+01 5.0000012399e+01 8.9614e-04 0.0000e+00
      -11  1    4    4    0    0 -5.0968179419e+00 -1.0689338664e+01 -4.2636095136e+00 1.2586416509e+01 5.1100000000e-04 0.0000e+00 1.0000e+00
       11  1    4    4    0    0 -3.3093161226e+00 +7.0111043555e+00 -1.6861229179e+01 1.8558238256e+01 5.1100000000e-04 0.0000e+00 -1.0000e+00
      -12  1    4    4    0    0 -6.8741337463e-03 -2.5603688884e+01 +1.1716842140e+01 2.8157296061e+01 0.0000000000e+00 0.0000e+00 1.0000e+00
       12  1    3    3    0    0 +8.4130081982e+00 +2.9281923192e+01 +9.4079965518e+00 3.1886049174e+01 0.0000000000e+00 0.0000e+00 -1.0000e+00
</event>
<event>
 8      3 +2.2883893e-04 9.11880000e+01 7.81616400e-03 1.18400000e-01
      -11 -1    0    0    0    0 +0.0000000000e+00 +0.0000000000e+00 +4.5593999997e+01 4.5594000000e+01 5.1100000000e-04 0.0000e+00 1.0000e+00
       11 -1    0    0    0    0 -0.0000000000e+00 -0.0000000000e+00 -4.5593999997e+01 4.5594000000e+01 5.1100000000e-04 0.0000e+00 -1.0000e+00
       23  2    1    2    0    0 -1.7763568394e-15 +0.0000000000e+00 -3.5527136788e-15 9.1188000000e+01 9.1188000000e+01 1.8943e-13 0.0000e+00
  9990012  2    3    3    0    0 -1.2661418199e+01 +2.1750282145e+01 -1.9578921349e+01 5.9301945910e+01 5.0000003434e+01 3.5538e-04 0.0000e+00
      -11  1    4    4    0    0 -6.4025254135e+00 -5.1287885734e+00 -4.6791129341e+00 9.4440934987e+00 5.1100000000e-04 0.0000e+00 -1.0000e+00
       11  1    4    4    0    0 +6.7831733284e+00 -7.5654629871e+00 -6.5593179324e+00 1.2094309514e+01 5.1100000000e-04 0.0000e+00 1.0000e+00
       12  1    4    4    0    0 -1.3042066114e+01 +3.4444533705e+01 -8.3404904827e+00 3.7763542898e+01 0.0000000000e+00 0.0000e+00 -1.0000e+00
      -12  1    3    3    0    0 +1.2661418199e+01 -2.1750282145e+01 +1.9578921349e+01 3.1886054090e+01 0.0000000000e+00 0.0000e+00 1.0000e+00
</event>
<event>
 8      3 +2.2883893e-04 9.11880000e+01 7.81616400e-03 1.18400000e-01
      -11 -1    0    0    0    0 +0.0000000000e+00 +0.0000000000e+00 +4.5593999997e+01 4.5594000000e+01 5.1100000000e-04 0.0000e+00 1.0000e+00
       11 -1    0    0    0    0 -0.0000000000e+00 -0.0000000000e+00 -4.5593999997e+01 4.5594000000e+01 5.1100000000e-04 0.0000e+00 -1.0000e+00
       23  2    1    2    0    0 +3.5527136788e-15 +0.0000000000e+00 +0.0000000000e+00 9.1188000000e+01 9.1188000000e+01 9.5320e-14 0.0000e+00
  9990012  2    3    3    0    0 -1.9379786187e+01 +5.3362955790e+00 -2.4752128873e+01 5.9301952159e+01 5.0000014830e+01 2.6877e-03 0.0000e+00
      -11  1    4    4    0    0 -2.0732341992e+01 -6.9999681610e+00 -2.9045754148e+01 3.6365992259e+01 5.1100000000e-04 0.0000e+00 -1.0000e+00
       11  1    4    4    0    0 +5.4837862109e+00 +1.5931318081e+01 +1.8869990167e+00 1.6954042956e+01 5.1100000000e-04 0.0000e+00 1.0000e+00
       12  1    4    4    0    0 -4.1312304062e+00 -3.5950543407e+00 +2.4066262582e+00 5.9819169443e+00 0.0000000000e+00 0.0000e+00 -1.0000e+00
      -12  1    3    3    0    0 +1.9379786187e+01 -5.3362955790e+00 +2.4752128873e+01 3.1886047841e+01 0.0000000000e+00 0.0000e+00 1.0000e+00
</event>
<event>
 8      4 +2.2883893e-04 9.11880000e+01 7.81616400e-03 1.18400000e-01
      -11 -1    0    0    0    0 +0.0000000000e+00 +0.0000000000e+00 +4.5593999997e+01 4.5594000000e+01 5.1100000000e-04 0.0000e+00 1.0000e+00
       11 -1    0    0    0    0 -0.0000000000e+00 -0.0000000000e+00 -4.5593999997e+01 4.5594000000e+01 5.1100000000e-04 0.0000e+00 -1.0000e+00
       23  2    1    2    0    0 -1.3322676296e-15 +3.5527136788e-15 +0.0000000000e+00 9.1188000000e+01 9.1188000000e+01 1.4244e-14 0.0000e+00
 -9990012  2    3    3    0    0 -1.6282091426e+00 +2.6964431479e+01 +1.6940748161e+01 5.9301943827e+01 4.9999999633e+01 8.2890e-04 0.0000e+00
      -11  1    4    4    0    0 +6.1705384508e+00 +5.3817665900e-01 -6.2064290845e+00 8.7684058489e+00 5.1100000000e-04 0.0000e+00 1.0000e+00
       11  1    4    4    0    0 +1.2857730638e+01 +3.1759301498e+00 +1.0730646947e+01 1.7045660845e+01 5.1100000000e-04 0.0000e+00 -1.0000e+00
      -12  1    4    4    0    0 -2.0656478231e+01 +2.3250324671e+01 +1.2416530298e+01 3.3487877133e+01 0.0000000000e+00 0.0000e+00 1.0000e+00
       12  1    3    3    0    0 +1.6282091426e+00 -2.6964431479e+01 -1.6940748161e+01 3.1886056173e+01 0.0000000000e+00 0.0000e+00 -1.0000e+00
</event>
<event>
 8      3 +2.2883893e-04 9.11880000e+01 7.81616400e-03 1.18400000e-01
      -11 -1    0    0    0    0 +0.0000000000e+00 +0.0000000000e+00 +4.5593999997e+01 4.5594000000e+01 5.1100000000e-04 0.0000e+00 -1.0000e+00
       11 -1    0    0    0    0 -0.0000000000e+00 -0.0000000000e+00 -4.5593999997e+01 4.5594000000e+01 5.1100000000e-04 0.0000e+00 1.0000e+00
       23  2    1    2    0    0 +0.0000000000e+00 -1.7763568394e-15 -3.5527136788e-15 9.1188000000e+01 9.1188000000e+01 1.4045e-14 0.0000e+00
  9990012  2    3    3    0    0 -2.2570463302e+01 +5.2585277162e+00 -2.1900750285e+01 5.9301940500e+01 4.9999993566e+01 2.8581e-05 0.0000e+00
      -11  1    4    4    0    0 -1.4719441416e+00 -1.4333634967e+01 -6.0994894489e+00 1.5646836189e+01 5.1100000000e-04 0.0000e+00 1.0000e+00
       11  1    4    4    0    0 +3.4862858895e+00 +1.3770565609e+01 -7.0217447572e-01 1.4222366742e+01 5.1100000000e-04 0.0000e+00 -1.0000e+00
       12  1    4    4    0    0 -2.4584805050e+01 +5.8215970748e+00 -1.5099086360e+01 2.9432737568e+01 0.0000000000e+00 0.0000e+00 -1.0000e+00
      -12  1    3    3    0    0 +2.2570463302e+01 -5.2585277162e+00 +2.1900750285e+01 3.1886059500e+01 0.0000000000e+00 0.0000e+00 1.0000e+00
</event>
<event>
 8      3 +2.2883893e-04 9.11880000e+01 7.81616400e-03 1.18400000e-01
      -11 -1    0    0    0    0 +0.0000000000e+00 +0.0000000000e+00 +4.5593999997e+01 4.5594000000e+01 5.1100000000e-04 0.0000e+00 1.0000e+00
       11 -1    0    0    0    0 -0.0000000000e+00 -0.0000000000e+00 -4.5593999997e+01 4.5594000000e+01 5.1100000000e-04 0.0000e+00 -1.0000e+00
       23  2    1    2    0    0 -1.7763568394e-15 +0.0000000000e+00 -8.8817841970e-16 9.1188000000e+01 9.1188000000e+01 2.5128e-15 0.0000e+00
  9990012  2    3    3    0    0 +1.4563603371e+01 +2.8068280378e+01 +4.0981833771e+00 5.9301921321e+01 4.9999958589e+01 1.6852e-04 0.0000e+00
      -11  1    4    4    0    0 +1.8068945911e+01 +9.0772405762e+00 +1.9462781879e+01 2.8065690470e+01 5.1100000000e-04 0.0000e+00 1.0000e+00
       11  1    4    4    0    0 +2.7410883476e+00 +1.1081503188e+01 +1.5764823558e+00 1.1523826409e+01 5.1100000000e-04 0.0000e+00 -1.0000e+00
       12  1    4    4    0    0 -6.2464308875e+00 +7.9095366138e+00 -1.6941080858e+01 1.9712404443e+01 0.0000000000e+00 0.0000e+00 -1.0000e+00
      -12  1    3    3    0    0 -1.4563603371e+01 -2.8068280378e+01 -4.0981833771e+00 3.1886078679e+01 0.0000000000e+00 0.0000e+00 1.0000e+00
</event>
<event>
 8      3 +2.2883893e-04 9.11880000e+01 7.81616400e-03 1.18400000e-01
      -11 -1    0    0    0    0 +0.0000000000e+00 +0.0000000000e+00 +4.5593999997e+01 4.5594000000e+01 5.1100000000e-04 0.0000e+00 1.0000e+00
       11 -1    0    0    0    0 -0.0000000000e+00 -0.0000000000e+00 -4.5593999997e+01 4.5594000000e+01 5.1100000000e-04 0.0000e+00 -1.0000e+00
       23  2    1    2    0    0 +0.0000000000e+00 +0.0000000000e+00 +0.0000000000e+00 9.1188000000e+01 9.1188000000e+01 9.6477e-14 0.0000e+00
  9990012  2    3    3    0    0 +8.9858267088e+00 +2.5761204460e+01 -1.6502572198e+01 5.9301958759e+01 5.0000026866e+01 4.2833e-03 0.0000e+00
      -11  1    4    4    0    0 -1.4761480993e+01 +1.0632555012e+01 +6.5713908649e-01 1.8203966030e+01 5.1100000000e-04 0.0000e+00 1.0000e+00
       11  1    4    4    0    0 +1.9390399653e+01 +1.9914369417e+01 -6.3693851469e+00 2.8515588288e+01 5.1100000000e-04 0.0000e+00 -1.0000e+00
       12  1    4    4    0    0 +4.3569080486e+00 -4.7857199685e+00 -1.0790326138e+01 1.2582404441e+01 0.0000000000e+00 0.0000e+00 -1.0000e+00
      -12  1    3    3    0    0 -8.9858267088e+00 -2.5761204460e+01 +1.6502572198e+01 3.1886041241e+01 0.0000000000e+00 0.0000e+00 1.0000e+00
</event>
<event>
 8      4 +2.2883893e-04 9.11880000e+01 7.81616400e-03 1.18400000e-01
      -11 -1    0    0    0    0 +0.0000000000e+00 +0.0000000000e+00 +4.5593999997e+01 4.5594000000e+01 5.1100000000e-04 0.0000e+00 1.0000e+00
       11 -1    0    0    0    0 -0.0000000000e+00 -0.0000000000e+00 -4.5593999997e+01 4.5594000000e+01 5.1100000000e-04 0.0000e+00 -1.0000e+00
       23  2    1    2    0    0 +0.0000000000e+00 +0.0000000000e+00 +1.7763568394e-15 9.1188000000e+01 9.1188000000e+01 1.4980e-14 0.0000e+00
 -9990012  2    3    3    0    0 -1.1647280036e+01 +2.6697599648e+01 +1.2973039957e+01 5.9301941528e+01 4.9999995441e+01 2.3217e-03 0.0000e+00
      -11  1    4    4    0    0 -1.0568839521e+01 +2.9119031655e+01 +2.3085732425e+01 3.8633785929e+01 5.1100000000e-04 0.0000e+00 1.0000e+00
       11  1    4    4    0    0 +2.8407425833e+00 +4.7342889133e+00 -1.1151645406e+01 1.2443572858e+01 5.1100000000e-04 0.0000e+00 -1.0000e+00
      -12  1    4    4    0    0 -3.9191830977e+00 -7.1557209210e+00 +1.0389529376e+00 8.2245827407e+00 0.0000000000e+00 0.0000e+00 1.0000e+00
       12  1    3    3    0    0 +1.1647280036e+01 -2.6697599648e+01 -1.2973039957e+01 3.1886058472e+01 0.0000000000e+00 0.0000e+00 -1.0000e+00
</event>
<event>
 8      4 +2.2883893e-04 9.11880000e+01 7.81616400e-03 1.18400000e-01
      -11 -1    0    0    0    0 +0.0000000000e+00 +0.0000000000e+00 +4.5593999997e+01 4.5594000000e+01 5.1100000000e-04 0.0000e+00 1.0000e+00
       11 -1    0    0    0    0 -0.0000000000e+00 -0.0000000000e+00 -4.5593999997e+01 4.5594000000e+01 5.1100000000e-04 0.0000e+00 -1.0000e+00
       23  2    1    2    0    0 +0.0000000000e+00 +0.0000000000e+00 -1.7763568394e-15 9.1188000000e+01 9.1188000000e+01 4.3770e-14 0.0000e+00
 -9990012  2    3    3    0    0 +1.9944324234e+01 -2.3388235445e+01 +8.4814596305e+00 5.9301940604e+01 4.9999993755e+01 4.3034e-05 0.0000e+00
      -11  1    4    4    0    0 -4.7592426699e+00 -1.4053485747e+01 +1.4435670656e+01 2.0701194168e+01 5.1100000000e-04 0.0000e+00 1.0000e+00
       11  1    4    4    0    0 +2.5621186233e-01 +5.7382910418e+00 -7.9533845634e+00 9.8107061353e+00 5.1100000000e-04 0.0000e+00 -1.0000e+00
      -12  1    4    4    0    0 +2.4447355042e+01 -1.5073040739e+01 +1.9991735379e+00 2.8790040300e+01 0.0000000000e+00 0.0000e+00 1.0000e+00
       12  1    3    3    0    0 -1.9944324234e+01 +2.3388235445e+01 -8.4814596305e+00 3.1886059396e+01 0.0000000000e+00 0.0000e+00 -1.0000e+00
</event>
<event>
 8      4 +2.2883893e-04 9.11880000e+01 7.81616400e-03 1.18400000e-01
      -11 -1    0    0    0    0 +0.0000000000e+00 +0.0000000000e+00 +4.5593999997e+01 4.5594000000e+01 5.1100000000e-04 0.0000e+00 1.0000e+00
       11 -1    0    0    0    0 -0.0000000000e+00 -0.0000000000e+00 -4.5593999997e+01 4.5594000000e+01 5.1100000000e-04 0.0000e+00 -1.0000e+00
       23  2    1    2    0    0 +0.0000000000e+00 +3.5527136788e-15 -4.4408920985e-16 9.1188000000e+01 9.1188000000e+01 1.5844e-14 0.0000e+00
 -9990012  2    3    3    0    0 +1.1092468987e+01 -2.9892638168e+01 -3.0462376407e-01 5.9302180573e+01 5.0000431401e+01 6.0951e-05 0.0000e+00
      -11  1    4    4    0    0 +1.0387764849e+01 -3.4469226126e+01 -1.2053324013e+01 3.7964665523e+01 5.1100000000e-04 0.0000e+00 1.0000e+00
       11  1    4    4    0    0 -2.4183350355e+00 +9.9227936763e+00 +1.1144508678e+01 1.5116555581e+01 5.1100000000e-04 0.0000e+00 -1.0000e+00
      -12  1    4    4    0    0 +3.1230391734e+00 -5.3462057188e+00 +6.0419157083e-01 6.2209594694e+00 0.0000000000e+00 0.0000e+00 1.0000e+00
       12  1    3    3    0    0 -1.1092468987e+01 +2.9892638168e+01 +3.0462376407e-01 3.1885819427e+01 0.0000000000e+00 0.0000e+00 -1.0000e+00
</event>
<event>
 8      4 +2.2883893e-04 9.11880000e+01 7.81616400e-03 1.18400000e-01
      -11 -1    0    0    0    0 +0.0000000000e+00 +0.0000000000e+00 +4.5593999997e+01 4.5594000000e+01 5.1100000000e-04 0.0000e+00 1.0000e+00
       11 -1    0    0    0    0 -0.0000000000e+00 -0.0000000000e+00 -4.5593999997e+01 4.5594000000e+01 5.1100000000e-04 0.0000e+00 -1.0000e+00
       23  2    1    2    0    0 +0.0000000000e+00 +0.0000000000e+00 +8.8210688753e-16 9.1188000000e+01 9.1188000000e+01 2.5796e-13 0.0000e+00
 -9990012  2    3    3    0    0 +1.2190188914e+01 -2.9463879699e+01 +5.6209452468e-03 5.9301938088e+01 4.9999989167e+01 4.9778e-04 0.0000e+00
      -11  1    4    4    0    0 +8.8590484258e+00 -1.9338505925e+01 +6.2882837109e+00 2.2181142051e+01 5.1100000000e-04 0.0000e+00 1.0000e+00
       11  1    4    4    0    0 -9.9641720475e+00 +7.5513099703e+00 -8.1490982663e+00 1.4923632590e+01 5.1100000000e-04 0.0000e+00 -1.0000e+00
      -12  1    4    4    0    0 +1.3295312536e+01 -1.7676683744e+01 +1.8664355007e+00 2.2197163447e+01 0.0000000000e+00 0.0000e+00 1.0000e+00
       12  1    3    3    0    0 -1.2190188914e+01 +2.9463879699e+01 -5.6209452468e-03 3.1886061912e+01 0.0000000000e+00 0.0000e+00 -1.0000e+00
</event>
<event>
 8      3 +2.2883893e-04 9.11880000e+01 7.81616400e-03 1.18400000e-01
      -11 -1    0    0    0    0 +0.0000000000e+00 +0.0000000000e+00 +4.5593999997e+01 4.5594000000e+01 5.1100000000e-04 0.0000e+00 1.0000e+00
       11 -1    0    0    0    0 -0.0000000000e+00 -0.0000000000e+00 -4.5593999997e+01 4.5594000000e+01 5.1100000000e-04 0.0000e+00 -1.0000e+00
       23  2    1    2    0    0 +3.5527136788e-15 -8.8817841970e-16 -3.5527136788e-15 9.1188000000e+01 9.1188000000e+01 9.7423e-15 0.0000e+00
  9990012  2    3    3    0    0 +2.0869577091e+01 +4.8707272874e+00 -2.3610567069e+01 5.9301919815e+01 4.9999955842e+01 2.7280e-04 0.0000e+00
      -11  1    4    4    0    0 +1.2443196891e+01 -1.0869732743e+01 -1.1972838531e+01 2.0404242243e+01 5.1100000000e-04 0.0000e+00 1.0000e+00
       11  1    4    4    0    0 +1.5888790900e+01 +9.7778270468e+00 -1.9157580059e+01 2.6740838655e+01 5.1100000000e-04 0.0000e+00 -1.0000e+00
       12  1    4    4    0    0 -7.4624106993e+00 +5.9626329837e+00 +7.5198515213e+00 1.2156838917e+01 0.0000000000e+00 0.0000e+00 -1.0000e+00
      -12  1    3    3    0    0 -2.0869577091e+01 -4.8707272874e+00 +2.3610567069e+01 3.1886080185e+01 0.0000000000e+00 0.0000e+00 1.0000e+00
</event>
<event>
 8      4 +2.2883893e-04 9.11880000e+01 7.81616400e-03 1.18400000e-01
      -11 -1    0    0    0    0 +0.0000000000e+00 +0.0000000000e+00 +4.5593999997e+01 4.5594000000e+01 5.1100000000e-04 0.0000e+00 -1.0000e+00
       11 -1    0    0    0    0 -0.0000000000e+00 -0.0000000000e+00 -4.5593999997e+01 4.5594000000e+01 5.1100000000e-04 0.0000e+00 1.0000e+00
       23  2    1    2    0    0 +0.0000000000e+00 +0.0000000000e+00 -3.5527136788e-15 9.1188000000e+01 9.1188000000e+01 6.8415e-15 0.0000e+00
 -9990012  2    3    3    0    0 -2.1471851419e+01 +6.0074011191e+00 -2.2794550494e+01 5.9301940291e+01 4.9999993184e+01 1.8287e-03 0.0000e+00
      -11  1    4    4    0    0 -4.8985406861e+00 +9.5586049430e+00 +6.6808209372e+00 1.2648952445e+01 5.1100000000e-04 0.0000e+00 1.0000e+00
       11  1    4    4    0    0 -5.8264290632e+00 +7.7689488541e+00 +3.3766650933e+00 1.0281328189e+01 5.1100000000e-04 0.0000e+00 -1.0000e+00
      -12  1    4    4    0    0 -1.0746881669e+01 -1.1320152678e+01 -3.2852036525e+01 3.6371659656e+01 0.0000000000e+00 0.0000e+00 1.0000e+00
       12  1    3    3    0    0 +2.1471851419e+01 -6.0074011191e+00 +2.2794550494e+01 3.1886059709e+01 0.0000000000e+00 0.0000e+00 -1.0000e+00
</event>
<event>
 8      4 +2.2883893e-04 9.11880000e+01 7.81616400e-03 1.18400000e-01
      -11 -1    0    0    0    0 +0.0000000000e+00 +0.0000000000e+00 +4.5593999997e+01 4.5594000000e+01 5.1100000000e-04 0.0000e+00 -1.0000e+00
       11 -1    0    0    0    0 -0.0000000000e+00 -0.0000000000e+00 -4.5593999997e+01 4.5594000000e+01 5.1100000000e-04 0.0000e+00 1.0000e+00
       23  2    1    2    0    0 +0.0000000000e+00 -1.7763568394e-15 +3.5527136788e-15 9.1188000000e+01 9.1188000000e+01 1.3494e-13 0.0000e+00
 -9990012  2    3    3    0    0 -1.7907406644e+01 +1.0253538238e+01 -2.4308657516e+01 5.9301935813e+01 4.9999985018e+01 1.4768e-04 0.0000e+00
      -11  1    4    4    0    0 -1.0674696344e+01 +9.2733696549e+00 +7.0191033222e+00 1.5786460607e+01 5.1100000000e-04 0.0000e+00 1.0000e+00
       11  1    4    4    0    0 -3.8004854497e+00 +8.4715942452e+00 +1.7311809172e+00 9.4450297161e+00 5.1100000000e-04 0.0000e+00 -1.0000e+00
      -12  1    4    4    0    0 -3.4322248507e+00 -7.4914256626e+00 -3.3058941755e+01 3.4070445490e+01 0.0000000000e+00 0.0000e+00 1.0000e+00
       12  1    3    3    0    0 +1.7907406644e+01 -1.0253538238e+01 +2.4308657516e+01 3.1886064187e+01 0.0000000000e+00 0.0000e+00 -1.0000e+00
</event>
<event>
 8      4 +2.2883893e-04 9.11880000e+01 7.81616400e-03 1.18400000e-01
      -11 -1    0    0    0    0 +0.0000000000e+00 +0.0000000000e+00 +4.5593999997e+01 4.5594000000e+01 5.1100000000e-04 0.0000e+00 -1.0000e+00
       11 -1    0    0    0    0 -0.0000000000e+00 -0.0000000000e+00 -4.5593999997e+01 4.5594000000e+01 5.1100000000e-04 0.0000e+00 1.0000e+00
       23  2    1    2    0    0 +0.0000000000e+00 +0.0000000000e+00 +0.0000000000e+00 9.1188000000e+01 9.1188000000e+01 2.6339e-14 0.0000e+00
 -9990012  2    3    3    0    0 +1.7145796528e+01 +1.7755978761e+01 -2.0185821396e+01 5.9301944963e+01 5.0000001706e+01 1.4361e-03 0.0000e+00
      -11  1    4    4    0    0 +1.0610887279e+01 +2.9578039227e+01 -2.3550345421e+01 3.9269200439e+01 5.1100000000e-04 0.0000e+00 1.0000e+00
       11  1    4    4    0    0 +4.0549621875e-01 -5.7432743777e+00 +8.2904530963e+00 1.0093623758e+01 5.1100000000e-04 0.0000e+00 -1.0000e+00
      -12  1    4    4    0    0 +6.1294130303e+00 -6.0787860880e+00 -4.9259290714e+00 9.9391207668e+00 0.0000000000e+00 0.0000e+00 1.0000e+00
       12  1    3    3    0    0 -1.7145796528e+01 -1.7755978761e+01 +2.0185821396e+01 3.1886055037e+01 0.0000000000e+00 0.0000e+00 -1.0000e+00
</event>
<event>
 8      4 +2.2883893e-04 9.11880000e+01 7.81616400e-03 1.18400000e-01
      -11 -1    0    0    0    0 +0.0000000000e+00 +0.0000000000e+00 +4.5593999997e+01 4.5594000000e+01 5.1100000000e-04 0.0000e+00 -1.0000e+00
       11 -1    0    0    0    0 -0.0000000000e+00 -0.0000000000e+00 -4.5593999997e+01 4.5594000000e+01 5.1100000000e-04 0.0000e+00 1.0000e+00
       23  2    1    2    0    0 +6.6613381478e-16 -1.5543122345e-15 +0.0000000000e+00 9.1188000000e+01 9.1188000000e+01 6.2780e-16 0.0000e+00
 -9990012  2    3    3    0    0 -1.7869201564e-01 +9.4917110875e-01 -3.1871422438e+01 5.9301946233e+01 5.0000004022e+01 1.6621e-03 0.0000e+00
      -11  1    4    4    0    0 +6.7540803885e-01 +8.2797673026e+00 -3.0977220848e+00 8.8660365993e+00 5.1100000000e-04 0.0000e+00 1.0000e+00
       11  1    4    4    0    0 -2.0451593835e+01 -6.0346385996e+00 -1.1223258020e+01 2.4096598811e+01 5.1100000000e-04 0.0000e+00 -1.0000e+00
      -12  1    4    4    0    0 +1.9597493780e+01 -1.2959575942e+00 -1.7550442333e+01 2.6339310823e+01 0.0000000000e+00 0.0000e+00 1.0000e+00
       12  1    3    3    0    0 +1.7869201564e-01 -9.4917110875e-01 +3.1871422438e+01 3.1886053767e+01 0.0000000000e+00 0.0000e+00 -1.0000e+00
</event>
<event>
 8      4 +2.2883893e-04 9.11880000e+01 7.81616400e-03 1.18400000e-01
      -11 -1    0    0    0    0 +0.0000000000e+00 +0.0000000000e+00 +4.5593999997e+01 4.5594000000e+01 5.1100000000e-04 0.0000e+00 -1.0000e+00
       11 -1    0    0    0    0 -0.0000000000e+00 -0.0000000000e+00 -4.5593999997e+01 4.5594000000e+01 5.1100000000e-04 0.0000e+00 1.0000e+00
       23  2    1    2    0    0 -3.3306690739e-16 +3.5527136788e-15 +0.0000000000e+00 9.1188000000e+01 9.1188000000e+01 8.3185e-14 0.0000e+00
 -9990012  2    3    3    0    0 +9.9044282480e-01 +2.4531867435e+01 +2.0345190906e+01 5.9301948350e+01 5.0000007883e+01 3.3184e-03 0.0000e+00
      -11  1    4    4    0    0 -5.5166714573e+00 -4.7492924360e+00 +1.0000862913e+01 1.2369587781e+01 5.1100000000e-04 0.0000e+00 1.0000e+00
       11  1    4    4    0    0 -4.8163411368e+00 -5.9181130829e+00 +5.9909564720e+00 9.7011733372e+00 5.1100000000e-04 0.0000e+00 -1.0000e+00
      -12  1    4    4    0    0 +1.1323455419e+01 +3.5199272953e+01 +4.3533715210e+00 3.7231187232e+01 0.0000000000e+00 0.0000e+00 1.0000e+00
       12  1    3    3    0    0 -9.9044282480e-01 -2.4531867435e+01 -2.0345190906e+01 3.1886051650e+01 0.0000000000e+00 0.0000e+00 -1.0000e+00
</event>
<event>
 8      4 +2.2883893e-04 9.11880000e+01 7.81616400e-03 1.18400000e-01
      -11 -1    0    0    0    0 +0.0000000000e+00 +0.0000000000e+00 +4.5593999997e+01 4.5594000000e+01 5.1100000000e-04 0.0000e+00 -1.0000e+00
       11 -1    0    0    0    0 -0.0000000000e+00 -0.0000000000e+00 -4.5593999997e+01 4.5594000000e+01 5.1100000000e-04 0.0000e+00 1.0000e+00
       23  2    1    2    0    0 +1.7763568394e-15 -3.5527136788e-15 +0.0000000000e+00 9.1188000000e+01 9.1188000000e+01 9.0397e-14 0.0000e+00
 -9990012  2    3    3    0    0 -1.0784359191e+01 +2.0464448007e+01 -2.1945804087e+01 5.9302041453e+01 5.0000177681e+01 9.2350e-04 0.0000e+00
      -11  1    4    4    0    0 +5.3174861434e+00 +1.1161327922e+01 +7.3805570911e-01 1.2385298800e+01 5.1100000000e-04 0.0000e+00 1.0000e+00
       11  1    4    4    0    0 -1.4907155453e+00 -1.3145005323e+01 -2.7079607349e+00 1.3503571727e+01 5.1100000000e-04 0.0000e+00 -1.0000e+00
      -12  1    4    4    0    0 -1.4611129789e+01 +2.2448125409e+01 -1.9975899061e+01 3.3413170927e+01 0.0000000000e+00 0.0000e+00 1.0000e+00
       12  1    3    3    0    0 +1.0784359191e+01 -2.0464448007e+01 +2.1945804087e+01 3.1885958547e+01 0.0000000000e+00 0.0000e+00 -1.0000e+00
</event>
<event>
 8      3 +2.2883893e-04 9.11880000e+01 7.81616400e-03 1.18400000e-01
      -11 -1    0    0    0    0 +0.0000000000e+00 +0.0000000000e+00 +4.5593999997e+01 4.5594000000e+01 5.1100000000e-04 0.0000e+00 1.0000e+00
       11 -1    0    0    0    0 -0.0000000000e+00 -0.0000000000e+00 -4.5593999997e+01 4.5594000000e+01 5.1100000000e-04 0.0000e+00 -1.0000e+00
       23  2    1    2    0    0 +1.7763568394e-15 +0.0000000000e+00 +0.0000000000e+00 9.1188000000e+01 9.1188000000e+01 9.8786e-14 0.0000e+00
  9990012  2    3    3    0    0 +1.5297357183e+01 +1.6858160920e+01 -2.2327421498e+01 5.9301945413e+01 5.0000002527e+01 1.0204e-03 0.0000e+00
      -11  1    4    4    0    0 +3.0027523436e+00 +3.1375136429e+01 -1.2281367172e+01 3.3826730369e+01 5.1100000000e-04 0.0000e+00 1.0000e+00
       11  1    4    4    0    0 +3.8104654700e+00 -1.3020323743e+01 -2.0486514550e+00 1.3720256940e+01 5.1100000000e-04 0.0000e+00 -1.0000e+00
       12  1    4    4    0    0 +8.4841393689e+00 -1.4966517670e+00 -7.9974028710e+00 1.1754958104e+01 0.0000000000e+00 0.0000e+00 -1.0000e+00
      -12  1    3    3    0    0 -1.5297357183e+01 -1.6858160920e+01 +2.2327421498e+01 3.1886054587e+01 0.0000000000e+00 0.0000e+00 1.0000e+00
</event>
<event>
 8      4 +2.2883893e-04 9.11880000e+01 7.81616400e-03 1.18400000e-01
      -11 -1    0    0    0    0 +0.0000000000e+00 +0.0000000000e+00 +4.5593999997e+01 4.5594000000e+01 5.1100000000e-04 0.0000e+00 -1.0000e+00
       11 -1    0    0    0    0 -0.0000000000e+00 -0.0000000000e+00 -4.5593999997e+01 4.5594000000e+01 5.1100000000e-04 0.0000e+00 1.0000e+00
       23  2    1    2    0    0 +0.0000000000e+00 -1.3322676296e-15 -3.5527136788e-15 9.1188000000e+01 9.1188000000e+01 1.6456e-13 0.0000e+00
 -9990012  2    3    3    0    0 -2.3807534772e+01 +3.3111752975e+00 -2.0951322082e+01 5.9301945199e+01 5.0000002136e+01 2.6956e-03 0.0000e+00
      -11  1    4    4    0    0 -4.7612343645e+00 -1.6782942381e+01 -8.5098028477e+00 1.9410132725e+01 5.1100000000e-04 0.0000e+00 1.0000e+00
       11  1    4    4    0    0 +2.6776282414e+00 -1.5836105651e+00 +4.0064886260e+00 5.0724221820e+00 5.1100000000e-04 0.0000e+00 -1.0000e+00
      -12  1    4    4    0    0 -2.1723928649e+01 +2.1677728243e+01 -1.6448007861e+01 3.4819390292e+01 0.0000000000e+00 0.0000e+00 1.0000e+00
       12  1    3    3    0    0 +2.3807534772e+01 -3.3111752975e+00 +2.0951322082e+01 3.1886054801e+01 0.0000000000e+00 0.0000e+00 -1.0000e+00
</event>
<event>
 8      4 +2.2883893e-04 9.11880000e+01 7.81616400e-03 1.18400000e-01
      -11 -1    0    0    0    0 +0.0000000000e+00 +0.0000000000e+00 +4.5593999997e+01 4.5594000000e+01 5.1100000000e-04 0.0000e+00 1.0000e+00
       11 -1    0    0    0    0 -0.0000000000e+00 -0.0000000000e+00 -4.5593999997e+01 4.5594000000e+01 5.1100000000e-04 0.0000e+00 -1.0000e+00
       23  2    1    2    0    0 +0.0000000000e+00 +0.0000000000e+00 -1.1102230246e-16 9.1188000000e+01 9.1188000000e+01 2.9113e-14 0.0000e+00
 -9990012  2    3    3    0    0 -9.8470210586e+00 -3.0322109369e+01 -5.7374182437e-01 5.9301900834e+01 4.9999921225e+01 2.4247e-05 0.0000e+00
      -11  1    4    4    0    0 +7.7055486545e+00 +1.2772311252e+00 -1.1943470864e+01 1.4270714626e+01 5.1100000000e-04 0.0000e+00 1.0000e+00
       11  1    4    4    0    0 -1.7400096567e+01 -1.1372572201e+01 -1.8466643670e+00 2.0868850676e+01 5.1100000000e-04 0.0000e+00 -1.0000e+00
      -12  1    4    4    0    0 -1.5247314627e-01 -2.0226768294e+01 +1.3216393406e+01 2.4162335531e+01 0.0000000000e+00 0.0000e+00 1.0000e+00
       12  1    3    3    0    0 +9.8470210586e+00 +3.0322109369e+01 +5.7374182437e-01 3.1886099166e+01 0.0000000000e+00 0.0000e+00 -1.0000e+00
</event>
<event>
 8      3 +2.2883893e-04 9.11880000e+01 7.81616400e-03 1.18400000e-01
      -11 -1    0    0    0    0 +0.0000000000e+00 +0.0000000000e+00 +4.5593999997e+01 4.5594000000e+01 5.1100000000e-04 0.0000e+00 1.0000e+00
       11 -1    0    0    0    0 -0.0000000000e+00 -0.0000000000e+00 -4.5593999997e+01 4.5594000000e+01 5.1100000000e-04 0.0000e+00 -1.0000e+00
       23  2    1    2    0    0 +0.0000000000e+00 -7.1054273576e-15 -3.5527136788e-15 9.1188000000e+01 9.1188000000e+01 3.4240e-15 0.0000e+00
  9990012  2    3    3    0    0 -8.6660051766e+00 -2.7510975188e+01 -1.3593532795e+01 5.9301677927e+01 4.9999514694e+01 3.3772e-03 0.0000e+00
      -11  1    4    4    0    0 +3.1495457546e+00 +1.1738471491e+01 -5.2561350460e+00 1.3241537195e+01 5.1100000000e-04 0.0000e+00 1.0000e+00
       11  1    4    4    0    0 +2.1833349623e+00 -4.3135799468e+00 -6.8631938121e+00 8.3950790991e+00 5.1100000000e-04 0.0000e+00 -1.0000e+00
       12  1    4    4    0    0 -1.3998885894e+01 -3.4935866732e+01 -1.4742039366e+00 3.7665061633e+01 0.0000000000e+00 0.0000e+00 -1.0000e+00
      -12  1    3    3    0    0 +8.6660051766e+00 +2.7510975188e+01 +1.3593532795e+01 3.1886322073e+01 0.0000000000e+00 0.0000e+00 1.0000e+00
</event>
<event>
 8      4 +2.2883893e-04 9.11880000e+01 7.81616400e-03 1.18400000e-01
      -11 -1    0    0    0    0 +0.0000000000e+00 +0.0000000000e+00 +4.5593999997e+01 4.5594000000e+01 5.1100000000e-04 0.0000e+00 1.0000e+00
       11 -1    0    0    0    0 -0.0000000000e+00 -0.0000000000e+00 -4.5593999997e+01 4.5594000000e+01 5.1100000000e-04 0.0000e+00 -1.0000e+00
       23  2    1    2    0    0 -3.5527136788e-15 +7.1054273576e-15 +1.4432899320e-15 9.1188000000e+01 9.1188000000e+01 7.7392e-14 0.0000e+00
 -9990012  2    3    3    0    0 +1.3877674889e+01 -2.8693391728e+01 -9.0490184775e-01 5.9301961730e+01 5.0000032285e+01 4.4651e-04 0.0000e+00
      -11  1    4    4    0    0 +3.3441021916e+00 -5.0427090044e-01 +1.9900500607e+01 2.0185817627e+01 5.1100000000e-04 0.0000e+00 1.0000e+00
       11  1    4    4    0    0 +7.0220005654e+00 -2.9206301734e+00 -5.1338149386e+00 9.1757631091e+00 5.1100000000e-04 0.0000e+00 -1.0000e+00
      -12  1    4    4    0    0 +3.5115721315e+00 -2.5268490654e+01 -1.5671587516e+01 2.9940380994e+01 0.0000000000e+00 0.0000e+00 1.0000e+00
       12  1    3    3    0    0 -1.3877674889e+01 +2.8693391728e+01 +9.0490184775e-01 3.1886038270e+01 0.0000000000e+00 0.0000e+00 -1.0000e+00
</event>
<event>
 8      3 +2.2883893e-04 9.11880000e+01 7.81616400e-03 1.18400000e-01
      -11 -1    0    0    0    0 +0.0000000000e+00 +0.0000000000e+00 +4.5593999997e+01 4.5594000000e+01 5.1100000000e-04 0.0000e+00 -1.0000e+00
       11 -1    0    0    0    0 -0.0000000000e+00 -0.0000000000e+00 -4.5593999997e+01 4.5594000000e+01 5.1100000000e-04 0.0000e+00 1.0000e+00
       23  2    1    2    0    0 +0.0000000000e+00 +0.0000000000e+00 +1.7763568394e-15 9.1188000000e+01 9.1188000000e+01 1.1247e-14 0.0000e+00
  9990012  2    3    3    0    0 -2.2850377327e+01 -2.0467985401e+01 +8.6974052186e+00 5.9301905415e+01 4.9999929579e+01 9.3336e-04 0.0000e+00
      -11  1    4    4    0    0 +9.5665627889e+00 +1.5577948751e-01 +2.1260274158e+00 9.8011929721e+00 5.1100000000e-04 0.0000e+00 -1.0000e+00
       11  1    4    4    0    0 -7.0713738020e-01 -3.3251290414e+00 -9.4074994381e+00 1.0002878204e+01 5.1100000000e-04 0.0000e+00 1.0000e+00
       12  1    4    4    0    0 -3.1709802736e+01 -1.7298635847e+01 +1.5978877241e+01 3.9497834239e+01 0.0000000000e+00 0.0000e+00 -1.0000e+00
      -12  1    3    3    0    0 +2.2850377327e+01 +2.0467985401e+01 -8.6974052186e+00 3.1886094585e+01 0.0000000000e+00 0.0000e+00 1.0000e+00
</event>
<event>
 8      4 +2.2883893e-04 9.11880000e+01 7.81616400e-03 1.18400000e-01
      -11 -1    0    0    0    0 +0.0000000000e+00 +0.0000000000e+00 +4.5593999997e+01 4.5594000000e+01 5.1100000000e-04 0.0000e+00 -1.0000e+00
       11 -1    0    0    0    0 -0.0000000000e+00 -0.0000000000e+00 -4.5593999997e+01 4.5594000000e+01 5.1100000000e-04 0.0000e+00 1.0000e+00
       23  2    1    2    0    0 +0.0000000000e+00 +0.0000000000e+00 +0.0000000000e+00 9.1188000000e+01 9.1188000000e+01 1.2119e-13 0.0000e+00
 -9990012  2    3    3    0    0 +1.0612131898e+01 +2.1762372076e+01 +2.0748557589e+01 5.9301939976e+01 4.9999992611e+01 3.3148e-05 0.0000e+00
      -11  1    4    4    0    0 +2.4288597580e+01 +2.1878253458e+01 +4.5790258110e+00 3.3008505334e+01 5.1100000000e-04 0.0000e+00 1.0000e+00
       11  1    4    4    0    0 +9.2417321786e-01 +5.1347185373e+00 +4.1520426935e+00 6.6677499491e+00 5.1100000000e-04 0.0000e+00 -1.0000e+00
      -12  1    4    4    0    0 -1.4600638899e+01 -5.2505999192e+00 +1.2017489084e+01 1.9625684693e+01 0.0000000000e+00 0.0000e+00 1.0000e+00
       12  1    3    3    0    0 -1.0612131898e+01 -2.1762372076e+01 -2.0748557589e+01 3.1886060024e+01 0.0000000000e+00 0.0000e+00 -1.0000e+00
</event>
<event>
 8      3 +2.2883893e-04 9.11880000e+01 7.81616400e-03 1.18400000e-01
      -11 -1    0    0    0    0 +0.0000000000e+00 +0.0000000000e+00 +4.5593999997e+01 4.5594000000e+01 5.1100000000e-04 0.0000e+00 -1.0000e+00
       11 -1    0    0    0    0 -0.0000000000e+00 -0.0000000000e+00 -4.5593999997e+01 4.5594000000e+01 5.1100000000e-04 0.0000e+00 1.0000e+00
       23  2    1    2    0    0 +8.8817841970e-16 +0.0000000000e+00 +0.0000000000e+00 9.1188000000e+01 9.1188000000e+01 4.3894e-14 0.0000e+00
  9990012  2    3    3    0    0 -1.2930029199e+00 +6.3442817124e+00 +3.1221745130e+01 5.9301966444e+01 5.0000040881e+01 2.5966e-03 0.0000e+00
      -11  1    4    4    0    0 +1.5169122214e+01 -1.1867546744e+00 +1.9287519554e+00 1.5337233772e+01 5.1100000000e-04 0.0000e+00 1.0000e+00
       11  1    4    4    0    0 -2.1103571575e+00 +1.4946518480e+01 +7.5504906243e+00 1.6877853268e+01 5.1100000000e-04 0.0000e+00 -1.0000e+00
       12  1    4    4    0    0 -1.4351767976e+01 -7.4154820932e+00 +2.1742502550e+01 2.7086879404e+01 0.0000000000e+00 0.0000e+00 -1.0000e+00
      -12  1    3    3    0    0 +1.2930029199e+00 -6.3442817124e+00 -3.1221745130e+01 3.1886033556e+01 0.0000000000e+00 0.0000e+00 1.0000e+00
</event>
<event>
 8      3 +2.2883893e-04 9.11880000e+01 7.81616400e-03 1.18400000e-01
      -11 -1    0    0    0    0 +0.0000000000e+00 +0.0000000000e+00 +4.5593999997e+01 4.5594000000e+01 5.1100000000e-04 0.0000e+00 1.0000e+00
       11 -1    0    0    0    0 -0.0000000000e+00 -0.0000000000e+00 -4.5593999997e+01 4.5594000000e+01 5.1100000000e-04 0.0000e+00 -1.0000e+00
       23  2    1    2    0    0 +0.0000000000e+00 -3.5527136788e-15 -3.3306690739e-16 9.1188000000e+01 9.1188000000e+01 3.5222e-14 0.0000e+00
  9990012  2    3    3    0    0 -2.4215550197e+01 -2.0726790284e+01 -8.5214986468e-01 5.9301970673e+01 5.0000048595e+01 1.3449e-04 0.0000e+00
      -11  1    4    4    0    0 -1.9307221387e+01 +6.5975640429e+00 -1.8536722909e+00 2.0487380267e+01 5.1100000000e-04 0.0000e+00 1.0000e+00
       11  1    4    4    0    0 -1.5984265871e+01 -1.8291824188e+01 -1.3553530352e+00 2.4329499988e+01 5.1100000000e-04 0.0000e+00 -1.0000e+00
       12  1    4    4    0    0 +1.1075937061e+01 -9.0325301387e+00 +2.3568754614e+00 1.4485090418e+01 0.0000000000e+00 0.0000e+00 -1.0000e+00
      -12  1    3    3    0    0 +2.4215550197e+01 +2.0726790284e+01 +8.5214986468e-01 3.1886029327e+01 0.0000000000e+00 0.0000e+00 1.0000e+00
</event>
<event>
 8      4 +2.2883893e-04 9.11880000e+01 7.81616400e-03 1.18400000e-01
      -11 -1    0    0    0    0 +0.0000000000e+00 +0.0000000000e+00 +4.5593999997e+01 4.5594000000e+01 5.1100000000e-04 0.0000e+00 1.0000e+00
       11 -1    0    0    0    0 -0.0000000000e+00 -0.0000000000e+00 -4.5593999997e+01 4.5594000000e+01 5.1100000000e-04 0.0000e+00 -1.0000e+00
       23  2    1    2    0    0 +0.0000000000e+00 +0.0000000000e+00 -3.5527136788e-15 9.1188000000e+01 9.1188000000e+01 1.6147e-14 0.0000e+00
 -9990012  2    3    3    0    0 -3.1677095889e+01 -3.4471192331e-01 +3.6281604833e+00 5.9301940683e+01 4.9999993899e+01 3.6820e-04 0.0000e+00
      -11  1    4    4    0    0 -2.3458473093e+01 -6.6266403459e-01 +2.5692124661e+01 3.4796901491e+01 5.1100000000e-04 0.0000e+00 1.0000e+00
       11  1    4    4    0    0 -5.0754901853e+00 +3.3632451271e+00 -1.0457481092e+01 1.2100864822e+01 5.1100000000e-04 0.0000e+00 -1.0000e+00
      -12  1    4    4    0    0 -3.1431326111e+00 -3.0452930158e+00 -1.1606483086e+01 1.2404174370e+01 0.0000000000e+00 0.0000e+00 1.0000e+00
       12  1    3    3    0    0 +3.1677095889e+01 +3.4471192331e-01 -3.6281604833e+00 3.1886059317e+01 0.0000000000e+00 0.0000e+00 -1.0000e+00
</event>
<event>
 8      3 +2.2883893e-04 9.11880000e+01 7.81616400e-03 1.18400000e-01
      -11 -1    0    0    0    0 +0.0000000000e+00 +0.0000000000e+00 +4.5593999997e+01 4.5594000000e+01 5.1100000000e-04 0.0000e+00 -1.0000e+00
       11 -1    0    0    0    0 -0.0000000000e+00 -0.0000000000e+00 -4.5593999997e+01 4.5594000000e+01 5.1100000000e-04 0.0000e+00 1.0000e+00
       23  2    1    2    0    0 +0.0000000000e+00 +0.0000000000e+00 +0.0000000000e+00 9.1188000000e+01 9.1188000000e+01 4.7468e-14 0.0000e+00
  9990012  2    3    3    0    0 -4.8506487870e+00 -2.9599600007e+01 +1.0819226278e+01 5.9301940797e+01 4.9999994108e+01 2.3000e-04 0.0000e+00
      -11  1    4    4    0    0 -7.3852867244e+00 -2.6075672166e+01 -8.8276485245e+00 2.8502815960e+01 5.1100000000e-04 0.0000e+00 1.0000e+00
       11  1    4    4    0    0 +5.9215351155e+00 +2.4536741895e+00 -3.0404512505e+00 7.0943244372e+00 5.1100000000e-04 0.0000e+00 -1.0000e+00
       12  1    4    4    0    0 -3.3868971781e+00 -5.9776020303e+00 +2.2687326053e+01 2.3704800399e+01 0.0000000000e+00 0.0000e+00 -1.0000e+00
      -12  1    3    3    0    0 +4.8506487870e+00 +2.9599600007e+01 -1.0819226278e+01 3.1886059203e+01 0.0000000000e+00 0.0000e+00 1.0000e+00
</event>
<event>
 8      4 +2.2883893e-04 9.11880000e+01 7.81616400e-03 1.18400000e-01
      -11 -1    0    0    0    0 +0.0000000000e+00 +0.0000000000e+00 +4.5593999997e+01 4.5594000000e+01 5.1100000000e-04 0.0000e+00 1.0000e+00
       11 -1    0    0    0    0 -0.0000000000e+00 -0.0000000000e+00 -4.5593999997e+01 4.5594000000e+01 5.1100000000e-04 0.0000e+00 -1.0000e+00
       23  2    1    2    0    0 +0.0000000000e+00 +0.0000000000e+00 +0.0000000000e+00 9.1188000000e+01 9.1188000000e+01 2.8960e-13 0.0000e+00
 -9990012  2    3    3    0    0 +1.1147852785e+01 +2.3971994925e+01 +1.7826844479e+01 5.9301834560e+01 4.9999800356e+01 2.0213e-03 0.0000e+00
      -11  1    4    4    0    0 -2.8315556779e+00 +7.8729062634e+00 -6.7914225031e+00 1.0776074446e+01 5.1100000000e-04 0.0000e+00 1.0000e+00
       11  1    4    4    0    0 +1.5276896497e+01 -6.2618490630e-01 -3.5905980568e+00 1.5705669957e+01 5.1100000000e-04 0.0000e+00 -1.0000e+00
      -12  1    4    4    0    0 -1.2974880339e+00 +1.6725273568e+01 +2.8208865039e+01 3.2820090157e+01 0.0000000000e+00 0.0000e+00 1.0000e+00
       12  1    3    3    0    0 -1.1147852785e+01 -2.3971994925e+01 -1.7826844479e+01 3.1886165440e+01 0.0000000000e+00 0.0000e+00 -1.0000e+00
</event>
<event>
 8      4 +2.2883893e-04 9.11880000e+01 7.81616400e-03 1.18400000e-01
      -11 -1    0    0    0    0 +0.0000000000e+00 +0.0000000000e+00 +4.5593999997e+01 4.5594000000e+01 5.1100000000e-04 0.0000e+00 1.0000e+00
       11 -1    0    0    0    0 -0.0000000000e+00 -0.0000000000e+00 -4.5593999997e+01 4.5594000000e+01 5.1100000000e-04 0.0000e+00 -1.0000e+00
       23  2    1    2    0    0 +1.3322676296e-15 +0.0000000000e+00 -3.5527136788e-15 9.1188000000e+01 9.1188000000e+01 1.4946e-14 0.0000e+00
 -9990012  2    3    3    0    0 +1.2718092836e+00 +1.9424051565e+01 +2.5254877122e+01 5.9301951382e+01 5.0000013413e+01 2.7010e-03 0.0000e+00
      -11  1    4    4    0    0 -8.2583141174e+00 +4.7302779183e+00 +5.4597526185e+00 1.0971972483e+01 5.1100000000e-04 0.0000e+00 1.0000e+00
       11  1    4    4    0    0 -5.8401183616e+00 +1.9404201005e+01 -2.9496509926e+00 2.0477559434e+01 5.1100000000e-04 0.0000e+00 -1.0000e+00
      -12  1    4    4    0    0 +1.5370241763e+01 -4.7104273585e+00 +2.2744775496e+01 2.7852419466e+01 0.0000000000e+00 0.0000e+00 1.0000e+00
       12  1    3    3    0    0 -1.2718092836e+00 -1.9424051565e+01 -2.5254877122e+01 3.1886048618e+01 0.0000000000e+00 0.0000e+00 -1.0000e+00
</event>
<event>
 8      4 +2.2883893e-04 9.11880000e+01 7.81616400e-03 1.18400000e-01
      -11 -1    0    0    0    0 +0.0000000000e+00 +0.0000000000e+00 +4.5593999997e+01 4.5594000000e+01 5.1100000000e-04 0.0000e+00 1.0000e+00
       11 -1    0    0    0    0 -0.0000000000e+00 -0.0000000000e+00 -4.5593999997e+01 4.5594000000e+01 5.1100000000e-04 0.0000e+00 -1.0000e+00
       23  2    1    2    0    0 -3.5527136788e-15 +1.3322676296e-15 -3.5527136788e-15 9.1188000000e+01 9.1188000000e+01 2.0517e-13 0.0000e+00
 -9990012  2    3    3    0    0 +1.9389555023e+01 -2.9874930307e+00 +2.5136445613e+01 5.9301939462e+01 4.9999991673e+01 1.6035e-03 0.0000e+00
      -11  1    4    4    0    0 +1.7722005451e+00 -1.5399083830e+00 -6.0113980118e+00 6.4535973625e+00 5.1100000000e-04 0.0000e+00 1.0000e+00
       11  1    4    4    0    0 +9.7599351074e+00 -1.9680672664e+01 +1.1022820886e+01 2.4578197459e+01 5.1100000000e-04 0.0000e+00 -1.0000e+00
      -12  1    4    4    0    0 +7.8574193703e+00 +1.8233088016e+01 +2.0125022738e+01 2.8270144640e+01 0.0000000000e+00 0.0000e+00 1.0000e+00
       12  1    3    3    0    0 -1.9389555023e+01 +2.9874930307e+00 -2.5136445613e+01 3.1886060538e+01 0.0000000000e+00 0.0000e+00 -1.0000e+00
</event>
<event>
 8      4 +2.2883893e-04 9.11880000e+01 7.81616400e-03 1.18400000e-01
      -11 -1    0    0    0    0 +0.0000000000e+00 +0.0000000000e+00 +4.5593999997e+01 4.5594000000e+01 5.1100000000e-04 0.0000e+00 1.0000e+00
       11 -1    0    0    0    0 -0.0000000000e+00 -0.0000000000e+00 -4.5593999997e+01 4.5594000000e+01 5.1100000000e-04 0.0000e+00 -1.0000e+00
       23  2    1    2    0    0 +0.0000000000e+00 -1.7763568394e-15 +0.0000000000e+00 9.1188000000e+01 9.1188000000e+01 1.8238e-14 0.0000e+00
 -9990012  2    3    3    0    0 -2.6915254614e+01 -5.8860169724e+00 +1.6051287047e+01 5.9301953795e+01 5.0000017813e+01 3.9512e-03 0.0000e+00
      -11  1    4    4    0    0 -1.3860688645e+01 +1.0443199890e+01 -3.6553239937e+00 1.7735289888e+01 5.1100000000e-04 0.0000e+00 1.0000e+00
       11  1    4    4    0    0 +1.8603189111e+00 +7.4079190549e+00 +8.3591778734e+00 1.1323157959e+01 5.1100000000e-04 0.0000e+00 -1.0000e+00
      -12  1    4    4    0    0 -1.4914884880e+01 -2.3737135917e+01 +1.1347433167e+01 3.0243505948e+01 0.0000000000e+00 0.0000e+00 1.0000e+00
       12  1    3    3    0    0 +2.6915254614e+01 +5.8860169724e+00 -1.6051287047e+01 3.1886046205e+01 0.0000000000e+00 0.0000e+00 -1.0000e+00
</event>
<event>
 8      3 +2.2883893e-04 9.11880000e+01 7.81616400e-03 1.18400000e-01
      -11 -1    0    0    0    0 +0.0000000000e+00 +0.0000000000e+00 +4.5593999997e+01 4.5594000000e+01 5.1100000000e-04 0.0000e+00 1.0000e+00
       11 -1    0    0    0    0 -0.0000000000e+00 -0.0000000000e+00 -4.5593999997e+01 4.5594000000e+01 5.1100000000e-04 0.0000e+00 -1.0000e+00
       23  2    1    2    0    0 +0.0000000000e+00 -1.7763568394e-15 +0.0000000000e+00 9.1188000000e+01 9.1188000000e+01 1.9123e-13 0.0000e+00
  9990012  2    3    3    0    0 -2.9008187578e+01 +5.3655227613e+00 -1.2101859090e+01 5.9301972112e+01 5.0000051218e+01 4.5964e-03 0.0000e+00
      -11  1    4    4    0    0 -1.4038705052e+01 +5.1358414970e+00 -1.0662886748e+00 1.4986630016e+01 5.1100000000e-04 0.0000e+00 1.0000e+00
       11  1    4    4    0    0 -6.2759751322e+00 +1.4494608178e+01 -1.9897888601e+01 2.5404871602e+01 5.1100000000e-04 0.0000e+00 -1.0000e+00
       12  1    4    4    0    0 -8.6935073934e+00 -1.4264926914e+01 +8.8623181857e+00 1.8910470494e+01 0.0000000000e+00 0.0000e+00 -1.0000e+00
      -12  1    3    3    0    0 +2.9008187578e+01 -5.3655227613e+00 +1.2101859090e+01 3.1886027888e+01 0.0000000000e+00 0.0000e+00 1.0000e+00
</event>
<event>
 8      4 +2.2883893e-04 9.11880000e+01 7.81616400e-03 1.18400000e-01
      -11 -1    0    0    0    0 +0.0000000000e+00 +0.0000000000e+00 +4.5593999997e+01 4.5594000000e+01 5.1100000000e-04 0.0000e+00 1.0000e+00
       11 -1    0    0    0    0 -0.0000000000e+00 -0.0000000000e+00 -4.5593999997e+01 4.5594000000e+01 5.1100000000e-04 0.0000e+00 -1.0000e+00
       23  2    1    2    0    0 +2.6645352591e-15 +3.5527136788e-15 -3.5527136788e-15 9.1188000000e+01 9.1188000000e+01 1.5559e-14 0.0000e+00
 -9990012  2    3    3    0    0 -2.3849282026e+00 -2.0155737723e+01 +2.4592166954e+01 5.9302010582e+01 5.0000121378e+01 2.3481e-03 0.0000e+00
      -11  1    4    4    0    0 -2.4274547375e+01 -5.9334424338e+00 +3.7130746850e+00 2.5263537228e+01 5.1100000000e-04 0.0000e+00 1.0000e+00
       11  1    4    4    0    0 +1.5462276896e+01 -1.2787902539e+01 +1.3698379322e+01 2.4295226989e+01 5.1100000000e-04 0.0000e+00 -1.0000e+00
      -12  1    4    4    0    0 +6.4273422761e+00 -1.4343927509e+00 +7.1807129473e+00 9.7432463650e+00 0.0000000000e+00 0.0000e+00 1.0000e+00
       12  1    3    3    0    0 +2.3849282026e+00 +2.0155737723e+01 -2.4592166954e+01 3.1885989418e+01 0.0000000000e+00 0.0000e+00 -1.0000e+00
</event>
<event>
 8      3 +2.2883893e-04 9.11880000e+01 7.81616400e-03 1.18400000e-01
      -11 -1    0    0    0    0 +0.0000000000e+00 +0.0000000000e+00 +4.5593999997e+01 4.5594000000e+01 5.1100000000e-04 0.0000e+00 1.0000e+00
       11 -1    0    0    0    0 -0.0000000000e+00 -0.0000000000e+00 -4.5593999997e+01 4.5594000000e+01 5.1100000000e-04 0.0000e+00 -1.0000e+00
       23  2    1    2    0    0 -3.5527136788e-15 +2.6645352591e-15 +0.0000000000e+00 9.1188000000e+01 9.1188000000e+01 7.9603e-14 0.0000e+00
  9990012  2    3    3    0    0 +2.5677828583e+01 +2.1742357984e+00 -1.8778720497e+01 5.9301976015e+01 5.0000058337e+01 2.4728e-03 0.0000e+00
      -11  1    4    4    0    0 +7.6729429266e+00 -2.3197886667e+01 -8.7116848549e+00 2.5940498303e+01 5.1100000000e-04 0.0000e+00 -1.0000e+00
       11  1    4    4    0    0 +1.1265953160e+01 +1.3408609284e+01 -8.7217129541e+00 1.9564784196e+01 5.1100000000e-04 0.0000e+00 1.0000e+00
       12  1    4    4    0    0 +6.7389324967e+00 +1.1963513181e+01 -1.3453226880e+00 1.3796693515e+01 0.0000000000e+00 0.0000e+00 -1.0000e+00
      -12  1    3    3    0    0 -2.5677828583e+01 -2.1742357984e+00 +1.8778720497e+01 3.1886023985e+01 0.0000000000e+00 0.0000e+00 1.0000e+00
</event>
<event>
 8      3 +2.2883893e-04 9.11880000e+01 7.81616400e-03 1.18400000e-01
      -11 -1    0    0    0    0 +0.0000000000e+00 +0.0000000000e+00 +4.5593999997e+01 4.5594000000e+01 5.1100000000e-04 0.0000e+00 -1.0000e+00
       11 -1    0    0    0    0 -0.0000000000e+00 -0.0000000000e+00 -4.5593999997e+01 4.5594000000e+01 5.1100000000e-04 0.0000e+00 1.0000e+00
       23  2    1    2    0    0 -1.7763568394e-15 +0.0000000000e+00 +1.7763568394e-15 9.1188000000e+01 9.1188000000e+01 5.6505e-14 0.0000e+00
  9990012  2    3    3    0    0 -9.9991966066e+00 +2.6014272671e+01 +1.5491830925e+01 5.9301903645e+01 4.9999926351e+01 4.8320e-03 0.0000e+00
      -11  1    4    4    0    0 -6.6270810290e+00 +3.5038718282e+00 -1.3960203232e+00 7.6252340133e+00 5.1100000000e-04 0.0000e+00 1.0000e+00
       11  1    4    4    0    0 +8.7793328837e+00 -3.1528293407e+00 -9.2111488471e+00 1.3109625551e+01 5.1100000000e-04 0.0000e+00 -1.0000e+00
       12  1    4    4    0    0 -1.2151448461e+01 +2.5663230183e+01 +2.6099000095e+01 3.8567044081e+01 0.0000000000e+00 0.0000e+00 -1.0000e+00
      -12  1    3    3    0    0 +9.9991966066e+00 -2.6014272671e+01 -1.5491830925e+01 3.1886096355e+01 0.0000000000e+00 0.0000e+00 1.0000e+00
</event>
<event>
 8      4 +2.2883893e-04 9.11880000e+01 7.81616400e-03 1.18400000e-01
      -11 -1    0    0    0    0 +0.0000000000e+00 +0.0000000000e+00 +4.5593999997e+01 4.5594000000e+01 5.1100000000e-04 0.0000e+00 1.0000e+00
       11 -1    0    0    0    0 -0.0000000000e+00 -0.0000000000e+00 -4.5593999997e+01 4.5594000000e+01 5.1100000000e-04 0.0000e+00 -1.0000e+00
       23  2    1    2    0    0 +0.0000000000e+00 +8.8817841970e-16 +0.0000000000e+00 9.1188000000e+01 9.1188000000e+01 2.4620e-13 0.0000e+00
 -9990012  2    3    3    0    0 +1.2596318561e+01 -2.7672276316e+00 +2.9161322252e+01 5.9302148819e+01 5.0000373489e+01 2.3547e-03 0.0000e+00
      -11  1    4    4    0    0 -2.5228108348e+00 -1.7534922768e+01 +2.4396615117e+01 3.0150172809e+01 5.1100000000e-04 0.0000e+00 1.0000e+00
       11  1    4    4    0    0 +1.7927360909e+01 +9.4000975551e+00 +8.5877534802e+00 2.1988670112e+01 5.1100000000e-04 0.0000e+00 -1.0000e+00
      -12  1    4    4    0    0 -2.8082315129e+00 +5.3675975813e+00 -3.8230463455e+00 7.1633058978e+00 0.0000000000e+00 0.0000e+00 1.0000e+00
       12  1    3    3    0    0 -1.2596318561e+01 +2.7672276316e+00 -2.9161322252e+01 3.1885851181e+01 0.0000000000e+00 0.0000e+00 -1.0000e+00
</event>
<event>
 8      4 +2.2883893e-04 9.11880000e+01 7.81616400e-03 1.18400000e-01
      -11 -1    0    0    0    0 +0.0000000000e+00 +0.0000000000e+00 +4.5593999997e+01 4.5594000000e+01 5.1100000000e-04 0.0000e+00 -1.0000e+00
       11 -1    0    0    0    0 -0.0000000000e+00 -0.0000000000e+00 -4.5593999997e+01 4.5594000000e+01 5.1100000000e-04 0.0000e+00 1.0000e+00
       23  2    1    2    0    0 +1.6653345369e-16 +0.0000000000e+00 +0.0000000000e+00 9.1188000000e+01 9.1188000000e+01 2.0826e-14 0.0000e+00
 -9990012  2    3    3    0    0 +2.4760217299e-01 -3.0840118359e+01 +8.0960440856e+00 5.9301950746e+01 5.0000012252e+01 5.3004e-03 0.0000e+00
      -11  1    4    4    0    0 -2.1012572239e+00 -5.6870494202e+00 +5.6072663378e+00 8.2582836638e+00 5.1100000000e-04 0.0000e+00 1.0000e+00
       11  1    4    4    0    0 -7.8792052677e+00 +1.0847978566e+01 -1.0640373816e+00 1.3449635327e+01 5.1100000000e-04 0.0000e+00 -1.0000e+00
      -12  1    4    4    0    0 +1.0228064665e+01 -3.6001047505e+01 +3.5528151294e+00 3.7594031755e+01 0.0000000000e+00 0.0000e+00 1.0000e+00
       12  1    3    3    0    0 -2.4760217299e-01 +3.0840118359e+01 -8.0960440856e+00 3.1886049254e+01 0.0000000000e+00 0.0000e+00 -1.0000e+00
</event>
<event>
 8      3 +2.2883893e-04 9.11880000e+01 7.81616400e-03 1.18400000e-01
      -11 -1    0    0    0    0 +0.0000000000e+00 +0.0000000000e+00 +4.5593999997e+01 4.5594000000e+01 5.1100000000e-04 0.0000e+00 1.0000e+00
       11 -1    0    0    0    0 -0.0000000000e+00 -0.0000000000e+00 -4.5593999997e+01 4.5594000000e+01 5.1100000000e-04 0.0000e+00 -1.0000e+00
       23  2    1    2    0    0 -1.7763568394e-15 -8.8817841970e-16 +0.0000000000e+00 9.1188000000e+01 9.1188000000e+01 9.5020e-14 0.0000e+00
  9990012  2    3    3    0    0 -1.5248898063e+01 +5.6045759487e+00 -2.7436820038e+01 5.9301964538e+01 5.0000037405e+01 7.8083e-04 0.0000e+00
      -11  1    4    4    0    0 +4.3858158366e+00 +9.1688275376e+00 -9.1611100182e+00 1.3683154461e+01 5.1100000000e-04 0.0000e+00 1.0000e+00
       11  1    4    4    0    0 -5.8707005258e+00 -6.3194751326e+00 -2.7500773823e+01 2.8821753100e+01 5.1100000000e-04 0.0000e+00 -1.0000e+00
       12  1    4    4    0    0 -1.3764013373e+01 +2.7552235437e+00 +9.2250638034e+00 1.6797056977e+01 0.0000000000e+00 0.0000e+00 -1.0000e+00
      -12  1    3    3    0    0 +1.5248898063e+01 -5.6045759487e+00 +2.7436820038e+01 3.1886035462e+01 0.0000000000e+00 0.0000e+00 1.0000e+00
</event>
<event>
 8      3 +2.2883893e-04 9.11880000e+01 7.81616400e-03 1.18400000e-01
      -11 -1    0    0    0    0 +0.0000000000e+00 +0.0000000000e+00 +4.5593999997e+01 4.5594000000e+01 5.1100000000e-04 0.0000e+00 1.0000e+00
       11 -1    0    0    0    0 -0.0000000000e+00 -0.0000000000e+00 -4.5593999997e+01 4.5594000000e+01 5.1100000000e-04 0.0000e+00 -1.0000e+00
       23  2    1    2    0    0 -3.5527136788e-15 +0.0000000000e+00 +0.0000000000e+00 9.1188000000e+01 9.1188000000e+01 3.7217e-14 0.0000e+00
  9990012  2    3    3    0    0 +2.4528016603e+01 -1.8447178522e+01 -8.6487695752e+00 5.9301902574e+01 4.9999924398e+01 2.0468e-04 0.0000e+00
      -11  1    4    4    0    0 -1.2809414464e+01 -1.7966090873e+00 +4.5046259013e+00 1.3696735301e+01 5.1100000000e-04 0.0000e+00 1.0000e+00
       11  1    4    4    0    0 +3.0940947744e+01 -9.5700631678e+00 -4.4524156803e+00 3.2691778202e+01 5.1100000000e-04 0.0000e+00 -1.0000e+00
       12  1    4    4    0    0 +6.3964833233e+00 -7.0805062669e+00 -8.7009797962e+00 1.2913389072e+01 0.0000000000e+00 0.0000e+00 -1.0000e+00
      -12  1    3    3    0    0 -2.4528016603e+01 +1.8447178522e+01 +8.6487695752e+00 3.1886097426e+01 0.0000000000e+00 0.0000e+00 1.0000e+00
</event>
<event>
 8      4 +2.2883893e-04 9.11880000e+01 7.81616400e-03 1.18400000e-01
      -11 -1    0    0    0    0 +0.0000000000e+00 +0.0000000000e+00 +4.5593999997e+01 4.5594000000e+01 5.1100000000e-04 0.0000e+00 1.0000e+00
       11 -1    0    0    0    0 -0.0000000000e+00 -0.0000000000e+00 -4.5593999997e+01 4.5594000000e+01 5.1100000000e-04 0.0000e+00 -1.0000e+00
       23  2    1    2    0    0 +1.7763568394e-15 +0.0000000000e+00 +0.0000000000e+00 9.1188000000e+01 9.1188000000e+01 4.7318e-14 0.0000e+00
 -9990012  2    3    3    0    0 +1.5316625347e+01 -1.2447193067e+01 +2.5043713399e+01 5.9301965312e+01 5.0000038818e+01 2.6990e-03 0.0000e+00
      -11  1    4    4    0    0 +2.3056181194e+01 -1.0501107534e+01 +1.2050095707e+01 2.8054688690e+01 5.1100000000e-04 0.0000e+00 1.0000e+00
       11  1    4    4    0    0 -1.6330508109e+00 -3.3030729487e+00 -8.2854212388e+00 9.0678195406e+00 5.1100000000e-04 0.0000e+00 -1.0000e+00
      -12  1    4    4    0    0 -6.1065050355e+00 +1.3569874155e+00 +2.1279038931e+01 2.2179457082e+01 0.0000000000e+00 0.0000e+00 1.0000e+00
       12  1    3    3    0    0 -1.5316625347e+01 +1.2447193067e+01 -2.5043713399e+01 3.1886034688e+01 0.0000000000e+00 0.0000e+00 -1.0000e+00
</event>
<event>
 8      3 +2.2883893e-04 9.11880000e+01 7.81616400e-03 1.18400000e-01
      -11 -1    0    0    0    0 +0.0000000000e+00 +0.0000000000e+00 +4.5593999997e+01 4.5594000000e+01 5.1100000000e-04 0.0000e+00 -1.0000e+00
       11 -1    0    0    0    0 -0.0000000000e+00 -0.0000000000e+00 -4.5593999997e+01 4.5594000000e+01 5.1100000000e-04 0.0000e+00 1.0000e+00
       23  2    1    2    0    0 -4.4408920985e-16 +6.6613381478e-16 +0.0000000000e+00 9.1188000000e+01 9.1188000000e+01 1.0627e-13 0.0000e+00
  9990012  2    3    3    0    0 +2.6199843322e+00 -1.7115793410e+00 +3.1732216835e+01 5.9301836747e+01 4.9999804346e+01 1.1074e-03 0.0000e+00
      -11  1    4    4    0    0 +5.0564264692e+00 -1.1415598474e+01 -3.2537710682e+00 1.2902339462e+01 5.1100000000e-04 0.0000e+00 1.0000e+00
       11  1    4    4    0    0 +7.2822292875e+00 +1.1083324354e+00 +3.2326611950e+01 3.3155227410e+01 5.1100000000e-04 0.0000e+00 -1.0000e+00
       12  1    4    4    0    0 -9.7186714245e+00 +8.5956866979e+00 +2.6593759527e+00 1.3244269875e+01 0.0000000000e+00 0.0000e+00 -1.0000e+00
      -12  1    3    3    0    0 -2.6199843322e+00 +1.7115793410e+00 -3.1732216835e+01 3.1886163253e+01 0.0000000000e+00 0.0000e+00 1.0000e+00
</event>
<event>
 8      3 +2.2883893e-04 9.11880000e+01 7.81616400e-03 1.18400000e-01
      -11 -1    0    0    0    0 +0.0000000000e+00 +0.0000000000e+00 +4.5593999997e+01 4.5594000000e+01 5.1100000000e-04 0.0000e+00 1.0000e+00
       11 -1    0    0    0    0 -0.0000000000e+00 -0.0000000000e+00 -4.5593999997e+01 4.5594000000e+01 5.1100000000e-04 0.0000e+00 -1.0000e+00
       23  2    1    2    0    0 -3.5527136788e-15 +3.5527136788e-15 +0.0000000000e+00 9.1188000000e+01 9.1188000000e+01 3.5360e-14 0.0000e+00
  9990012  2    3    3    0    0 +1.0773785475e+01 -2.2447726454e+01 -1.9918475047e+01 5.9301944669e+01 5.0000001169e+01 2.5147e-03 0.0000e+00
      -11  1    4    4    0    0 +6.2373612587e+00 -1.2564406666e+01 -8.6237659820e+00 1.6466278581e+01 5.1100000000e-04 0.0000e+00 1.0000e+00
       11  1    4    4    0    0 -1.2134184142e+01 -1.8800798749e+01 -5.2131405064e+00 2.2975754451e+01 5.1100000000e-04 0.0000e+00 -1.0000e+00
       12  1    4    4    0    0 +1.6670608358e+01 +8.9174789619e+00 -6.0815685583e+00 1.9859911636e+01 0.0000000000e+00 0.0000e+00 -1.0000e+00
      -12  1    3    3    0    0 -1.0773785475e+01 +2.2447726454e+01 +1.9918475047e+01 3.1886055331e+01 0.0000000000e+00 0.0000e+00 1.0000e+00
</event>
<event>
 8      3 +2.2883893e-04 9.11880000e+01 7.81616400e-03 1.18400000e-01
      -11 -1    0    0    0    0 +0.0000000000e+00 +0.0000000000e+00 +4.5593999997e+01 4.5594000000e+01 5.1100000000e-04 0.0000e+00 1.0000e+00
       11 -1    0    0    0    0 -0.0000000000e+00 -0.0000000000e+00 -4.5593999997e+01 4.5594000000e+01 5.1100000000e-04 0.0000e+00 -1.0000e+00
       23  2    1    2    0    0 +0.0000000000e+00 +0.0000000000e+00 -7.1054273576e-15 9.1188000000e+01 9.1188000000e+01 3.9276e-15 0.0000e+00
  9990012  2    3    3    0    0 +1.8425356157e+01 -1.2595687457e+01 -2.2772266579e+01 5.9301933808e+01 4.9999981362e+01 5.1895e-03 0.0000e+00
      -11  1    4    4    0    0 +1.3913093843e+01 +7.5744679063e+00 +4.3276463004e+00 1.6421792445e+01 5.1100000000e-04 0.0000e+00 1.0000e+00
       11  1    4    4    0    0 +3.1550268066e-01 -1.1832908319e+00 +5.1105952900e+00 5.2552738857e+00 5.1100000000e-04 0.0000e+00 -1.0000e+00
       12  1    4    4    0    0 +4.1967596330e+00 -1.8986864531e+01 -3.2210508170e+01 3.7624867477e+01 0.0000000000e+00 0.0000e+00 -1.0000e+00
      -12  1    3    3    0    0 -1.8425356157e+01 +1.2595687457e+01 +2.2772266579e+01 3.1886066192e+01 0.0000000000e+00 0.0000e+00 1.0000e+00
</event>
<event>
 8      4 +2.2883893e-04 9.11880000e+01 7.81616400e-03 1.18400000e-01
      -11 -1    0    0    0    0 +0.0000000000e+00 +0.0000000000e+00 +4.5593999997e+01 4.5594000000e+01 5.1100000000e-04 0.0000e+00 -1.0000e+00
       11 -1    0    0    0    0 -0.0000000000e+00 -0.0000000000e+00 -4.5593999997e+01 4.5594000000e+01 5.1100000000e-04 0.0000e+00 1.0000e+00
       23  2    1    2    0    0 +0.0000000000e+00 +0.0000000000e+00 +1.7763568394e-15 9.1188000000e+01 9.1188000000e+01 3.4390e-14 0.0000e+00
 -9990012  2    3    3    0    0 +1.1598087520e+01 -2.6186537557e+01 +1.4016771330e+01 5.9301948788e+01 5.0000008682e+01 1.0196e-04 0.0000e+00
      -11  1    4    4    0    0 +9.2245518980e+00 -1.9974142071e+00 +1.4171719173e+00 9.5441289669e+00 5.1100000000e-04 0.0000e+00 1.0000e+00
       11  1    4    4    0    0 -1.6750701151e+01 -3.0473196233e+00 -2.9583172218e+00 1.7280734561e+01 5.1100000000e-04 0.0000e+00 -1.0000e+00
      -12  1    4    4    0    0 +1.9124236773e+01 -2.1141803727e+01 +1.5557916635e+01 3.2477085260e+01 0.0000000000e+00 0.0000e+00 1.0000e+00
       12  1    3    3    0    0 -1.1598087520e+01 +2.6186537557e+01 -1.4016771330e+01 3.1886051212e+01 0.0000000000e+00 0.0000e+00 -1.0000e+00
</event>
<event>
 8      3 +2.2883893e-04 9.11880000e+01 7.81616400e-03 1.18400000e-01
      -11 -1    0    0    0    0 +0.0000000000e+00 +0.0000000000e+00 +4.5593999997e+01 4.5594000000e+01 5.1100000000e-04 0.0000e+00 1.0000e+00
       11 -1    0    0    0    0 -0.0000000000e+00 -0.0000000000e+00 -4.5593999997e+01 4.5594000000e+01 5.1100000000e-04 0.0000e+00 -1.0000e+00
       23  2    1    2    0    0 -3.1086244690e-15 +0.0000000000e+00 +0.0000000000e+00 9.1188000000e+01 9.1188000000e+01 1.0800e-14 0.0000e+00
  9990012  2    3    3    0    0 -3.7142485354e+00 -3.0599153599e+01 +8.1629325576e+00 5.9301681443e+01 4.9999521106e+01 1.9426e-04 0.0000e+00
      -11  1    4    4    0    0 +1.8733002658e+01 -2.1733796119e+00 +7.0526455714e+00 2.0134268731e+01 5.1100000000e-04 0.0000e+00 1.0000e+00
       11  1    4    4    0    0 -1.2070106310e+01 -1.2835732054e+01 +7.8159658491e+00 1.9275186280e+01 5.1100000000e-04 0.0000e+00 -1.0000e+00
       12  1    4    4    0    0 -1.0377144883e+01 -1.5590041934e+01 -6.7056788629e+00 1.9892226432e+01 0.0000000000e+00 0.0000e+00 -1.0000e+00
      -12  1    3    3    0    0 +3.7142485354e+00 +3.0599153599e+01 -8.1629325576e+00 3.1886318557e+01 0.0000000000e+00 0.0000e+00 1.0000e+00
</event>
<event>
 8      3 +2.2883893e-04 9.11880000e+01 7.81616400e-03 1.18400000e-01
      -11 -1    0    0    0    0 +0.0000000000e+00 +0.0000000000e+00 +4.5593999997e+01 4.5594000000e+01 5.1100000000e-04 0.0000e+00 1.0000e+00
       11 -1    0    0    0    0 -0.0000000000e+00 -0.0000000000e+00 -4.5593999997e+01 4.5594000000e+01 5.1100000000e-04 0.0000e+00 -1.0000e+00
       23  2    1    2    0    0 -8.8817841970e-16 +3.5527136788e-15 +0.0000000000e+00 9.1188000000e+01 9.1188000000e+01 7.6893e-16 0.0000e+00
  9990012  2    3    3    0    0 -7.1940073074e+00 -1.8082030290e+01 -2.5258831466e+01 5.9301919533e+01 4.9999955328e+01 4.6384e-03 0.0000e+00
      -11  1    4    4    0    0 +6.9225736053e+00 -1.3831431650e+01 +4.7177268789e+00 1.6170574324e+01 5.1100000000e-04 0.0000e+00 1.0000e+00
       11  1    4    4    0    0 -1.1975956632e+01 +4.9792662630e+00 -1.4240001783e+00 1.3047774007e+01 5.1100000000e-04 0.0000e+00 -1.0000e+00
       12  1    4    4    0    0 -2.1406242806e+00 -9.2298649024e+00 -2.8552558166e+01 3.0083571202e+01 0.0000000000e+00 0.0000e+00 -1.0000e+00
      -12  1    3    3    0    0 +7.1940073074e+00 +1.8082030290e+01 +2.5258831466e+01 3.1886080467e+01 0.0000000000e+00 0.0000e+00 1.0000e+00
</event>
<event>
 8      4 +2.2883893e-04 9.11880000e+01 7.81616400e-03 1.18400000e-01
      -11 -1    0    0    0    0 +0.0000000000e+00 +0.0000000000e+00 +4.5593999997e+01 4.5594000000e+01 5.1100000000e-04 0.0000e+00 1.0000e+00
       11 -1    0    0    0    0 -0.0000000000e+00 -0.0000000000e+00 -4.5593999997e+01 4.5594000000e+01 5.1100000000e-04 0.0000e+00 -1.0000e+00
       23  2    1    2    0    0 -3.5527136788e-15 +0.0000000000e+00 -1.1102230246e-15 9.1188000000e+01 9.1188000000e+01 1.6224e-14 0.0000e+00
 -9990012  2    3    3    0    0 +1.6968375912e+01 -2.6990810884e+01 +5.3903255991e-01 5.9301949612e+01 5.0000010184e+01 1.5603e-03 0.0000e+00
      -11  1    4    4    0    0 -1.1270848914e+01 -5.3768862687e+00 -5.6161845905e+00 1.3692496880e+01 5.1100000000e-04 0.0000e+00 1.0000e+00
       11  1    4    4    0    0 +1.0354293464e+01 -3.6066981876e+00 -1.0557617970e+01 1.5221135385e+01 5.1100000000e-04 0.0000e+00 -1.0000e+00
      -12  1    4    4    0    0 +1.7884931362e+01 -1.8007226428e+01 +1.6712835120e+01 3.0388317347e+01 0.0000000000e+00 0.0000e+00 1.0000e+00
       12  1    3    3    0    0 -1.6968375912e+01 +2.6990810884e+01 -5.3903255991e-01 3.1886050388e+01 0.0000000000e+00 0.0000e+00 -1.0000e+00
</event>
<event>
 8      3 +2.2883893e-04 9.11880000e+01 7.81616400e-03 1.18400000e-01
      -11 -1    0    0    0    0 +0.0000000000e+00 +0.0000000000e+00 +4.5593999997e+01 4.5594000000e+01 5.1100000000e-04 0.0000e+00 -1.0000e+00
       11 -1    0    0    0    0 -0.0000000000e+00 -0.0000000000e+00 -4.5593999997e+01 4.5594000000e+01 5.1100000000e-04 0.0000e+00 1.0000e+00
       23  2    1    2    0    0 +0.0000000000e+00 +0.0000000000e+00 +0.0000000000e+00 9.1188000000e+01 9.1188000000e+01 3.0697e-14 0.0000e+00
  9990012  2    3    3    0    0 +2.7010255370e+01 +7.3576170442e+00 +1.5265595137e+01 5.9301845974e+01 4.9999821173e+01 9.7879e-04 0.0000e+00
      -11  1    4    4    0    0 +2.3290539989e+01 -8.6928420020e-01 -7.8093196140e+00 2.4580284398e+01 5.1100000000e-04 0.0000e+00 1.0000e+00
       11  1    4    4    0    0 -4.5182481828e+00 -7.0681947100e+00 +9.5040068597e+00 1.2676753912e+01 5.1100000000e-04 0.0000e+00 -1.0000e+00
       12  1    4    4    0    0 +8.2379635638e+00 +1.5295095954e+01 +1.3570907891e+01 2.2044807663e+01 0.0000000000e+00 0.0000e+00 -1.0000e+00
      -12  1    3    3    0    0 -2.7010255370e+01 -7.3576170442e+00 -1.5265595137e+01 3.1886154026e+01 0.0000000000e+00 0.0000e+00 1.0000e+00
</event>
<event>
 8      3 +2.2883893e-04 9.11880000e+01 7.81616400e-03 1.18400000e-01
      -11 -1    0    0    0    0 +0.0000000000e+00 +0.0000000000e+00 +4.5593999997e+01 4.5594000000e+01 5.1100000000e-04 0.0000e+00 1.0000e+00
       11 -1    0    0    0    0 -0.0000000000e+00 -0.0000000000e+00 -4.5593999997e+01 4.5594000000e+01 5.1100000000e-04 0.0000e+00 -1.0000e+00
       23  2    1    2    0    0 -1.7763568394e-15 -3.5527136788e-15 -4.4408920985e-16 9.1188000000e+01 9.1188000000e+01 1.8649e-14 0.0000e+00
  9990012  2    3    3    0    0 +6.0110282217e+00 +3.1310192354e+01 -5.0884039215e-01 5.9301960357e+01 5.0000029781e+01 2.7379e-03 0.0000e+00
      -11  1    4    4    0    0 +2.7513953639e+00 +3.5891549041e+01 +5.7508343091e+00 3.6453334066e+01 5.1100000000e-04 0.0000e+00 1.0000e+00
       11  1    4    4    0    0 -7.7542683539e+00 -6.6335177515e+00 -5.5658169087e+00 1.1623706534e+01 5.1100000000e-04 0.0000e+00 -1.0000e+00
       12  1    4    4    0    0 +1.1013901212e+01 +2.0521610652e+00 -6.9385779250e-01 1.1224919758e+01 0.0000000000e+00 0.0000e+00 -1.0000e+00
      -12  1    3    3    0    0 -6.0110282217e+00 -3.1310192354e+01 +5.0884039215e-01 3.1886039643e+01 0.0000000000e+00 0.0000e+00 1.0000e+00
</event>
<event>
 8      4 +2.2883893e-04 9.11880000e+01 7.81616400e-03 1.18400000e-01
      -11 -1    0    0    0    0 +0.0000000000e+00 +0.0000000000e+00 +4.5593999997e+01 4.5594000000e+01 5.1100000000e-04 0.0000e+00 1.0000e+00
       11 -1    0    0    0    0 -0.0000000000e+00 -0.0000000000e+00 -4.5593999997e+01 4.5594000000e+01 5.1100000000e-04 0.0000e+00 -1.0000e+00
       23  2    1    2    0    0 -2.6645352591e-15 -4.4408920985e-16 +0.0000000000e+00 9.1188000000e+01 9.1188000000e+01 5.4040e-15 0.0000e+00
 -9990012  2    3    3    0    0 -2.0633650392e+00 +1.3607854200e+00 +3.1790282201e+01 5.9301776413e+01 4.9999694309e+01 3.7191e-03 0.0000e+00
      -11  1    4    4    0    0 +1.0967340590e+01 -1.0667199053e+00 +1.6790698399e+01 2.0083525686e+01 5.1100000000e-04 0.0000e+00 1.0000e+00
       11  1    4    4    0    0 +7.8197632205e+00 +2.8897647872e+00 -5.4897522542e+00 9.9818243535e+00 5.1100000000e-04 0.0000e+00 -1.0000e+00
      -12  1    4    4    0    0 -2.0850468850e+01 -4.6225946200e-01 +2.0489336056e+01 2.9236426373e+01 0.0000000000e+00 0.0000e+00 1.0000e+00
       12  1    3    3    0    0 +2.0633650392e+00 -1.3607854200e+00 -3.1790282201e+01 3.1886223587e+01 0.0000000000e+00 0.0000e+00 -1.0000e+00
</event>
<event>
 8      3 +2.2883893e-04 9.11880000e+01 7.81616400e-03 1.18400000e-01
      -11 -1    0    0    0    0 +0.0000000000e+00 +0.0000000000e+00 +4.5593999997e+01 4.5594000000e+01 5.1100000000e-04 0.0000e+00 -1.0000e+00
       11 -1    0    0    0    0 -0.0000000000e+00 -0.0000000000e+00 -4.5593999997e+01 4.5594000000e+01 5.1100000000e-04 0.0000e+00 1.0000e+00
       23  2    1    2    0    0 -3.5527136788e-15 -2.6645352591e-15 +8.8817841970e-16 9.1188000000e+01 9.1188000000e+01 9.1253e-14 0.0000e+00
  9990012  2    3    3    0    0 +3.0678032262e+01 -6.8316037573e+00 -5.3767062274e+00 5.9301930263e+01 4.9999974897e+01 1.3127e-03 0.0000e+00
      -11  1    4    4    0    0 +3.4913971565e+01 -1.0586276125e+01 -1.3453208332e+01 3.8885003116e+01 5.1100000000e-04 0.0000e+00 1.0000e+00
       11  1    4    4    0    0 -7.9231712970e+00 +8.6338193707e+00 +2.1756707600e+00 1.1918599911e+01 5.1100000000e-04 0.0000e+00 -1.0000e+00
       12  1    4    4    0    0 +3.6872319942e+00 -4.8791470031e+00 +5.9008313446e+00 8.4983272363e+00 0.0000000000e+00 0.0000e+00 -1.0000e+00
      -12  1    3    3    0    0 -3.0678032262e+01 +6.8316037573e+00 +5.3767062274e+00 3.1886069737e+01 0.0000000000e+00 0.0000e+00 1.0000e+00
</event>
<event>
 8      4 +2.2883893e-04 9.11880000e+01 7.81616400e-03 1.18400000e-01
      -11 -1    0    0    0    0 +0.0000000000e+00 +0.0000000000e+00 +4.5593999997e+01 4.5594000000e+01 5.1100000000e-04 0.0000e+00 1.0000e+00
       11 -1    0    0    0    0 -0.0000000000e+00 -0.0000000000e+00 -4.5593999997e+01 4.5594000000e+01 5.1100000000e-04 0.0000e+00 -1.0000e+00
       23  2    1    2    0    0 +0.0000000000e+00 +0.0000000000e+00 -3.5527136788e-15 9.1188000000e+01 9.1188000000e+01 5.1897e-14 0.0000e+00
 -9990012  2    3    3    0    0 +2.5233750762e+01 -9.6672949630e+00 -1.6926816361e+01 5.9302017475e+01 5.0000133951e+01 2.4585e-03 0.0000e+00
      -11  1    4    4    0    0 +7.2599327547e+00 +1.5141634412e+01 +4.2824794955e+00 1.7329608973e+01 5.1100000000e-04 0.0000e+00 1.0000e+00
       11  1    4    4    0    0 +1.1139820509e+01 -1.3441607428e+01 -6.0502277844e-01 1.7468212961e+01 5.1100000000e-04 0.0000e+00 -1.0000e+00
      -12  1    4    4    0    0 +6.8339974988e+00 -1.1367321947e+01 -2.0604273078e+01 2.4504195541e+01 0.0000000000e+00 0.0000e+00 1.0000e+00
       12  1    3    3    0    0 -2.5233750762e+01 +9.6672949630e+00 +1.6926816361e+01 3.1885982525e+01 0.0000000000e+00 0.0000e+00 -1.0000e+00
</event>
<event>
 8      4 +2.2883893e-04 9.11880000e+01 7.81616400e-03 1.18400000e-01
      -11 -1    0    0    0    0 +0.0000000000e+00 +0.0000000000e+00 +4.5593999997e+01 4.5594000000e+01 5.1100000000e-04 0.0000e+00 -1.0000e+00
       11 -1    0    0    0    0 -0.0000000000e+00 -0.0000000000e+00 -4.5593999997e+01 4.5594000000e+01 5.1100000000e-04 0.0000e+00 1.0000e+00
       23  2    1    2    0    0 +3.9968028887e-15 -7.1054273576e-15 +0.0000000000e+00 9.1188000000e+01 9.1188000000e+01 5.5672e-14 0.0000e+00
 -9990012  2    3    3    0    0 +3.1756947820e+00 -3.0567127776e+01 -8.5020798086e+00 5.9301957616e+01 5.0000024781e+01 1.9443e-03 0.0000e+00
      -11  1    4    4    0    0 -1.1249650889e+01 -3.3068946268e+00 +5.9816727104e+00 1.3163229310e+01 5.1100000000e-04 0.0000e+00 -1.0000e+00
       11  1    4    4    0    0 +2.2011876551e+01 -2.8612728401e+01 -1.1997335792e+01 3.8041385387e+01 5.1100000000e-04 0.0000e+00 1.0000e+00
      -12  1    4    4    0    0 -7.5865308795e+00 +1.3524952513e+00 -2.4864167274e+00 8.0973429181e+00 0.0000000000e+00 0.0000e+00 1.0000e+00
       12  1    3    3    0    0 -3.1756947820e+00 +3.0567127776e+01 +8.5020798086e+00 3.1886042384e+01 0.0000000000e+00 0.0000e+00 -1.0000e+00
</event>
<event>
 8      3 +2.2883893e-04 9.11880000e+01 7.81616400e-03 1.18400000e-01
      -11 -1    0    0    0    0 +0.0000000000e+00 +0.0000000000e+00 +4.5593999997e+01 4.5594000000e+01 5.1100000000e-04 0.0000e+00 1.0000e+00
       11 -1    0    0    0    0 -0.0000000000e+00 -0.0000000000e+00 -4.5593999997e+01 4.5594000000e+01 5.1100000000e-04 0.0000e+00 -1.0000e+00
       23  2    1    2    0    0 +0.0000000000e+00 +0.0000000000e+00 +0.0000000000e+00 9.1188000000e+01 9.1188000000e+01 1.7733e-14 0.0000e+00
  9990012  2    3    3    0    0 +5.7332638989e+00 -2.9314602731e+01 -1.1158131397e+01 5.9301950629e+01 5.0000012038e+01 3.5882e-04 0.0000e+00
      -11  1    4    4    0    0 +7.3205921587e+00 -3.0785432084e+00 +1.2683391939e+01 1.4964522351e+01 5.1100000000e-04 0.0000e+00 1.0000e+00
       11  1    4    4    0    0 +2.9147993509e+00 +4.9600480778e+00 -2.5009450184e+00 6.2731856689e+00 5.1100000000e-04 0.0000e+00 -1.0000e+00
       12  1    4    4    0    0 -4.5021276107e+00 -3.1196107601e+01 -2.1340578318e+01 3.8064242609e+01 0.0000000000e+00 0.0000e+00 -1.0000e+00
      -12  1    3    3    0    0 -5.7332638989e+00 +2.9314602731e+01 +1.1158131397e+01 3.1886049371e+01 0.0000000000e+00 0.0000e+00 1.0000e+00
</event>
<event>
 7      3 +2.2883893e-04 5.93019300e+01 7.81616400e-03 1.26660500e-01
      -11 -1    0    0    0    0 +0.0000000000e+00 +0.0000000000e+00 +4.5593999997e+01 4.5594000000e+01 5.1100000000e-04 0.0000e+00 1.0000e+00
       11 -1    0    0    0    0 -0.0000000000e+00 -0.0000000000e+00 -4.5593999997e+01 4.5594000000e+01 5.1100000000e-04 0.0000e+00 -1.0000e+00
  9990012  2    1    2    0    0 +1.3372155467e+01 +2.5290460802e+01 -1.4081882644e+01 5.9301931440e+01 4.9999977043e+01 6.7245e-04 0.0000e+00
      -11  1    3    3    0    0 +4.4240910519e+00 +8.2556988814e+00 +1.0194446820e+01 1.3843983960e+01 5.1100000000e-04 0.0000e+00 1.0000e+00
       11  1    3    3    0    0 +1.9980599902e+01 +6.8514242867e+00 -2.1592606634e+01 3.0206076354e+01 5.1100000000e-04 0.0000e+00 -1.0000e+00
       12  1    3    3    0    0 -1.1032535486e+01 +1.0183337634e+01 -2.6837228308e+00 1.5251871126e+01 0.0000000000e+00 0.0000e+00 -1.0000e+00
      -12  1    1    2    0    0 -1.3372155467e+01 -2.5290460802e+01 +1.4081882644e+01 3.1886068560e+01 0.0000000000e+00 0.0000e+00 1.0000e+00
</event>
<event>
 8      3 +2.2883893e-04 9.11880000e+01 7.81616400e-03 1.18400000e-01
      -11 -1    0    0    0    0 +0.0000000000e+00 +0.0000000000e+00 +4.5593999997e+01 4.5594000000e+01 5.1100000000e-04 0.0000e+00 -1.0000e+00
       11 -1    0    0    0    0 -0.0000000000e+00 -0.0000000000e+00 -4.5593999997e+01 4.5594000000e+01 5.1100000000e-04 0.0000e+00 1.0000e+00
       23  2    1    2    0    0 -3.5527136788e-15 -3.5527136788e-15 -3.5527136788e-15 9.1188000000e+01 9.1188000000e+01 2.2466e-14 0.0000e+00
  9990012  2    3    3    0    0 -2.0985954360e+01 -2.0634241064e+01 -1.2269416308e+01 5.9301940958e+01 4.9999994401e+01 5.0786e-04 0.0000e+00
      -11  1    4    4    0    0 -1.0530831928e+01 +5.4136811212e+00 +5.5540218334e+00 1.3078743180e+01 5.1100000000e-04 0.0000e+00 1.0000e+00
       11  1    4    4    0    0 -1.0271212338e+01 -4.2264736057e+00 +7.0333796407e+00 1.3146456232e+01 5.1100000000e-04 0.0000e+00 -1.0000e+00
       12  1    4    4    0    0 -1.8391009477e-01 -2.1821448580e+01 -2.4856817782e+01 3.3076741546e+01 0.0000000000e+00 0.0000e+00 -1.0000e+00
      -12  1    3    3    0    0 +2.0985954360e+01 +2.0634241064e+01 +1.2269416308e+01 3.1886059042e+01 0.0000000000e+00 0.0000e+00 1.0000e+00
</event>
<event>
 8      4 +2.2883893e-04 9.11880000e+01 7.81616400e-03 1.18400000e-01
      -11 -1    0    0    0    0 +0.0000000000e+00 +0.0000000000e+00 +4.5593999997e+01 4.5594000000e+01 5.1100000000e-04 0.0000e+00 1.0000e+00
       11 -1    0    0    0    0 -0.0000000000e+00 -0.0000000000e+00 -4.5593999997e+01 4.5594000000e+01 5.1100000000e-04 0.0000e+00 -1.0000e+00
       23  2    1    2    0    0 +1.7763568394e-15 +0.0000000000e+00 -1.7763568394e-15 9.1188000000e+01 9.1188000000e+01 3.8596e-14 0.0000e+00
 -9990012  2    3    3    0    0 -1.5586259084e+01 +2.6779950626e+01 +7.5247984099e+00 5.9301955735e+01 5.0000021352e+01 8.4432e-04 0.0000e+00
      -11  1    4    4    0    0 +5.7063993299e+00 +7.2288907718e+00 +2.1302674015e+01 2.3208269551e+01 5.1100000000e-04 0.0000e+00 1.0000e+00
       11  1    4    4    0    0 -1.1511575384e+01 +2.0288503954e+01 -1.1574020347e+01 2.6040309287e+01 5.1100000000e-04 0.0000e+00 -1.0000e+00
      -12  1    4    4    0    0 -9.7810830297e+00 -7.3744410026e-01 -2.2038552582e+00 1.0053376897e+01 0.0000000000e+00 0.0000e+00 1.0000e+00
       12  1    3    3    0    0 +1.5586259084e+01 -2.6779950626e+01 -7.5247984099e+00 3.1886044265e+01 0.0000000000e+00 0.0000e+00 -1.0000e+00
</event>
<event>
 8      3 +2.2883893e-04 9.11880000e+01 7.81616400e-03 1.18400000e-01
      -11 -1    0    0    0    0 +0.0000000000e+00 +0.0000000000e+00 +4.5593999997e+01 4.5594000000e+01 5.1100000000e-04 0.0000e+00 -1.0000e+00
       11 -1    0    0    0    0 -0.0000000000e+00 -0.0000000000e+00 -4.5593999997e+01 4.5594000000e+01 5.1100000000e-04 0.0000e+00 1.0000e+00
       23  2    1    2    0    0 -1.7763568394e-15 +3.5527136788e-15 -3.5527136788e-15 9.1188000000e+01 9.1188000000e+01 1.5272e-14 0.0000e+00
  9990012  2    3    3    0    0 +1.5562079115e+01 -1.4000491103e+01 +2.4052602412e+01 5.9301956968e+01 5.0000023599e+01 1.6806e-03 0.0000e+00
      -11  1    4    4    0    0 -7.7043743195e+00 -9.7348754131e+00 +3.4516676965e+00 1.2885619625e+01 5.1100000000e-04 0.0000e+00 1.0000e+00
       11  1    4    4    0    0 -6.5506533824e+00 -9.2734954665e+00 +5.9670596416e+00 1.2826323672e+01 5.1100000000e-04 0.0000e+00 -1.0000e+00
       12  1    4    4    0    0 +2.9817106816e+01 +5.0078797770e+00 +1.4633875074e+01 3.3590013671e+01 0.0000000000e+00 0.0000e+00 -1.0000e+00
      -12  1    3    3    0    0 -1.5562079115e+01 +1.4000491103e+01 -2.4052602412e+01 3.1886043032e+01 0.0000000000e+00 0.0000e+00 1.0000e+00
</event>
<event>
 8      4 +2.2883893e-04 9.11880000e+01 7.81616400e-03 1.18400000e-01
      -11 -1    0    0    0    0 +0.0000000000e+00 +0.0000000000e+00 +4.5593999997e+01 4.5594000000e+01 5.1100000000e-04 0.0000e+00 -1.0000e+00
       11 -1    0    0    0    0 -0.0000000000e+00 -0.0000000000e+00 -4.5593999997e+01 4.5594000000e+01 5.1100000000e-04 0.0000e+00 1.0000e+00
       23  2    1    2    0    0 +0.0000000000e+00 +0.0000000000e+00 +3.5527136788e-15 9.1188000000e+01 9.1188000000e+01 2.9696e-13 0.0000e+00
 -9990012  2    3    3    0    0 -1.8853933731e+01 +1.1650171854e+01 -2.2924248496e+01 5.9301976565e+01 5.0000059340e+01 1.0764e-03 0.0000e+00
      -11  1    4    4    0    0 -1.7185274308e+00 -3.4067639033e+00 -2.7702568894e+01 2.7964114511e+01 5.1100000000e-04 0.0000e+00 1.0000e+00
       11  1    4    4    0    0 -2.1530765387e+00 +4.4628853995e-01 +9.6116144084e+00 9.8599210868e+00 5.1100000000e-04 0.0000e+00 -1.0000e+00
      -12  1    4    4    0    0 -1.4982329761e+01 +1.4610647218e+01 -4.8332940113e+00 2.1477940967e+01 0.0000000000e+00 0.0000e+00 1.0000e+00
       12  1    3    3    0    0 +1.8853933731e+01 -1.1650171854e+01 +2.2924248496e+01 3.1886023435e+01 0.0000000000e+00 0.0000e+00 -1.0000e+00
</event>
<event>
 8      4 +2.2883893e-04 9.11880000e+01 7.81616400e-03 1.18400000e-01
      -11 -1    0    0    0    0 +0.0000000000e+00 +0.0000000000e+00 +4.5593999997e+01 4.5594000000e+01 5.1100000000e-04 0.0000e+00 1.0000e+00
       11 -1    0    0    0    0 -0.0000000000e+00 -0.0000000000e+00 -4.5593999997e+01 4.5594000000e+01 5.1100000000e-04 0.0000e+00 -1.0000e+00
       23  2    1    2    0    0 +0.0000000000e+00 -3.5527136788e-15 +0.0000000000e+00 9.1188000000e+01 9.1188000000e+01 3.7362e-14 0.0000e+00
 -9990012  2    3    3    0    0 +2.4271687798e+01 +1.9927762798e+01 +5.5216302610e+00 5.9301969212e+01 5.0000045930e+01 1.1014e-03 0.0000e+00
      -11  1    4    4    0    0 +8.0093198889e+00 +1.5701544543e+01 -7.8063703478e+00 1.9277632748e+01 5.1100000000e-04 0.0000e+00 1.0000e+00
       11  1    4    4    0    0 +9.0009908565e+00 -1.4762254515e+01 +4.5356733832e+00 1.7874963722e+01 5.1100000000e-04 0.0000e+00 -1.0000e+00
      -12  1    4    4    0    0 +7.2613770522e+00 +1.8988472770e+01 +8.7923272256e+00 2.2149372742e+01 0.0000000000e+00 0.0000e+00 1.0000e+00
       12  1    3    3    0    0 -2.4271687798e+01 -1.9927762798e+01 -5.5216302610e+00 3.1886030788e+01 0.0000000000e+00 0.0000e+00 -1.0000e+00
</event>
<event>
 8      3 +2.2883893e-04 9.11880000e+01 7.81616400e-03 1.18400000e-01
      -11 -1    0    0    0    0 +0.0000000000e+00 +0.0000000000e+00 +4.5593999997e+01 4.5594000000e+01 5.1100000000e-04 0.0000e+00 -1.0000e+00
       11 -1    0    0    0    0 -0.0000000000e+00 -0.0000000000e+00 -4.5593999997e+01 4.5594000000e+01 5.1100000000e-04 0.0000e+00 1.0000e+00
       23  2    1    2    0    0 -2.6645352591e-15 +0.0000000000e+00 +0.0000000000e+00 9.1188000000e+01 9.1188000000e+01 3.9647e-14 0.0000e+00
  9990012  2    3    3    0    0 -3.6498697468e+00 -1.1234416267e+01 +2.9617357127e+01 5.9301929354e+01 4.9999973239e+01 9.8792e-04 0.0000e+00
      -11  1    4    4    0    0 +1.4526393718e+00 +8.0020064016e+00 +1.1757373459e+01 1.4296086825e+01 5.1100000000e-04 0.0000e+00 1.0000e+00
       11  1    4    4    0    0 +5.7859088797e+00 +8.9193063734e+00 +1.7058435640e+00 1.0767574949e+01 5.1100000000e-04 0.0000e+00 -1.0000e+00
       12  1    4    4    0    0 -1.0888417998e+01 -2.8155729042e+01 +1.6154140105e+01 3.4238267581e+01 0.0000000000e+00 0.0000e+00 -1.0000e+00
      -12  1    3    3    0    0 +3.6498697468e+00 +1.1234416267e+01 -2.9617357127e+01 3.1886070646e+01 0.0000000000e+00 0.0000e+00 1.0000e+00
</event>
<event>
 8      4 +2.2883893e-04 9.11880000e+01 7.81616400e-03 1.18400000e-01
      -11 -1    0    0    0    0 +0.0000000000e+00 +0.0000000000e+00 +4.5593999997e+01 4.5594000000e+01 5.1100000000e-04 0.0000e+00 1.0000e+00
       11 -1    0    0    0    0 -0.0000000000e+00 -0.0000000000e+00 -4.5593999997e+01 4.5594000000e+01 5.1100000000e-04 0.0000e+00 -1.0000e+00
       23  2    1    2    0    0 +1.7763568394e-15 +0.0000000000e+00 +0.0000000000e+00 9.1188000000e+01 9.1188000000e+01 1.0765e-13 0.0000e+00
 -9990012  2    3    3    0    0 -2.4576250431e+00 +1.6728721155e+01 +2.7033884948e+01 5.9301937720e+01 4.9999988497e+01 3.5082e-05 0.0000e+00
      -11  1    4    4    0    0 +1.7409283441e+01 -5.7734908335e-01 +3.3742717772e+00 1.7742665871e+01 5.1100000000e-04 0.0000e+00 -1.0000e+00
       11  1    4    4    0    0 -1.6850709969e+01 +1.6957125035e+01 +7.4093291306e+00 2.5027758077e+01 5.1100000000e-04 0.0000e+00 1.0000e+00
      -12  1    4    4    0    0 -3.0161985155e+00 +3.4894520272e-01 +1.6250284040e+01 1.6531513773e+01 0.0000000000e+00 0.0000e+00 1.0000e+00
       12  1    3    3    0    0 +2.4576250431e+00 -1.6728721155e+01 -2.7033884948e+01 3.1886062280e+01 0.0000000000e+00 0.0000e+00 -1.0000e+00
</event>
<event>
 8      3 +2.2883893e-04 9.11880000e+01 7.81616400e-03 1.18400000e-01
      -11 -1    0    0    0    0 +0.0000000000e+00 +0.0000000000e+00 +4.5593999997e+01 4.5594000000e+01 5.1100000000e-04 0.0000e+00 -1.0000e+00
       11 -1    0    0    0    0 -0.0000000000e+00 -0.0000000000e+00 -4.5593999997e+01 4.5594000000e+01 5.1100000000e-04 0.0000e+00 1.0000e+00
       23  2    1    2    0    0 -1.7763568394e-15 -6.6613381478e-16 +3.5527136788e-15 9.1188000000e+01 9.1188000000e+01 4.0514e-14 0.0000e+00
  9990012  2    3    3    0    0 +1.1756825916e+01 -1.5588805935e+00 +2.9598432609e+01 5.9301948547e+01 5.0000008242e+01 3.8651e-03 0.0000e+00
      -11  1    4    4    0    0 +1.9565639725e+01 +4.2286266963e+00 -3.5329187438e+00 2.0326757161e+01 5.1100000000e-04 0.0000e+00 1.0000e+00
       11  1    4    4    0    0 -6.7048662139e+00 +8.3998098524e-01 +1.8858882583e+00 7.0155095172e+00 5.1100000000e-04 0.0000e+00 -1.0000e+00
       12  1    4    4    0    0 -1.1039475948e+00 -6.6274882750e+00 +3.1245463095e+01 3.1959681869e+01 0.0000000000e+00 0.0000e+00 -1.0000e+00
      -12  1    3    3    0    0 -1.1756825916e+01 +1.5588805935e+00 -2.9598432609e+01 3.1886051453e+01 0.0000000000e+00 0.0000e+00 1.0000e+00
</event>
<event>
 8      4 +2.2883893e-04 9.11880000e+01 7.81616400e-03 1.18400000e-01
      -11 -1    0    0    0    0 +0.0000000000e+00 +0.0000000000e+00 +4.5593999997e+01 4.5594000000e+01 5.1100000000e-04 0.0000e+00 1.0000e+00
       11 -1    0    0    0    0 -0.0000000000e+00 -0.0000000000e+00 -4.5593999997e+01 4.5594000000e+01 5.1100000000e-04 0.0000e+00 -1.0000e+00
       23  2    1    2    0    0 +0.0000000000e+00 +1.3045120539e-15 +0.0000000000e+00 9.1188000000e+01 9.1188000000e+01 3.4408e-14 0.0000e+00
 -9990012  2    3    3    0    0 +2.5276526083e+01 -1.7672322345e-01 +1.9436783237e+01 5.9301912995e+01 4.9999943403e+01 4.9797e-04 0.0000e+00
      -11  1    4    4    0    0 +8.6149578973e-01 -4.5112099401e+00 +2.5820806206e+00 5.2688073330e+00 5.1100000000e-04 0.0000e+00 1.0000e+00
       11  1    4    4    0    0 +1.8179300490e+01 -1.9018696648e+01 +3.8636222315e+00 2.6591828924e+01 5.1100000000e-04 0.0000e+00 -1.0000e+00
      -12  1    4    4    0    0 +6.2357298027e+00 +2.3353183365e+01 +1.2991080385e+01 2.7441276738e+01 0.0000000000e+00 0.0000e+00 1.0000e+00
       12  1    3    3    0    0 -2.5276526083e+01 +1.7672322345e-01 -1.9436783237e+01 3.1886087005e+01 0.0000000000e+00 0.0000e+00 -1.0000e+00
</event>
<event>
 8      4 +2.2883893e-04 9.11880000e+01 7.81616400e-03 1.18400000e-01
      -11 -1    0    0    0    0 +0.0000000000e+00 +0.0000000000e+00 +4.5593999997e+01 4.5594000000e+01 5.1100000000e-04 0.0000e+00 1.0000e+00
       11 -1    0    0    0    0 -0.0000000000e+00 -0.0000000000e+00 -4.5593999997e+01 4.5594000000e+01 5.1100000000e-04 0.0000e+00 -1.0000e+00
       23  2    1    2    0    0 -3.8857805862e-16 -1.7763568394e-15 +0.0000000000e+00 9.1188000000e+01 9.1188000000e+01 3.3507e-13 0.0000e+00
 -9990012  2    3    3    0    0 -8.1976254597e-02 -1.2035795484e+01 +2.9527168373e+01 5.9301940896e+01 4.9999994289e+01 2.0000e-03 0.0000e+00
      -11  1    4    4    0    0 +1.5540671328e+01 +1.3050505741e+00 +2.0322625121e+01 2.5616883386e+01 5.1100000000e-04 0.0000e+00 1.0000e+00
       11  1    4    4    0    0 +9.5022879386e-01 -1.2840670578e+01 -2.8478885129e+00 1.3186971786e+01 5.1100000000e-04 0.0000e+00 -1.0000e+00
      -12  1    4    4    0    0 -1.6572876376e+01 -5.0017547985e-01 +1.2052431765e+01 2.0498085724e+01 0.0000000000e+00 0.0000e+00 1.0000e+00
       12  1    3    3    0    0 +8.1976254597e-02 +1.2035795484e+01 -2.9527168373e+01 3.1886059104e+01 0.0000000000e+00 0.0000e+00 -1.0000e+00
</event>
<event>
 8      3 +2.2883893e-04 9.11880000e+01 7.81616400e-03 1.18400000e-01
      -11 -1    0    0    0    0 +0.0000000000e+00 +0.0000000000e+00 +4.5593999997e+01 4.5594000000e+01 5.1100000000e-04 0.0000e+00 1.0000e+00
       11 -1    0    0    0    0 -0.0000000000e+00 -0.0000000000e+00 -4.5593999997e+01 4.5594000000e+01 5.1100000000e-04 0.0000e+00 -1.0000e+00
       23  2    1    2    0    0 +0.0000000000e+00 +0.0000000000e+00 +0.0000000000e+00 9.1188000000e+01 9.1188000000e+01 4.2556e-14 0.0000e+00
  9990012  2    3    3    0    0 -1.7926146017e+01 -1.6445163072e+01 -2.0613675646e+01 5.9302051321e+01 5.0000195677e+01 2.1038e-04 0.0000e+00
      -11  1    4    4    0    0 -1.8255683141e+01 -1.1688122691e+01 +9.6230740582e+00 2.3716781687e+01 5.1100000000e-04 0.0000e+00 1.0000e+00
       11  1    4    4    0    0 -1.8519536615e+00 -6.3377473010e+00 -1.5630194605e+00 6.7852636876e+00 5.1100000000e-04 0.0000e+00 -1.0000e+00
       12  1    4    4    0    0 +2.1814907847e+00 +1.5807069201e+00 -2.8673730244e+01 2.8800005947e+01 0.0000000000e+00 0.0000e+00 -1.0000e+00
      -12  1    3    3    0    0 +1.7926146017e+01 +1.6445163072e+01 +2.0613675646e+01 3.1885948679e+01 0.0000000000e+00 0.0000e+00 1.0000e+00
</event>
<event>
 8      4 +2.2883893e-04 9.11880000e+01 7.81616400e-03 1.18400000e-01
      -11 -1    0    0    0    0 +0.0000000000e+00 +0.0000000000e+00 +4.5593999997e+01 4.5594000000e+01 5.1100000000e-04 0.0000e+00 -1.0000e+00
       11 -1    0    0    0    0 -0.0000000000e+00 -0.0000000000e+00 -4.5593999997e+01 4.5594000000e+01 5.1100000000e-04 0.0000e+00 1.0000e+00
       23  2    1    2    0    0 +0.0000000000e+00 +3.5527136788e-15 -1.7763568394e-15 9.1188000000e+01 9.1188000000e+01 1.2500e-13 0.0000e+00
 -9990012  2    3    3    0    0 +6.7857052276e+00 +2.9237682715e+01 -1.0762573544e+01 5.9301939170e+01 4.9999991140e+01 5.3774e-03 0.0000e+00
      -11  1    4    4    0    0 +1.5531621362e+00 +2.1918548790e+00 +8.0186129119e+00 8.4566360761e+00 5.1100000000e-04 0.0000e+00 1.0000e+00
       11  1    4    4    0    0 -5.0157809478e+00 +2.5399500263e+01 +3.6337059883e+00 2.6143765826e+01 5.1100000000e-04 0.0000e+00 -1.0000e+00
      -12  1    4    4    0    0 +1.0248324039e+01 +1.6463275734e+00 -2.2414892444e+01 2.4701537267e+01 0.0000000000e+00 0.0000e+00 1.0000e+00
       12  1    3    3    0    0 -6.7857052276e+00 -2.9237682715e+01 +1.0762573544e+01 3.1886060830e+01 0.0000000000e+00 0.0000e+00 -1.0000e+00
</event>
<event>
 8      3 +2.2883893e-04 9.11880000e+01 7.81616400e-03 1.18400000e-01
      -11 -1    0    0    0    0 +0.0000000000e+00 +0.0000000000e+00 +4.5593999997e+01 4.5594000000e+01 5.1100000000e-04 0.0000e+00 -1.0000e+00
       11 -1    0    0    0    0 -0.0000000000e+00 -0.0000000000e+00 -4.5593999997e+01 4.5594000000e+01 5.1100000000e-04 0.0000e+00 1.0000e+00
       23  2    1    2    0    0 +0.0000000000e+00 +0.0000000000e+00 -8.8817841970e-16 9.1188000000e+01 9.1188000000e+01 6.5147e-14 0.0000e+00
  9990012  2    3    3    0    0 -1.4696997798e+01 -2.8063795594e+01 -3.6253549477e+00 5.9301928340e+01 4.9999971389e+01 1.5875e-05 0.0000e+00
      -11  1    4    4    0    0 -1.4398046838e+01 -1.1574052341e+01 +5.2972770429e+00 1.9217793440e+01 5.1100000000e-04 0.0000e+00 1.0000e+00
       11  1    4    4    0    0 +1.9574958710e+00 -2.2086139490e+01 -1.8424172098e+01 2.8828448891e+01 5.1100000000e-04 0.0000e+00 -1.0000e+00
       12  1    4    4    0    0 -2.2564468302e+00 +5.5963962371e+00 +9.5015401076e+00 1.1255686010e+01 0.0000000000e+00 0.0000e+00 -1.0000e+00
      -12  1    3    3    0    0 +1.4696997798e+01 +2.8063795594e+01 +3.6253549477e+00 3.1886071660e+01 0.0000000000e+00 0.0000e+00 1.0000e+00
</event>
<event>
 8      4 +2.2883893e-04 9.11880000e+01 7.81616400e-03 1.18400000e-01
      -11 -1    0    0    0    0 +0.0000000000e+00 +0.0000000000e+00 +4.5593999997e+01 4.5594000000e+01 5.1100000000e-04 0.0000e+00 -1.0000e+00
       11 -1    0    0    0    0 -0.0000000000e+00 -0.0000000000e+00 -4.5593999997e+01 4.5594000000e+01 5.1100000000e-04 0.0000e+00 1.0000e+00
       23  2    1    2    0    0 +0.0000000000e+00 +1.7763568394e-15 +3.5527136788e-15 9.1188000000e+01 9.1188000000e+01 8.5864e-14 0.0000e+00
 -9990012  2    3    3    0    0 -2.1415692348e+01 -1.4715035075e+01 -1.8481228764e+01 5.9301953638e+01 5.0000017526e+01 1.8666e-04 0.0000e+00
      -11  1    4    4    0    0 -2.3269731730e+01 -6.4855719517e+00 +8.2061088786e-01 2.4170570138e+01 5.1100000000e-04 0.0000e+00 -1.0000e+00
       11  1    4    4    0    0 +9.6031885734e+00 +5.8165392911e+00 -1.7668227906e+00 1.1365519044e+01 5.1100000000e-04 0.0000e+00 1.0000e+00
      -12  1    4    4    0    0 -7.7491491918e+00 -1.4046002414e+01 -1.7535016861e+01 2.3765864456e+01 0.0000000000e+00 0.0000e+00 1.0000e+00
       12  1    3    3    0    0 +2.1415692348e+01 +1.4715035075e+01 +1.8481228764e+01 3.1886046362e+01 0.0000000000e+00 0.0000e+00 -1.0000e+00
</event>
<event>
 8      4 +2.2883893e-04 9.11880000e+01 7.81616400e-03 1.18400000e-01
      -11 -1    0    0    0    0 +0.0000000000e+00 +0.0000000000e+00 +4.5593999997e+01 4.5594000000e+01 5.1100000000e-04 0.0000e+00 1.0000e+00
       11 -1    0    0    0    0 -0.0000000000e+00 -0.0000000000e+00 -4.5593999997e+01 4.5594000000e+01 5.1100000000e-04 0.0000e+00 -1.0000e+00
       23  2    1    2    0    0 -8.8817841970e-16 +0.0000000000e+00 -4.4408920985e-16 9.1188000000e+01 9.1188000000e+01 3.3410e-14 0.0000e+00
 -9990012  2    3    3    0    0 -4.7027432936e+00 -3.1347534389e+01 -3.4550336945e+00 5.9301937770e+01 4.9999988587e+01 1.1460e-03 0.0000e+00
      -11  1    4    4    0    0 +1.8455500509e+01 -2.1572852577e+01 -5.8053184960e+00 2.8977494551e+01 5.1100000000e-04 0.0000e+00 1.0000e+00
       11  1    4    4    0    0 -1.1626779182e+01 -1.1922174673e+01 -3.7987152678e+00 1.7080704934e+01 5.1100000000e-04 0.0000e+00 -1.0000e+00
      -12  1    4    4    0    0 -1.1531464621e+01 +2.1474928619e+00 +6.1490000694e+00 1.3243738285e+01 0.0000000000e+00 0.0000e+00 1.0000e+00
       12  1    3    3    0    0 +4.7027432936e+00 +3.1347534389e+01 +3.4550336945e+00 3.1886062230e+01 0.0000000000e+00 0.0000e+00 -1.0000e+00
</event>
<event>
 8      3 +2.2883893e-04 9.11880000e+01 7.81616400e-03 1.18400000e-01
      -11 -1    0    0    0    0 +0.0000000000e+00 +0.0000000000e+00 +4.5593999997e+01 4.5594000000e+01 5.1100000000e-04 0.0000e+00 -1.0000e+00
       11 -1    0    0    0    0 -0.0000000000e+00 -0.0000000000e+00 -4.5593999997e+01 4.5594000000e+01 5.1100000000e-04 0.0000e+00 1.0000e+00
       23  2    1    2    0    0 +0.0000000000e+00 -3.5527136788e-15 +8.8817841970e-16 9.1188000000e+01 9.1188000000e+01 5.1225e-14 0.0000e+00
  9990012  2    3    3    0    0 -2.3624209908e+01 -2.0955422054e+01 +4.4145095540e+00 5.9301938753e+01 4.9999990380e+01 6.6903e-03 0.0000e+00
      -11  1    4    4    0    0 +1.5691326261e+00 +5.6141753626e+00 -2.9754074596e+00 6.5447835725e+00 5.1100000000e-04 0.0000e+00 1.0000e+00
       11  1    4    4    0    0 -7.0689079493e+00 -3.1285913303e+01 -1.3223903651e+00 3.2101815328e+01 5.1100000000e-04 0.0000e+00 -1.0000e+00
       12  1    4    4    0    0 -1.8124434585e+01 +4.7163158865e+00 +8.7123073787e+00 2.0655339852e+01 0.0000000000e+00 0.0000e+00 -1.0000e+00
      -12  1    3    3    0    0 +2.3624209908e+01 +2.0955422054e+01 -4.4145095540e+00 3.1886061247e+01 0.0000000000e+00 0.0000e+00 1.0000e+00
</event>
<event>
 8      4 +2.2883893e-04 9.11880000e+01 7.81616400e-03 1.18400000e-01
      -11 -1    0    0    0    0 +0.0000000000e+00 +0.0000000000e+00 +4.5593999997e+01 4.5594000000e+01 5.1100000000e-04 0.0000e+00 1.0000e+00
       11 -1    0    0    0    0 -0.0000000000e+00 -0.0000000000e+00 -4.5593999997e+01 4.5594000000e+01 5.1100000000e-04 0.0000e+00 -1.0000e+00
       23  2    1    2    0    0 -1.7763568394e-15 +3.5527136788e-15 -3.5527136788e-15 9.1188000000e+01 9.1188000000e+01 8.4695e-14 0.0000e+00
 -9990012  2    3    3    0    0 +1.1387944346e+01 -2.4785097070e+01 +1.6514444465e+01 5.9302059694e+01 5.0000210947e+01 3.4585e-03 0.0000e+00
      -11  1    4    4    0    0 +5.6168458701e+00 -6.5899195687e+00 +1.3978625585e+01 1.6443173992e+01 5.1100000000e-04 0.0000e+00 1.0000e+00
       11  1    4    4    0    0 +1.0635738114e+01 +8.0017172335e+00 -6.3830019941e+00 1.4761067666e+01 5.1100000000e-04 0.0000e+00 -1.0000e+00
      -12  1    4    4    0    0 -4.8646396380e+00 -2.6196894735e+01 +8.9188208742e+00 2.8097818036e+01 0.0000000000e+00 0.0000e+00 1.0000e+00
       12  1    3    3    0    0 -1.1387944346e+01 +2.4785097070e+01 -1.6514444465e+01 3.1885940306e+01 0.0000000000e+00 0.0000e+00 -1.0000e+00
</event>
<event>
 8      3 +2.2883893e-04 9.11880000e+01 7.81616400e-03 1.18400000e-01
      -11 -1    0    0    0    0 +0.0000000000e+00 +0.0000000000e+00 +4.5593999997e+01 4.5594000000e+01 5.1100000000e-04 0.0000e+00 1.0000e+00
       11 -1    0    0    0    0 -0.0000000000e+00 -0.0000000000e+00 -4.5593999997e+01 4.5594000000e+01 5.1100000000e-04 0.0000e+00 -1.0000e+00
       23  2    1    2    0    0 -4.4408920985e-16 +3.5527136788e-15 -1.7763568394e-15 9.1188000000e+01 9.1188000000e+01 4.6957e-16 0.0000e+00
  9990012  2    3    3    0    0 +2.0260184520e+00 -3.1685826390e+01 -2.9363433839e+00 5.9301977086e+01 5.0000060291e+01 3.7263e-03 0.0000e+00
      -11  1    4    4    0    0 +1.1442264918e+01 -2.3377525303e+01 -2.0060595957e+01 3.2861248093e+01 5.1100000000e-04 0.0000e+00 1.0000e+00
       11  1    4    4    0    0 +1.1994340638e+00 -9.0700048471e+00 +5.4765737500e+00 1.0662855635e+01 5.1100000000e-04 0.0000e+00 -1.0000e+00
       12  1    4    4    0    0 -1.0615680530e+01 +7.6170376051e-01 +1.1647678824e+01 1.5777873358e+01 0.0000000000e+00 0.0000e+00 -1.0000e+00
      -12  1    3    3    0    0 -2.0260184520e+00 +3.1685826390e+01 +2.9363433839e+00 3.1886022914e+01 0.0000000000e+00 0.0000e+00 1.0000e+00
</event>
<event>
 8      4 +2.2883893e-04 9.11880000e+01 7.81616400e-03 1.18400000e-01
      -11 -1    0    0    0    0 +0.0000000000e+00 +0.0000000000e+00 +4.5593999997e+01 4.5594000000e+01 5.1100000000e-04 0.0000e+00 1.0000e+00
       11 -1    0    0    0    0 -0.0000000000e+00 -0.0000000000e+00 -4.5593999997e+01 4.5594000000e+01 5.1100000000e-04 0.0000e+00 -1.0000e+00
       23  2    1    2    0    0 -1.7763568394e-15 -1.7763568394e-15 +0.0000000000e+00 9.1188000000e+01 9.1188000000e+01 5.4890e-14 0.0000e+00
 -9990012  2    3    3    0    0 +1.2095397689e+01 +1.3584135047e+01 +2.6189517888e+01 5.9301980847e+01 5.0000067149e+01 6.7434e-04 0.0000e+00
      -11  1    4    4    0    0 +1.0575011981e+01 +9.4737907319e+00 +1.9442431164e-01 1.4199344714e+01 5.1100000000e-04 0.0000e+00 1.0000e+00
       11  1    4    4    0    0 -1.3994507383e+01 +6.2545090607e+00 +6.9180020671e-01 1.5344175060e+01 5.1100000000e-04 0.0000e+00 -1.0000e+00
      -12  1    4    4    0    0 +1.5514893091e+01 -2.1441647460e+00 +2.5303293370e+01 2.9758461073e+01 0.0000000000e+00 0.0000e+00 1.0000e+00
       12  1    3    3    0    0 -1.2095397689e+01 -1.3584135047e+01 -2.6189517888e+01 3.1886019153e+01 0.0000000000e+00 0.0000e+00 -1.0000e+00
</event>
<event>
 8      3 +2.2883893e-04 9.11880000e+01 7.81616400e-03 1.18400000e-01
      -11 -1    0    0    0    0 +0.0000000000e+00 +0.0000000000e+00 +4.5593999997e+01 4.5594000000e+01 5.1100000000e-04 0.0000e+00 1.0000e+00
       11 -1    0    0    0    0 -0.0000000000e+00 -0.0000000000e+00 -4.5593999997e+01 4.5594000000e+01 5.1100000000e-04 0.0000e+00 -1.0000e+00
       23  2    1    2    0    0 +0.0000000000e+00 -3.5527136788e-15 +0.0000000000e+00 9.1188000000e+01 9.1188000000e+01 2.5773e-15 0.0000e+00
  9990012  2    3    3    0    0 +1.6250058196e+01 -1.9262249380e+01 -1.9535165916e+01 5.9301931727e+01 4.9999977566e+01 1.3812e-03 0.0000e+00
      -11  1    4    4    0    0 -7.0879420061e+00 -1.1507669909e+01 +8.5809243186e+00 1.6009298893e+01 5.1100000000e-04 0.0000e+00 1.0000e+00
       11  1    4    4    0    0 +9.2158204174e+00 -1.2457669614e+01 -5.9635695430e+00 1.6603886296e+01 5.1100000000e-04 0.0000e+00 -1.0000e+00
       12  1    4    4    0    0 +1.4122179785e+01 +4.7030901433e+00 -2.2152520692e+01 2.6688746538e+01 0.0000000000e+00 0.0000e+00 -1.0000e+00
      -12  1    3    3    0    0 -1.6250058196e+01 +1.9262249380e+01 +1.9535165916e+01 3.1886068273e+01 0.0000000000e+00 0.0000e+00 1.0000e+00
</event>
<event>
 8      4 +2.2883893e-04 9.11880000e+01 7.81616400e-03 1.18400000e-01
      -11 -1    0    0    0    0 +0.0000000000e+00 +0.0000000000e+00 +4.5593999997e+01 4.5594000000e+01 5.1100000000e-04 0.0000e+00 1.0000e+00
       11 -1    0    0    0    0 -0.0000000000e+00 -0.0000000000e+00 -4.5593999997e+01 4.5594000000e+01 5.1100000000e-04 0.0000e+00 -1.0000e+00
       23  2    1    2    0    0 +0.0000000000e+00 +0.0000000000e+00 +0.0000000000e+00 9.1188000000e+01 9.1188000000e+01 9.3014e-14 0.0000e+00
 -9990012  2    3    3    0    0 -1.1661431356e+01 -1.7248595275e+01 +2.4149904658e+01 5.9301938543e+01 4.9999989998e+01 5.8691e-03 0.0000e+00
      -11  1    4    4    0    0 -1.8117307186e+00 +5.3513771465e-01 -5.7474630203e+00 6.0499646281e+00 5.1100000000e-04 0.0000e+00 -1.0000e+00
       11  1    4    4    0    0 -1.4591146084e+00 -2.9287929416e+01 +1.6234649570e+01 3.3518288617e+01 5.1100000000e-04 0.0000e+00 1.0000e+00
      -12  1    4    4    0    0 -8.3905860295e+00 +1.1504196426e+01 +1.3662718108e+01 1.9733685298e+01 0.0000000000e+00 0.0000e+00 1.0000e+00
       12  1    3    3    0    0 +1.1661431356e+01 +1.7248595275e+01 -2.4149904658e+01 3.1886061457e+01 0.0000000000e+00 0.0000e+00 -1.0000e+00
</event>
<event>
 8      4 +2.2883893e-04 9.11880000e+01 7.81616400e-03 1.18400000e-01
      -11 -1    0    0    0    0 +0.0000000000e+00 +0.0000000000e+00 +4.5593999997e+01 4.5594000000e+01 5.1100000000e-04 0.0000e+00 1.0000e+00
       11 -1    0    0    0    0 -0.0000000000e+00 -0.0000000000e+00 -4.5593999997e+01 4.5594000000e+01 5.1100000000e-04 0.0000e+00 -1.0000e+00
       23  2    1    2    0    0 +0.0000000000e+00 +1.7763568394e-15 +0.0000000000e+00 9.1188000000e+01 9.1188000000e+01 9.1212e-15 0.0000e+00
 -9990012  2    3    3    0    0 -8.1035976720e+00 +1.1629474042e+01 +2.8562469303e+01 5.9301833494e+01 4.9999798413e+01 1.4658e-03 0.0000e+00
      -11  1    4    4    0    0 -7.4828993305e+00 +1.5391585678e+01 -3.7329534993e+00 1.7516553147e+01 5.1100000000e-04 0.0000e+00 -1.0000e+00
       11  1    4    4    0    0 +9.7431124391e+00 -8.6921845655e+00 +9.1285682123e+00 1.5931511868e+01 5.1100000000e-04 0.0000e+00 1.0000e+00
      -12  1    4    4    0    0 -1.0363810781e+01 +4.9300729304e+00 +2.3166854590e+01 2.5853768480e+01 0.0000000000e+00 0.0000e+00 1.0000e+00
       12  1    3    3    0    0 +8.1035976720e+00 -1.1629474042e+01 -2.8562469303e+01 3.1886166506e+01 0.0000000000e+00 0.0000e+00 -1.0000e+00
</event>
<event>
 8      4 +2.2883893e-04 9.11880000e+01 7.81616400e-03 1.18400000e-01
      -11 -1    0    0    0    0 +0.0000000000e+00 +0.0000000000e+00 +4.5593999997e+01 4.5594000000e+01 5.1100000000e-04 0.0000e+00 1.0000e+00
       11 -1    0    0    0    0 -0.0000000000e+00 -0.0000000000e+00 -4.5593999997e+01 4.5594000000e+01 5.1100000000e-04 0.0000e+00 -1.0000e+00
       23  2    1    2    0    0 -8.8817841970e-16 +0.0000000000e+00 +3.5527136788e-15 9.1188000000e+01 9.1188000000e+01 8.6294e-14 0.0000e+00
 -9990012  2    3    3    0    0 -5.2994347322e+00 +4.8707237946e+00 +3.1063067113e+01 5.9301920008e+01 4.9999956194e+01 1.6082e-04 0.0000e+00
      -11  1    4    4    0    0 -8.8498864552e+00 +1.4773464066e+00 +1.2425982478e+01 1.5326711438e+01 5.1100000000e-04 0.0000e+00 1.0000e+00
       11  1    4    4    0    0 +1.2805136378e+01 +6.1106017943e+00 +2.7456354550e+01 3.0905701373e+01 5.1100000000e-04 0.0000e+00 -1.0000e+00
      -12  1    4    4    0    0 -9.2546846555e+00 -2.7172244063e+00 -8.8192699149e+00 1.3069507197e+01 0.0000000000e+00 0.0000e+00 1.0000e+00
       12  1    3    3    0    0 +5.2994347322e+00 -4.8707237946e+00 -3.1063067113e+01 3.1886079992e+01 0.0000000000e+00 0.0000e+00 -1.0000e+00
</event>
<event>
 8      3 +2.2883893e-04 9.11880000e+01 7.81616400e-03 1.18400000e-01
      -11 -1    0    0    0    0 +0.0000000000e+00 +0.0000000000e+00 +4.5593999997e+01 4.5594000000e+01 5.1100000000e-04 0.0000e+00 1.0000e+00
       11 -1    0    0    0    0 -0.0000000000e+00 -0.0000000000e+00 -4.5593999997e+01 4.5594000000e+01 5.1100000000e-04 0.0000e+00 -1.0000e+00
       23  2    1    2    0    0 +0.0000000000e+00 +0.0000000000e+00 -4.4408920985e-16 9.1188000000e+01 9.1188000000e+01 1.5421e-14 0.0000e+00
  9990012  2    3    3    0    0 -2.3745373583e+01 +2.0951634806e+01 -3.7293353262e+00 5.9301926087e+01 4.9999967280e+01 4.3670e-04 0.0000e+00
      -11  1    4    4    0    0 -2.5991083943e+00 +2.2606724682e+01 +4.5775159414e+00 2.3211484609e+01 5.1100000000e-04 0.0000e+00 1.0000e+00
       11  1    4    4    0    0 -1.7343122027e+00 +1.0485484664e+01 +2.2731934932e+00 1.0868331812e+01 5.1100000000e-04 0.0000e+00 -1.0000e+00
       12  1    4    4    0    0 -1.9411952986e+01 -1.2140574540e+01 -1.0580044761e+01 2.5222109666e+01 0.0000000000e+00 0.0000e+00 -1.0000e+00
      -12  1    3    3    0    0 +2.3745373583e+01 -2.0951634806e+01 +3.7293353262e+00 3.1886073913e+01 0.0000000000e+00 0.0000e+00 1.0000e+00
</event>
<event>
 8      4 +2.2883893e-04 9.11880000e+01 7.81616400e-03 1.18400000e-01
      -11 -1    0    0    0    0 +0.0000000000e+00 +0.0000000000e+00 +4.5593999997e+01 4.5594000000e+01 5.1100000000e-04 0.0000e+00 1.0000e+00
       11 -1    0    0    0    0 -0.0000000000e+00 -0.0000000000e+00 -4.5593999997e+01 4.5594000000e+01 5.1100000000e-04 0.0000e+00 -1.0000e+00
       23  2    1    2    0    0 -1.7763568394e-15 +1.7763568394e-15 +0.0000000000e+00 9.1188000000e+01 9.1188000000e+01 1.9331e-14 0.0000e+00
 -9990012  2    3    3    0    0 +7.0683601473e+00 -1.1419147014e+01 +2.8919766983e+01 5.9302085303e+01 5.0000257651e+01 1.1500e-03 0.0000e+00
      -11  1    4    4    0    0 -5.0494412517e+00 -2.3555312336e+01 +2.2255591536e+01 3.2797270482e+01 5.1100000000e-04 0.0000e+00 1.0000e+00
       11  1    4    4    0    0 +6.3682822341e+00 +7.2991855842e-03 -5.4817129656e+00 8.4026334675e+00 5.1100000000e-04 0.0000e+00 -1.0000e+00
      -12  1    4    4    0    0 +5.7495191650e+00 +1.2128866137e+01 +1.2145888413e+01 1.8102181353e+01 0.0000000000e+00 0.0000e+00 1.0000e+00
       12  1    3    3    0    0 -7.0683601473e+00 +1.1419147014e+01 -2.8919766983e+01 3.1885914697e+01 0.0000000000e+00 0.0000e+00 -1.0000e+00
</event>
<event>
 8      3 +2.2883893e-04 9.11880000e+01 7.81616400e-03 1.18400000e-01
      -11 -1    0    0    0    0 +0.0000000000e+00 +0.0000000000e+00 +4.5593999997e+01 4.5594000000e+01 5.1100000000e-04 0.0000e+00 -1.0000e+00
       11 -1    0    0    0    0 -0.0000000000e+00 -0.0000000000e+00 -4.5593999997e+01 4.5594000000e+01 5.1100000000e-04 0.0000e+00 1.0000e+00
       23  2    1    2    0    0 +3.5527136788e-15 -8.8817841970e-16 -1.7763568394e-15 9.1188000000e+01 9.1188000000e+01 8.1362e-14 0.0000e+00
  9990012  2    3    3    0    0 +2.6739023267e+01 +7.5482142296e+00 -1.5645112618e+01 5.9301945805e+01 5.0000003240e+01 2.3930e-03 0.0000e+00
      -11  1    4    4    0    0 +6.8729821334e+00 +1.5154876284e+01 -1.0576463066e+01 1.9717244479e+01 5.1100000000e-04 0.0000e+00 1.0000e+00
       11  1    4    4    0    0 +5.2721153806e+00 +1.2172359058e+01 -6.8699474442e+00 1.4938463902e+01 5.1100000000e-04 0.0000e+00 -1.0000e+00
       12  1    4    4    0    0 +1.4593925753e+01 -1.9779021112e+01 +1.8012978914e+00 2.4646237423e+01 0.0000000000e+00 0.0000e+00 -1.0000e+00
      -12  1    3    3    0    0 -2.6739023267e+01 -7.5482142296e+00 +1.5645112618e+01 3.1886054195e+01 0.0000000000e+00 0.0000e+00 1.0000e+00
</event>
<event>
 8      4 +2.2883893e-04 9.11880000e+01 7.81616400e-03 1.18400000e-01
      -11 -1    0    0    0    0 +0.0000000000e+00 +0.0000000000e+00 +4.5593999997e+01 4.5594000000e+01 5.1100000000e-04 0.0000e+00 1.0000e+00
       11 -1    0    0    0    0 -0.0000000000e+00 -0.0000000000e+00 -4.5593999997e+01 4.5594000000e+01 5.1100000000e-04 0.0000e+00 -1.0000e+00
       23  2    1    2    0    0 -1.7763568394e-15 -3.5527136788e-15 +3.5527136788e-15 9.1188000000e+01 9.1188000000e+01 8.7262e-14 0.0000e+00
 -9990012  2    3    3    0    0 -1.3088456844e+01 +2.7714287279e+01 +8.7939067981e+00 5.9301918103e+01 4.9999952720e+01 1.6809e-03 0.0000e+00
      -11  1    4    4    0    0 +1.3595106485e+01 -2.8307208635e-02 +3.7451634183e-01 1.3600293541e+01 5.1100000000e-04 0.0000e+00 1.0000e+00
       11  1    4    4    0    0 -9.4407903240e+00 +9.0932421678e+00 -8.0948254257e+00 1.5405900623e+01 5.1100000000e-04 0.0000e+00 -1.0000e+00
      -12  1    4    4    0    0 -1.7242773005e+01 +1.8649352320e+01 +1.6514215882e+01 3.0295723940e+01 0.0000000000e+00 0.0000e+00 1.0000e+00
       12  1    3    3    0    0 +1.3088456844e+01 -2.7714287279e+01 -8.7939067981e+00 3.1886081897e+01 0.0000000000e+00 0.0000e+00 -1.0000e+00
</event>
<event>
 8      3 +2.2883893e-04 9.11880000e+01 7.81616400e-03 1.18400000e-01
      -11 -1    0    0    0    0 +0.0000000000e+00 +0.0000000000e+00 +4.5593999997e+01 4.5594000000e+01 5.1100000000e-04 0.0000e+00 1.0000e+00
       11 -1    0    0    0    0 -0.0000000000e+00 -0.0000000000e+00 -4.5593999997e+01 4.5594000000e+01 5.1100000000e-04 0.0000e+00 -1.0000e+00
       23  2    1    2    0    0 +0.0000000000e+00 +0.0000000000e+00 +3.5527136788e-15 9.1188000000e+01 9.1188000000e+01 3.4067e-14 0.0000e+00
  9990012  2    3    3    0    0 -2.5961403315e+01 -5.9797519196e+00 -1.7520551446e+01 5.9301927522e+01 4.9999969897e+01 1.2563e-03 0.0000e+00
      -11  1    4    4    0    0 -3.5535280399e+01 -9.0318692303e+00 -1.3998551743e+01 3.9246531898e+01 5.1100000000e-04 0.0000e+00 -1.0000e+00
       11  1    4    4    0    0 +3.0181100206e+00 +3.6987460110e+00 +6.4984661565e+00 8.0634839120e+00 5.1100000000e-04 0.0000e+00 1.0000e+00
       12  1    4    4    0    0 +6.5557670634e+00 -6.4662870027e-01 -1.0020465859e+01 1.1991911712e+01 0.0000000000e+00 0.0000e+00 -1.0000e+00
      -12  1    3    3    0    0 +2.5961403315e+01 +5.9797519196e+00 +1.7520551446e+01 3.1886072478e+01 0.0000000000e+00 0.0000e+00 1.0000e+00
</event>
<event>
 8      4 +2.2883893e-04 9.11880000e+01 7.81616400e-03 1.18400000e-01
      -11 -1    0    0    0    0 +0.0000000000e+00 +0.0000000000e+00 +4.5593999997e+01 4.5594000000e+01 5.1100000000e-04 0.0000e+00 1.0000e+00
       11 -1    0    0    0    0 -0.0000000000e+00 -0.0000000000e+00 -4.5593999997e+01 4.5594000000e+01 5.1100000000e-04 0.0000e+00 -1.0000e+00
       23  2    1    2    0    0 -3.5527136788e-15 +0.0000000000e+00 +0.0000000000e+00 9.1188000000e+01 9.1188000000e+01 1.5437e-13 0.0000e+00
 -9990012  2    3    3    0    0 -3.0862247241e+01 +5.8485205027e+00 -5.4805523973e+00 5.9301953657e+01 5.0000017561e+01 1.3908e-03 0.0000e+00
      -11  1    4    4    0    0 -2.9725857763e+01 -5.9531889237e+00 -1.3149933183e+01 3.3045239008e+01 5.1100000000e-04 0.0000e+00 1.0000e+00
       11  1    4    4    0    0 +2.1801101842e+00 +1.4058748576e+00 +1.3594511771e+01 1.3839801844e+01 5.1100000000e-04 0.0000e+00 -1.0000e+00
      -12  1    4    4    0    0 -3.3164996619e+00 +1.0395834569e+01 -5.9251309855e+00 1.2416912804e+01 0.0000000000e+00 0.0000e+00 1.0000e+00
       12  1    3    3    0    0 +3.0862247241e+01 -5.8485205027e+00 +5.4805523973e+00 3.1886046343e+01 0.0000000000e+00 0.0000e+00 -1.0000e+00
</event>
<event>
 8      4 +2.2883893e-04 9.11880000e+01 7.81616400e-03 1.18400000e-01
      -11 -1    0    0    0    0 +0.0000000000e+00 +0.0000000000e+00 +4.5593999997e+01 4.5594000000e+01 5.1100000000e-04 0.0000e+00 -1.0000e+00
       11 -1    0    0    0    0 -0.0000000000e+00 -0.0000000000e+00 -4.5593999997e+01 4.5594000000e+01 5.1100000000e-04 0.0000e+00 1.0000e+00
       23  2    1    2    0    0 +0.0000000000e+00 -3.5527136788e-15 +0.0000000000e+00 9.1188000000e+01 9.1188000000e+01 1.0590e-13 0.0000e+00
 -9990012  2    3    3    0    0 +2.9315842103e+00 +2.8396089647e+01 -1.4205236218e+01 5.9301939891e+01 4.9999992456e+01 9.0780e-04 0.0000e+00
      -11  1    4    4    0    0 -1.2034607655e+01 +1.0951474120e+01 +9.4921338253e-01 1.6299312044e+01 5.1100000000e-04 0.0000e+00 -1.0000e+00
       11  1    4    4    0    0 +2.4059433447e+01 +1.7543034183e+01 -6.5598876266e+00 3.0490105151e+01 5.1100000000e-04 0.0000e+00 1.0000e+00
      -12  1    4    4    0    0 -9.0932415822e+00 -9.8418655622e-02 -8.5945619744e+00 1.2512522697e+01 0.0000000000e+00 0.0000e+00 1.0000e+00
       12  1    3    3    0    0 -2.9315842103e+00 -2.8396089647e+01 +1.4205236218e+01 3.1886060109e+01 0.0000000000e+00 0.0000e+00 -1.0000e+00
</event>
<event>
 8      4 +2.2883893e-04 9.11880000e+01 7.81616400e-03 1.18400000e-01
      -11 -1    0    0    0    0 +0.0000000000e+00 +0.0000000000e+00 +4.5593999997e+01 4.5594000000e+01 5.1100000000e-04 0.0000e+00 1.0000e+00
       11 -1    0    0    0    0 -0.0000000000e+00 -0.0000000000e+00 -4.5593999997e+01 4.5594000000e+01 5.1100000000e-04 0.0000e+00 -1.0000e+00
       23  2    1    2    0    0 -3.5527136788e-15 +0.0000000000e+00 +0.0000000000e+00 9.1188000000e+01 9.1188000000e+01 5.4889e-14 0.0000e+00
 -9990012  2    3    3    0    0 +2.4942836728e+01 -7.8515425710e+00 -1.8246369100e+01 5.9301924511e+01 4.9999964406e+01 1.8146e-04 0.0000e+00
      -11  1    4    4    0    0 -3.5651517582e-01 +7.7532222806e+00 -5.7625058815e+00 9.6667488381e+00 5.1100000000e-04 0.0000e+00 1.0000e+00
       11  1    4    4    0    0 +1.5527651123e+01 -2.7218490000e+01 -2.4314277713e+00 3.1430335482e+01 5.1100000000e-04 0.0000e+00 -1.0000e+00
      -12  1    4    4    0    0 +9.7717007805e+00 +1.1613725148e+01 -1.0052435447e+01 1.8204840191e+01 0.0000000000e+00 0.0000e+00 1.0000e+00
       12  1    3    3    0    0 -2.4942836728e+01 +7.8515425710e+00 +1.8246369100e+01 3.1886075489e+01 0.0000000000e+00 0.0000e+00 -1.0000e+00
</event>
<event>
 8      4 +2.2883893e-04 9.11880000e+01 7.81616400e-03 1.18400000e-01
      -11 -1    0    0    0    0 +0.0000000000e+00 +0.0000000000e+00 +4.5593999997e+01 4.5594000000e+01 5.1100000000e-04 0.0000e+00 -1.0000e+00
       11 -1    0    0    0    0 -0.0000000000e+00 -0.0000000000e+00 -4.5593999997e+01 4.5594000000e+01 5.1100000000e-04 0.0000e+00 1.0000e+00
       23  2    1    2    0    0 +1.7763568394e-15 +0.0000000000e+00 +0.0000000000e+00 9.1188000000e+01 9.1188000000e+01 7.2248e-14 0.0000e+00
 -9990012  2    3    3    0    0 +1.2381540591e+00 -1.9915178715e+01 -2.4871131649e+01 5.9301944141e+01 5.0000000206e+01 7.8576e-03 0.0000e+00
      -11  1    4    4    0    0 +4.5333710671e+00 -9.9552162758e+00 -1.4418590255e+01 1.8098439975e+01 5.1100000000e-04 0.0000e+00 1.0000e+00
       11  1    4    4    0    0 +1.0345304856e+01 +1.3974172333e+00 +9.7687624437e+00 1.4297091572e+01 5.1100000000e-04 0.0000e+00 -1.0000e+00
      -12  1    4    4    0    0 -1.3640521864e+01 -1.1357379673e+01 -2.0221303838e+01 2.6906412593e+01 0.0000000000e+00 0.0000e+00 1.0000e+00
       12  1    3    3    0    0 -1.2381540591e+00 +1.9915178715e+01 +2.4871131649e+01 3.1886055859e+01 0.0000000000e+00 0.0000e+00 -1.0000e+00
</event>
<event>
 8      4 +2.2883893e-04 9.11880000e+01 7.81616400e-03 1.18400000e-01
      -11 -1    0    0    0    0 +0.0000000000e+00 +0.0000000000e+00 +4.5593999997e+01 4.5594000000e+01 5.1100000000e-04 0.0000e+00 -1.0000e+00
       11 -1    0    0    0    0 -0.0000000000e+00 -0.0000000000e+00 -4.5593999997e+01 4.5594000000e+01 5.1100000000e-04 0.0000e+00 1.0000e+00
       23  2    1    2    0    0 -1.7763568394e-15 -7.1054273576e-15 +3.5527136788e-15 9.1188000000e+01 9.1188000000e+01 1.2811e-13 0.0000e+00
 -9990012  2    3    3    0    0 +1.2409426286e+01 +2.2249080464e+01 -1.9175631054e+01 5.9301948684e+01 5.0000008491e+01 4.7777e-03 0.0000e+00
      -11  1    4    4    0    0 +5.5307259195e+00 -8.0385231941e+00 -4.6678843699e+00 1.0816465647e+01 5.1100000000e-04 0.0000e+00 1.0000e+00
       11  1    4    4    0    0 -1.2267854872e+01 +2.5099368327e+00 -4.2464834754e+00 1.3222430497e+01 5.1100000000e-04 0.0000e+00 -1.0000e+00
      -12  1    4    4    0    0 +1.9146555239e+01 +2.7777666826e+01 -1.0261263208e+01 3.5263052540e+01 0.0000000000e+00 0.0000e+00 1.0000e+00
       12  1    3    3    0    0 -1.2409426286e+01 -2.2249080464e+01 +1.9175631054e+01 3.1886051316e+01 0.0000000000e+00 0.0000e+00 -1.0000e+00
</event>
<event>
 8      4 +2.2883893e-04 9.11880000e+01 7.81616400e-03 1.18400000e-01
      -11 -1    0    0    0    0 +0.0000000000e+00 +0.0000000000e+00 +4.5593999997e+01 4.5594000000e+01 5.1100000000e-04 0.0000e+00 -1.0000e+00
       11 -1    0    0    0    0 -0.0000000000e+00 -0.0000000000e+00 -4.5593999997e+01 4.5594000000e+01 5.1100000000e-04 0.0000e+00 1.0000e+00
       23  2    1    2    0    0 +0.0000000000e+00 +0.0000000000e+00 -1.7763568394e-15 9.1188000000e+01 9.1188000000e+01 7.3913e-15 0.0000e+00
 -9990012  2    3    3    0    0 +1.1074990512e+01 -2.6076223904e+01 -1.4631925763e+01 5.9301982383e+01 5.0000069951e+01 4.4944e-04 0.0000e+00
      -11  1    4    4    0    0 -4.1102283530e+00 -9.9068582808e+00 -2.0087120218e+01 2.2771302489e+01 5.1100000000e-04 0.0000e+00 1.0000e+00
       11  1    4    4    0    0 +5.2103286951e-02 +7.7594588587e+00 +3.9643753185e-01 7.7697541474e+00 5.1100000000e-04 0.0000e+00 -1.0000e+00
      -12  1    4    4    0    0 +1.5133115578e+01 -2.3928824482e+01 +5.0587569240e+00 2.8760925747e+01 0.0000000000e+00 0.0000e+00 1.0000e+00
       12  1    3    3    0    0 -1.1074990512e+01 +2.6076223904e+01 +1.4631925763e+01 3.1886017617e+01 0.0000000000e+00 0.0000e+00 -1.0000e+00
</event>
<event>
 8      4 +2.2883893e-04 9.11880000e+01 7.81616400e-03 1.18400000e-01
      -11 -1    0    0    0    0 +0.0000000000e+00 +0.0000000000e+00 +4.5593999997e+01 4.5594000000e+01 5.1100000000e-04 0.0000e+00 -1.0000e+00
       11 -1    0    0    0    0 -0.0000000000e+00 -0.0000000000e+00 -4.5593999997e+01 4.5594000000e+01 5.1100000000e-04 0.0000e+00 1.0000e+00
       23  2    1    2    0    0 -4.4408920985e-16 +0.0000000000e+00 -3.5527136788e-15 9.1188000000e+01 9.1188000000e+01 7.1025e-14 0.0000e+00
 -9990012  2    3    3    0    0 +1.6395404882e+00 +1.7743811838e+01 -2.6442223601e+01 5.9301919330e+01 4.9999954957e+01 1.8509e-03 0.0000e+00
      -11  1    4    4    0    0 -7.4679430237e+00 +5.9079272070e+00 -6.4912391096e+00 1.1524320471e+01 5.1100000000e-04 0.0000e+00 1.0000e+00
       11  1    4    4    0    0 -1.2919428954e+00 -4.7843956209e+00 +1.0471468101e+01 1.1584955863e+01 5.1100000000e-04 0.0000e+00 -1.0000e+00
      -12  1    4    4    0    0 +1.0399426407e+01 +1.6620280252e+01 -3.0422452592e+01 3.6192642995e+01 0.0000000000e+00 0.0000e+00 1.0000e+00
       12  1    3    3    0    0 -1.6395404882e+00 -1.7743811838e+01 +2.6442223601e+01 3.1886080670e+01 0.0000000000e+00 0.0000e+00 -1.0000e+00
</event>
<event>
 8      4 +2.2883893e-04 9.11880000e+01 7.81616400e-03 1.18400000e-01
      -11 -1    0    0    0    0 +0.0000000000e+00 +0.0000000000e+00 +4.5593999997e+01 4.5594000000e+01 5.1100000000e-04 0.0000e+00 -1.0000e+00
       11 -1    0    0    0    0 -0.0000000000e+00 -0.0000000000e+00 -4.5593999997e+01 4.5594000000e+01 5.1100000000e-04 0.0000e+00 1.0000e+00
       23  2    1    2    0    0 +0.0000000000e+00 +0.0000000000e+00 -1.1102230246e-15 9.1188000000e+01 9.1188000000e+01 1.0645e-13 0.0000e+00
 -9990012  2    3    3    0    0 -2.2453267894e+01 +2.2614791566e+01 +1.0689252569e+00 5.9301942892e+01 4.9999997928e+01 1.0656e-03 0.0000e+00
      -11  1    4    4    0    0 -2.9317332616e+01 +1.2916642114e+01 +6.0935578314e+00 3.2610996344e+01 5.1100000000e-04 0.0000e+00 1.0000e+00
       11  1    4    4    0    0 +3.2228606394e+00 +2.7014546598e+00 +9.3736771426e+00 1.0273777855e+01 5.1100000000e-04 0.0000e+00 -1.0000e+00
      -12  1    4    4    0    0 +3.6412040823e+00 +6.9966947922e+00 -1.4398309717e+01 1.6417168693e+01 0.0000000000e+00 0.0000e+00 1.0000e+00
       12  1    3    3    0    0 +2.2453267894e+01 -2.2614791566e+01 -1.0689252569e+00 3.1886057108e+01 0.0000000000e+00 0.0000e+00 -1.0000e+00
</event>
<event>
 8      3 +2.2883893e-04 9.11880000e+01 7.81616400e-03 1.18400000e-01
      -11 -1    0    0    0    0 +0.0000000000e+00 +0.0000000000e+00 +4.5593999997e+01 4.5594000000e+01 5.1100000000e-04 0.0000e+00 -1.0000e+00
       11 -1    0    0    0    0 -0.0000000000e+00 -0.0000000000e+00 -4.5593999997e+01 4.5594000000e+01 5.1100000000e-04 0.0000e+00 1.0000e+00
       23  2    1    2    0    0 +0.0000000000e+00 +3.5527136788e-15 +0.0000000000e+00 9.1188000000e+01 9.1188000000e+01 3.0301e-13 0.0000e+00
  9990012  2    3    3    0    0 +1.3745538149e+01 -1.8878369105e+01 +2.1711429869e+01 5.9301971303e+01 5.0000049744e+01 3.4181e-04 0.0000e+00
      -11  1    4    4    0    0 -3.8173318291e+00 -9.5035871723e+00 -9.8348332554e-01 1.0288704056e+01 5.1100000000e-04 0.0000e+00 1.0000e+00
       11  1    4    4    0    0 -5.2989870824e+00 -4.3434852162e-01 -8.0644151489e+00 9.6593330356e+00 5.1100000000e-04 0.0000e+00 -1.0000e+00
       12  1    4    4    0    0 +2.2861857060e+01 -8.9404334113e+00 +3.0759328344e+01 3.9353934212e+01 0.0000000000e+00 0.0000e+00 -1.0000e+00
      -12  1    3    3    0    0 -1.3745538149e+01 +1.8878369105e+01 -2.1711429869e+01 3.1886028697e+01 0.0000000000e+00 0.0000e+00 1.0000e+00
</event>
<event>
 8      3 +2.2883893e-04 9.11880000e+01 7.81616400e-03 1.18400000e-01
      -11 -1    0    0    0    0 +0.0000000000e+00 +0.0000000000e+00 +4.5593999997e+01 4.5594000000e+01 5.1100000000e-04 0.0000e+00 -1.0000e+00
       11 -1    0    0    0    0 -0.0000000000e+00 -0.0000000000e+00 -4.5593999997e+01 4.5594000000e+01 5.1100000000e-04 0.0000e+00 1.0000e+00
       23  2    1    2    0    0 +3.5527136788e-15 +7.1054273576e-15 +1.4432899320e-15 9.1188000000e+01 9.1188000000e+01 4.8336e-14 0.0000e+00
  9990012  2    3    3    0    0 +1.6801496048e+01 +2.7096369477e+01 +4.6688559971e-01 5.9301929523e+01 4.9999973547e+01 2.0631e-03 0.0000e+00
      -11  1    4    4    0    0 -1.3774546933e+01 -1.4516972652e+00 +1.7612028191e+00 1.3962356670e+01 5.1100000000e-04 0.0000e+00 1.0000e+00
       11  1    4    4    0    0 +1.1950479665e+01 +1.8107515691e+01 +6.4377226385e+00 2.2630518371e+01 5.1100000000e-04 0.0000e+00 -1.0000e+00
       12  1    4    4    0    0 +1.8625563316e+01 +1.0440551052e+01 -7.7320398579e+00 2.2709054482e+01 0.0000000000e+00 0.0000e+00 -1.0000e+00
      -12  1    3    3    0    0 -1.6801496048e+01 -2.7096369477e+01 -4.6688559971e-01 3.1886070477e+01 0.0000000000e+00 0.0000e+00 1.0000e+00
</event>
<event>
 8      3 +2.2883893e-04 9.11880000e+01 7.81616400e-03 1.18400000e-01
      -11 -1    0    0    0    0 +0.0000000000e+00 +0.0000000000e+00 +4.5593999997e+01 4.5594000000e+01 5.1100000000e-04 0.0000e+00 1.0000e+00
       11 -1    0    0    0    0 -0.0000000000e+00 -0.0000000000e+00 -4.5593999997e+01 4.5594000000e+01 5.1100000000e-04 0.0000e+00 -1.0000e+00
       23  2    1    2    0    0 -3.5527136788e-15 -2.2204460493e-16 -3.5527136788e-15 9.1188000000e+01 9.1188000000e+01 1.5245e-14 0.0000e+00
  9990012  2    3    3    0    0 +2.9056828875e+01 +5.9568941427e-01 +1.3117409189e+01 5.9301943895e+01 4.9999999757e+01 4.3115e-04 0.0000e+00
      -11  1    4    4    0    0 +7.3785029899e+00 +1.7285614750e+00 +1.3777819751e+01 1.5724457018e+01 5.1100000000e-04 0.0000e+00 1.0000e+00
       11  1    4    4    0    0 +1.6778522448e+01 +6.7033108985e+00 +1.6253779755e+01 2.4303056374e+01 5.1100000000e-04 0.0000e+00 -1.0000e+00
       12  1    4    4    0    0 +4.8998034363e+00 -7.8361829592e+00 -1.6914190317e+01 1.9274430502e+01 0.0000000000e+00 0.0000e+00 -1.0000e+00
      -12  1    3    3    0    0 -2.9056828875e+01 -5.9568941427e-01 -1.3117409189e+01 3.1886056105e+01 0.0000000000e+00 0.0000e+00 1.0000e+00
</event>
<event>
 8      3 +2.2883893e-04 9.11880000e+01 7.81616400e-03 1.18400000e-01
      -11 -1    0    0    0    0 +0.0000000000e+00 +0.0000000000e+00 +4.5593999997e+01 4.5594000000e+01 5.1100000000e-04 0.0000e+00 -1.0000e+00
       11 -1    0    0    0    0 -0.0000000000e+00 -0.0000000000e+00 -4.5593999997e+01 4.5594000000e+01 5.1100000000e-04 0.0000e+00 1.0000e+00
       23  2    1    2    0    0 +1.7763568394e-15 +0.0000000000e+00 -3.5527136788e-15 9.1188000000e+01 9.1188000000e+01 1.0069e-13 0.0000e+00
  9990012  2    3    3    0    0 -1.2463653452e+01 -1.6126312838e+01 +2.4521824814e+01 5.9301944814e+01 5.0000001433e+01 4.3385e-04 0.0000e+00
      -11  1    4    4    0    0 -5.7647275387e+00 +1.7246867852e+00 -1.1763873081e+01 1.3213452926e+01 5.1100000000e-04 0.0000e+00 1.0000e+00
       11  1    4    4    0    0 +2.2074232209e+00 -8.5153892628e+00 +1.4183937494e+00 8.9104664671e+00 5.1100000000e-04 0.0000e+00 -1.0000e+00
       12  1    4    4    0    0 -8.9063491346e+00 -9.3356103601e+00 +3.4867304146e+01 3.7178025420e+01 0.0000000000e+00 0.0000e+00 -1.0000e+00
      -12  1    3    3    0    0 +1.2463653452e+01 +1.6126312838e+01 -2.4521824814e+01 3.1886055186e+01 0.0000000000e+00 0.0000e+00 1.0000e+00
</event>
<event>
 8      4 +2.2883893e-04 9.11880000e+01 7.81616400e-03 1.18400000e-01
      -11 -1    0    0    0    0 +0.0000000000e+00 +0.0000000000e+00 +4.5593999997e+01 4.5594000000e+01 5.1100000000e-04 0.0000e+00 -1.0000e+00
       11 -1    0    0    0    0 -0.0000000000e+00 -0.0000000000e+00 -4.5593999997e+01 4.5594000000e+01 5.1100000000e-04 0.0000e+00 1.0000e+00
       23  2    1    2    0    0 +0.0000000000e+00 +2.2204460493e-16 +8.8817841970e-16 9.1188000000e+01 9.1188000000e+01 2.7229e-13 0.0000e+00
 -9990012  2    3    3    0    0 -3.1820252261e+01 +1.9448555396e+00 +6.4249698515e-01 5.9301894571e+01 4.9999909803e+01 1.6469e-04 0.0000e+00
      -11  1    4    4    0    0 -4.5029594313e+00 -1.3484708012e+01 +4.7353147914e+00 1.4984565400e+01 5.1100000000e-04 0.0000e+00 1.0000e+00
       11  1    4    4    0    0 -6.4376605599e+00 +1.2938678788e+01 +1.1227464978e+01 1.8300515084e+01 5.1100000000e-04 0.0000e+00 -1.0000e+00
      -12  1    4    4    0    0 -2.0879632270e+01 +2.4908847636e+00 -1.5320282784e+01 2.6016814087e+01 0.0000000000e+00 0.0000e+00 1.0000e+00
       12  1    3    3    0    0 +3.1820252261e+01 -1.9448555396e+00 -6.4249698515e-01 3.1886105429e+01 0.0000000000e+00 0.0000e+00 -1.0000e+00
</event>
<event>
 8      3 +2.2883893e-04 9.11880000e+01 7.81616400e-03 1.18400000e-01
      -11 -1    0    0    0    0 +0.0000000000e+00 +0.0000000000e+00 +4.5593999997e+01 4.5594000000e+01 5.1100000000e-04 0.0000e+00 -1.0000e+00
       11 -1    0    0    0    0 -0.0000000000e+00 -0.0000000000e+00 -4.5593999997e+01 4.5594000000e+01 5.1100000000e-04 0.0000e+00 1.0000e+00
       23  2    1    2    0    0 -5.9674487574e-16 +0.0000000000e+00 +0.0000000000e+00 9.1188000000e+01 9.1188000000e+01 2.4059e-14 0.0000e+00
  9990012  2    3    3    0    0 -1.1525008402e-01 +2.2118530734e+01 +2.2966893703e+01 5.9301938927e+01 4.9999990698e+01 1.0252e-03 0.0000e+00
      -11  1    4    4    0    0 +1.0776029479e+01 +6.0954178473e+00 +1.1388584390e+01 1.6821913825e+01 5.1100000000e-04 0.0000e+00 1.0000e+00
       11  1    4    4    0    0 +9.9620131590e+00 +1.0564079164e+01 +1.4743032059e+01 2.0692956998e+01 5.1100000000e-04 0.0000e+00 -1.0000e+00
       12  1    4    4    0    0 -2.0853292722e+01 +5.4590337224e+00 -3.1647227466e+00 2.1787068104e+01 0.0000000000e+00 0.0000e+00 -1.0000e+00
      -12  1    3    3    0    0 +1.1525008402e-01 -2.2118530734e+01 -2.2966893703e+01 3.1886061073e+01 0.0000000000e+00 0.0000e+00 1.0000e+00
</event>
<event>
 8      4 +2.2883893e-04 9.11880000e+01 7.81616400e-03 1.18400000e-01
      -11 -1    0    0    0    0 +0.0000000000e+00 +0.0000000000e+00 +4.5593999997e+01 4.5594000000e+01 5.1100000000e-04 0.0000e+00 -1.0000e+00
       11 -1    0    0    0    0 -0.0000000000e+00 -0.0000000000e+00 -4.5593999997e+01 4.5594000000e+01 5.1100000000e-04 0.0000e+00 1.0000e+00
       23  2    1    2    0    0 +3.5527136788e-15 +3.5527136788e-15 -8.8817841970e-16 9.1188000000e+01 9.1188000000e+01 2.4240e-14 0.0000e+00
 -9990012  2    3    3    0    0 +2.8053549233e+01 +1.5088361759e+01 +1.4356453296e+00 5.9301931527e+01 4.9999977202e+01 4.7340e-04 0.0000e+00
      -11  1    4    4    0    0 +7.2859381171e-02 -3.7455579609e+00 -1.0692178389e+01 1.1329483302e+01 5.1100000000e-04 0.0000e+00 1.0000e+00
       11  1    4    4    0    0 +9.6634324379e+00 +2.5079561382e+01 +4.9347995075e+00 2.7326151797e+01 5.1100000000e-04 0.0000e+00 -1.0000e+00
      -12  1    4    4    0    0 +1.8317257414e+01 -6.2456416617e+00 +7.1930242106e+00 2.0646296429e+01 0.0000000000e+00 0.0000e+00 1.0000e+00
       12  1    3    3    0    0 -2.8053549233e+01 -1.5088361759e+01 -1.4356453296e+00 3.1886068473e+01 0.0000000000e+00 0.0000e+00 -1.0000e+00
</event>
<event>
 8      3 +2.2883893e-04 9.11880000e+01 7.81616400e-03 1.18400000e-01
      -11 -1    0    0    0    0 +0.0000000000e+00 +0.0000000000e+00 +4.5593999997e+01 4.5594000000e+01 5.1100000000e-04 0.0000e+00 1.0000e+00
       11 -1    0    0    0    0 -0.0000000000e+00 -0.0000000000e+00 -4.5593999997e+01 4.5594000000e+01 5.1100000000e-04 0.0000e+00 -1.0000e+00
       23  2    1    2    0    0 +3.5527136788e-15 +0.0000000000e+00 +1.7763568394e-15 9.1188000000e+01 9.1188000000e+01 3.0170e-14 0.0000e+00
  9990012  2    3    3    0    0 +2.4223685118e+01 +1.9823118875e+01 +6.0809821250e+00 5.9301932412e+01 4.9999978815e+01 2.7883e-03 0.0000e+00
      -11  1    4    4    0    0 +1.3814052172e+01 +3.9018262904e+00 +1.6464182844e+01 2.1843113395e+01 5.1100000000e-04 0.0000e+00 1.0000e+00
       11  1    4    4    0    0 -2.1429549063e+00 +1.5166614927e+00 +9.5162192895e+00 9.8717246538e+00 5.1100000000e-04 0.0000e+00 -1.0000e+00
       12  1    4    4    0    0 +1.2552587852e+01 +1.4404631092e+01 -1.9899420009e+01 2.7587094362e+01 0.0000000000e+00 0.0000e+00 -1.0000e+00
      -12  1    3    3    0    0 -2.4223685118e+01 -1.9823118875e+01 -6.0809821250e+00 3.1886067588e+01 0.0000000000e+00 0.0000e+00 1.0000e+00
</event>
<event>
 8      3 +2.2883893e-04 9.11880000e+01 7.81616400e-03 1.18400000e-01
      -11 -1    0    0    0    0 +0.0000000000e+00 +0.0000000000e+00 +4.5593999997e+01 4.5594000000e+01 5.1100000000e-04 0.0000e+00 1.0000e+00
       11 -1    0    0    0    0 -0.0000000000e+00 -0.0000000000e+00 -4.5593999997e+01 4.5594000000e+01 5.1100000000e-04 0.0000e+00 -1.0000e+00
       23  2    1    2    0    0 +6.6613381478e-16 +0.0000000000e+00 +0.0000000000e+00 9.1188000000e+01 9.1188000000e+01 4.2008e-15 0.0000e+00
  9990012  2    3    3    0    0 +1.0175926122e+00 -2.9594653322e+01 +1.1825505329e+01 5.9301928177e+01 4.9999971092e+01 1.9978e-03 0.0000e+00
      -11  1    4    4    0    0 +1.9406173730e+00 +6.6658566426e+00 +6.4836973446e-01 6.9728060451e+00 5.1100000000e-04 0.0000e+00 1.0000e+00
       11  1    4    4    0    0 +7.8045728053e+00 -4.0621890719e+01 +9.0333514113e+00 4.2339707135e+01 5.1100000000e-04 0.0000e+00 -1.0000e+00
       12  1    4    4    0    0 -8.7275975661e+00 +4.3613807543e+00 +2.1437841833e+00 9.9894149972e+00 0.0000000000e+00 0.0000e+00 -1.0000e+00
      -12  1    3    3    0    0 -1.0175926122e+00 +2.9594653322e+01 -1.1825505329e+01 3.1886071823e+01 0.0000000000e+00 0.0000e+00 1.0000e+00
</event>
<event>
 8      4 +2.2883893e-04 9.11880000e+01 7.81616400e-03 1.18400000e-01
      -11 -1    0    0    0    0 +0.0000000000e+00 +0.0000000000e+00 +4.5593999997e+01 4.5594000000e+01 5.1100000000e-04 0.0000e+00 1.0000e+00
       11 -1    0    0    0    0 -0.0000000000e+00 -0.0000000000e+00 -4.5593999997e+01 4.5594000000e+01 5.1100000000e-04 0.0000e+00 -1.0000e+00
       23  2    1    2    0    0 +0.0000000000e+00 -7.1054273576e-15 +0.0000000000e+00 9.1188000000e+01 9.1188000000e+01 6.6263e-14 0.0000e+00
 -9990012  2    3    3    0    0 -5.4356163963e+00 +3.1286161466e+01 -2.8896016638e+00 5.9301958812e+01 5.0000026963e+01 7.6682e-03 0.0000e+00
      -11  1    4    4    0    0 +2.0170584870e+00 +4.0701358618e+01 +4.6563119203e+00 4.1016464490e+01 5.1100000000e-04 0.0000e+00 1.0000e+00
       11  1    4    4    0    0 -7.6224088740e+00 -7.4395573395e+00 -1.7512947895e-01 1.0652642914e+01 5.1100000000e-04 0.0000e+00 -1.0000e+00
      -12  1    4    4    0    0 +1.6973399067e-01 -1.9756398125e+00 -7.3707841052e+00 7.6328514083e+00 0.0000000000e+00 0.0000e+00 1.0000e+00
       12  1    3    3    0    0 +5.4356163963e+00 -3.1286161466e+01 +2.8896016638e+00 3.1886041188e+01 0.0000000000e+00 0.0000e+00 -1.0000e+00
</event>
<event>
 8      3 +2.2883893e-04 9.11880000e+01 7.81616400e-03 1.18400000e-01
      -11 -1    0    0    0    0 +0.0000000000e+00 +0.0000000000e+00 +4.5593999997e+01 4.5594000000e+01 5.1100000000e-04 0.0000e+00 1.0000e+00
       11 -1    0    0    0    0 -0.0000000000e+00 -0.0000000000e+00 -4.5593999997e+01 4.5594000000e+01 5.1100000000e-04 0.0000e+00 -1.0000e+00
       23  2    1    2    0    0 +8.8817841970e-16 +8.8817841970e-16 +0.0000000000e+00 9.1188000000e+01 9.1188000000e+01 3.0377e-13 0.0000e+00
  9990012  2    3    3    0    0 -4.2667720524e+00 +5.5968171157e+00 -3.1099681688e+01 5.9301954358e+01 5.0000018840e+01 2.7123e-03 0.0000e+00
      -11  1    4    4    0    0 -1.5302009870e+01 +9.5870472598e+00 +4.5081437803e+00 1.8611457273e+01 5.1100000000e-04 0.0000e+00 1.0000e+00
       11  1    4    4    0    0 +5.7327434722e+00 +4.2692779049e+00 -2.5965973561e+01 2.6931818817e+01 5.1100000000e-04 0.0000e+00 -1.0000e+00
       12  1    4    4    0    0 +5.3024943450e+00 -8.2595080490e+00 -9.6418519074e+00 1.3758678268e+01 0.0000000000e+00 0.0000e+00 -1.0000e+00
      -12  1    3    3    0    0 +4.2667720524e+00 -5.5968171157e+00 +3.1099681688e+01 3.1886045642e+01 0.0000000000e+00 0.0000e+00 1.0000e+00
</event>
<event>
 8      3 +2.2883893e-04 9.11880000e+01 7.81616400e-03 1.18400000e-01
      -11 -1    0    0    0    0 +0.0000000000e+00 +0.0000000000e+00 +4.5593999997e+01 4.5594000000e+01 5.1100000000e-04 0.0000e+00 1.0000e+00
       11 -1    0    0    0    0 -0.0000000000e+00 -0.0000000000e+00 -4.5593999997e+01 4.5594000000e+01 5.1100000000e-04 0.0000e+00 -1.0000e+00
       23  2    1    2    0    0 +0.0000000000e+00 +0.0000000000e+00 -1.0658141036e-14 9.1188000000e+01 9.1188000000e+01 1.3168e-13 0.0000e+00
  9990012  2    3    3    0    0 -5.2690042033e+00 -9.0254922314e+00 -3.0124711308e+01 5.9301950595e+01 5.0000011976e+01 1.6383e-03 0.0000e+00
      -11  1    4    4    0    0 -5.0989226177e+00 -7.6808706146e-01 -2.0112256248e+00 5.5347988555e+00 5.1100000000e-04 0.0000e+00 1.0000e+00
       11  1    4    4    0    0 -1.0985229498e+01 +5.1829387199e+00 +7.4437222282e+00 1.4245951066e+01 5.1100000000e-04 0.0000e+00 -1.0000e+00
       12  1    4    4    0    0 +1.0815147912e+01 -1.3440343890e+01 -3.5557207911e+01 3.9521200673e+01 0.0000000000e+00 0.0000e+00 -1.0000e+00
      -12  1    3    3    0    0 +5.2690042033e+00 +9.0254922314e+00 +3.0124711308e+01 3.1886049405e+01 0.0000000000e+00 0.0000e+00 1.0000e+00
</event>
<event>
 8      4 +2.2883893e-04 9.11880000e+01 7.81616400e-03 1.18400000e-01
      -11 -1    0    0    0    0 +0.0000000000e+00 +0.0000000000e+00 +4.5593999997e+01 4.5594000000e+01 5.1100000000e-04 0.0000e+00 1.0000e+00
       11 -1    0    0    0    0 -0.0000000000e+00 -0.0000000000e+00 -4.5593999997e+01 4.5594000000e+01 5.1100000000e-04 0.0000e+00 -1.0000e+00
       23  2    1    2    0    0 +8.8817841970e-16 +3.5527136788e-15 +1.7763568394e-15 9.1188000000e+01 9.1188000000e+01 8.8885e-14 0.0000e+00
 -9990012  2    3    3    0    0 +3.4575900740e+00 +2.8307379087e+01 +1.4263899212e+01 5.9301929991e+01 4.9999974399e+01 1.3551e-03 0.0000e+00
      -11  1    4    4    0    0 -4.6281030606e+00 +1.3449358308e+01 +5.7202005190e+00 1.5330533946e+01 5.1100000000e-04 0.0000e+00 -1.0000e+00
       11  1    4    4    0    0 +3.4967004460e+00 -1.2135241374e+01 +1.0635914688e+01 1.6511016889e+01 5.1100000000e-04 0.0000e+00 1.0000e+00
      -12  1    4    4    0    0 +4.5889926885e+00 +2.6993262153e+01 -2.0922159943e+00 2.7460379155e+01 0.0000000000e+00 0.0000e+00 1.0000e+00
       12  1    3    3    0    0 -3.4575900740e+00 -2.8307379087e+01 -1.4263899212e+01 3.1886070009e+01 0.0000000000e+00 0.0000e+00 -1.0000e+00
</event>
<event>
 8      4 +2.2883893e-04 9.11880000e+01 7.81616400e-03 1.18400000e-01
      -11 -1    0    0    0    0 +0.0000000000e+00 +0.0000000000e+00 +4.5593999997e+01 4.5594000000e+01 5.1100000000e-04 0.0000e+00 -1.0000e+00
       11 -1    0    0    0    0 -0.0000000000e+00 -0.0000000000e+00 -4.5593999997e+01 4.5594000000e+01 5.1100000000e-04 0.0000e+00 1.0000e+00
       23  2    1    2    0    0 +0.0000000000e+00 +0.0000000000e+00 +1.7763568394e-15 9.1188000000e+01 9.1188000000e+01 7.0898e-14 0.0000e+00
 -9990012  2    3    3    0    0 -1.9657294547e+01 +2.2710632618e+01 +1.0701560042e+01 5.9302181049e+01 5.0000432268e+01 4.5706e-04 0.0000e+00
      -11  1    4    4    0    0 -3.0642942932e+01 +5.4194643242e+00 +9.5876508577e+00 3.2561996166e+01 5.1100000000e-04 0.0000e+00 1.0000e+00
       11  1    4    4    0    0 +3.9666706834e+00 +2.1680796082e+00 +7.6062477960e+00 8.8481665499e+00 5.1100000000e-04 0.0000e+00 -1.0000e+00
      -12  1    4    4    0    0 +7.0189777017e+00 +1.5123088686e+01 -6.4923386113e+00 1.7892018333e+01 0.0000000000e+00 0.0000e+00 1.0000e+00
       12  1    3    3    0    0 +1.9657294547e+01 -2.2710632618e+01 -1.0701560042e+01 3.1885818951e+01 0.0000000000e+00 0.0000e+00 -1.0000e+00
</event>
<event>
 8      3 +2.2883893e-04 9.11880000e+01 7.81616400e-03 1.18400000e-01
      -11 -1    0    0    0    0 +0.0000000000e+00 +0.0000000000e+00 +4.5593999997e+01 4.5594000000e+01 5.1100000000e-04 0.0000e+00 -1.0000e+00
       11 -1    0    0    0    0 -0.0000000000e+00 -0.0000000000e+00 -4.5593999997e+01 4.5594000000e+01 5.1100000000e-04 0.0000e+00 1.0000e+00
       23  2    1    2    0    0 +7.1054273576e-15 -6.1062266354e-16 +3.5527136788e-15 9.1188000000e+01 9.1188000000e+01 8.3400e-15 0.0000e+00
  9990012  2    3    3    0    0 +2.5259845613e+01 +1.7765867777e-01 +1.9458401150e+01 5.9301941317e+01 4.9999995056e+01 2.3676e-04 0.0000e+00
      -11  1    4    4    0    0 +3.5521435762e+00 +1.6862775785e+01 +2.0759312726e+00 1.7357431321e+01 5.1100000000e-04 0.0000e+00 1.0000e+00
       11  1    4    4    0    0 -1.1859446093e+00 -1.2261855657e+01 +1.3552972405e+01 1.8315092958e+01 5.1100000000e-04 0.0000e+00 -1.0000e+00
       12  1    4    4    0    0 +2.2893646647e+01 -4.4232614501e+00 +3.8294974727e+00 2.3629417037e+01 0.0000000000e+00 0.0000e+00 -1.0000e+00
      -12  1    3    3    0    0 -2.5259845613e+01 -1.7765867777e-01 -1.9458401150e+01 3.1886058683e+01 0.0000000000e+00 0.0000e+00 1.0000e+00
</event>
<event>
 8      3 +2.2883893e-04 9.11880000e+01 7.81616400e-03 1.18400000e-01
      -11 -1    0    0    0    0 +0.0000000000e+00 +0.0000000000e+00 +4.5593999997e+01 4.5594000000e+01 5.1100000000e-04 0.0000e+00 1.0000e+00
       11 -1    0    0    0    0 -0.0000000000e+00 -0.0000000000e+00 -4.5593999997e+01 4.5594000000e+01 5.1100000000e-04 0.0000e+00 -1.0000e+00
       23  2    1    2    0    0 -3.5527136788e-15 +0.0000000000e+00 +0.0000000000e+00 9.1188000000e+01 9.1188000000e+01 3.6341e-14 0.0000e+00
  9990012  2    3    3    0    0 +2.6865500746e+01 -1.6136273360e+01 -5.8810045667e+00 5.9301942499e+01 4.9999997211e+01 2.8974e-03 0.0000e+00
      -11  1    4    4    0    0 +8.2262713838e+00 +6.3459249858e+00 +4.5126078362e+00 1.1327220954e+01 5.1100000000e-04 0.0000e+00 1.0000e+00
       11  1    4    4    0    0 -1.1042507199e+01 -5.8086207302e+00 -5.2811026905e+00 1.3548693145e+01 5.1100000000e-04 0.0000e+00 -1.0000e+00
       12  1    4    4    0    0 +2.9681736561e+01 -1.6673577616e+01 -5.1125097124e+00 3.4426028400e+01 0.0000000000e+00 0.0000e+00 -1.0000e+00
      -12  1    3    3    0    0 -2.6865500746e+01 +1.6136273360e+01 +5.8810045667e+00 3.1886057501e+01 0.0000000000e+00 0.0000e+00 1.0000e+00
</event>
<event>
 8      4 +2.2883893e-04 9.11880000e+01 7.81616400e-03 1.18400000e-01
      -11 -1    0    0    0    0 +0.0000000000e+00 +0.0000000000e+00 +4.5593999997e+01 4.5594000000e+01 5.1100000000e-04 0.0000e+00 1.0000e+00
       11 -1    0    0    0    0 -0.0000000000e+00 -0.0000000000e+00 -4.5593999997e+01 4.5594000000e+01 5.1100000000e-04 0.0000e+00 -1.0000e+00
       23  2    1    2    0    0 +0.0000000000e+00 +0.0000000000e+00 +8.8817841970e-16 9.1188000000e+01 9.1188000000e+01 2.0736e-13 0.0000e+00
 -9990012  2    3    3    0    0 -2.6897249917e+01 -1.6550778292e+01 -4.3968016066e+00 5.9301918717e+01 4.9999953840e+01 1.6143e-03 0.0000e+00
      -11  1    4    4    0    0 -7.3510070861e-01 +1.5415743344e+00 +8.4878621905e+00 8.6579806714e+00 5.1100000000e-04 0.0000e+00 1.0000e+00
       11  1    4    4    0    0 +4.6676889053e+00 -1.1487102117e+01 -1.4493292419e+01 1.9073446468e+01 5.1100000000e-04 0.0000e+00 -1.0000e+00
      -12  1    4    4    0    0 -3.0829838114e+01 -6.6052505091e+00 +1.6086286220e+00 3.1570491578e+01 0.0000000000e+00 0.0000e+00 1.0000e+00
       12  1    3    3    0    0 +2.6897249917e+01 +1.6550778292e+01 +4.3968016066e+00 3.1886081283e+01 0.0000000000e+00 0.0000e+00 -1.0000e+00
</event>
<event>
 8      3 +2.2883893e-04 9.11880000e+01 7.81616400e-03 1.18400000e-01
      -11 -1    0    0    0    0 +0.0000000000e+00 +0.0000000000e+00 +4.5593999997e+01 4.5594000000e+01 5.1100000000e-04 0.0000e+00 1.0000e+00
       11 -1    0    0    0    0 -0.0000000000e+00 -0.0000000000e+00 -4.5593999997e+01 4.5594000000e+01 5.1100000000e-04 0.0000e+00 -1.0000e+00
       23  2    1    2    0    0 -3.5527136788e-15 +0.0000000000e+00 +1.7763568394e-15 9.1188000000e+01 9.1188000000e+01 2.8660e-13 0.0000e+00
  9990012  2    3    3    0    0 -2.8339862292e+01 +1.1409865731e+01 -9.1316863765e+00 5.9301944634e+01 5.0000001105e+01 1.7676e-03 0.0000e+00
      -11  1    4    4    0    0 -4.3306501356e+00 +1.6221165485e+00 +1.8080885182e+01 1.8662909793e+01 5.1100000000e-04 0.0000e+00 1.0000e+00
       11  1    4    4    0    0 -1.5586111219e+00 +5.7807147794e+00 -1.1435967472e+01 1.2908419124e+01 5.1100000000e-04 0.0000e+00 -1.0000e+00
       12  1    4    4    0    0 -2.2450601035e+01 +4.0070344032e+00 -1.5776604087e+01 2.7730615717e+01 0.0000000000e+00 0.0000e+00 -1.0000e+00
      -12  1    3    3    0    0 +2.8339862292e+01 -1.1409865731e+01 +9.1316863765e+00 3.1886055366e+01 0.0000000000e+00 0.0000e+00 1.0000e+00
</event>
<event>
 8      4 +2.2883893e-04 9.11880000e+01 7.81616400e-03 1.18400000e-01
      -11 -1    0    0    0    0 +0.0000000000e+00 +0.0000000000e+00 +4.5593999997e+01 4.5594000000e+01 5.1100000000e-04 0.0000e+00 -1.0000e+00
       11 -1    0    0    0    0 -0.0000000000e+00 -0.0000000000e+00 -4.5593999997e+01 4.5594000000e+01 5.1100000000e-04 0.0000e+00 1.0000e+00
       23  2    1    2    0    0 +0.0000000000e+00 -2.2204460493e-16 +0.0000000000e+00 9.1188000000e+01 9.1188000000e+01 2.7775e-13 0.0000e+00
 -9990012  2    3    3    0    0 -2.0354498121e+01 -1.0374869752e+00 -2.4522123034e+01 5.9302007918e+01 5.0000116520e+01 2.4765e-03 0.0000e+00
      -11  1    4    4    0    0 -4.8923614505e+00 -1.3068833752e+01 -6.5666231829e+00 1.5422391400e+01 5.1100000000e-04 0.0000e+00 1.0000e+00
       11  1    4    4    0    0 +4.5524522960e+00 +1.0935769741e+00 +8.0354933008e+00 9.2999938363e+00 5.1100000000e-04 0.0000e+00 -1.0000e+00
      -12  1    4    4    0    0 -2.0014588967e+01 +1.0937769803e+01 -2.5990993152e+01 3.4579622681e+01 0.0000000000e+00 0.0000e+00 1.0000e+00
       12  1    3    3    0    0 +2.0354498121e+01 +1.0374869752e+00 +2.4522123034e+01 3.1885992082e+01 0.0000000000e+00 0.0000e+00 -1.0000e+00
</event>
<event>
 8      3 +2.2883893e-04 9.11880000e+01 7.81616400e-03 1.18400000e-01
      -11 -1    0    0    0    0 +0.0000000000e+00 +0.0000000000e+00 +4.5593999997e+01 4.5594000000e+01 5.1100000000e-04 0.0000e+00 -1.0000e+00
       11 -1    0    0    0    0 -0.0000000000e+00 -0.0000000000e+00 -4.5593999997e+01 4.5594000000e+01 5.1100000000e-04 0.0000e+00 1.0000e+00
       23  2    1    2    0    0 +1.7763568394e-15 -3.5527136788e-15 +3.5527136788e-15 9.1188000000e+01 9.1188000000e+01 1.2129e-13 0.0000e+00
  9990012  2    3    3    0    0 -1.3943094380e+01 +2.0249884707e+01 -2.0304041316e+01 5.9301924586e+01 4.9999964543e+01 1.7537e-03 0.0000e+00
      -11  1    4    4    0    0 -9.4564864068e+00 +4.6822717405e+00 -3.1500532079e+01 3.3220962138e+01 5.1100000000e-04 0.0000e+00 1.0000e+00
       11  1    4    4    0    0 +2.8200359758e+00 +7.2005635499e+00 +1.2702270588e+01 1.4871059031e+01 5.1100000000e-04 0.0000e+00 -1.0000e+00
       12  1    4    4    0    0 -7.3066439491e+00 +8.3670494166e+00 -1.5057798253e+00 1.1209903417e+01 0.0000000000e+00 0.0000e+00 -1.0000e+00
      -12  1    3    3    0    0 +1.3943094380e+01 -2.0249884707e+01 +2.0304041316e+01 3.1886075414e+01 0.0000000000e+00 0.0000e+00 1.0000e+00
</event>
<event>
 8      4 +2.2883893e-04 9.11880000e+01 7.81616400e-03 1.18400000e-01
      -11 -1    0    0    0    0 +0.0000000000e+00 +0.0000000000e+00 +4.5593999997e+01 4.5594000000e+01 5.1100000000e-04 0.0000e+00 1.0000e+00
       11 -1    0    0    0    0 -0.0000000000e+00 -0.0000000000e+00 -4.5593999997e+01 4.5594000000e+01 5.1100000000e-04 0.0000e+00 -1.0000e+00
       23  2    1    2    0    0 -1.7763568394e-15 +0.0000000000e+00 +0.0000000000e+00 9.1188000000e+01 9.1188000000e+01 9.5685e-14 0.0000e+00
 -9990012  2    3    3    0    0 +6.1552105613e+00 -2.9870112225e+01 +9.3063919924e+00 5.9301966172e+01 5.0000040386e+01 3.5231e-03 0.0000e+00
      -11  1    4    4    0    0 -1.5854588751e+01 -2.2376367135e+01 +4.5326517196e-01 2.7427636431e+01 5.1100000000e-04 0.0000e+00 1.0000e+00
       11  1    4    4    0    0 +8.4016200129e+00 -8.5203031833e+00 -4.4973878610e+00 1.2783164045e+01 5.1100000000e-04 0.0000e+00 -1.0000e+00
      -12  1    4    4    0    0 +1.3608179299e+01 +1.0265580932e+00 +1.3350514681e+01 1.9091165696e+01 0.0000000000e+00 0.0000e+00 1.0000e+00
       12  1    3    3    0    0 -6.1552105613e+00 +2.9870112225e+01 -9.3063919924e+00 3.1886033828e+01 0.0000000000e+00 0.0000e+00 -1.0000e+00
</event>
<event>
 8      4 +2.2883893e-04 9.11880000e+01 7.81616400e-03 1.18400000e-01
      -11 -1    0    0    0    0 +0.0000000000e+00 +0.0000000000e+00 +4.5593999997e+01 4.5594000000e+01 5.1100000000e-04 0.0000e+00 1.0000e+00
       11 -1    0    0    0    0 -0.0000000000e+00 -0.0000000000e+00 -4.5593999997e+01 4.5594000000e+01 5.1100000000e-04 0.0000e+00 -1.0000e+00
       23  2    1    2    0    0 -3.5527136788e-15 +1.7763568394e-15 -1.7763568394e-15 9.1188000000e+01 9.1188000000e+01 1.5063e-13 0.0000e+00
 -9990012  2    3    3    0    0 +2.8395227979e+01 +1.2091597608e+01 +8.0141225653e+00 5.9301923647e+01 4.9999962830e+01 2.1113e-03 0.0000e+00
      -11  1    4    4    0    0 +9.2597779187e+00 +1.9967018502e+01 -3.4748755807e+00 2.2282281650e+01 5.1100000000e-04 0.0000e+00 1.0000e+00
       11  1    4    4    0    0 -1.6091878285e+00 -1.6471693326e+00 -7.7281861859e+00 8.0639639299e+00 5.1100000000e-04 0.0000e+00 -1.0000e+00
      -12  1    4    4    0    0 +2.0744637889e+01 -6.2282515613e+00 +1.9217184332e+01 2.8955678067e+01 0.0000000000e+00 0.0000e+00 1.0000e+00
       12  1    3    3    0    0 -2.8395227979e+01 -1.2091597608e+01 -8.0141225653e+00 3.1886076353e+01 0.0000000000e+00 0.0000e+00 -1.0000e+00
</event>
<event>
 8      3 +2.2883893e-04 9.11880000e+01 7.81616400e-03 1.18400000e-01
      -11 -1    0    0    0    0 +0.0000000000e+00 +0.0000000000e+00 +4.5593999997e+01 4.5594000000e+01 5.1100000000e-04 0.0000e+00 -1.0000e+00
       11 -1    0    0    0    0 -0.0000000000e+00 -0.0000000000e+00 -4.5593999997e+01 4.5594000000e+01 5.1100000000e-04 0.0000e+00 1.0000e+00
       23  2    1    2    0    0 +3.5527136788e-15 +0.0000000000e+00 +0.0000000000e+00 9.1188000000e+01 9.1188000000e+01 1.8653e-13 0.0000e+00
  9990012  2    3    3    0    0 +1.9779072730e+01 -1.7509139388e+01 +1.7858729029e+01 5.9302017457e+01 5.0000133918e+01 1.8363e-03 0.0000e+00
      -11  1    4    4    0    0 +8.9150195571e+00 -8.4693248524e+00 -6.4607457637e+00 1.3890582178e+01 5.1100000000e-04 0.0000e+00 1.0000e+00
       11  1    4    4    0    0 +7.8813745466e+00 -2.3249596140e-01 +3.2244023075e+01 3.3194082959e+01 5.1100000000e-04 0.0000e+00 -1.0000e+00
       12  1    4    4    0    0 +2.9826786267e+00 -8.8073185737e+00 -7.9245482823e+00 1.2217352321e+01 0.0000000000e+00 0.0000e+00 -1.0000e+00
      -12  1    3    3    0    0 -1.9779072730e+01 +1.7509139388e+01 -1.7858729029e+01 3.1885982543e+01 0.0000000000e+00 0.0000e+00 1.0000e+00
</event>
<event>
 8      4 +2.2883893e-04 9.11880000e+01 7.81616400e-03 1.18400000e-01
      -11 -1    0    0    0    0 +0.0000000000e+00 +0.0000000000e+00 +4.5593999997e+01 4.5594000000e+01 5.1100000000e-04 0.0000e+00 -1.0000e+00
       11 -1    0    0    0    0 -0.0000000000e+00 -0.0000000000e+00 -4.5593999997e+01 4.5594000000e+01 5.1100000000e-04 0.0000e+00 1.0000e+00
       23  2    1    2    0    0 +0.0000000000e+00 +0.0000000000e+00 +3.5527136788e-15 9.1188000000e+01 9.1188000000e+01 5.3551e-14 0.0000e+00
 -9990012  2    3    3    0    0 +2.4031794509e+01 +1.8041735543e+00 -2.0879162924e+01 5.9301927272e+01 4.9999969442e+01 2.6304e-03 0.0000e+00
      -11  1    4    4    0    0 +2.5865332775e+01 -1.1477877297e+01 -1.8102883294e+01 3.3592729729e+01 5.1100000000e-04 0.0000e+00 1.0000e+00
       11  1    4    4    0    0 +4.4921410515e+00 +1.9267341376e-01 +6.9071413639e+00 8.2416658724e+00 5.1100000000e-04 0.0000e+00 -1.0000e+00
      -12  1    4    4    0    0 -6.3256793175e+00 +1.3089377437e+01 -9.6834209948e+00 1.7467531671e+01 0.0000000000e+00 0.0000e+00 1.0000e+00
       12  1    3    3    0    0 -2.4031794509e+01 -1.8041735543e+00 +2.0879162924e+01 3.1886072728e+01 0.0000000000e+00 0.0000e+00 -1.0000e+00
</event>
<event>
 8      3 +2.2883893e-04 9.11880000e+01 7.81616400e-03 1.18400000e-01
      -11 -1    0    0    0    0 +0.0000000000e+00 +0.0000000000e+00 +4.5593999997e+01 4.5594000000e+01 5.1100000000e-04 0.0000e+00 1.0000e+00
       11 -1    0    0    0    0 -0.0000000000e+00 -0.0000000000e+00 -4.5593999997e+01 4.5594000000e+01 5.1100000000e-04 0.0000e+00 -1.0000e+00
       23  2    1    2    0    0 -8.8817841970e-16 +3.5527136788e-15 -1.7763568394e-15 9.1188000000e+01 9.1188000000e+01 2.5906e-14 0.0000e+00
  9990012  2    3    3    0    0 +2.1910273334e+00 -2.7577087456e+01 -1.5856340259e+01 5.9301954780e+01 5.0000019610e+01 3.1612e-03 0.0000e+00
      -11  1    4    4    0    0 -8.1069233788e+00 +2.7709372972e+00 -1.3711739778e+00 8.6764289032e+00 5.1100000000e-04 0.0000e+00 1.0000e+00
       11  1    4    4    0    0 -3.1974408090e+00 -2.2059633141e+00 +1.0147344553e+01 1.0865473005e+01 5.1100000000e-04 0.0000e+00 -1.0000e+00
       12  1    4    4    0    0 +1.3495391521e+01 -2.8142061440e+01 -2.4632510835e+01 3.9760052872e+01 0.0000000000e+00 0.0000e+00 -1.0000e+00
      -12  1    3    3    0    0 -2.1910273334e+00 +2.7577087456e+01 +1.5856340259e+01 3.1886045220e+01 0.0000000000e+00 0.0000e+00 1.0000e+00
</event>
<event>
 8      3 +2.2883893e-04 9.11880000e+01 7.81616400e-03 1.18400000e-01
      -11 -1    0    0    0    0 +0.0000000000e+00 +0.0000000000e+00 +4.5593999997e+01 4.5594000000e+01 5.1100000000e-04 0.0000e+00 1.0000e+00
       11 -1    0    0    0    0 -0.0000000000e+00 -0.0000000000e+00 -4.5593999997e+01 4.5594000000e+01 5.1100000000e-04 0.0000e+00 -1.0000e+00
       23  2    1    2    0    0 +0.0000000000e+00 +0.0000000000e+00 +3.5527136788e-15 9.1188000000e+01 9.1188000000e+01 3.0896e-15 0.0000e+00
  9990012  2    3    3    0    0 +1.3019515998e+01 -2.7630672036e+01 -9.1520482369e+00 5.9301924341e+01 4.9999964096e+01 2.1252e-03 0.0000e+00
      -11  1    4    4    0    0 +1.8708105260e+01 +3.4693701142e+00 +6.0882261336e+00 1.9977392951e+01 5.1100000000e-04 0.0000e+00 -1.0000e+00
       11  1    4    4    0    0 +4.7890723109e+00 -3.3888797458e+00 +2.9171737128e-01 5.8740802528e+00 5.1100000000e-04 0.0000e+00 1.0000e+00
       12  1    4    4    0    0 -1.0477661572e+01 -2.7711162404e+01 -1.5531991742e+01 3.3450451137e+01 0.0000000000e+00 0.0000e+00 -1.0000e+00
      -12  1    3    3    0    0 -1.3019515998e+01 +2.7630672036e+01 +9.1520482369e+00 3.1886075659e+01 0.0000000000e+00 0.0000e+00 1.0000e+00
</event>
<event>
 8      4 +2.2883893e-04 9.11880000e+01 7.81616400e-03 1.18400000e-01
      -11 -1    0    0    0    0 +0.0000000000e+00 +0.0000000000e+00 +4.5593999997e+01 4.5594000000e+01 5.1100000000e-04 0.0000e+00 1.0000e+00
       11 -1    0    0    0    0 -0.0000000000e+00 -0.0000000000e+00 -4.5593999997e+01 4.5594000000e+01 5.1100000000e-04 0.0000e+00 -1.0000e+00
       23  2    1    2    0    0 +0.0000000000e+00 +0.0000000000e+00 -3.5527136788e-15 9.1188000000e+01 9.1188000000e+01 1.6645e-13 0.0000e+00
 -9990012  2    3    3    0    0 +3.9542276321e+00 -2.4525026185e+01 +1.9990096993e+01 5.9302003021e+01 5.0000107590e+01 1.0284e-03 0.0000e+00
      -11  1    4    4    0    0 +5.7900918417e+00 -2.1057245309e+01 +2.4243144936e+00 2.1972938915e+01 5.1100000000e-04 0.0000e+00 1.0000e+00
       11  1    4    4    0    0 -1.3754059470e-01 -1.0281865323e+01 -6.5632691221e+00 1.2198859528e+01 5.1100000000e-04 0.0000e+00 -1.0000e+00
      -12  1    4    4    0    0 -1.6983236149e+00 +6.8140844479e+00 +2.4129051622e+01 2.5130204578e+01 0.0000000000e+00 0.0000e+00 1.0000e+00
       12  1    3    3    0    0 -3.9542276321e+00 +2.4525026185e+01 -1.9990096993e+01 3.1885996979e+01 0.0000000000e+00 0.0000e+00 -1.0000e+00
</event>
<event>
 8      4 +2.2883893e-04 9.11880000e+01 7.81616400e-03 1.18400000e-01
      -11 -1    0    0    0    0 +0.0000000000e+00 +0.0000000000e+00 +4.5593999997e+01 4.5594000000e+01 5.1100000000e-04 0.0000e+00 -1.0000e+00
       11 -1    0    0    0    0 -0.0000000000e+00 -0.0000000000e+00 -4.5593999997e+01 4.5594000000e+01 5.1100000000e-04 0.0000e+00 1.0000e+00
       23  2    1    2    0    0 +1.7763568394e-15 +3.5527136788e-15 -6.6613381478e-16 9.1188000000e+01 9.1188000000e+01 1.4642e-15 0.0000e+00
 -9990012  2    3    3    0    0 +7.8055586993e+00 +3.0889548994e+01 -1.2763783143e+00 5.9301950930e+01 5.0000012588e+01 2.4652e-04 0.0000e+00
      -11  1    4    4    0    0 -4.4392182114e-01 -7.3537012911e-01 -4.1065189798e+00 4.1953944037e+00 5.1100000000e-04 0.0000e+00 1.0000e+00
       11  1    4    4    0    0 -1.0426486653e+01 -1.9879350975e+00 -9.9868423064e+00 1.4573967524e+01 5.1100000000e-04 0.0000e+00 -1.0000e+00
      -12  1    4    4    0    0 +1.8675967173e+01 +3.3612854221e+01 +1.2816982972e+01 4.0532589002e+01 0.0000000000e+00 0.0000e+00 1.0000e+00
       12  1    3    3    0    0 -7.8055586993e+00 -3.0889548994e+01 +1.2763783143e+00 3.1886049070e+01 0.0000000000e+00 0.0000e+00 -1.0000e+00
</event>
<event>
 8      4 +2.2883893e-04 9.11880000e+01 7.81616400e-03 1.18400000e-01
      -11 -1    0    0    0    0 +0.0000000000e+00 +0.0000000000e+00 +4.5593999997e+01 4.5594000000e+01 5.1100000000e-04 0.0000e+00 1.0000e+00
       11 -1    0    0    0    0 -0.0000000000e+00 -0.0000000000e+00 -4.5593999997e+01 4.5594000000e+01 5.1100000000e-04 0.0000e+00 -1.0000e+00
       23  2    1    2    0    0 -3.5527136788e-15 +0.0000000000e+00 +1.7763568394e-15 9.1188000000e+01 9.1188000000e+01 6.5179e-15 0.0000e+00
 -9990012  2    3    3    0    0 -2.7909902254e+01 +1.1816637368e+01 +9.9058372703e+00 5.9301934477e+01 4.9999982582e+01 1.2215e-03 0.0000e+00
      -11  1    4    4    0    0 -6.8475203988e+00 -4.3442668661e+00 +2.5033793653e+00 8.4869369459e+00 5.1100000000e-04 0.0000e+00 1.0000e+00
       11  1    4    4    0    0 +1.9565395179e+00 -3.0208665047e+00 -1.3700943306e+01 1.4165787273e+01 5.1100000000e-04 0.0000e+00 -1.0000e+00
      -12  1    4    4    0    0 -2.3018921373e+01 +1.9181770738e+01 +2.1103401211e+01 3.6649210258e+01 0.0000000000e+00 0.0000e+00 1.0000e+00
       12  1    3    3    0    0 +2.7909902254e+01 -1.1816637368e+01 -9.9058372703e+00 3.1886065523e+01 0.0000000000e+00 0.0000e+00 -1.0000e+00
</event>
<event>
 8      3 +2.2883893e-04 9.11880000e+01 7.81616400e-03 1.18400000e-01
      -11 -1    0    0    0    0 +0.0000000000e+00 +0.0000000000e+00 +4.5593999997e+01 4.5594000000e+01 5.1100000000e-04 0.0000e+00 1.0000e+00
       11 -1    0    0    0    0 -0.0000000000e+00 -0.0000000000e+00 -4.5593999997e+01 4.5594000000e+01 5.1100000000e-04 0.0000e+00 -1.0000e+00
       23  2    1    2    0    0 -2.6645352591e-15 +0.0000000000e+00 +0.0000000000e+00 9.1188000000e+01 9.1188000000e+01 9.8927e-14 0.0000e+00
  9990012  2    3    3    0    0 -5.2279731154e+00 -3.0187486000e+01 -8.8377119385e+00 5.9301934607e+01 4.9999982819e+01 5.3190e-04 0.0000e+00
      -11  1    4    4    0    0 -4.6914950355e+00 +3.3762891983e+00 -3.5555197265e+00 6.7861016206e+00 5.1100000000e-04 0.0000e+00 1.0000e+00
       11  1    4    4    0    0 +1.7002975431e+01 -2.1086711893e+01 +6.6679046225e+00 2.7896443219e+01 5.1100000000e-04 0.0000e+00 -1.0000e+00
       12  1    4    4    0    0 -1.7539453510e+01 -1.2477063306e+01 -1.1950096834e+01 2.4619389768e+01 0.0000000000e+00 0.0000e+00 -1.0000e+00
      -12  1    3    3    0    0 +5.2279731154e+00 +3.0187486000e+01 +8.8377119385e+00 3.1886065393e+01 0.0000000000e+00 0.0000e+00 1.0000e+00
</event>
<event>
 8      4 +2.2883893e-04 9.11880000e+01 7.81616400e-03 1.18400000e-01
      -11 -1    0    0    0    0 +0.0000000000e+00 +0.0000000000e+00 +4.5593999997e+01 4.5594000000e+01 5.1100000000e-04 0.0000e+00 -1.0000e+00
       11 -1    0    0    0    0 -0.0000000000e+00 -0.0000000000e+00 -4.5593999997e+01 4.5594000000e+01 5.1100000000e-04 0.0000e+00 1.0000e+00
       23  2    1    2    0    0 +0.0000000000e+00 +3.5527136788e-15 +0.0000000000e+00 9.1188000000e+01 9.1188000000e+01 2.9473e-14 0.0000e+00
 -9990012  2    3    3    0    0 +9.8006527443e+00 -2.7987266436e+01 -1.1720959756e+01 5.9301940752e+01 4.9999994026e+01 2.2691e-04 0.0000e+00
      -11  1    4    4    0    0 +5.3814625192e+00 -4.6677794574e+00 +1.2480885690e+01 1.4370831979e+01 5.1100000000e-04 0.0000e+00 -1.0000e+00
       11  1    4    4    0    0 +1.2379307974e+01 -8.1312162523e+00 -2.3488830871e+01 2.7768491489e+01 5.1100000000e-04 0.0000e+00 1.0000e+00
      -12  1    4    4    0    0 -7.9601177489e+00 -1.5188270727e+01 -7.1301457432e-01 1.7162617284e+01 0.0000000000e+00 0.0000e+00 1.0000e+00
       12  1    3    3    0    0 -9.8006527443e+00 +2.7987266436e+01 +1.1720959756e+01 3.1886059248e+01 0.0000000000e+00 0.0000e+00 -1.0000e+00
</event>
<event>
 8      3 +2.2883893e-04 9.11880000e+01 7.81616400e-03 1.18400000e-01
      -11 -1    0    0    0    0 +0.0000000000e+00 +0.0000000000e+00 +4.5593999997e+01 4.5594000000e+01 5.1100000000e-04 0.0000e+00 -1.0000e+00
       11 -1    0    0    0    0 -0.0000000000e+00 -0.0000000000e+00 -4.5593999997e+01 4.5594000000e+01 5.1100000000e-04 0.0000e+00 1.0000e+00
       23  2    1    2    0    0 +0.0000000000e+00 -8.8817841970e-16 -3.5527136788e-15 9.1188000000e+01 9.1188000000e+01 9.2154e-14 0.0000e+00
  9990012  2    3    3    0    0 +1.4018517917e+01 -2.0815062770e+00 +2.8563409261e+01 5.9301955065e+01 5.0000020130e+01 4.9461e-04 0.0000e+00
      -11  1    4    4    0    0 -6.0159091141e+00 -6.1928066275e+00 -2.2502388613e+00 8.9221965674e+00 5.1100000000e-04 0.0000e+00 1.0000e+00
       11  1    4    4    0    0 +9.7457351158e+00 -1.5152863721e+01 +1.3686822680e+01 2.2625599379e+01 5.1100000000e-04 0.0000e+00 -1.0000e+00
       12  1    4    4    0    0 +1.0288691915e+01 +1.9264164072e+01 +1.7126825442e+01 2.7754159119e+01 0.0000000000e+00 0.0000e+00 -1.0000e+00
      -12  1    3    3    0    0 -1.4018517917e+01 +2.0815062770e+00 -2.8563409261e+01 3.1886044935e+01 0.0000000000e+00 0.0000e+00 1.0000e+00
</event>
<event>
 8      3 +2.2883893e-04 9.11880000e+01 7.81616400e-03 1.18400000e-01
      -11 -1    0    0    0    0 +0.0000000000e+00 +0.0000000000e+00 +4.5593999997e+01 4.5594000000e+01 5.1100000000e-04 0.0000e+00 1.0000e+00
       11 -1    0    0    0    0 -0.0000000000e+00 -0.0000000000e+00 -4.5593999997e+01 4.5594000000e+01 5.1100000000e-04 0.0000e+00 -1.0000e+00
       23  2    1    2    0    0 -8.8817841970e-16 +0.0000000000e+00 -8.8817841970e-16 9.1188000000e+01 9.1188000000e+01 1.4982e-13 0.0000e+00
  9990012  2    3    3    0    0 -5.7091990709e+00 -3.1007983672e+01 +4.7569179197e+00 5.9301979967e+01 5.0000065545e+01 3.4943e-03 0.0000e+00
      -11  1    4    4    0    0 +6.4708472220e+00 -7.3541572254e+00 -6.8203657758e+00 1.1936200478e+01 5.1100000000e-04 0.0000e+00 1.0000e+00
       11  1    4    4    0    0 -1.5802758504e+01 -2.8730809519e+01 +1.8820460857e+01 3.7807358267e+01 5.1100000000e-04 0.0000e+00 -1.0000e+00
       12  1    4    4    0    0 +3.6227122116e+00 +5.0769830723e+00 -7.2431771616e+00 9.5584212231e+00 0.0000000000e+00 0.0000e+00 -1.0000e+00
      -12  1    3    3    0    0 +5.7091990709e+00 +3.1007983672e+01 -4.7569179197e+00 3.1886020033e+01 0.0000000000e+00 0.0000e+00 1.0000e+00
</event>
<event>
 8      4 +2.2883893e-04 9.11880000e+01 7.81616400e-03 1.18400000e-01
      -11 -1    0    0    0    0 +0.0000000000e+00 +0.0000000000e+00 +4.5593999997e+01 4.5594000000e+01 5.1100000000e-04 0.0000e+00 -1.0000e+00
       11 -1    0    0    0    0 -0.0000000000e+00 -0.0000000000e+00 -4.5593999997e+01 4.5594000000e+01 5.1100000000e-04 0.0000e+00 1.0000e+00
       23  2    1    2    0    0 +3.5527136788e-15 +1.7763568394e-15 -3.5527136788e-15 9.1188000000e+01 9.1188000000e+01 1.8697e-14 0.0000e+00
 -9990012  2    3    3    0    0 +2.0486181470e+01 +1.0132109074e+01 -2.2234494821e+01 5.9302015219e+01 5.0000129836e+01 1.2956e-03 0.0000e+00
      -11  1    4    4    0    0 +2.1486199495e+01 +1.1760633847e+01 -9.9718056073e+00 2.6446288672e+01 5.1100000000e-04 0.0000e+00 1.0000e+00
       11  1    4    4    0    0 -1.7254871940e-01 -8.9893450162e+00 +7.5266495807e+00 1.1725551205e+01 5.1100000000e-04 0.0000e+00 -1.0000e+00
      -12  1    4    4    0    0 -8.2746930528e-01 +7.3608202436e+00 -1.9789338794e+01 2.1130175343e+01 0.0000000000e+00 0.0000e+00 1.0000e+00
       12  1    3    3    0    0 -2.0486181470e+01 -1.0132109074e+01 +2.2234494821e+01 3.1885984781e+01 0.0000000000e+00 0.0000e+00 -1.0000e+00
</event>
<event>
 8      4 +2.2883893e-04 9.11880000e+01 7.81616400e-03 1.18400000e-01
      -11 -1    0    0    0    0 +0.0000000000e+00 +0.0000000000e+00 +4.5593999997e+01 4.5594000000e+01 5.1100000000e-04 0.0000e+00 -1.0000e+00
       11 -1    0    0    0    0 -0.0000000000e+00 -0.0000000000e+00 -4.5593999997e+01 4.5594000000e+01 5.1100000000e-04 0.0000e+00 1.0000e+00
       23  2    1    2    0    0 -6.6613381478e-16 +3.5527136788e-15 +0.0000000000e+00 9.1188000000e+01 9.1188000000e+01 3.9489e-14 0.0000e+00
 -9990012  2    3    3    0    0 -1.0083321142e+00 -3.0298829328e+01 -9.8834764389e+00 5.9301970162e+01 5.0000047663e+01 5.1389e-03 0.0000e+00
      -11  1    4    4    0    0 -1.2127370923e+01 -7.8217505677e+00 +7.3233405145e+00 1.6182837329e+01 5.1100000000e-04 0.0000e+00 -1.0000e+00
       11  1    4    4    0    0 +1.2585366977e+01 -1.8538713634e+01 -2.5424492568e+01 3.3889234098e+01 5.1100000000e-04 0.0000e+00 1.0000e+00
      -12  1    4    4    0    0 -1.4663281686e+00 -3.9383651264e+00 +8.2176756145e+00 9.2298987357e+00 0.0000000000e+00 0.0000e+00 1.0000e+00
       12  1    3    3    0    0 +1.0083321142e+00 +3.0298829328e+01 +9.8834764389e+00 3.1886029838e+01 0.0000000000e+00 0.0000e+00 -1.0000e+00
</event>
<event>
 8      3 +2.2883893e-04 9.11880000e+01 7.81616400e-03 1.18400000e-01
      -11 -1    0    0    0    0 +0.0000000000e+00 +0.0000000000e+00 +4.5593999997e+01 4.5594000000e+01 5.1100000000e-04 0.0000e+00 1.0000e+00
       11 -1    0    0    0    0 -0.0000000000e+00 -0.0000000000e+00 -4.5593999997e+01 4.5594000000e+01 5.1100000000e-04 0.0000e+00 -1.0000e+00
       23  2    1    2    0    0 -8.8817841970e-16 +0.0000000000e+00 +0.0000000000e+00 9.1188000000e+01 9.1188000000e+01 1.1036e-14 0.0000e+00
  9990012  2    3    3    0    0 +6.6101182681e+00 -2.6680422891e+01 -1.6161141730e+01 5.9301935157e+01 4.9999983822e+01 4.9300e-04 0.0000e+00
      -11  1    4    4    0    0 -5.9053402528e+00 +6.5854933583e+00 +2.7158156862e+00 9.2529682468e+00 5.1100000000e-04 0.0000e+00 1.0000e+00
       11  1    4    4    0    0 +2.0845794161e+01 -1.4248406835e+01 -7.3320795027e+00 2.6293033710e+01 5.1100000000e-04 0.0000e+00 -1.0000e+00
       12  1    4    4    0    0 -8.3303356406e+00 -1.9017509414e+01 -1.1544877914e+01 2.3755933201e+01 0.0000000000e+00 0.0000e+00 -1.0000e+00
      -12  1    3    3    0    0 -6.6101182681e+00 +2.6680422891e+01 +1.6161141730e+01 3.1886064843e+01 0.0000000000e+00 0.0000e+00 1.0000e+00
</event>
<event>
 8      3 +2.2883893e-04 9.11880000e+01 7.81616400e-03 1.18400000e-01
      -11 -1    0    0    0    0 +0.0000000000e+00 +0.0000000000e+00 +4.5593999997e+01 4.5594000000e+01 5.1100000000e-04 0.0000e+00 1.0000e+00
       11 -1    0    0    0    0 -0.0000000000e+00 -0.0000000000e+00 -4.5593999997e+01 4.5594000000e+01 5.1100000000e-04 0.0000e+00 -1.0000e+00
       23  2    1    2    0    0 -1.5543122345e-15 -3.5527136788e-15 -3.5527136788e-15 9.1188000000e+01 9.1188000000e+01 3.3765e-14 0.0000e+00
  9990012  2    3    3    0    0 -1.5185854808e+00 -2.2966687276e+01 -2.2066838787e+01 5.9301949753e+01 5.0000010441e+01 3.9926e-03 0.0000e+00
      -11  1    4    4    0    0 +1.1373341655e+01 -1.5970218231e+01 -9.1527764392e+00 2.1637330879e+01 5.1100000000e-04 0.0000e+00 1.0000e+00
       11  1    4    4    0    0 -1.1164959238e+01 +1.1910724463e+01 -4.7908794825e+00 1.7013941298e+01 5.1100000000e-04 0.0000e+00 -1.0000e+00
       12  1    4    4    0    0 -1.7269678980e+00 -1.8907193508e+01 -8.1231828653e+00 2.0650677576e+01 0.0000000000e+00 0.0000e+00 -1.0000e+00
      -12  1    3    3    0    0 +1.5185854808e+00 +2.2966687276e+01 +2.2066838787e+01 3.1886050247e+01 0.0000000000e+00 0.0000e+00 1.0000e+00
</event>
<event>
 8      3 +2.2883893e-04 9.11880000e+01 7.81616400e-03 1.18400000e-01
      -11 -1    0    0    0    0 +0.0000000000e+00 +0.0000000000e+00 +4.5593999997e+01 4.5594000000e+01 5.1100000000e-04 0.0000e+00 1.0000e+00
       11 -1    0    0    0    0 -0.0000000000e+00 -0.0000000000e+00 -4.5593999997e+01 4.5594000000e+01 5.1100000000e-04 0.0000e+00 -1.0000e+00
       23  2    1    2    0    0 +0.0000000000e+00 +0.0000000000e+00 +0.0000000000e+00 9.1188000000e+01 9.1188000000e+01 4.7822e-15 0.0000e+00
  9990012  2    3    3    0    0 +2.0246172272e+01 -1.6109386619e+01 -1.8636269281e+01 5.9301790416e+01 4.9999719848e+01 1.6847e-03 0.0000e+00
      -11  1    4    4    0    0 -1.2466288292e+01 -4.9685504083e+00 -7.6742065395e+00 1.5459245881e+01 5.1100000000e-04 0.0000e+00 1.0000e+00
       11  1    4    4    0    0 +1.4603901211e+01 -1.7505110061e+01 -2.7391226387e+00 2.2960958210e+01 5.1100000000e-04 0.0000e+00 -1.0000e+00
       12  1    4    4    0    0 +1.8108559353e+01 +6.3642738498e+00 -8.2229401029e+00 2.0881586324e+01 0.0000000000e+00 0.0000e+00 -1.0000e+00
      -12  1    3    3    0    0 -2.0246172272e+01 +1.6109386619e+01 +1.8636269281e+01 3.1886209584e+01 0.0000000000e+00 0.0000e+00 1.0000e+00
</event>
<event>
 8      3 +2.2883893e-04 9.11880000e+01 7.81616400e-03 1.18400000e-01
      -11 -1    0    0    0    0 +0.0000000000e+00 +0.0000000000e+00 +4.5593999997e+01 4.5594000000e+01 5.1100000000e-04 0.0000e+00 1.0000e+00
       11 -1    0    0    0    0 -0.0000000000e+00 -0.0000000000e+00 -4.5593999997e+01 4.5594000000e+01 5.1100000000e-04 0.0000e+00 -1.0000e+00
       23  2    1    2    0    0 +0.0000000000e+00 +0.0000000000e+00 +0.0000000000e+00 9.1188000000e+01 9.1188000000e+01 5.5060e-14 0.0000e+00
  9990012  2    3    3    0    0 -2.1826474755e+01 +1.1027937854e+01 -2.0462523850e+01 5.9301869851e+01 4.9999864720e+01 1.0871e-03 0.0000e+00
      -11  1    4    4    0    0 +8.3716401454e+00 -5.5863559445e+00 -1.7454290210e-01 1.0065892755e+01 5.1100000000e-04 0.0000e+00 1.0000e+00
       11  1    4    4    0    0 +5.3741725447e-01 +1.3453705615e+01 -2.8696935119e+00 1.3766849792e+01 5.1100000000e-04 0.0000e+00 -1.0000e+00
       12  1    4    4    0    0 -3.0735532155e+01 +3.1605881831e+00 -1.7418287436e+01 3.5469127304e+01 0.0000000000e+00 0.0000e+00 -1.0000e+00
      -12  1    3    3    0    0 +2.1826474755e+01 -1.1027937854e+01 +2.0462523850e+01 3.1886130149e+01 0.0000000000e+00 0.0000e+00 1.0000e+00
</event>
<event>
 8      3 +2.2883893e-04 9.11880000e+01 7.81616400e-03 1.18400000e-01
      -11 -1    0    0    0    0 +0.0000000000e+00 +0.0000000000e+00 +4.5593999997e+01 4.5594000000e+01 5.1100000000e-04 0.0000e+00 -1.0000e+00
       11 -1    0    0    0    0 -0.0000000000e+00 -0.0000000000e+00 -4.5593999997e+01 4.5594000000e+01 5.1100000000e-04 0.0000e+00 1.0000e+00
       23  2    1    2    0    0 +3.5527136788e-15 +0.0000000000e+00 +0.0000000000e+00 9.1188000000e+01 9.1188000000e+01 1.4003e-13 0.0000e+00
  9990012  2    3    3    0    0 -2.7441234792e+01 -6.3120700768e+00 +1.4962002390e+01 5.9301872749e+01 4.9999870005e+01 2.4889e-03 0.0000e+00
      -11  1    4    4    0    0 -2.9260651786e+01 -1.3883429747e+01 +1.0749173767e+00 3.2405104723e+01 5.1100000000e-04 0.0000e+00 1.0000e+00
       11  1    4    4    0    0 -1.3703532150e+00 -5.6241274067e+00 -1.8840308273e+00 6.0875487218e+00 5.1100000000e-04 0.0000e+00 -1.0000e+00
       12  1    4    4    0    0 +3.1897702095e+00 +1.3195487077e+01 +1.5771115841e+01 2.0809219304e+01 0.0000000000e+00 0.0000e+00 -1.0000e+00
      -12  1    3    3    0    0 +2.7441234792e+01 +6.3120700768e+00 -1.4962002390e+01 3.1886127251e+01 0.0000000000e+00 0.0000e+00 1.0000e+00
</event>
<event>
 8      4 +2.2883893e-04 9.11880000e+01 7.81616400e-03 1.18400000e-01
      -11 -1    0    0    0    0 +0.0000000000e+00 +0.0000000000e+00 +4.5593999997e+01 4.5594000000e+01 5.1100000000e-04 0.0000e+00 1.0000e+00
       11 -1    0    0    0    0 -0.0000000000e+00 -0.0000000000e+00 -4.5593999997e+01 4.5594000000e+01 5.1100000000e-04 0.0000e+00 -1.0000e+00
       23  2    1    2    0    0 +0.0000000000e+00 -3.5527136788e-15 -4.4408920985e-16 9.1188000000e+01 9.1188000000e+01 1.0504e-13 0.0000e+00
 -9990012  2    3    3    0    0 -2.2139011291e+01 +2.2684457273e+01 +3.4643502804e+00 5.9301919251e+01 4.9999954813e+01 8.9677e-04 0.0000e+00
      -11  1    4    4    0    0 -2.9585919512e+01 +4.3952909939e-01 +6.6694677330e+00 3.0331528470e+01 5.1100000000e-04 0.0000e+00 1.0000e+00
       11  1    4    4    0    0 +3.2875892188e+00 +2.8423480976e+00 -7.4994069292e+00 8.6676577073e+00 5.1100000000e-04 0.0000e+00 -1.0000e+00
      -12  1    4    4    0    0 +4.1593190024e+00 +1.9402580076e+01 +4.2942894766e+00 2.0302733074e+01 0.0000000000e+00 0.0000e+00 1.0000e+00
       12  1    3    3    0    0 +2.2139011291e+01 -2.2684457273e+01 -3.4643502804e+00 3.1886080749e+01 0.0000000000e+00 0.0000e+00 -1.0000e+00
</event>
<event>
 8      4 +2.2883893e-04 9.11880000e+01 7.81616400e-03 1.18400000e-01
      -11 -1    0    0    0    0 +0.0000000000e+00 +0.0000000000e+00 +4.5593999997e+01 4.5594000000e+01 5.1100000000e-04 0.0000e+00 -1.0000e+00
       11 -1    0    0    0    0 -0.0000000000e+00 -0.0000000000e+00 -4.5593999997e+01 4.5594000000e+01 5.1100000000e-04 0.0000e+00 1.0000e+00
       23  2    1    2    0    0 +8.8817841970e-16 +4.4408920985e-16 +0.0000000000e+00 9.1188000000e+01 9.1188000000e+01 3.0120e-14 0.0000e+00
 -9990012  2    3    3    0    0 +4.9221690380e+00 +2.1890705491e+00 -3.1427709095e+01 5.9301942281e+01 4.9999996814e+01 5.1170e-03 0.0000e+00
      -11  1    4    4    0    0 +5.5713825784e+00 -2.2365650960e+01 -7.1598328408e+00 2.4135572363e+01 5.1100000000e-04 0.0000e+00 1.0000e+00
       11  1    4    4    0    0 -3.9248026477e-01 +1.1948168321e+00 +2.7002758453e-01 1.2862904719e+00 5.1100000000e-04 0.0000e+00 -1.0000e+00
      -12  1    4    4    0    0 -2.5673327556e-01 +2.3359904677e+01 -2.4537903839e+01 3.3880079446e+01 0.0000000000e+00 0.0000e+00 1.0000e+00
       12  1    3    3    0    0 -4.9221690380e+00 -2.1890705491e+00 +3.1427709095e+01 3.1886057719e+01 0.0000000000e+00 0.0000e+00 -1.0000e+00
</event>
<event>
 8      3 +2.2883893e-04 9.11880000e+01 7.81616400e-03 1.18400000e-01
      -11 -1    0    0    0    0 +0.0000000000e+00 +0.0000000000e+00 +4.5593999997e+01 4.5594000000e+01 5.1100000000e-04 0.0000e+00 1.0000e+00
       11 -1    0    0    0    0 -0.0000000000e+00 -0.0000000000e+00 -4.5593999997e+01 4.5594000000e+01 5.1100000000e-04 0.0000e+00 -1.0000e+00
       23  2    1    2    0    0 -3.5527136788e-15 +1.7763568394e-15 +0.0000000000e+00 9.1188000000e+01 9.1188000000e+01 3.0063e-14 0.0000e+00
  9990012  2    3    3    0    0 +2.1273896512e+01 -1.2535697053e+01 -2.0174221551e+01 5.9301927984e+01 4.9999970740e+01 4.4749e-05 0.0000e+00
      -11  1    4    4    0    0 +1.9698912697e+01 -3.4151011528e+00 +1.8810787995e-01 1.9993635542e+01 5.1100000000e-04 0.0000e+00 1.0000e+00
       11  1    4    4    0    0 -1.2326800031e+01 -1.2224366883e+00 -1.9743292348e+01 2.3307551211e+01 5.1100000000e-04 0.0000e+00 -1.0000e+00
       12  1    4    4    0    0 +1.3901783846e+01 -7.8981592120e+00 -6.1903708256e-01 1.6000741231e+01 0.0000000000e+00 0.0000e+00 -1.0000e+00
      -12  1    3    3    0    0 -2.1273896512e+01 +1.2535697053e+01 +2.0174221551e+01 3.1886072016e+01 0.0000000000e+00 0.0000e+00 1.0000e+00
</event>
<event>
 8      4 +2.2883893e-04 9.11880000e+01 7.81616400e-03 1.18400000e-01
      -11 -1    0    0    0    0 +0.0000000000e+00 +0.0000000000e+00 +4.5593999997e+01 4.5594000000e+01 5.1100000000e-04 0.0000e+00 1.0000e+00
       11 -1    0    0    0    0 -0.0000000000e+00 -0.0000000000e+00 -4.5593999997e+01 4.5594000000e+01 5.1100000000e-04 0.0000e+00 -1.0000e+00
       23  2    1    2    0    0 -1.7763568394e-15 -3.5527136788e-15 +0.0000000000e+00 9.1188000000e+01 9.1188000000e+01 5.9391e-14 0.0000e+00
 -9990012  2    3    3    0    0 -1.1916171141e+01 +2.8250849519e+01 +8.7529088862e+00 5.9301967836e+01 5.0000043420e+01 1.3400e-03 0.0000e+00
      -11  1    4    4    0    0 -9.3709087105e+00 -7.9792460603e+00 +4.9680640193e+00 1.3272677127e+01 5.1100000000e-04 0.0000e+00 -1.0000e+00
       11  1    4    4    0    0 -3.3402274909e-01 +3.5402571714e+01 -6.0479526321e+00 3.5917006925e+01 5.1100000000e-04 0.0000e+00 1.0000e+00
      -12  1    4    4    0    0 -2.2112396810e+00 +8.2752386596e-01 +9.8327974990e+00 1.0112283784e+01 0.0000000000e+00 0.0000e+00 1.0000e+00
       12  1    3    3    0    0 +1.1916171141e+01 -2.8250849519e+01 -8.7529088862e+00 3.1886032164e+01 0.0000000000e+00 0.0000e+00 -1.0000e+00
</event>
<event>
 8      3 +2.2883893e-04 9.11880000e+01 7.81616400e-03 1.18400000e-01
      -11 -1    0    0    0    0 +0.0000000000e+00 +0.0000000000e+00 +4.5593999997e+01 4.5594000000e+01 5.1100000000e-04 0.0000e+00 -1.0000e+00
       11 -1    0    0    0    0 -0.0000000000e+00 -0.0000000000e+00 -4.5593999997e+01 4.5594000000e+01 5.1100000000e-04 0.0000e+00 1.0000e+00
       23  2    1    2    0    0 +3.5527136788e-15 -3.5527136788e-15 +6.6613381478e-16 9.1188000000e+01 9.1188000000e+01 6.9758e-14 0.0000e+00
  9990012  2    3    3    0    0 -2.6035292328e+01 -1.8385618780e+01 -9.2553665422e-01 5.9301889503e+01 4.9999900559e+01 1.1057e-03 0.0000e+00
      -11  1    4    4    0    0 +2.8203109066e+00 +3.6173546984e+00 -2.4063565933e+00 5.1797645641e+00 5.1100000000e-04 0.0000e+00 1.0000e+00
       11  1    4    4    0    0 -3.5121371705e+01 -1.8757529877e+01 -9.6257493684e+00 4.0963529251e+01 5.1100000000e-04 0.0000e+00 -1.0000e+00
       12  1    4    4    0    0 +6.2657684698e+00 -3.2454436013e+00 +1.1106569307e+01 1.3158595688e+01 0.0000000000e+00 0.0000e+00 -1.0000e+00
      -12  1    3    3    0    0 +2.6035292328e+01 +1.8385618780e+01 +9.2553665422e-01 3.1886110497e+01 0.0000000000e+00 0.0000e+00 1.0000e+00
</event>
<event>
 8      3 +2.2883893e-04 9.11880000e+01 7.81616400e-03 1.18400000e-01
      -11 -1    0    0    0    0 +0.0000000000e+00 +0.0000000000e+00 +4.5593999997e+01 4.5594000000e+01 5.1100000000e-04 0.0000e+00 1.0000e+00
       11 -1    0    0    0    0 -0.0000000000e+00 -0.0000000000e+00 -4.5593999997e+01 4.5594000000e+01 5.1100000000e-04 0.0000e+00 -1.0000e+00
       23  2    1    2    0    0 -3.5527136788e-15 -2.2204460493e-16 +0.0000000000e+00 9.1188000000e+01 9.1188000000e+01 1.3062e-13 0.0000e+00
  9990012  2    3    3    0    0 +2.0237975932e+01 -1.1803102587e+00 -2.4612012280e+01 5.9301953669e+01 5.0000017584e+01 2.4755e-03 0.0000e+00
      -11  1    4    4    0    0 +3.1218543471e+00 -1.5201397759e+01 -1.7748098694e+00 1.5619808537e+01 5.1100000000e-04 0.0000e+00 1.0000e+00
       11  1    4    4    0    0 -3.2349246208e+00 +1.6143342293e+01 -7.4011798428e+00 1.8051307460e+01 5.1100000000e-04 0.0000e+00 -1.0000e+00
       12  1    4    4    0    0 +2.0351046206e+01 -2.1222547928e+00 -1.5436022568e+01 2.5630837672e+01 0.0000000000e+00 0.0000e+00 -1.0000e+00
      -12  1    3    3    0    0 -2.0237975932e+01 +1.1803102587e+00 +2.4612012280e+01 3.1886046331e+01 0.0000000000e+00 0.0000e+00 1.0000e+00
</event>
<event>
 8      3 +2.2883893e-04 9.11880000e+01 7.81616400e-03 1.18400000e-01
      -11 -1    0    0    0    0 +0.0000000000e+00 +0.0000000000e+00 +4.5593999997e+01 4.5594000000e+01 5.1100000000e-04 0.0000e+00 -1.0000e+00
       11 -1    0    0    0    0 -0.0000000000e+00 -0.0000000000e+00 -4.5593999997e+01 4.5594000000e+01 5.1100000000e-04 0.0000e+00 1.0000e+00
       23  2    1    2    0    0 +0.0000000000e+00 +1.7763568394e-15 +3.5527136788e-15 9.1188000000e+01 9.1188000000e+01 1.2948e-14 0.0000e+00
  9990012  2    3    3    0    0 +2.5453949826e+01 +7.4121883242e+00 +1.7716543303e+01 5.9301952830e+01 5.0000016054e+01 1.1943e-03 0.0000e+00
      -11  1    4    4    0    0 +2.1889902623e+01 +9.4976940543e-01 -9.8551447335e+00 2.4024857476e+01 5.1100000000e-04 0.0000e+00 1.0000e+00
       11  1    4    4    0    0 +6.9809627796e+00 +2.3230628574e+00 +1.7484276615e-01 7.3594179541e+00 5.1100000000e-04 0.0000e+00 -1.0000e+00
       12  1    4    4    0    0 -3.4169155766e+00 +4.1393560614e+00 +2.7396845271e+01 2.7917677401e+01 0.0000000000e+00 0.0000e+00 -1.0000e+00
      -12  1    3    3    0    0 -2.5453949826e+01 -7.4121883242e+00 -1.7716543303e+01 3.1886047170e+01 0.0000000000e+00 0.0000e+00 1.0000e+00
</event>
<event>
 8      4 +2.2883893e-04 9.11880000e+01 7.81616400e-03 1.18400000e-01
      -11 -1    0    0    0    0 +0.0000000000e+00 +0.0000000000e+00 +4.5593999997e+01 4.5594000000e+01 5.1100000000e-04 0.0000e+00 -1.0000e+00
       11 -1    0    0    0    0 -0.0000000000e+00 -0.0000000000e+00 -4.5593999997e+01 4.5594000000e+01 5.1100000000e-04 0.0000e+00 1.0000e+00
       23  2    1    2    0    0 +0.0000000000e+00 -3.5527136788e-15 +0.0000000000e+00 9.1188000000e+01 9.1188000000e+01 2.3681e-14 0.0000e+00
 -9990012  2    3    3    0    0 -1.6271917520e+01 +1.1821665350e+01 -2.4742526580e+01 5.9301957709e+01 5.0000024952e+01 7.7448e-04 0.0000e+00
      -11  1    4    4    0    0 +3.7016752580e+00 +2.4676484054e+01 -1.0075848642e+01 2.6910109459e+01 5.1100000000e-04 0.0000e+00 1.0000e+00
       11  1    4    4    0    0 -1.9910821319e+01 -1.4140955265e+01 -1.6979943803e+01 2.9744342542e+01 5.1100000000e-04 0.0000e+00 -1.0000e+00
      -12  1    4    4    0    0 -6.2771458745e-02 +1.2861365608e+00 +2.3132658657e+00 2.6475057081e+00 0.0000000000e+00 0.0000e+00 1.0000e+00
       12  1    3    3    0    0 +1.6271917520e+01 -1.1821665350e+01 +2.4742526580e+01 3.1886042291e+01 0.0000000000e+00 0.0000e+00 -1.0000e+00
</event>
<event>
 8      3 +2.2883893e-04 9.11880000e+01 7.81616400e-03 1.18400000e-01
      -11 -1    0    0    0    0 +0.0000000000e+00 +0.0000000000e+00 +4.5593999997e+01 4.5594000000e+01 5.1100000000e-04 0.0000e+00 -1.0000e+00
       11 -1    0    0    0    0 -0.0000000000e+00 -0.0000000000e+00 -4.5593999997e+01 4.5594000000e+01 5.1100000000e-04 0.0000e+00 1.0000e+00
       23  2    1    2    0    0 -1.5543122345e-15 +0.0000000000e+00 +0.0000000000e+00 9.1188000000e+01 9.1188000000e+01 5.0897e-14 0.0000e+00
  9990012  2    3    3    0    0 +6.7699006712e-01 -1.6364407137e+01 +2.7358156446e+01 5.9301939400e+01 4.9999991560e+01 7.2525e-04 0.0000e+00
      -11  1    4    4    0    0 +1.0718121330e+01 -1.2211756319e+01 +2.6737486607e+01 3.1287350600e+01 5.1100000000e-04 0.0000e+00 -1.0000e+00
       11  1    4    4    0    0 +1.8977489751e+00 -1.2457488257e+01 -3.1530008649e+00 1.2989683582e+01 5.1100000000e-04 0.0000e+00 1.0000e+00
       12  1    4    4    0    0 -1.1938880238e+01 +8.3048374390e+00 +3.7736707031e+00 1.5024905217e+01 0.0000000000e+00 0.0000e+00 -1.0000e+00
      -12  1    3    3    0    0 -6.7699006712e-01 +1.6364407137e+01 -2.7358156446e+01 3.1886060600e+01 0.0000000000e+00 0.0000e+00 1.0000e+00
</event>
<event>
 8      3 +2.2883893e-04 9.11880000e+01 7.81616400e-03 1.18400000e-01
      -11 -1    0    0    0    0 +0.0000000000e+00 +0.0000000000e+00 +4.5593999997e+01 4.5594000000e+01 5.1100000000e-04 0.0000e+00 1.0000e+00
       11 -1    0    0    0    0 -0.0000000000e+00 -0.0000000000e+00 -4.5593999997e+01 4.5594000000e+01 5.1100000000e-04 0.0000e+00 -1.0000e+00
       23  2    1    2    0    0 +1.7763568394e-15 +3.5527136788e-15 -3.5527136788e-15 9.1188000000e+01 9.1188000000e+01 4.8096e-14 0.0000e+00
  9990012  2    3    3    0    0 +8.6453512899e+00 +1.8424184753e+01 -2.4546434337e+01 5.9301950991e+01 5.0000012700e+01 1.3715e-03 0.0000e+00
      -11  1    4    4    0    0 -1.1684615553e+01 +1.9900123869e+01 -4.5890493202e+00 2.3528802446e+01 5.1100000000e-04 0.0000e+00 1.0000e+00
       11  1    4    4    0    0 +3.8338251419e+00 -2.6414343825e+00 +4.3513319632e+00 6.3725568598e+00 5.1100000000e-04 0.0000e+00 -1.0000e+00
       12  1    4    4    0    0 +1.6496141701e+01 +1.1654952663e+00 -2.4308716980e+01 2.9400591685e+01 0.0000000000e+00 0.0000e+00 -1.0000e+00
      -12  1    3    3    0    0 -8.6453512899e+00 -1.8424184753e+01 +2.4546434337e+01 3.1886049009e+01 0.0000000000e+00 0.0000e+00 1.0000e+00
</event>
<event>
 8      3 +2.2883893e-04 9.11880000e+01 7.81616400e-03 1.18400000e-01
      -11 -1    0    0    0    0 +0.0000000000e+00 +0.0000000000e+00 +4.5593999997e+01 4.5594000000e+01 5.1100000000e-04 0.0000e+00 -1.0000e+00
       11 -1    0    0    0    0 -0.0000000000e+00 -0.0000000000e+00 -4.5593999997e+01 4.5594000000e+01 5.1100000000e-04 0.0000e+00 1.0000e+00
       23  2    1    2    0    0 -3.5527136788e-15 -1.3322676296e-15 +0.0000000000e+00 9.1188000000e+01 9.1188000000e+01 1.1879e-15 0.0000e+00
  9990012  2    3    3    0    0 -2.2071402767e+01 -3.7562969527e+00 +2.2703843264e+01 5.9301935868e+01 4.9999985118e+01 9.3943e-04 0.0000e+00
      -11  1    4    4    0    0 -1.9190567253e+01 -2.3739574891e+01 +2.1902337665e+01 3.7570702455e+01 5.1100000000e-04 0.0000e+00 -1.0000e+00
       11  1    4    4    0    0 -7.7092902410e-02 +1.4931116913e+01 +3.5276891304e+00 1.5342385292e+01 5.1100000000e-04 0.0000e+00 1.0000e+00
       12  1    4    4    0    0 -2.8037426118e+00 +5.0521610259e+00 -2.7261835314e+00 6.3888481209e+00 0.0000000000e+00 0.0000e+00 -1.0000e+00
      -12  1    3    3    0    0 +2.2071402767e+01 +3.7562969527e+00 -2.2703843264e+01 3.1886064132e+01 0.0000000000e+00 0.0000e+00 1.0000e+00
</event>
<event>
 8      4 +2.2883893e-04 9.11880000e+01 7.81616400e-03 1.18400000e-01
      -11 -1    0    0    0    0 +0.0000000000e+00 +0.0000000000e+00 +4.5593999997e+01 4.5594000000e+01 5.1100000000e-04 0.0000e+00 1.0000e+00
       11 -1    0    0    0    0 -0.0000000000e+00 -0.0000000000e+00 -4.5593999997e+01 4.5594000000e+01 5.1100000000e-04 0.0000e+00 -1.0000e+00
       23  2    1    2    0    0 +3.5527136788e-15 -3.5527136788e-15 +0.0000000000e+00 9.1188000000e+01 9.1188000000e+01 2.1609e-14 0.0000e+00
 -9990012  2    3    3    0    0 +3.0727792144e+01 -8.3759787485e+00 +1.5415402989e+00 5.9301787046e+01 4.9999713703e+01 4.4835e-03 0.0000e+00
      -11  1    4    4    0    0 -5.1891271144e+00 +1.1711548884e+01 +3.1841879179e+00 1.3199487506e+01 5.1100000000e-04 0.0000e+00 1.0000e+00
       11  1    4    4    0    0 -2.4356134943e+00 -1.7316485795e+00 +1.7244687903e+00 3.4503061844e+00 5.1100000000e-04 0.0000e+00 -1.0000e+00
      -12  1    4    4    0    0 +3.8352532752e+01 -1.8355879053e+01 -3.3671164092e+00 4.2651993356e+01 0.0000000000e+00 0.0000e+00 1.0000e+00
       12  1    3    3    0    0 -3.0727792144e+01 +8.3759787485e+00 -1.5415402989e+00 3.1886212954e+01 0.0000000000e+00 0.0000e+00 -1.0000e+00
</event>
<event>
 8      3 +2.2883893e-04 9.11880000e+01 7.81616400e-03 1.18400000e-01
      -11 -1    0    0    0    0 +0.0000000000e+00 +0.0000000000e+00 +4.5593999997e+01 4.5594000000e+01 5.1100000000e-04 0.0000e+00 -1.0000e+00
       11 -1    0    0    0    0 -0.0000000000e+00 -0.0000000000e+00 -4.5593999997e+01 4.5594000000e+01 5.1100000000e-04 0.0000e+00 1.0000e+00
       23  2    1    2    0    0 +7.1054273576e-15 +3.5527136788e-15 +0.0000000000e+00 9.1188000000e+01 9.1188000000e+01 1.6978e-13 0.0000e+00
  9990012  2    3    3    0    0 -2.4717509902e+01 -1.9113661072e+01 +6.3586701034e+00 5.9301952568e+01 5.0000015576e+01 1.2511e-03 0.0000e+00
      -11  1    4    4    0    0 -2.3022584117e+01 +5.4620112901e+00 +5.7492033848e+00 2.4350077753e+01 5.1100000000e-04 0.0000e+00 1.0000e+00
       11  1    4    4    0    0 -8.1600326095e+00 -1.0548681404e+01 -9.6044453439e+00 1.6434907429e+01 5.1100000000e-04 0.0000e+00 -1.0000e+00
       12  1    4    4    0    0 +6.4651068244e+00 -1.4026990958e+01 +1.0213912063e+01 1.8516967387e+01 0.0000000000e+00 0.0000e+00 -1.0000e+00
      -12  1    3    3    0    0 +2.4717509902e+01 +1.9113661072e+01 -6.3586701034e+00 3.1886047432e+01 0.0000000000e+00 0.0000e+00 1.0000e+00
</event>
<event>
 8      3 +2.2883893e-04 9.11880000e+01 7.81616400e-03 1.18400000e-01
      -11 -1    0    0    0    0 +0.0000000000e+00 +0.0000000000e+00 +4.5593999997e+01 4.5594000000e+01 5.1100000000e-04 0.0000e+00 1.0000e+00
       11 -1    0    0    0    0 -0.0000000000e+00 -0.0000000000e+00 -4.5593999997e+01 4.5594000000e+01 5.1100000000e-04 0.0000e+00 -1.0000e+00
       23  2    1    2    0    0 +0.0000000000e+00 +0.0000000000e+00 +2.1094237468e-15 9.1188000000e+01 9.1188000000e+01 4.0383e-14 0.0000e+00
  9990012  2    3    3    0    0 -1.6080629934e+01 +2.7531411007e+01 +3.9550929251e-01 5.9301926571e+01 4.9999968163e+01 2.9070e-04 0.0000e+00
      -11  1    4    4    0    0 -1.6766824729e+01 +9.1054948108e-01 +4.0831803692e+00 1.7280852816e+01 5.1100000000e-04 0.0000e+00 1.0000e+00
       11  1    4    4    0    0 +1.1477511892e+00 +2.7343023941e+00 -1.5210192891e+01 1.5496570924e+01 5.1100000000e-04 0.0000e+00 -1.0000e+00
       12  1    4    4    0    0 -4.6155639440e-01 +2.3886559132e+01 +1.1522521814e+01 2.6524502831e+01 0.0000000000e+00 0.0000e+00 -1.0000e+00
      -12  1    3    3    0    0 +1.6080629934e+01 -2.7531411007e+01 -3.9550929251e-01 3.1886073429e+01 0.0000000000e+00 0.0000e+00 1.0000e+00
</event>
<event>
 8      3 +2.2883893e-04 9.11880000e+01 7.81616400e-03 1.18400000e-01
      -11 -1    0    0    0    0 +0.0000000000e+00 +0.0000000000e+00 +4.5593999997e+01 4.5594000000e+01 5.1100000000e-04 0.0000e+00 -1.0000e+00
       11 -1    0    0    0    0 -0.0000000000e+00 -0.0000000000e+00 -4.5593999997e+01 4.5594000000e+01 5.1100000000e-04 0.0000e+00 1.0000e+00
       23  2    1    2    0    0 +3.5527136788e-15 +0.0000000000e+00 +2.7755575616e-17 9.1188000000e+01 9.1188000000e+01 1.3161e-13 0.0000e+00
  9990012  2    3    3    0    0 +2.6669871801e+01 +1.7476717441e+01 -5.4769284747e-02 5.9301941698e+01 4.9999995751e+01 1.6603e-03 0.0000e+00
      -11  1    4    4    0    0 -2.0325989762e+00 -1.5287881455e+01 +7.5479218042e-01 1.5440870749e+01 5.1100000000e-04 0.0000e+00 1.0000e+00
       11  1    4    4    0    0 +2.6771830416e+01 +3.2111904052e+01 -9.4448836094e-01 4.1818624369e+01 5.1100000000e-04 0.0000e+00 -1.0000e+00
       12  1    4    4    0    0 +1.9306403613e+00 +6.5269484416e-01 +1.3492689578e-01 2.0424465799e+00 0.0000000000e+00 0.0000e+00 -1.0000e+00
      -12  1    3    3    0    0 -2.6669871801e+01 -1.7476717441e+01 +5.4769284747e-02 3.1886058302e+01 0.0000000000e+00 0.0000e+00 1.0000e+00
</event>
<event>
 8      3 +2.2883893e-04 9.11880000e+01 7.81616400e-03 1.18400000e-01
      -11 -1    0    0    0    0 +0.0000000000e+00 +0.0000000000e+00 +4.5593999997e+01 4.5594000000e+01 5.1100000000e-04 0.0000e+00 1.0000e+00
       11 -1    0    0    0    0 -0.0000000000e+00 -0.0000000000e+00 -4.5593999997e+01 4.5594000000e+01 5.1100000000e-04 0.0000e+00 -1.0000e+00
       23  2    1    2    0    0 +0.0000000000e+00 +6.6613381478e-16 +0.0000000000e+00 9.1188000000e+01 9.1188000000e+01 6.4156e-14 0.0000e+00
  9990012  2    3    3    0    0 +6.4650950566e+00 -1.5485925266e+00 -3.1185344879e+01 5.9301932069e+01 4.9999978190e+01 9.2167e-04 0.0000e+00
      -11  1    4    4    0    0 -1.5825741809e+00 +1.8691549700e+01 -4.3598274088e+00 1.9258418069e+01 5.1100000000e-04 0.0000e+00 1.0000e+00
       11  1    4    4    0    0 +1.0718626911e+00 +2.7568310698e+00 -1.0704094812e+01 1.1105253405e+01 5.1100000000e-04 0.0000e+00 -1.0000e+00
       12  1    4    4    0    0 +6.9758065465e+00 -2.2996973296e+01 -1.6121422658e+01 2.8938260595e+01 0.0000000000e+00 0.0000e+00 -1.0000e+00
      -12  1    3    3    0    0 -6.4650950566e+00 +1.5485925266e+00 +3.1185344879e+01 3.1886067931e+01 0.0000000000e+00 0.0000e+00 1.0000e+00
</event>
<event>
 8      3 +2.2883893e-04 9.11880000e+01 7.81616400e-03 1.18400000e-01
      -11 -1    0    0    0    0 +0.0000000000e+00 +0.0000000000e+00 +4.5593999997e+01 4.5594000000e+01 5.1100000000e-04 0.0000e+00 -1.0000e+00
       11 -1    0    0    0    0 -0.0000000000e+00 -0.0000000000e+00 -4.5593999997e+01 4.5594000000e+01 5.1100000000e-04 0.0000e+00 1.0000e+00
       23  2    1    2    0    0 -7.1054273576e-15 +0.0000000000e+00 +0.0000000000e+00 9.1188000000e+01 9.1188000000e+01 2.0348e-13 0.0000e+00
  9990012  2    3    3    0    0 -2.0849872727e+01 +2.2412877872e+01 -8.9255762821e+00 5.9301949771e+01 5.0000010474e+01 3.0024e-03 0.0000e+00
      -11  1    4    4    0    0 +1.0167190495e+01 +1.0636956377e+01 -1.3395346285e+00 1.4775349634e+01 5.1100000000e-04 0.0000e+00 1.0000e+00
       11  1    4    4    0    0 +3.2614124223e+00 -4.0003315448e+00 -4.1741808708e+00 6.6380154911e+00 5.1100000000e-04 0.0000e+00 -1.0000e+00
       12  1    4    4    0    0 -3.4278475644e+01 +1.5776253041e+01 -3.4118607827e+00 3.7888584646e+01 0.0000000000e+00 0.0000e+00 -1.0000e+00
      -12  1    3    3    0    0 +2.0849872727e+01 -2.2412877872e+01 +8.9255762821e+00 3.1886050229e+01 0.0000000000e+00 0.0000e+00 1.0000e+00
</event>
<event>
 8      3 +2.2883893e-04 9.11880000e+01 7.81616400e-03 1.18400000e-01
      -11 -1    0    0    0    0 +0.0000000000e+00 +0.0000000000e+00 +4.5593999997e+01 4.5594000000e+01 5.1100000000e-04 0.0000e+00 1.0000e+00
       11 -1    0    0    0    0 -0.0000000000e+00 -0.0000000000e+00 -4.5593999997e+01 4.5594000000e+01 5.1100000000e-04 0.0000e+00 -1.0000e+00
       23  2    1    2    0    0 +0.0000000000e+00 +0.0000000000e+00 +0.0000000000e+00 9.1188000000e+01 9.1188000000e+01 4.6447e-14 0.0000e+00
  9990012  2    3    3    0    0 +1.4482478224e+01 -1.9119173958e+01 -2.1010384064e+01 5.9301933656e+01 4.9999981085e+01 1.4372e-03 0.0000e+00
      -11  1    4    4    0    0 +1.7267354431e+01 +4.2134491213e+00 -1.1259437712e-01 1.7774345566e+01 5.1100000000e-04 0.0000e+00 1.0000e+00
       11  1    4    4    0    0 -5.8773553953e+00 +3.3421136009e+00 -1.0992938133e+01 1.2905724266e+01 5.1100000000e-04 0.0000e+00 -1.0000e+00
       12  1    4    4    0    0 +3.0924791885e+00 -2.6674736681e+01 -9.9048515535e+00 2.8621863825e+01 0.0000000000e+00 0.0000e+00 -1.0000e+00
      -12  1    3    3    0    0 -1.4482478224e+01 +1.9119173958e+01 +2.1010384064e+01 3.1886066344e+01 0.0000000000e+00 0.0000e+00 1.0000e+00
</event>
<event>
 8      3 +2.2883893e-04 9.11880000e+01 7.81616400e-03 1.18400000e-01
      -11 -1    0    0    0    0 +0.0000000000e+00 +0.0000000000e+00 +4.5593999997e+01 4.5594000000e+01 5.1100000000e-04 0.0000e+00 -1.0000e+00
       11 -1    0    0    0    0 -0.0000000000e+00 -0.0000000000e+00 -4.5593999997e+01 4.5594000000e+01 5.1100000000e-04 0.0000e+00 1.0000e+00
       23  2    1    2    0    0 -3.5527136788e-15 +0.0000000000e+00 +0.0000000000e+00 9.1188000000e+01 9.1188000000e+01 9.7756e-14 0.0000e+00
  9990012  2    3    3    0    0 +1.8572656443e+01 -1.6984268548e+01 +1.9578355399e+01 5.9301938067e+01 4.9999989129e+01 3.0000e-03 0.0000e+00
      -11  1    4    4    0    0 +4.4963441056e+00 +8.2835412201e+00 +1.6165934936e+01 1.8712873058e+01 5.1100000000e-04 0.0000e+00 1.0000e+00
       11  1    4    4    0    0 +1.7634984757e+01 -2.3893404140e+01 -6.1208683602e+00 3.0320825822e+01 5.1100000000e-04 0.0000e+00 -1.0000e+00
       12  1    4    4    0    0 -3.5586724193e+00 -1.3744056279e+00 +9.5332888236e+00 1.0268239187e+01 0.0000000000e+00 0.0000e+00 -1.0000e+00
      -12  1    3    3    0    0 -1.8572656443e+01 +1.6984268548e+01 -1.9578355399e+01 3.1886061933e+01 0.0000000000e+00 0.0000e+00 1.0000e+00
</event>
<event>
 8      3 +2.2883893e-04 9.11880000e+01 7.81616400e-03 1.18400000e-01
      -11 -1    0    0    0    0 +0.0000000000e+00 +0.0000000000e+00 +4.5593999997e+01 4.5594000000e+01 5.1100000000e-04 0.0000e+00 1.0000e+00
       11 -1    0    0    0    0 -0.0000000000e+00 -0.0000000000e+00 -4.5593999997e+01 4.5594000000e+01 5.1100000000e-04 0.0000e+00 -1.0000e+00
       23  2    1    2    0    0 -3.5527136788e-15 +1.7763568394e-15 -3.5527136788e-15 9.1188000000e+01 9.1188000000e+01 8.3176e-14 0.0000e+00
  9990012  2    3    3    0    0 +1.5894616225e+01 -7.8293677938e+00 +2.6510049506e+01 5.9301944273e+01 5.0000000448e+01 3.8305e-03 0.0000e+00
      -11  1    4    4    0    0 -5.1089543315e+00 -1.0741107389e+01 +3.1508525425e+01 3.3678776359e+01 5.1100000000e-04 0.0000e+00 1.0000e+00
       11  1    4    4    0    0 +6.4766167613e+00 +6.9354226522e+00 -4.5964524263e+00 1.0543909484e+01 5.1100000000e-04 0.0000e+00 -1.0000e+00
       12  1    4    4    0    0 +1.4526953796e+01 -4.0236830575e+00 -4.0202349343e-01 1.5079258431e+01 0.0000000000e+00 0.0000e+00 -1.0000e+00
      -12  1    3    3    0    0 -1.5894616225e+01 +7.8293677938e+00 -2.6510049506e+01 3.1886055727e+01 0.0000000000e+00 0.0000e+00 1.0000e+00
</event>
<event>
 8      3 +2.2883893e-04 9.11880000e+01 7.81616400e-03 1.18400000e-01
      -11 -1    0    0    0    0 +0.0000000000e+00 +0.0000000000e+00 +4.5593999997e+01 4.5594000000e+01 5.1100000000e-04 0.0000e+00 1.0000e+00
       11 -1    0    0    0    0 -0.0000000000e+00 -0.0000000000e+00 -4.5593999997e+01 4.5594000000e+01 5.1100000000e-04 0.0000e+00 -1.0000e+00
       23  2    1    2    0    0 -3.5527136788e-15 +0.0000000000e+00 -3.5527136788e-15 9.1188000000e+01 9.1188000000e+01 4.1888e-14 0.0000e+00
  9990012  2    3    3    0    0 -2.4647646156e+01 -7.7874152463e+00 +1.8670278399e+01 5.9301802473e+01 4.9999741837e+01 9.3668e-03 0.0000e+00
      -11  1    4    4    0    0 -3.6674174384e+00 +7.4922897387e+00 -1.6453311246e+00 8.5024391187e+00 5.1100000000e-04 0.0000e+00 1.0000e+00
       11  1    4    4    0    0 +2.0453246291e+00 -3.9538871658e+00 +2.4411652804e+01 2.4814217083e+01 5.1100000000e-04 0.0000e+00 -1.0000e+00
       12  1    4    4    0    0 -2.3025553347e+01 -1.1325817819e+01 -4.0960432803e+00 2.5985146272e+01 0.0000000000e+00 0.0000e+00 -1.0000e+00
      -12  1    3    3    0    0 +2.4647646156e+01 +7.7874152463e+00 -1.8670278399e+01 3.1886197527e+01 0.0000000000e+00 0.0000e+00 1.0000e+00
</event>
<event>
 8      4 +2.2883893e-04 9.11880000e+01 7.81616400e-03 1.18400000e-01
      -11 -1    0    0    0    0 +0.0000000000e+00 +0.0000000000e+00 +4.5593999997e+01 4.5594000000e+01 5.1100000000e-04 0.0000e+00 1.0000e+00
       11 -1    0    0    0    0 -0.0000000000e+00 -0.0000000000e+00 -4.5593999997e+01 4.5594000000e+01 5.1100000000e-04 0.0000e+00 -1.0000e+00
       23  2    1    2    0    0 +8.8817841970e-16 +3.5527136788e-15 +1.7763568394e-15 9.1188000000e+01 9.1188000000e+01 9.0659e-14 0.0000e+00
 -9990012  2    3    3    0    0 -5.0646585110e+00 -2.9729709435e+01 -1.0354425969e+01 5.9301944646e+01 5.0000001128e+01 6.2296e-03 0.0000e+00
      -11  1    4    4    0    0 -8.0356628142e+00 -1.9457626334e+01 +3.1217311677e+00 2.1281830400e+01 5.1100000000e-04 0.0000e+00 1.0000e+00
       11  1    4    4    0    0 -1.0863269845e+01 +6.8256123121e+00 -1.3376762321e+00 1.2899185754e+01 5.1100000000e-04 0.0000e+00 -1.0000e+00
      -12  1    4    4    0    0 +1.3834274148e+01 -1.7097695412e+01 -1.2138480905e+01 2.5120928492e+01 0.0000000000e+00 0.0000e+00 1.0000e+00
       12  1    3    3    0    0 +5.0646585110e+00 +2.9729709435e+01 +1.0354425969e+01 3.1886055354e+01 0.0000000000e+00 0.0000e+00 -1.0000e+00
</event>
<event>
 8      4 +2.2883893e-04 9.11880000e+01 7.81616400e-03 1.18400000e-01
      -11 -1    0    0    0    0 +0.0000000000e+00 +0.0000000000e+00 +4.5593999997e+01 4.5594000000e+01 5.1100000000e-04 0.0000e+00 1.0000e+00
       11 -1    0    0    0    0 -0.0000000000e+00 -0.0000000000e+00 -4.5593999997e+01 4.5594000000e+01 5.1100000000e-04 0.0000e+00 -1.0000e+00
       23  2    1    2    0    0 +0.0000000000e+00 +0.0000000000e+00 +7.1054273576e-15 9.1188000000e+01 9.1188000000e+01 9.1645e-14 0.0000e+00
 -9990012  2    3    3    0    0 +1.4035952580e+01 -8.9575671271e+00 +2.7193268117e+01 5.9301955960e+01 5.0000021762e+01 8.2449e-03 0.0000e+00
      -11  1    4    4    0    0 +1.6128557409e+01 -4.4873726989e+00 +2.0269930693e+00 1.6863439121e+01 5.1100000000e-04 0.0000e+00 1.0000e+00
       11  1    4    4    0    0 +7.0055465560e+00 +2.3664325946e+00 +2.9385116332e+01 3.0301200436e+01 5.1100000000e-04 0.0000e+00 -1.0000e+00
      -12  1    4    4    0    0 -9.0981513854e+00 -6.8366270227e+00 -4.2188412843e+00 1.2137316403e+01 0.0000000000e+00 0.0000e+00 1.0000e+00
       12  1    3    3    0    0 -1.4035952580e+01 +8.9575671271e+00 -2.7193268117e+01 3.1886044040e+01 0.0000000000e+00 0.0000e+00 -1.0000e+00
</event>
<event>
 8      3 +2.2883893e-04 9.11880000e+01 7.81616400e-03 1.18400000e-01
      -11 -1    0    0    0    0 +0.0000000000e+00 +0.0000000000e+00 +4.5593999997e+01 4.5594000000e+01 5.1100000000e-04 0.0000e+00 1.0000e+00
       11 -1    0    0    0    0 -0.0000000000e+00 -0.0000000000e+00 -4.5593999997e+01 4.5594000000e+01 5.1100000000e-04 0.0000e+00 -1.0000e+00
       23  2    1    2    0    0 +0.0000000000e+00 -3.5527136788e-15 +0.0000000000e+00 9.1188000000e+01 9.1188000000e+01 2.4722e-14 0.0000e+00
  9990012  2    3    3    0    0 -1.3954731156e+01 -2.1249214872e+01 -1.9247257894e+01 5.9301943631e+01 4.9999999276e+01 2.9691e-03 0.0000e+00
      -11  1    4    4    0    0 -2.3722493065e+01 -1.9693557042e+01 -1.1772384494e+01 3.3002755993e+01 5.1100000000e-04 0.0000e+00 -1.0000e+00
       11  1    4    4    0    0 -6.7925388533e-01 +7.0642092891e+00 -1.0256533558e+01 1.2472406328e+01 5.1100000000e-04 0.0000e+00 1.0000e+00
       12  1    4    4    0    0 +1.0447015795e+01 -8.6198671197e+00 +2.7816601572e+00 1.3826781310e+01 0.0000000000e+00 0.0000e+00 -1.0000e+00
      -12  1    3    3    0    0 +1.3954731156e+01 +2.1249214872e+01 +1.9247257894e+01 3.1886056369e+01 0.0000000000e+00 0.0000e+00 1.0000e+00
</event>
<event>
 8      4 +2.2883893e-04 9.11880000e+01 7.81616400e-03 1.18400000e-01
      -11 -1    0    0    0    0 +0.0000000000e+00 +0.0000000000e+00 +4.5593999997e+01 4.5594000000e+01 5.1100000000e-04 0.0000e+00 1.0000e+00
       11 -1    0    0    0    0 -0.0000000000e+00 -0.0000000000e+00 -4.5593999997e+01 4.5594000000e+01 5.1100000000e-04 0.0000e+00 -1.0000e+00
       23  2    1    2    0    0 -8.8817841970e-16 +0.0000000000e+00 +0.0000000000e+00 9.1188000000e+01 9.1188000000e+01 1.4977e-13 0.0000e+00
 -9990012  2    3    3    0    0 -2.5696504850e+00 +1.4314659857e+01 +2.8376176593e+01 5.9301953075e+01 5.0000016501e+01 2.8214e-04 0.0000e+00
      -11  1    4    4    0    0 +1.0939793113e+01 +2.1361614428e+01 +3.2124922466e+01 4.0099978654e+01 5.1100000000e-04 0.0000e+00 1.0000e+00
       11  1    4    4    0    0 -4.7792743658e+00 -6.1330773842e+00 +2.7853020784e+00 8.2591772951e+00 5.1100000000e-04 0.0000e+00 -1.0000e+00
      -12  1    4    4    0    0 -8.7301692319e+00 -9.1387718721e-01 -6.5340479509e+00 1.0942797127e+01 0.0000000000e+00 0.0000e+00 1.0000e+00
       12  1    3    3    0    0 +2.5696504850e+00 -1.4314659857e+01 -2.8376176593e+01 3.1886046925e+01 0.0000000000e+00 0.0000e+00 -1.0000e+00
</event>
<event>
 8      3 +2.2883893e-04 9.11880000e+01 7.81616400e-03 1.18400000e-01
      -11 -1    0    0    0    0 +0.0000000000e+00 +0.0000000000e+00 +4.5593999997e+01 4.5594000000e+01 5.1100000000e-04 0.0000e+00 -1.0000e+00
       11 -1    0    0    0    0 -0.0000000000e+00 -0.0000000000e+00 -4.5593999997e+01 4.5594000000e+01 5.1100000000e-04 0.0000e+00 1.0000e+00
       23  2    1    2    0    0 -1.7763568394e-15 +2.2204460493e-16 +0.0000000000e+00 9.1188000000e+01 9.1188000000e+01 1.5917e-14 0.0000e+00
  9990012  2    3    3    0    0 +1.2993535648e+01 +1.5385671692e+00 +2.9077877257e+01 5.9301919912e+01 4.9999956019e+01 5.9757e-04 0.0000e+00
      -11  1    4    4    0    0 -9.5185960389e+00 +9.0921459954e+00 +1.1533129765e+01 1.7500967739e+01 5.1100000000e-04 0.0000e+00 1.0000e+00
       11  1    4    4    0    0 -4.0430408803e+00 +3.2831953014e+00 +1.1307580262e+01 1.2449374385e+01 5.1100000000e-04 0.0000e+00 -1.0000e+00
       12  1    4    4    0    0 +2.6555172568e+01 -1.0836774128e+01 +6.2371672305e+00 2.9351577788e+01 0.0000000000e+00 0.0000e+00 -1.0000e+00
      -12  1    3    3    0    0 -1.2993535648e+01 -1.5385671692e+00 -2.9077877257e+01 3.1886080088e+01 0.0000000000e+00 0.0000e+00 1.0000e+00
</event>
<event>
 8      4 +2.2883893e-04 9.11880000e+01 7.81616400e-03 1.18400000e-01
      -11 -1    0    0    0    0 +0.0000000000e+00 +0.0000000000e+00 +4.5593999997e+01 4.5594000000e+01 5.1100000000e-04 0.0000e+00 1.0000e+00
       11 -1    0    0    0    0 -0.0000000000e+00 -0.0000000000e+00 -4.5593999997e+01 4.5594000000e+01 5.1100000000e-04 0.0000e+00 -1.0000e+00
       23  2    1    2    0    0 -3.5527136788e-15 +0.0000000000e+00 +0.0000000000e+00 9.1188000000e+01 9.1188000000e+01 9.9582e-14 0.0000e+00
 -9990012  2    3    3    0    0 +2.5097465239e+01 -8.0464831031e+00 +1.7946927394e+01 5.9301939494e+01 4.9999991731e+01 2.8162e-04 0.0000e+00
      -11  1    4    4    0    0 -2.3269265689e+00 +5.0314121609e+00 +1.8987277774e+01 1.9779949775e+01 5.1100000000e-04 0.0000e+00 1.0000e+00
       11  1    4    4    0    0 +1.6340576137e+01 +3.9305803029e+00 -7.2334149481e+00 1.8297163225e+01 5.1100000000e-04 0.0000e+00 -1.0000e+00
      -12  1    4    4    0    0 +1.1083815671e+01 -1.7008475567e+01 +6.1930645678e+00 2.1224826493e+01 0.0000000000e+00 0.0000e+00 1.0000e+00
       12  1    3    3    0    0 -2.5097465239e+01 +8.0464831031e+00 -1.7946927394e+01 3.1886060506e+01 0.0000000000e+00 0.0000e+00 -1.0000e+00
</event>
<event>
 8      4 +2.2883893e-04 9.11880000e+01 7.81616400e-03 1.18400000e-01
      -11 -1    0    0    0    0 +0.0000000000e+00 +0.0000000000e+00 +4.5593999997e+01 4.5594000000e+01 5.1100000000e-04 0.0000e+00 -1.0000e+00
       11 -1    0    0    0    0 -0.0000000000e+00 -0.0000000000e+00 -4.5593999997e+01 4.5594000000e+01 5.1100000000e-04 0.0000e+00 1.0000e+00
       23  2    1    2    0    0 +0.0000000000e+00 -3.5527136788e-15 +0.0000000000e+00 9.1188000000e+01 9.1188000000e+01 2.4201e-13 0.0000e+00
 -9990012  2    3    3    0    0 -3.2801060548e+00 +2.3623691368e+01 -2.1163232098e+01 5.9301948467e+01 5.0000008095e+01 5.2024e-04 0.0000e+00
      -11  1    4    4    0    0 +3.1352225836e+00 -5.9249922253e+00 -3.6858780574e+00 7.6498922106e+00 5.1100000000e-04 0.0000e+00 -1.0000e+00
       11  1    4    4    0    0 -1.4386952210e+01 +7.1138991912e+00 -2.2185291934e+01 2.7382095137e+01 5.1100000000e-04 0.0000e+00 1.0000e+00
      -12  1    4    4    0    0 +7.9716235716e+00 +2.2434784402e+01 +4.7079378939e+00 2.4269961119e+01 0.0000000000e+00 0.0000e+00 1.0000e+00
       12  1    3    3    0    0 +3.2801060548e+00 -2.3623691368e+01 +2.1163232098e+01 3.1886051533e+01 0.0000000000e+00 0.0000e+00 -1.0000e+00
</event>
<event>
 8      4 +2.2883893e-04 9.11880000e+01 7.81616400e-03 1.18400000e-01
      -11 -1    0    0    0    0 +0.0000000000e+00 +0.0000000000e+00 +4.5593999997e+01 4.5594000000e+01 5.1100000000e-04 0.0000e+00 -1.0000e+00
       11 -1    0    0    0    0 -0.0000000000e+00 -0.0000000000e+00 -4.5593999997e+01 4.5594000000e+01 5.1100000000e-04 0.0000e+00 1.0000e+00
       23  2    1    2    0    0 +4.4408920985e-16 +1.7763568394e-15 +0.0000000000e+00 9.1188000000e+01 9.1188000000e+01 5.7814e-14 0.0000e+00
 -9990012  2    3    3    0    0 +1.3055930605e+00 -1.4815154449e+01 -2.8205060649e+01 5.9301971386e+01 5.0000049895e+01 3.0443e-03 0.0000e+00
      -11  1    4    4    0    0 -1.0951190180e+01 +5.6427822757e+00 -1.3530438523e+01 1.8298697360e+01 5.1100000000e-04 0.0000e+00 1.0000e+00
       11  1    4    4    0    0 +2.5596127863e+00 -2.2319198534e+01 +9.8883975065e-01 2.2487241830e+01 5.1100000000e-04 0.0000e+00 -1.0000e+00
      -12  1    4    4    0    0 +9.6971704544e+00 +1.8612618089e+00 -1.5663461876e+01 1.8516032196e+01 0.0000000000e+00 0.0000e+00 1.0000e+00
       12  1    3    3    0    0 -1.3055930605e+00 +1.4815154449e+01 +2.8205060649e+01 3.1886028614e+01 0.0000000000e+00 0.0000e+00 -1.0000e+00
</event>
<event>
 8      3 +2.2883893e-04 9.11880000e+01 7.81616400e-03 1.18400000e-01
      -11 -1    0    0    0    0 +0.0000000000e+00 +0.0000000000e+00 +4.5593999997e+01 4.5594000000e+01 5.1100000000e-04 0.0000e+00 1.0000e+00
       11 -1    0    0    0    0 -0.0000000000e+00 -0.0000000000e+00 -4.5593999997e+01 4.5594000000e+01 5.1100000000e-04 0.0000e+00 -1.0000e+00
       23  2    1    2    0    0 +0.0000000000e+00 +3.5527136788e-15 +3.5527136788e-15 9.1188000000e+01 9.1188000000e+01 1.6231e-14 0.0000e+00
  9990012  2    3    3    0    0 -1.3409264389e+01 +1.7413069391e+01 -2.3101880909e+01 5.9301948839e+01 5.0000008775e+01 3.1465e-03 0.0000e+00
      -11  1    4    4    0    0 -5.8215286176e+00 -9.5704199520e+00 -8.0422250476e+00 1.3789870104e+01 5.1100000000e-04 0.0000e+00 1.0000e+00
       11  1    4    4    0    0 -9.5539431388e+00 +3.2447817027e+01 -5.4175922799e+00 3.4256225211e+01 5.1100000000e-04 0.0000e+00 -1.0000e+00
       12  1    4    4    0    0 +1.9662073669e+00 -5.4643276842e+00 -9.6420635818e+00 1.1255853525e+01 0.0000000000e+00 0.0000e+00 -1.0000e+00
      -12  1    3    3    0    0 +1.3409264389e+01 -1.7413069391e+01 +2.3101880909e+01 3.1886051161e+01 0.0000000000e+00 0.0000e+00 1.0000e+00
</event>
<event>
 8      4 +2.2883893e-04 9.11880000e+01 7.81616400e-03 1.18400000e-01
      -11 -1    0    0    0    0 +0.0000000000e+00 +0.0000000000e+00 +4.5593999997e+01 4.5594000000e+01 5.1100000000e-04 0.0000e+00 1.0000e+00
       11 -1    0    0    0    0 -0.0000000000e+00 -0.0000000000e+00 -4.5593999997e+01 4.5594000000e+01 5.1100000000e-04 0.0000e+00 -1.0000e+00
       23  2    1    2    0    0 -3.5527136788e-15 +0.0000000000e+00 +0.0000000000e+00 9.1188000000e+01 9.1188000000e+01 1.7047e-13 0.0000e+00
 -9990012  2    3    3    0    0 -1.0986473470e+01 -2.3512417690e+00 -2.9841081328e+01 5.9301936085e+01 4.9999985514e+01 1.8854e-03 0.0000e+00
      -11  1    4    4    0    0 -1.4924960311e-01 -2.4918559512e+00 -1.7959310269e+01 1.8131973062e+01 5.1100000000e-04 0.0000e+00 -1.0000e+00
       11  1    4    4    0    0 +6.2192722120e+00 -6.0024313420e+00 +9.6947163549e+00 1.2988304521e+01 5.1100000000e-04 0.0000e+00 1.0000e+00
      -12  1    4    4    0    0 -1.7056496079e+01 +6.1430455242e+00 -2.1576487414e+01 2.8181658502e+01 0.0000000000e+00 0.0000e+00 1.0000e+00
       12  1    3    3    0    0 +1.0986473470e+01 +2.3512417690e+00 +2.9841081328e+01 3.1886063915e+01 0.0000000000e+00 0.0000e+00 -1.0000e+00
</event>
<event>
 8      4 +2.2883893e-04 9.11880000e+01 7.81616400e-03 1.18400000e-01
      -11 -1    0    0    0    0 +0.0000000000e+00 +0.0000000000e+00 +4.5593999997e+01 4.5594000000e+01 5.1100000000e-04 0.0000e+00 1.0000e+00
       11 -1    0    0    0    0 -0.0000000000e+00 -0.0000000000e+00 -4.5593999997e+01 4.5594000000e+01 5.1100000000e-04 0.0000e+00 -1.0000e+00
       23  2    1    2    0    0 +3.5527136788e-15 +0.0000000000e+00 +0.0000000000e+00 9.1188000000e+01 9.1188000000e+01 2.3174e-15 0.0000e+00
 -9990012  2    3    3    0    0 +3.0325573852e+01 +8.2495857576e+00 -5.3869458461e+00 5.9302026906e+01 5.0000151150e+01 3.0099e-03 0.0000e+00
      -11  1    4    4    0    0 +2.0986806670e+01 +1.4586017237e+01 -9.8605662044e+00 2.7393954062e+01 5.1100000000e-04 0.0000e+00 1.0000e+00
       11  1    4    4    0    0 +3.5940533025e+00 +6.1349954771e+00 -9.7964016593e+00 1.2104745944e+01 5.1100000000e-04 0.0000e+00 -1.0000e+00
      -12  1    4    4    0    0 +5.7447138793e+00 -1.2471426957e+01 +1.4270022018e+01 1.9803326899e+01 0.0000000000e+00 0.0000e+00 1.0000e+00
       12  1    3    3    0    0 -3.0325573852e+01 -8.2495857576e+00 +5.3869458461e+00 3.1885973094e+01 0.0000000000e+00 0.0000e+00 -1.0000e+00
</event>
<event>
 8      3 +2.2883893e-04 9.11880000e+01 7.81616400e-03 1.18400000e-01
      -11 -1    0    0    0    0 +0.0000000000e+00 +0.0000000000e+00 +4.5593999997e+01 4.5594000000e+01 5.1100000000e-04 0.0000e+00 -1.0000e+00
       11 -1    0    0    0    0 -0.0000000000e+00 -0.0000000000e+00 -4.5593999997e+01 4.5594000000e+01 5.1100000000e-04 0.0000e+00 1.0000e+00
       23  2    1    2    0    0 +1.7763568394e-15 -3.5527136788e-15 -3.5527136788e-15 9.1188000000e+01 9.1188000000e+01 5.3397e-14 0.0000e+00
  9990012  2    3    3    0    0 -1.4916415168e+01 +2.2019349930e+01 +1.7588873716e+01 5.9301957734e+01 5.0000024997e+01 1.0238e-03 0.0000e+00
      -11  1    4    4    0    0 -5.6085897564e-01 +5.2973181267e+00 -6.4124441817e+00 8.3364010683e+00 5.1100000000e-04 0.0000e+00 1.0000e+00
       11  1    4    4    0    0 -1.6599303226e+01 -8.2288875447e+00 +4.1103182751e+00 1.8977517604e+01 5.1100000000e-04 0.0000e+00 -1.0000e+00
       12  1    4    4    0    0 +2.2437470332e+00 +2.4950919348e+01 +1.9890999623e+01 3.1988039062e+01 0.0000000000e+00 0.0000e+00 -1.0000e+00
      -12  1    3    3    0    0 +1.4916415168e+01 -2.2019349930e+01 -1.7588873716e+01 3.1886042266e+01 0.0000000000e+00 0.0000e+00 1.0000e+00
</event>
<event>
 8      4 +2.2883893e-04 9.11880000e+01 7.81616400e-03 1.18400000e-01
      -11 -1    0    0    0    0 +0.0000000000e+00 +0.0000000000e+00 +4.5593999997e+01 4.5594000000e+01 5.1100000000e-04 0.0000e+00 -1.0000e+00
       11 -1    0    0    0    0 -0.0000000000e+00 -0.0000000000e+00 -4.5593999997e+01 4.5594000000e+01 5.1100000000e-04 0.0000e+00 1.0000e+00
       23  2    1    2    0    0 +0.0000000000e+00 -1.7763568394e-15 +0.0000000000e+00 9.1188000000e+01 9.1188000000e+01 8.8976e-14 0.0000e+00
 -9990012  2    3    3    0    0 -2.9176158958e+01 -1.1344801146e+01 +6.0635610371e+00 5.9301960154e+01 5.0000029410e+01 1.3627e-04 0.0000e+00
      -11  1    4    4    0    0 +2.9220110554e+00 +9.3646692420e+00 -4.2920716500e+00 1.0707803600e+01 5.1100000000e-04 0.0000e+00 1.0000e+00
       11  1    4    4    0    0 -5.3775074062e+00 -1.6733806314e+01 +1.2387250989e+01 2.1503065990e+01 5.1100000000e-04 0.0000e+00 -1.0000e+00
      -12  1    4    4    0    0 -2.6720662607e+01 -3.9756640745e+00 -2.0316183020e+00 2.7091090564e+01 0.0000000000e+00 0.0000e+00 1.0000e+00
       12  1    3    3    0    0 +2.9176158958e+01 +1.1344801146e+01 -6.0635610371e+00 3.1886039846e+01 0.0000000000e+00 0.0000e+00 -1.0000e+00
</event>
<event>
 8      4 +2.2883893e-04 9.11880000e+01 7.81616400e-03 1.18400000e-01
      -11 -1    0    0    0    0 +0.0000000000e+00 +0.0000000000e+00 +4.5593999997e+01 4.5594000000e+01 5.1100000000e-04 0.0000e+00 -1.0000e+00
       11 -1    0    0    0    0 -0.0000000000e+00 -0.0000000000e+00 -4.5593999997e+01 4.5594000000e+01 5.1100000000e-04 0.0000e+00 1.0000e+00
       23  2    1    2    0    0 +0.0000000000e+00 -3.0531133177e-15 -7.1054273576e-15 9.1188000000e+01 9.1188000000e+01 5.0370e-13 0.0000e+00
 -9990012  2    3    3    0    0 -8.9687555199e+00 +1.1225782054e-01 -3.0598527511e+01 5.9301936222e+01 4.9999985765e+01 4.6058e-03 0.0000e+00
      -11  1    4    4    0    0 -1.7012430586e+01 -8.4207830944e+00 -3.5556383952e+01 4.0306188388e+01 5.1100000000e-04 0.0000e+00 1.0000e+00
       11  1    4    4    0    0 +2.4175363251e+00 +5.3320183616e-01 -4.6612907925e+00 5.2779179792e+00 5.1100000000e-04 0.0000e+00 -1.0000e+00
      -12  1    4    4    0    0 +5.6261387410e+00 +7.9998390788e+00 +9.6191472340e+00 1.3717829855e+01 0.0000000000e+00 0.0000e+00 1.0000e+00
       12  1    3    3    0    0 +8.9687555199e+00 -1.1225782054e-01 +3.0598527511e+01 3.1886063778e+01 0.0000000000e+00 0.0000e+00 -1.0000e+00
</event>
<event>
 8      4 +2.2883893e-04 9.11880000e+01 7.81616400e-03 1.18400000e-01
      -11 -1    0    0    0    0 +0.0000000000e+00 +0.0000000000e+00 +4.5593999997e+01 4.5594000000e+01 5.1100000000e-04 0.0000e+00 -1.0000e+00
       11 -1    0    0    0    0 -0.0000000000e+00 -0.0000000000e+00 -4.5593999997e+01 4.5594000000e+01 5.1100000000e-04 0.0000e+00 1.0000e+00
       23  2    1    2    0    0 +3.5527136788e-15 +0.0000000000e+00 +0.0000000000e+00 9.1188000000e+01 9.1188000000e+01 6.6703e-14 0.0000e+00
 -9990012  2    3    3    0    0 +1.8665501441e+01 +2.3862517967e+01 -9.9447798238e+00 5.9301963032e+01 5.0000034659e+01 3.7357e-03 0.0000e+00
      -11  1    4    4    0    0 -7.0139574049e+00 +1.0535940029e+00 +2.6827012163e+00 7.5830432465e+00 5.1100000000e-04 0.0000e+00 1.0000e+00
       11  1    4    4    0    0 +3.5563591107e+00 +4.8454747837e+00 +1.2407398321e+01 1.3786582222e+01 5.1100000000e-04 0.0000e+00 -1.0000e+00
      -12  1    4    4    0    0 +2.2123099735e+01 +1.7963449181e+01 -2.5034879361e+01 3.7932337563e+01 0.0000000000e+00 0.0000e+00 1.0000e+00
       12  1    3    3    0    0 -1.8665501441e+01 -2.3862517967e+01 +9.9447798238e+00 3.1886036968e+01 0.0000000000e+00 0.0000e+00 -1.0000e+00
</event>
<event>
 8      4 +2.2883893e-04 9.11880000e+01 7.81616400e-03 1.18400000e-01
      -11 -1    0    0    0    0 +0.0000000000e+00 +0.0000000000e+00 +4.5593999997e+01 4.5594000000e+01 5.1100000000e-04 0.0000e+00 1.0000e+00
       11 -1    0    0    0    0 -0.0000000000e+00 -0.0000000000e+00 -4.5593999997e+01 4.5594000000e+01 5.1100000000e-04 0.0000e+00 -1.0000e+00
       23  2    1    2    0    0 -1.7763568394e-15 +3.5527136788e-15 -3.5527136788e-15 9.1188000000e+01 9.1188000000e+01 9.3851e-15 0.0000e+00
 -9990012  2    3    3    0    0 +1.3741240667e+01 -2.0461524776e+01 +2.0229338878e+01 5.9301924000e+01 4.9999963475e+01 4.6378e-03 0.0000e+00
      -11  1    4    4    0    0 +1.3941613327e+01 -1.6727192925e+01 +1.0235676102e+01 2.4061102029e+01 5.1100000000e-04 0.0000e+00 1.0000e+00
       11  1    4    4    0    0 +1.4021616248e+01 +5.1071044148e+00 -1.3967754573e+00 1.4987969163e+01 5.1100000000e-04 0.0000e+00 -1.0000e+00
      -12  1    4    4    0    0 -1.4221988907e+01 -8.8414362655e+00 +1.1390438234e+01 2.0252852808e+01 0.0000000000e+00 0.0000e+00 1.0000e+00
       12  1    3    3    0    0 -1.3741240667e+01 +2.0461524776e+01 -2.0229338878e+01 3.1886076000e+01 0.0000000000e+00 0.0000e+00 -1.0000e+00
</event>
<event>
 8      4 +2.2883893e-04 9.11880000e+01 7.81616400e-03 1.18400000e-01
      -11 -1    0    0    0    0 +0.0000000000e+00 +0.0000000000e+00 +4.5593999997e+01 4.5594000000e+01 5.1100000000e-04 0.0000e+00 -1.0000e+00
       11 -1    0    0    0    0 -0.0000000000e+00 -0.0000000000e+00 -4.5593999997e+01 4.5594000000e+01 5.1100000000e-04 0.0000e+00 1.0000e+00
       23  2    1    2    0    0 -3.5527136788e-15 -7.1054273576e-15 +0.0000000000e+00 9.1188000000e+01 9.1188000000e+01 6.2642e-14 0.0000e+00
 -9990012  2    3    3    0    0 -1.8427552419e+01 -2.5372187809e+01 +5.7791146102e+00 5.9301940851e+01 4.9999994207e+01 2.8939e-04 0.0000e+00
      -11  1    4    4    0    0 +1.1276836653e+01 -1.6599419277e+00 +5.4251796067e+00 1.2623590065e+01 5.1100000000e-04 0.0000e+00 1.0000e+00
       11  1    4    4    0    0 -8.4606437661e+00 -1.2765277181e+01 +1.2593955105e+01 1.9827821360e+01 5.1100000000e-04 0.0000e+00 -1.0000e+00
      -12  1    4    4    0    0 -2.1243745306e+01 -1.0946968700e+01 -1.2240020102e+01 2.6850529426e+01 0.0000000000e+00 0.0000e+00 1.0000e+00
       12  1    3    3    0    0 +1.8427552419e+01 +2.5372187809e+01 -5.7791146102e+00 3.1886059149e+01 0.0000000000e+00 0.0000e+00 -1.0000e+00
</event>
<event>
 8      3 +2.2883893e-04 9.11880000e+01 7.81616400e-03 1.18400000e-01
      -11 -1    0    0    0    0 +0.0000000000e+00 +0.0000000000e+00 +4.5593999997e+01 4.5594000000e+01 5.1100000000e-04 0.0000e+00 1.0000e+00
       11 -1    0    0    0    0 -0.0000000000e+00 -0.0000000000e+00 -4.5593999997e+01 4.5594000000e+01 5.1100000000e-04 0.0000e+00 -1.0000e+00
       23  2    1    2    0    0 +7.1054273576e-15 +0.0000000000e+00 -4.4408920985e-16 9.1188000000e+01 9.1188000000e+01 5.1284e-14 0.0000e+00
  9990012  2    3    3    0    0 +3.0963861806e+01 -7.5786391320e+00 +7.2160671541e-01 5.9301996404e+01 5.0000095522e+01 2.2788e-03 0.0000e+00
      -11  1    4    4    0    0 +2.2160962864e+01 -5.4894859682e+00 +1.5075799296e+01 2.7359138436e+01 5.1100000000e-04 0.0000e+00 1.0000e+00
       11  1    4    4    0    0 +1.6465534680e+01 +3.4768046703e-02 -1.1200320967e+00 1.6503621217e+01 5.1100000000e-04 0.0000e+00 -1.0000e+00
       12  1    4    4    0    0 -7.6626357374e+00 -2.1239212106e+00 -1.3234160484e+01 1.5439236752e+01 0.0000000000e+00 0.0000e+00 -1.0000e+00
      -12  1    3    3    0    0 -3.0963861806e+01 +7.5786391320e+00 -7.2160671541e-01 3.1886003596e+01 0.0000000000e+00 0.0000e+00 1.0000e+00
</event>
<event>
 8      3 +2.2883893e-04 9.11880000e+01 7.81616400e-03 1.18400000e-01
      -11 -1    0    0    0    0 +0.0000000000e+00 +0.0000000000e+00 +4.5593999997e+01 4.5594000000e+01 5.1100000000e-04 0.0000e+00 -1.0000e+00
       11 -1    0    0    0    0 -0.0000000000e+00 -0.0000000000e+00 -4.5593999997e+01 4.5594000000e+01 5.1100000000e-04 0.0000e+00 1.0000e+00
       23  2    1    2    0    0 +0.0000000000e+00 +0.0000000000e+00 -3.5527136788e-15 9.1188000000e+01 9.1188000000e+01 7.5740e-14 0.0000e+00
  9990012  2    3    3    0    0 -1.6106751885e+01 -1.9429417752e+01 +1.9488231452e+01 5.9301938851e+01 4.9999990560e+01 2.2891e-03 0.0000e+00
      -11  1    4    4    0    0 +1.2041569455e+01 -4.4371596024e+00 +1.1437543771e+01 1.7190264339e+01 5.1100000000e-04 0.0000e+00 1.0000e+00
       11  1    4    4    0    0 -7.4504455929e-01 -3.2827702607e+00 -7.7010046802e+00 8.4045907292e+00 5.1100000000e-04 0.0000e+00 -1.0000e+00
       12  1    4    4    0    0 -2.7403276781e+01 -1.1709487889e+01 +1.5751692361e+01 3.3707083783e+01 0.0000000000e+00 0.0000e+00 -1.0000e+00
      -12  1    3    3    0    0 +1.6106751885e+01 +1.9429417752e+01 -1.9488231452e+01 3.1886061149e+01 0.0000000000e+00 0.0000e+00 1.0000e+00
</event>
<event>
 8      3 +2.2883893e-04 9.11880000e+01 7.81616400e-03 1.18400000e-01
      -11 -1    0    0    0    0 +0.0000000000e+00 +0.0000000000e+00 +4.5593999997e+01 4.5594000000e+01 5.1100000000e-04 0.0000e+00 1.0000e+00
       11 -1    0    0    0    0 -0.0000000000e+00 -0.0000000000e+00 -4.5593999997e+01 4.5594000000e+01 5.1100000000e-04 0.0000e+00 -1.0000e+00
       23  2    1    2    0    0 +0.0000000000e+00 -2.4424906542e-15 +3.5527136788e-15 9.1188000000e+01 9.1188000000e+01 2.2061e-15 0.0000e+00
  9990012  2    3    3    0    0 -2.0863117972e+01 -1.1590717123e+00 -2.4085412988e+01 5.9301948856e+01 5.0000008805e+01 2.8991e-03 0.0000e+00
      -11  1    4    4    0    0 -1.7034725428e+01 -1.9736910262e+01 -1.1686343484e+00 2.6097762425e+01 5.1100000000e-04 0.0000e+00 1.0000e+00
       11  1    4    4    0    0 -4.5599849459e+00 +2.0377893286e+01 -2.3230113121e+01 3.1236039335e+01 5.1100000000e-04 0.0000e+00 -1.0000e+00
       12  1    4    4    0    0 +7.3159240120e-01 -1.8000547360e+00 +3.1333448108e-01 1.9681470959e+00 0.0000000000e+00 0.0000e+00 -1.0000e+00
      -12  1    3    3    0    0 +2.0863117972e+01 +1.1590717123e+00 +2.4085412988e+01 3.1886051144e+01 0.0000000000e+00 0.0000e+00 1.0000e+00
</event>
<event>
 8      4 +2.2883893e-04 9.11880000e+01 7.81616400e-03 1.18400000e-01
      -11 -1    0    0    0    0 +0.0000000000e+00 +0.0000000000e+00 +4.5593999997e+01 4.5594000000e+01 5.1100000000e-04 0.0000e+00 1.0000e+00
       11 -1    0    0    0    0 -0.0000000000e+00 -0.0000000000e+00 -4.5593999997e+01 4.5594000000e+01 5.1100000000e-04 0.0000e+00 -1.0000e+00
       23  2    1    2    0    0 +0.0000000000e+00 -1.7763568394e-15 +3.5527136788e-15 9.1188000000e+01 9.1188000000e+01 9.0263e-14 0.0000e+00
 -9990012  2    3    3    0    0 -8.9457173838e+00 +3.4619062865e+00 +3.0409035538e+01 5.9301951374e+01 5.0000013398e+01 6.0900e-04 0.0000e+00
      -11  1    4    4    0    0 -3.5546248339e+00 +2.0289434233e+01 +3.4561617634e+01 4.0234337487e+01 5.1100000000e-04 0.0000e+00 1.0000e+00
       11  1    4    4    0    0 -2.8893309658e+00 -1.4738689592e+01 -4.7535464714e+00 1.5753520515e+01 5.1100000000e-04 0.0000e+00 -1.0000e+00
      -12  1    4    4    0    0 -2.5017615841e+00 -2.0888383550e+00 +6.0096437481e-01 3.3140933718e+00 0.0000000000e+00 0.0000e+00 1.0000e+00
       12  1    3    3    0    0 +8.9457173838e+00 -3.4619062865e+00 -3.0409035538e+01 3.1886048626e+01 0.0000000000e+00 0.0000e+00 -1.0000e+00
</event>
<event>
 8      3 +2.2883893e-04 9.11880000e+01 7.81616400e-03 1.18400000e-01
      -11 -1    0    0    0    0 +0.0000000000e+00 +0.0000000000e+00 +4.5593999997e+01 4.5594000000e+01 5.1100000000e-04 0.0000e+00 -1.0000e+00
       11 -1    0    0    0    0 -0.0000000000e+00 -0.0000000000e+00 -4.5593999997e+01 4.5594000000e+01 5.1100000000e-04 0.0000e+00 1.0000e+00
       23  2    1    2    0    0 +0.0000000000e+00 +0.0000000000e+00 +3.5527136788e-15 9.1188000000e+01 9.1188000000e+01 8.5252e-14 0.0000e+00
  9990012  2    3    3    0    0 +5.8020168897e+00 +1.4075401522e+01 +2.8016800250e+01 5.9301930561e+01 4.9999975440e+01 5.4775e-04 0.0000e+00
      -11  1    4    4    0    0 +1.0780819136e+01 -4.4553368921e+00 -5.7679001819e+00 1.3013253277e+01 5.1100000000e-04 0.0000e+00 -1.0000e+00
       11  1    4    4    0    0 -9.4445995196e+00 +1.8178255627e+00 +1.6010308312e+00 9.7502948595e+00 5.1100000000e-04 0.0000e+00 1.0000e+00
       12  1    4    4    0    0 +4.4657972731e+00 +1.6712912852e+01 +3.2183669601e+01 3.6538382425e+01 0.0000000000e+00 0.0000e+00 -1.0000e+00
      -12  1    3    3    0    0 -5.8020168897e+00 -1.4075401522e+01 -2.8016800250e+01 3.1886069439e+01 0.0000000000e+00 0.0000e+00 1.0000e+00
</event>
<event>
 8      4 +2.2883893e-04 9.11880000e+01 7.81616400e-03 1.18400000e-01
      -11 -1    0    0    0    0 +0.0000000000e+00 +0.0000000000e+00 +4.5593999997e+01 4.5594000000e+01 5.1100000000e-04 0.0000e+00 1.0000e+00
       11 -1    0    0    0    0 -0.0000000000e+00 -0.0000000000e+00 -4.5593999997e+01 4.5594000000e+01 5.1100000000e-04 0.0000e+00 -1.0000e+00
       23  2    1    2    0    0 -2.2204460493e-16 -7.1054273576e-15 -1.7763568394e-15 9.1188000000e+01 9.1188000000e+01 5.7335e-14 0.0000e+00
 -9990012  2    3    3    0    0 +1.5221297686e+00 -3.0219523058e+01 -1.0059032523e+01 5.9301943671e+01 4.9999999350e+01 1.8929e-03 0.0000e+00
      -11  1    4    4    0    0 +2.7522318774e+00 +7.5939344715e+00 +1.1053616653e+01 1.3690327331e+01 5.1100000000e-04 0.0000e+00 1.0000e+00
       11  1    4    4    0    0 -3.6703530918e+00 -2.7238633522e+01 -8.0717213552e+00 2.8645546492e+01 5.1100000000e-04 0.0000e+00 -1.0000e+00
      -12  1    4    4    0    0 +2.4402509830e+00 -1.0574824008e+01 -1.3040927820e+01 1.6966069848e+01 0.0000000000e+00 0.0000e+00 1.0000e+00
       12  1    3    3    0    0 -1.5221297686e+00 +3.0219523058e+01 +1.0059032523e+01 3.1886056329e+01 0.0000000000e+00 0.0000e+00 -1.0000e+00
</event>
<event>
 8      4 +2.2883893e-04 9.11880000e+01 7.81616400e-03 1.18400000e-01
      -11 -1    0    0    0    0 +0.0000000000e+00 +0.0000000000e+00 +4.5593999997e+01 4.5594000000e+01 5.1100000000e-04 0.0000e+00 1.0000e+00
       11 -1    0    0    0    0 -0.0000000000e+00 -0.0000000000e+00 -4.5593999997e+01 4.5594000000e+01 5.1100000000e-04 0.0000e+00 -1.0000e+00
       23  2    1    2    0    0 +3.5527136788e-15 +3.5527136788e-15 +0.0000000000e+00 9.1188000000e+01 9.1188000000e+01 9.7558e-14 0.0000e+00
 -9990012  2    3    3    0    0 +5.2594745894e+00 -2.2543914866e+01 +2.1927835087e+01 5.9301950981e+01 5.0000012681e+01 1.9510e-03 0.0000e+00
      -11  1    4    4    0    0 +2.4184368383e+01 -7.2774490692e-01 +1.4075445024e+01 2.7991631599e+01 5.1100000000e-04 0.0000e+00 1.0000e+00
       11  1    4    4    0    0 -5.6799483474e+00 -8.5958231995e+00 +7.2291891694e+00 1.2586149769e+01 5.1100000000e-04 0.0000e+00 -1.0000e+00
      -12  1    4    4    0    0 -1.3244945446e+01 -1.3220346760e+01 +6.2320089387e-01 1.8724169612e+01 0.0000000000e+00 0.0000e+00 1.0000e+00
       12  1    3    3    0    0 -5.2594745894e+00 +2.2543914866e+01 -2.1927835087e+01 3.1886049019e+01 0.0000000000e+00 0.0000e+00 -1.0000e+00
</event>
<event>
 8      3 +2.2883893e-04 9.11880000e+01 7.81616400e-03 1.18400000e-01
      -11 -1    0    0    0    0 +0.0000000000e+00 +0.0000000000e+00 +4.5593999997e+01 4.5594000000e+01 5.1100000000e-04 0.0000e+00 -1.0000e+00
       11 -1    0    0    0    0 -0.0000000000e+00 -0.0000000000e+00 -4.5593999997e+01 4.5594000000e+01 5.1100000000e-04 0.0000e+00 1.0000e+00
       23  2    1    2    0    0 +0.0000000000e+00 +0.0000000000e+00 -3.5527136788e-15 9.1188000000e+01 9.1188000000e+01 3.6593e-14 0.0000e+00
  9990012  2    3    3    0    0 -1.9599107275e+01 +6.2242847170e+00 +2.4369137674e+01 5.9301927850e+01 4.9999970495e+01 1.7104e-03 0.0000e+00
      -11  1    4    4    0    0 +3.1586903421e+00 -2.8864504845e+00 -2.7659740971e+00 5.0950499550e+00 5.1100000000e-04 0.0000e+00 1.0000e+00
       11  1    4    4    0    0 +4.3192486557e+00 +1.7506095133e+01 +6.5958523647e+00 1.9199597507e+01 5.1100000000e-04 0.0000e+00 -1.0000e+00
       12  1    4    4    0    0 -2.7077046273e+01 -8.3953599309e+00 +2.0539259406e+01 3.5007280388e+01 0.0000000000e+00 0.0000e+00 -1.0000e+00
      -12  1    3    3    0    0 +1.9599107275e+01 -6.2242847170e+00 -2.4369137674e+01 3.1886072150e+01 0.0000000000e+00 0.0000e+00 1.0000e+00
</event>
<event>
 8      4 +2.2883893e-04 9.11880000e+01 7.81616400e-03 1.18400000e-01
      -11 -1    0    0    0    0 +0.0000000000e+00 +0.0000000000e+00 +4.5593999997e+01 4.5594000000e+01 5.1100000000e-04 0.0000e+00 1.0000e+00
       11 -1    0    0    0    0 -0.0000000000e+00 -0.0000000000e+00 -4.5593999997e+01 4.5594000000e+01 5.1100000000e-04 0.0000e+00 -1.0000e+00
       23  2    1    2    0    0 -1.7763568394e-15 -3.5527136788e-15 +1.7763568394e-15 9.1188000000e+01 9.1188000000e+01 7.2518e-14 0.0000e+00
 -9990012  2    3    3    0    0 +1.0053355842e+01 -2.6082070327e+01 +1.5341972165e+01 5.9301945585e+01 5.0000002840e+01 1.1988e-03 0.0000e+00
      -11  1    4    4    0    0 +1.1805829956e+01 -1.9441949691e+01 +3.2008338973e+01 3.9267044616e+01 5.1100000000e-04 0.0000e+00 1.0000e+00
       11  1    4    4    0    0 +9.8303707070e-01 +1.4529476273e+00 -6.6146595072e+00 6.8433280900e+00 5.1100000000e-04 0.0000e+00 -1.0000e+00
      -12  1    4    4    0    0 -2.7355111849e+00 -8.0930682634e+00 -1.0051707301e+01 1.3191572879e+01 0.0000000000e+00 0.0000e+00 1.0000e+00
       12  1    3    3    0    0 -1.0053355842e+01 +2.6082070327e+01 -1.5341972165e+01 3.1886054415e+01 0.0000000000e+00 0.0000e+00 -1.0000e+00
</event>
<event>
 8      3 +2.2883893e-04 9.11880000e+01 7.81616400e-03 1.18400000e-01
      -11 -1    0    0    0    0 +0.0000000000e+00 +0.0000000000e+00 +4.5593999997e+01 4.5594000000e+01 5.1100000000e-04 0.0000e+00 -1.0000e+00
       11 -1    0    0    0    0 -0.0000000000e+00 -0.0000000000e+00 -4.5593999997e+01 4.5594000000e+01 5.1100000000e-04 0.0000e+00 1.0000e+00
       23  2    1    2    0    0 +3.5527136788e-15 -1.7763568394e-15 +0.0000000000e+00 9.1188000000e+01 9.1188000000e+01 1.0672e-13 0.0000e+00
  9990012  2    3    3    0    0 -1.4816147832e+01 -1.5553365723e+01 +2.3564555750e+01 5.9302051534e+01 5.0000196066e+01 1.6857e-03 0.0000e+00
      -11  1    4    4    0    0 +1.2629332659e+01 +2.7911500904e+00 -5.4595148878e+00 1.4039119107e+01 5.1100000000e-04 0.0000e+00 1.0000e+00
       11  1    4    4    0    0 -2.2532402505e+01 -1.1424938415e+01 +1.6643448424e+01 3.0252979293e+01 5.1100000000e-04 0.0000e+00 -1.0000e+00
       12  1    4    4    0    0 -4.9130779866e+00 -6.9195773984e+00 +1.2380622214e+01 1.5009953133e+01 0.0000000000e+00 0.0000e+00 -1.0000e+00
      -12  1    3    3    0    0 +1.4816147832e+01 +1.5553365723e+01 -2.3564555750e+01 3.1885948466e+01 0.0000000000e+00 0.0000e+00 1.0000e+00
</event>
<event>
 8      4 +2.2883893e-04 9.11880000e+01 7.81616400e-03 1.18400000e-01
      -11 -1    0    0    0    0 +0.0000000000e+00 +0.0000000000e+00 +4.5593999997e+01 4.5594000000e+01 5.1100000000e-04 0.0000e+00 -1.0000e+00
       11 -1    0    0    0    0 -0.0000000000e+00 -0.0000000000e+00 -4.5593999997e+01 4.5594000000e+01 5.1100000000e-04 0.0000e+00 1.0000e+00
       23  2    1    2    0    0 +0.0000000000e+00 +4.8849813084e-15 +0.0000000000e+00 9.1188000000e+01 9.1188000000e+01 3.4188e-13 0.0000e+00
 -9990012  2    3    3    0    0 +2.4862856836e+01 +2.7417301391e+00 -1.9774753647e+01 5.9301958916e+01 5.0000027153e+01 1.6626e-03 0.0000e+00
      -11  1    4    4    0    0 +1.6031227238e+01 -1.3408345726e+01 -2.0062323297e+01 2.8970343425e+01 5.1100000000e-04 0.0000e+00 1.0000e+00
       11  1    4    4    0    0 +2.2109336521e+00 +1.0226728071e+01 -1.1515489424e+01 1.5558942496e+01 5.1100000000e-04 0.0000e+00 -1.0000e+00
      -12  1    4    4    0    0 +6.6206959460e+00 +5.9233477940e+00 +1.1803059074e+01 1.4772672995e+01 0.0000000000e+00 0.0000e+00 1.0000e+00
       12  1    3    3    0    0 -2.4862856836e+01 -2.7417301391e+00 +1.9774753647e+01 3.1886041084e+01 0.0000000000e+00 0.0000e+00 -1.0000e+00
</event>
<event>
 8      3 +2.2883893e-04 9.11880000e+01 7.81616400e-03 1.18400000e-01
      -11 -1    0    0    0    0 +0.0000000000e+00 +0.0000000000e+00 +4.5593999997e+01 4.5594000000e+01 5.1100000000e-04 0.0000e+00 -1.0000e+00
       11 -1    0    0    0    0 -0.0000000000e+00 -0.0000000000e+00 -4.5593999997e+01 4.5594000000e+01 5.1100000000e-04 0.0000e+00 1.0000e+00
       23  2    1    2    0    0 +1.3877787808e-17 +0.0000000000e+00 +3.5527136788e-15 9.1188000000e+01 9.1188000000e+01 3.1545e-14 0.0000e+00
  9990012  2    3    3    0    0 -4.0344608436e-02 +2.4991456279e+01 +1.9802681643e+01 5.9301941685e+01 4.9999995727e+01 3.8274e-04 0.0000e+00
      -11  1    4    4    0    0 -1.0702915997e+00 -9.2023659672e+00 -3.8691944034e+00 1.0039906827e+01 5.1100000000e-04 0.0000e+00 1.0000e+00
       11  1    4    4    0    0 +8.7210687206e+00 +2.5764249672e+01 +2.5986659206e+01 3.7618613182e+01 5.1100000000e-04 0.0000e+00 -1.0000e+00
       12  1    4    4    0    0 -7.6911217293e+00 +8.4295725745e+00 -2.3147831598e+00 1.1643421676e+01 0.0000000000e+00 0.0000e+00 -1.0000e+00
      -12  1    3    3    0    0 +4.0344608436e-02 -2.4991456279e+01 -1.9802681643e+01 3.1886058315e+01 0.0000000000e+00 0.0000e+00 1.0000e+00
</event>
<event>
 8      3 +2.2883893e-04 9.11880000e+01 7.81616400e-03 1.18400000e-01
      -11 -1    0    0    0    0 +0.0000000000e+00 +0.0000000000e+00 +4.5593999997e+01 4.5594000000e+01 5.1100000000e-04 0.0000e+00 1.0000e+00
       11 -1    0    0    0    0 -0.0000000000e+00 -0.0000000000e+00 -4.5593999997e+01 4.5594000000e+01 5.1100000000e-04 0.0000e+00 -1.0000e+00
       23  2    1    2    0    0 +0.0000000000e+00 +0.0000000000e+00 +0.0000000000e+00 9.1188000000e+01 9.1188000000e+01 7.9060e-15 0.0000e+00
  9990012  2    3    3    0    0 +1.9649591412e+00 -2.2170150739e+01 -2.2832939343e+01 5.9301956545e+01 5.0000022828e+01 1.7885e-03 0.0000e+00
      -11  1    4    4    0    0 -9.3586110062e+00 -2.6416279975e+01 -1.4715442327e+01 3.1653557317e+01 5.1100000000e-04 0.0000e+00 1.0000e+00
       11  1    4    4    0    0 +7.0419217076e-01 -8.7022450530e+00 -6.3779940761e+00 1.0812204413e+01 5.1100000000e-04 0.0000e+00 -1.0000e+00
       12  1    4    4    0    0 +1.0619377977e+01 +1.2948374289e+01 -1.7395029401e+00 1.6836194814e+01 0.0000000000e+00 0.0000e+00 -1.0000e+00
      -12  1    3    3    0    0 -1.9649591412e+00 +2.2170150739e+01 +2.2832939343e+01 3.1886043455e+01 0.0000000000e+00 0.0000e+00 1.0000e+00
</event>
<event>
 8      4 +2.2883893e-04 9.11880000e+01 7.81616400e-03 1.18400000e-01
      -11 -1    0    0    0    0 +0.0000000000e+00 +0.0000000000e+00 +4.5593999997e+01 4.5594000000e+01 5.1100000000e-04 0.0000e+00 -1.0000e+00
       11 -1    0    0    0    0 -0.0000000000e+00 -0.0000000000e+00 -4.5593999997e+01 4.5594000000e+01 5.1100000000e-04 0.0000e+00 1.0000e+00
       23  2    1    2    0    0 +0.0000000000e+00 +3.5527136788e-15 +0.0000000000e+00 9.1188000000e+01 9.1188000000e+01 3.7832e-14 0.0000e+00
 -9990012  2    3    3    0    0 -1.7285561996e+01 +1.6028729204e+01 -2.1471136029e+01 5.9301945120e+01 5.0000001992e+01 7.2428e-05 0.0000e+00
      -11  1    4    4    0    0 -1.3141463899e+01 +2.5677053049e+01 -6.4120604905e+00 2.9548665734e+01 5.1100000000e-04 0.0000e+00 1.0000e+00
       11  1    4    4    0    0 +2.6149720906e+00 -8.1276800222e+00 +4.0333547518e+00 9.4427333115e+00 5.1100000000e-04 0.0000e+00 -1.0000e+00
      -12  1    4    4    0    0 -6.7590701874e+00 -1.5206438222e+00 -1.9092430291e+01 2.0310546074e+01 0.0000000000e+00 0.0000e+00 1.0000e+00
       12  1    3    3    0    0 +1.7285561996e+01 -1.6028729204e+01 +2.1471136029e+01 3.1886054880e+01 0.0000000000e+00 0.0000e+00 -1.0000e+00
</event>
<event>
 8      3 +2.2883893e-04 9.11880000e+01 7.81616400e-03 1.18400000e-01
      -11 -1    0    0    0    0 +0.0000000000e+00 +0.0000000000e+00 +4.5593999997e+01 4.5594000000e+01 5.1100000000e-04 0.0000e+00 1.0000e+00
       11 -1    0    0    0    0 -0.0000000000e+00 -0.0000000000e+00 -4.5593999997e+01 4.5594000000e+01 5.1100000000e-04 0.0000e+00 -1.0000e+00
       23  2    1    2    0    0 +0.0000000000e+00 +0.0000000000e+00 +0.0000000000e+00 9.1188000000e+01 9.1188000000e+01 1.2146e-13 0.0000e+00
  9990012  2    3    3    0    0 -1.1766513614e+01 -2.9167498881e+01 -5.2465850034e+00 5.9301945246e+01 5.0000002221e+01 6.1341e-05 0.0000e+00
      -11  1    4    4    0    0 +1.1602040450e+01 +5.9675426927e+00 -1.5422793414e+00 1.3137638076e+01 5.1100000000e-04 0.0000e+00 1.0000e+00
       11  1    4    4    0    0 -5.5821346527e+00 -1.8089476904e+01 -9.0069220081e+00 2.0964590296e+01 5.1100000000e-04 0.0000e+00 -1.0000e+00
       12  1    4    4    0    0 -1.7786419412e+01 -1.7045564669e+01 +5.3026163461e+00 2.5199716874e+01 0.0000000000e+00 0.0000e+00 -1.0000e+00
      -12  1    3    3    0    0 +1.1766513614e+01 +2.9167498881e+01 +5.2465850034e+00 3.1886054754e+01 0.0000000000e+00 0.0000e+00 1.0000e+00
</event>
<event>
 8      4 +2.2883893e-04 9.11880000e+01 7.81616400e-03 1.18400000e-01
      -11 -1    0    0    0    0 +0.0000000000e+00 +0.0000000000e+00 +4.5593999997e+01 4.5594000000e+01 5.1100000000e-04 0.0000e+00 -1.0000e+00
       11 -1    0    0    0    0 -0.0000000000e+00 -0.0000000000e+00 -4.5593999997e+01 4.5594000000e+01 5.1100000000e-04 0.0000e+00 1.0000e+00
       23  2    1    2    0    0 +0.0000000000e+00 -2.6645352591e-15 -3.5527136788e-15 9.1188000000e+01 9.1188000000e+01 3.4975e-14 0.0000e+00
 -9990012  2    3    3    0    0 +1.8315413244e+01 -5.3560600513e+00 -2.5545618323e+01 5.9301947295e+01 5.0000005959e+01 2.0327e-03 0.0000e+00
      -11  1    4    4    0    0 +2.6155317630e+00 +1.7828717333e+01 -1.6938907217e+00 1.8098989866e+01 5.1100000000e-04 0.0000e+00 -1.0000e+00
       11  1    4    4    0    0 +4.3745927085e+00 -1.4543055971e+01 -2.2149487749e+01 2.6855862417e+01 5.1100000000e-04 0.0000e+00 1.0000e+00
      -12  1    4    4    0    0 +1.1325288773e+01 -8.6417214133e+00 -1.7022398524e+00 1.4347095012e+01 0.0000000000e+00 0.0000e+00 1.0000e+00
       12  1    3    3    0    0 -1.8315413244e+01 +5.3560600513e+00 +2.5545618323e+01 3.1886052705e+01 0.0000000000e+00 0.0000e+00 -1.0000e+00
</event>
<event>
 8      4 +2.2883893e-04 9.11880000e+01 7.81616400e-03 1.18400000e-01
      -11 -1    0    0    0    0 +0.0000000000e+00 +0.0000000000e+00 +4.5593999997e+01 4.5594000000e+01 5.1100000000e-04 0.0000e+00 -1.0000e+00
       11 -1    0    0    0    0 -0.0000000000e+00 -0.0000000000e+00 -4.5593999997e+01 4.5594000000e+01 5.1100000000e-04 0.0000e+00 1.0000e+00
       23  2    1    2    0    0 +4.4408920985e-16 +0.0000000000e+00 +3.5527136788e-15 9.1188000000e+01 9.1188000000e+01 1.0309e-16 0.0000e+00
 -9990012  2    3    3    0    0 -2.0062186838e+00 +2.0163246921e+01 -2.4620080641e+01 5.9301799057e+01 4.9999735608e+01 1.8412e-03 0.0000e+00
      -11  1    4    4    0    0 -6.7958353001e+00 +1.1266669351e+01 -2.9228442631e+00 1.3478287523e+01 5.1100000000e-04 0.0000e+00 1.0000e+00
       11  1    4    4    0    0 +3.8875824727e+00 +5.2602965689e+00 +1.1061782071e+01 1.2850954841e+01 5.1100000000e-04 0.0000e+00 -1.0000e+00
      -12  1    4    4    0    0 +9.0203414368e-01 +3.6362810004e+00 -3.2759018450e+01 3.2972556693e+01 0.0000000000e+00 0.0000e+00 1.0000e+00
       12  1    3    3    0    0 +2.0062186838e+00 -2.0163246921e+01 +2.4620080641e+01 3.1886200943e+01 0.0000000000e+00 0.0000e+00 -1.0000e+00
</event>
<event>
 8      4 +2.2883893e-04 9.11880000e+01 7.81616400e-03 1.18400000e-01
      -11 -1    0    0    0    0 +0.0000000000e+00 +0.0000000000e+00 +4.5593999997e+01 4.5594000000e+01 5.1100000000e-04 0.0000e+00 1.0000e+00
       11 -1    0    0    0    0 -0.0000000000e+00 -0.0000000000e+00 -4.5593999997e+01 4.5594000000e+01 5.1100000000e-04 0.0000e+00 -1.0000e+00
       23  2    1    2    0    0 +0.0000000000e+00 +0.0000000000e+00 +3.5527136788e-15 9.1188000000e+01 9.1188000000e+01 1.6905e-13 0.0000e+00
 -9990012  2    3    3    0    0 -2.8376407141e+01 -7.4587357312e+00 +1.2484717249e+01 5.9301931166e+01 4.9999976543e+01 9.1667e-03 0.0000e+00
      -11  1    4    4    0    0 -2.4141631158e+01 -9.5282058776e+00 -4.2046928975e+00 2.6292289836e+01 5.1100000000e-04 0.0000e+00 1.0000e+00
       11  1    4    4    0    0 -3.8792101048e+00 +5.2619116097e+00 -6.7233231513e+00 9.3775828061e+00 5.1100000000e-04 0.0000e+00 -1.0000e+00
      -12  1    4    4    0    0 -3.5556587752e-01 -3.1924414634e+00 +2.3412733298e+01 2.3632058523e+01 0.0000000000e+00 0.0000e+00 1.0000e+00
       12  1    3    3    0    0 +2.8376407141e+01 +7.4587357312e+00 -1.2484717249e+01 3.1886068834e+01 0.0000000000e+00 0.0000e+00 -1.0000e+00
</event>
<event>
 8      3 +2.2883893e-04 9.11880000e+01 7.81616400e-03 1.18400000e-01
      -11 -1    0    0    0    0 +0.0000000000e+00 +0.0000000000e+00 +4.5593999997e+01 4.5594000000e+01 5.1100000000e-04 0.0000e+00 1.0000e+00
       11 -1    0    0    0    0 -0.0000000000e+00 -0.0000000000e+00 -4.5593999997e+01 4.5594000000e+01 5.1100000000e-04 0.0000e+00 -1.0000e+00
       23  2    1    2    0    0 -3.5527136788e-15 +4.4408920985e-16 +0.0000000000e+00 9.1188000000e+01 9.1188000000e+01 9.6305e-14 0.0000e+00
  9990012  2    3    3    0    0 -2.6771492762e+01 +2.2900509242e+00 -1.7168703248e+01 5.9301928916e+01 4.9999972440e+01 3.7013e-04 0.0000e+00
      -11  1    4    4    0    0 -4.5041960170e+00 +1.4037361539e+00 +2.0391427954e+00 5.1396848688e+00 5.1100000000e-04 0.0000e+00 1.0000e+00
       11  1    4    4    0    0 -2.9671512478e+00 +5.5592288417e+00 -3.0618024166e+01 3.1259757132e+01 5.1100000000e-04 0.0000e+00 -1.0000e+00
       12  1    4    4    0    0 -1.9300145497e+01 -4.6729140715e+00 +1.1410178122e+01 2.2902486916e+01 0.0000000000e+00 0.0000e+00 -1.0000e+00
      -12  1    3    3    0    0 +2.6771492762e+01 -2.2900509242e+00 +1.7168703248e+01 3.1886071084e+01 0.0000000000e+00 0.0000e+00 1.0000e+00
</event>
<event>
 8      3 +2.2883893e-04 9.11880000e+01 7.81616400e-03 1.18400000e-01
      -11 -1    0    0    0    0 +0.0000000000e+00 +0.0000000000e+00 +4.5593999997e+01 4.5594000000e+01 5.1100000000e-04 0.0000e+00 -1.0000e+00
       11 -1    0    0    0    0 -0.0000000000e+00 -0.0000000000e+00 -4.5593999997e+01 4.5594000000e+01 5.1100000000e-04 0.0000e+00 1.0000e+00
       23  2    1    2    0    0 +3.5527136788e-15 +3.5527136788e-15 +3.5527136788e-15 9.1188000000e+01 9.1188000000e+01 1.3269e-14 0.0000e+00
  9990012  2    3    3    0    0 +1.9753148072e+01 +1.6924720605e+01 +1.8441467450e+01 5.9301941165e+01 4.9999994779e+01 8.4078e-04 0.0000e+00
      -11  1    4    4    0    0 +2.6707139517e+01 +2.5081926325e+00 +2.4320938824e+00 2.6934687902e+01 5.1100000000e-04 0.0000e+00 1.0000e+00
       11  1    4    4    0    0 -4.6620779897e+00 +1.6693679369e+01 +1.3821559044e+00 1.7387474148e+01 5.1100000000e-04 0.0000e+00 -1.0000e+00
       12  1    4    4    0    0 -2.2919134553e+00 -2.2771513959e+00 +1.4627217663e+01 1.4979779115e+01 0.0000000000e+00 0.0000e+00 -1.0000e+00
      -12  1    3    3    0    0 -1.9753148072e+01 -1.6924720605e+01 -1.8441467450e+01 3.1886058835e+01 0.0000000000e+00 0.0000e+00 1.0000e+00
</event>
<event>
 8      4 +2.2883893e-04 9.11880000e+01 7.81616400e-03 1.18400000e-01
      -11 -1    0    0    0    0 +0.0000000000e+00 +0.0000000000e+00 +4.5593999997e+01 4.5594000000e+01 5.1100000000e-04 0.0000e+00 -1.0000e+00
       11 -1    0    0    0    0 -0.0000000000e+00 -0.0000000000e+00 -4.5593999997e+01 4.5594000000e+01 5.1100000000e-04 0.0000e+00 1.0000e+00
       23  2    1    2    0    0 +4.4408920985e-16 +0.0000000000e+00 +1.7763568394e-15 9.1188000000e+01 9.1188000000e+01 8.1130e-14 0.0000e+00
 -9990012  2    3    3    0    0 -2.9120145550e+00 -2.9712035378e+01 -1.1199761534e+01 5.9301960210e+01 5.0000029512e+01 5.7829e-05 0.0000e+00
      -11  1    4    4    0    0 -1.4013996333e+01 -2.4022493770e+01 -2.3336666799e+01 3.6305265702e+01 5.1100000000e-04 0.0000e+00 1.0000e+00
       11  1    4    4    0    0 +7.1559285798e+00 -1.0423334083e+01 +1.0938675463e+01 1.6718487623e+01 5.1100000000e-04 0.0000e+00 -1.0000e+00
      -12  1    4    4    0    0 +3.9460531982e+00 +4.7337924743e+00 +1.1982298017e+00 6.2782068850e+00 0.0000000000e+00 0.0000e+00 1.0000e+00
       12  1    3    3    0    0 +2.9120145550e+00 +2.9712035378e+01 +1.1199761534e+01 3.1886039790e+01 0.0000000000e+00 0.0000e+00 -1.0000e+00
</event>
<event>
 8      3 +2.2883893e-04 9.11880000e+01 7.81616400e-03 1.18400000e-01
      -11 -1    0    0    0    0 +0.0000000000e+00 +0.0000000000e+00 +4.5593999997e+01 4.5594000000e+01 5.1100000000e-04 0.0000e+00 1.0000e+00
       11 -1    0    0    0    0 -0.0000000000e+00 -0.0000000000e+00 -4.5593999997e+01 4.5594000000e+01 5.1100000000e-04 0.0000e+00 -1.0000e+00
       23  2    1    2    0    0 +3.5527136788e-15 +0.0000000000e+00 +3.5527136788e-15 9.1188000000e+01 9.1188000000e+01 1.4209e-13 0.0000e+00
  9990012  2    3    3    0    0 -1.1284365044e+01 +2.0823107915e+01 -2.1349042321e+01 5.9301947788e+01 5.0000006857e+01 2.7145e-04 0.0000e+00
      -11  1    4    4    0    0 -2.5081975979e+01 +3.2265828747e+00 -1.5250114621e+01 2.9531040488e+01 5.1100000000e-04 0.0000e+00 1.0000e+00
       11  1    4    4    0    0 +6.8478097417e+00 +1.4595713125e+01 +4.5071515745e+00 1.6740422798e+01 5.1100000000e-04 0.0000e+00 -1.0000e+00
       12  1    4    4    0    0 +6.9498011932e+00 +3.0008119148e+00 -1.0606079274e+01 1.3030484502e+01 0.0000000000e+00 0.0000e+00 -1.0000e+00
      -12  1    3    3    0    0 +1.1284365044e+01 -2.0823107915e+01 +2.1349042321e+01 3.1886052212e+01 0.0000000000e+00 0.0000e+00 1.0000e+00
</event>
<event>
 8      3 +2.2883893e-04 9.11880000e+01 7.81616400e-03 1.18400000e-01
      -11 -1    0    0    0    0 +0.0000000000e+00 +0.0000000000e+00 +4.5593999997e+01 4.5594000000e+01 5.1100000000e-04 0.0000e+00 1.0000e+00
       11 -1    0    0    0    0 -0.0000000000e+00 -0.0000000000e+00 -4.5593999997e+01 4.5594000000e+01 5.1100000000e-04 0.0000e+00 -1.0000e+00
       23  2    1    2    0    0 +0.0000000000e+00 -3.5527136788e-15 -1.7763568394e-15 9.1188000000e+01 9.1188000000e+01 3.2105e-14 0.0000e+00
  9990012  2    3    3    0    0 +1.8277809133e+01 -2.4942837294e+01 -7.7780057181e+00 5.9301940163e+01 4.9999992951e+01 6.6402e-04 0.0000e+00
      -11  1    4    4    0    0 +2.8463259882e+00 -1.5289641089e+01 +1.2340557554e+01 1.9853565354e+01 5.1100000000e-04 0.0000e+00 1.0000e+00
       11  1    4    4    0    0 -6.9959350796e+00 -4.9478976682e+00 -1.2779074733e+01 1.5386018012e+01 5.1100000000e-04 0.0000e+00 -1.0000e+00
       12  1    4    4    0    0 +2.2427418225e+01 -4.7052985368e+00 -7.3394885391e+00 2.4062356796e+01 0.0000000000e+00 0.0000e+00 -1.0000e+00
      -12  1    3    3    0    0 -1.8277809133e+01 +2.4942837294e+01 +7.7780057181e+00 3.1886059837e+01 0.0000000000e+00 0.0000e+00 1.0000e+00
</event>
<event>
 8      3 +2.2883893e-04 9.11880000e+01 7.81616400e-03 1.18400000e-01
      -11 -1    0    0    0    0 +0.0000000000e+00 +0.0000000000e+00 +4.5593999997e+01 4.5594000000e+01 5.1100000000e-04 0.0000e+00 -1.0000e+00
       11 -1    0    0    0    0 -0.0000000000e+00 -0.0000000000e+00 -4.5593999997e+01 4.5594000000e+01 5.1100000000e-04 0.0000e+00 1.0000e+00
       23  2    1    2    0    0 -1.7763568394e-15 -3.5527136788e-15 +0.0000000000e+00 9.1188000000e+01 9.1188000000e+01 1.5951e-13 0.0000e+00
  9990012  2    3    3    0    0 +6.0013529056e+00 -1.7620996451e+01 +2.5888269279e+01 5.9301980510e+01 5.0000066536e+01 4.8475e-04 0.0000e+00
      -11  1    4    4    0    0 -7.5691663601e+00 +3.7121256856e+00 +4.9875886104e+00 9.7953150485e+00 5.1100000000e-04 0.0000e+00 1.0000e+00
       11  1    4    4    0    0 +1.3982849992e+01 +1.8833578315e-01 -5.8607323779e+00 1.5162577239e+01 5.1100000000e-04 0.0000e+00 -1.0000e+00
       12  1    4    4    0    0 -4.1233072627e-01 -2.1521457920e+01 +2.6761413047e+01 3.4344088223e+01 0.0000000000e+00 0.0000e+00 -1.0000e+00
      -12  1    3    3    0    0 -6.0013529056e+00 +1.7620996451e+01 -2.5888269279e+01 3.1886019490e+01 0.0000000000e+00 0.0000e+00 1.0000e+00
</event>
<event>
 8      4 +2.2883893e-04 9.11880000e+01 7.81616400e-03 1.18400000e-01
      -11 -1    0    0    0    0 +0.0000000000e+00 +0.0000000000e+00 +4.5593999997e+01 4.5594000000e+01 5.1100000000e-04 0.0000e+00 -1.0000e+00
       11 -1    0    0    0    0 -0.0000000000e+00 -0.0000000000e+00 -4.5593999997e+01 4.5594000000e+01 5.1100000000e-04 0.0000e+00 1.0000e+00
       23  2    1    2    0    0 -1.7763568394e-15 +1.7763568394e-15 +0.0000000000e+00 9.1188000000e+01 9.1188000000e+01 9.9569e-14 0.0000e+00
 -9990012  2    3    3    0    0 +9.3411264212e+00 -1.5906557740e+01 -2.6008573509e+01 5.9301935365e+01 4.9999984200e+01 2.4750e-04 0.0000e+00
      -11  1    4    4    0    0 +1.1789267231e+01 -1.4464064962e+01 -1.5752628536e+01 2.4420100391e+01 5.1100000000e-04 0.0000e+00 1.0000e+00
       11  1    4    4    0    0 -2.1590161913e+00 -1.7281822762e+01 -4.1491010552e+00 1.7903569161e+01 5.1100000000e-04 0.0000e+00 -1.0000e+00
      -12  1    4    4    0    0 -2.8912461877e-01 +1.5839329983e+01 -6.1068439184e+00 1.6978265813e+01 0.0000000000e+00 0.0000e+00 1.0000e+00
       12  1    3    3    0    0 -9.3411264212e+00 +1.5906557740e+01 +2.6008573509e+01 3.1886064635e+01 0.0000000000e+00 0.0000e+00 -1.0000e+00
</event>
<event>
 8      4 +2.2883893e-04 9.11880000e+01 7.81616400e-03 1.18400000e-01
      -11 -1    0    0    0    0 +0.0000000000e+00 +0.0000000000e+00 +4.5593999997e+01 4.5594000000e+01 5.1100000000e-04 0.0000e+00 -1.0000e+00
       11 -1    0    0    0    0 -0.0000000000e+00 -0.0000000000e+00 -4.5593999997e+01 4.5594000000e+01 5.1100000000e-04 0.0000e+00 1.0000e+00
       23  2    1    2    0    0 +0.0000000000e+00 +0.0000000000e+00 -8.8817841970e-16 9.1188000000e+01 9.1188000000e+01 1.0784e-13 0.0000e+00
 -9990012  2    3    3    0    0 -4.1313886246e+00 -3.1195911087e+01 -5.1444661142e+00 5.9301972149e+01 5.0000051287e+01 9.2620e-05 0.0000e+00
      -11  1    4    4    0    0 -2.4332991081e+01 -1.3933785061e+01 +1.6724999373e+00 2.8089892798e+01 5.1100000000e-04 0.0000e+00 1.0000e+00
       11  1    4    4    0    0 +1.2939103260e+01 -1.2319854690e+01 +2.9142785743e+00 1.8102271477e+01 5.1100000000e-04 0.0000e+00 -1.0000e+00
      -12  1    4    4    0    0 +7.2624991966e+00 -4.9422713350e+00 -9.7312446259e+00 1.3109807874e+01 0.0000000000e+00 0.0000e+00 1.0000e+00
       12  1    3    3    0    0 +4.1313886246e+00 +3.1195911087e+01 +5.1444661142e+00 3.1886027851e+01 0.0000000000e+00 0.0000e+00 -1.0000e+00
</event>
<event>
 8      4 +2.2883893e-04 9.11880000e+01 7.81616400e-03 1.18400000e-01
      -11 -1    0    0    0    0 +0.0000000000e+00 +0.0000000000e+00 +4.5593999997e+01 4.5594000000e+01 5.1100000000e-04 0.0000e+00 1.0000e+00
       11 -1    0    0    0    0 -0.0000000000e+00 -0.0000000000e+00 -4.5593999997e+01 4.5594000000e+01 5.1100000000e-04 0.0000e+00 -1.0000e+00
       23  2    1    2    0    0 +0.0000000000e+00 -3.5527136788e-15 +0.0000000000e+00 9.1188000000e+01 9.1188000000e+01 8.8575e-14 0.0000e+00
 -9990012  2    3    3    0    0 -8.9424410498e+00 +2.3831536650e+01 +1.9204550019e+01 5.9301888094e+01 4.9999897991e+01 9.0181e-04 0.0000e+00
      -11  1    4    4    0    0 -1.7762072965e+00 +2.4496422969e+01 -4.8933546391e+00 2.5043453646e+01 5.1100000000e-04 0.0000e+00 1.0000e+00
       11  1    4    4    0    0 -1.1414913167e+01 -2.1532653954e+00 +2.0998966574e+00 1.1804505950e+01 5.1100000000e-04 0.0000e+00 -1.0000e+00
      -12  1    4    4    0    0 +4.2486794140e+00 +1.4883790765e+00 +2.1998008000e+01 2.2453928499e+01 0.0000000000e+00 0.0000e+00 1.0000e+00
       12  1    3    3    0    0 +8.9424410498e+00 -2.3831536650e+01 -1.9204550019e+01 3.1886111906e+01 0.0000000000e+00 0.0000e+00 -1.0000e+00
</event>
<event>
 8      4 +2.2883893e-04 9.11880000e+01 7.81616400e-03 1.18400000e-01
      -11 -1    0    0    0    0 +0.0000000000e+00 +0.0000000000e+00 +4.5593999997e+01 4.5594000000e+01 5.1100000000e-04 0.0000e+00 -1.0000e+00
       11 -1    0    0    0    0 -0.0000000000e+00 -0.0000000000e+00 -4.5593999997e+01 4.5594000000e+01 5.1100000000e-04 0.0000e+00 1.0000e+00
       23  2    1    2    0    0 +0.0000000000e+00 +8.8817841970e-16 +3.5527136788e-15 9.1188000000e+01 9.1188000000e+01 2.3956e-14 0.0000e+00
 -9990012  2    3    3    0    0 +9.4270721163e+00 -5.4197866200e+00 -2.9974600602e+01 5.9301945730e+01 5.0000003104e+01 2.1821e-03 0.0000e+00
      -11  1    4    4    0    0 -1.2585650549e+01 -1.0946955232e+01 +3.3031284734e+00 1.7004266717e+01 5.1100000000e-04 0.0000e+00 1.0000e+00
       11  1    4    4    0    0 +8.5378945946e+00 +1.4163244924e+00 -3.4622185468e+00 9.3214042238e+00 5.1100000000e-04 0.0000e+00 -1.0000e+00
      -12  1    4    4    0    0 +1.3474828071e+01 +4.1108441197e+00 -2.9815510528e+01 3.2976274789e+01 0.0000000000e+00 0.0000e+00 1.0000e+00
       12  1    3    3    0    0 -9.4270721163e+00 +5.4197866200e+00 +2.9974600602e+01 3.1886054270e+01 0.0000000000e+00 0.0000e+00 -1.0000e+00
</event>
<event>
 8      4 +2.2883893e-04 9.11880000e+01 7.81616400e-03 1.18400000e-01
      -11 -1    0    0    0    0 +0.0000000000e+00 +0.0000000000e+00 +4.5593999997e+01 4.5594000000e+01 5.1100000000e-04 0.0000e+00 1.0000e+00
       11 -1    0    0    0    0 -0.0000000000e+00 -0.0000000000e+00 -4.5593999997e+01 4.5594000000e+01 5.1100000000e-04 0.0000e+00 -1.0000e+00
       23  2    1    2    0    0 +1.7763568394e-15 +0.0000000000e+00 +7.1054273576e-15 9.1188000000e+01 9.1188000000e+01 2.2153e-14 0.0000e+00
 -9990012  2    3    3    0    0 +1.2785666368e+01 -8.2441626019e+00 +2.8022839145e+01 5.9301968651e+01 5.0000044906e+01 7.9091e-04 0.0000e+00
      -11  1    4    4    0    0 +1.4919891264e+01 +8.1587338774e-01 +2.5598096541e+01 2.9640029546e+01 5.1100000000e-04 0.0000e+00 1.0000e+00
       11  1    4    4    0    0 -4.5197563063e+00 -1.8120174041e+01 +6.0278272684e+00 1.9624056822e+01 5.1100000000e-04 0.0000e+00 -1.0000e+00
      -12  1    4    4    0    0 +2.3855314101e+00 +9.0601380509e+00 -3.6030846648e+00 1.0037882282e+01 0.0000000000e+00 0.0000e+00 1.0000e+00
       12  1    3    3    0    0 -1.2785666368e+01 +8.2441626019e+00 -2.8022839145e+01 3.1886031349e+01 0.0000000000e+00 0.0000e+00 -1.0000e+00
</event>
<event>
 8      3 +2.2883893e-04 9.11880000e+01 7.81616400e-03 1.18400000e-01
      -11 -1    0    0    0    0 +0.0000000000e+00 +0.0000000000e+00 +4.5593999997e+01 4.5594000000e+01 5.1100000000e-04 0.0000e+00 1.0000e+00
       11 -1    0    0    0    0 -0.0000000000e+00 -0.0000000000e+00 -4.5593999997e+01 4.5594000000e+01 5.1100000000e-04 0.0000e+00 -1.0000e+00
       23  2    1    2    0    0 +0.0000000000e+00 +0.0000000000e+00 +0.0000000000e+00 9.1188000000e+01 9.1188000000e+01 2.2802e-14 0.0000e+00
  9990012  2    3    3    0    0 -8.1556670829e+00 -2.4888500379e+01 -1.8187034556e+01 5.9301943759e+01 4.9999999509e+01 9.7323e-04 0.0000e+00
      -11  1    4    4    0    0 -2.7010033284e+00 -9.6402115668e+00 +1.4409579220e+01 1.7546084224e+01 5.1100000000e-04 0.0000e+00 1.0000e+00
       11  1    4    4    0    0 +1.3607606095e+00 -1.1712881373e+01 -4.4869450871e+00 1.2616494599e+01 5.1100000000e-04 0.0000e+00 -1.0000e+00
       12  1    4    4    0    0 -6.8154243640e+00 -3.5354074391e+00 -2.8109668689e+01 2.9139364935e+01 0.0000000000e+00 0.0000e+00 -1.0000e+00
      -12  1    3    3    0    0 +8.1556670829e+00 +2.4888500379e+01 +1.8187034556e+01 3.1886056241e+01 0.0000000000e+00 0.0000e+00 1.0000e+00
</event>
<event>
 8      4 +2.2883893e-04 9.11880000e+01 7.81616400e-03 1.18400000e-01
      -11 -1    0    0    0    0 +0.0000000000e+00 +0.0000000000e+00 +4.5593999997e+01 4.5594000000e+01 5.1100000000e-04 0.0000e+00 1.0000e+00
       11 -1    0    0    0    0 -0.0000000000e+00 -0.0000000000e+00 -4.5593999997e+01 4.5594000000e+01 5.1100000000e-04 0.0000e+00 -1.0000e+00
       23  2    1    2    0    0 +0.0000000000e+00 +1.7763568394e-15 +3.5527136788e-15 9.1188000000e+01 9.1188000000e+01 7.6422e-14 0.0000e+00
 -9990012  2    3    3    0    0 -1.5986660609e+01 -1.0274314987e+01 +2.5604406450e+01 5.9301945124e+01 5.0000001999e+01 1.1708e-04 0.0000e+00
      -11  1    4    4    0    0 -1.3697122851e+00 -2.3805881695e+00 +1.3362521232e+00 3.0543218191e+00 5.1100000000e-04 0.0000e+00 1.0000e+00
       11  1    4    4    0    0 +6.5310258271e+00 -1.9524421289e+01 -1.8678372688e+00 2.0672352100e+01 5.1100000000e-04 0.0000e+00 -1.0000e+00
      -12  1    4    4    0    0 -2.1147974151e+01 +1.1630694471e+01 +2.6135991596e+01 3.5575271205e+01 0.0000000000e+00 0.0000e+00 1.0000e+00
       12  1    3    3    0    0 +1.5986660609e+01 +1.0274314987e+01 -2.5604406450e+01 3.1886054876e+01 0.0000000000e+00 0.0000e+00 -1.0000e+00
</event>
<event>
 8      3 +2.2883893e-04 9.11880000e+01 7.81616400e-03 1.18400000e-01
      -11 -1    0    0    0    0 +0.0000000000e+00 +0.0000000000e+00 +4.5593999997e+01 4.5594000000e+01 5.1100000000e-04 0.0000e+00 1.0000e+00
       11 -1    0    0    0    0 -0.0000000000e+00 -0.0000000000e+00 -4.5593999997e+01 4.5594000000e+01 5.1100000000e-04 0.0000e+00 -1.0000e+00
       23  2    1    2    0    0 +0.0000000000e+00 +0.0000000000e+00 +0.0000000000e+00 9.1188000000e+01 9.1188000000e+01 1.1466e-13 0.0000e+00
  9990012  2    3    3    0    0 -1.9994939381e+01 -4.6200733707e+00 -2.4404398491e+01 5.9301994535e+01 5.0000092113e+01 3.6995e-04 0.0000e+00
      -11  1    4    4    0    0 +1.2056128891e-01 +2.5235836767e+00 +1.6901182399e+00 3.0396561522e+00 5.1100000000e-04 0.0000e+00 1.0000e+00
       11  1    4    4    0    0 -1.6329757550e+01 +9.4321536709e+00 -3.2921656993e+01 3.7940242539e+01 5.1100000000e-04 0.0000e+00 -1.0000e+00
       12  1    4    4    0    0 -3.7857431197e+00 -1.6575810718e+01 +6.8271402622e+00 1.8322095844e+01 0.0000000000e+00 0.0000e+00 -1.0000e+00
      -12  1    3    3    0    0 +1.9994939381e+01 +4.6200733707e+00 +2.4404398491e+01 3.1886005465e+01 0.0000000000e+00 0.0000e+00 1.0000e+00
</event>
<event>
 8      3 +2.2883893e-04 9.11880000e+01 7.81616400e-03 1.18400000e-01
      -11 -1    0    0    0    0 +0.0000000000e+00 +0.0000000000e+00 +4.5593999997e+01 4.5594000000e+01 5.1100000000e-04 0.0000e+00 1.0000e+00
       11 -1    0    0    0    0 -0.0000000000e+00 -0.0000000000e+00 -4.5593999997e+01 4.5594000000e+01 5.1100000000e-04 0.0000e+00 -1.0000e+00
       23  2    1    2    0    0 +3.5527136788e-15 +0.0000000000e+00 -8.8817841970e-16 9.1188000000e+01 9.1188000000e+01 9.9874e-14 0.0000e+00
  9990012  2    3    3    0    0 +1.2367734122e+01 +2.8710051957e+01 -6.2841971122e+00 5.9301967572e+01 5.0000042939e+01 7.8210e-05 0.0000e+00
      -11  1    4    4    0    0 +2.8686153542e+01 +9.9503587751e+00 +3.9187235922e+00 3.0614725862e+01 5.1100000000e-04 0.0000e+00 1.0000e+00
       11  1    4    4    0    0 -1.5529647030e+01 +1.7915318066e+01 -1.1982702078e+01 2.6565272587e+01 5.1100000000e-04 0.0000e+00 -1.0000e+00
       12  1    4    4    0    0 -7.8877239011e-01 +8.4437511597e-01 +1.7797813736e+00 2.1219691227e+00 0.0000000000e+00 0.0000e+00 -1.0000e+00
      -12  1    3    3    0    0 -1.2367734122e+01 -2.8710051957e+01 +6.2841971122e+00 3.1886032428e+01 0.0000000000e+00 0.0000e+00 1.0000e+00
</event>
<event>
 8      4 +2.2883893e-04 9.11880000e+01 7.81616400e-03 1.18400000e-01
      -11 -1    0    0    0    0 +0.0000000000e+00 +0.0000000000e+00 +4.5593999997e+01 4.5594000000e+01 5.1100000000e-04 0.0000e+00 -1.0000e+00
       11 -1    0    0    0    0 -0.0000000000e+00 -0.0000000000e+00 -4.5593999997e+01 4.5594000000e+01 5.1100000000e-04 0.0000e+00 1.0000e+00
       23  2    1    2    0    0 -8.8817841970e-16 -8.8817841970e-16 -7.1054273576e-15 9.1188000000e+01 9.1188000000e+01 1.1854e-13 0.0000e+00
 -9990012  2    3    3    0    0 +6.5196093002e+00 -4.4374747953e+00 -3.0895360739e+01 5.9301955981e+01 5.0000021799e+01 1.1150e-03 0.0000e+00
      -11  1    4    4    0    0 +1.6979928380e+01 -9.2070505316e+00 -3.2013078706e+01 3.7388834641e+01 5.1100000000e-04 0.0000e+00 1.0000e+00
       11  1    4    4    0    0 -5.1785608398e+00 +9.5861028791e+00 +6.7462779496e+00 1.2814957168e+01 5.1100000000e-04 0.0000e+00 -1.0000e+00
      -12  1    4    4    0    0 -5.2817582399e+00 -4.8165271429e+00 -5.6285599825e+00 9.0981641719e+00 0.0000000000e+00 0.0000e+00 1.0000e+00
       12  1    3    3    0    0 -6.5196093002e+00 +4.4374747953e+00 +3.0895360739e+01 3.1886044019e+01 0.0000000000e+00 0.0000e+00 -1.0000e+00
</event>
<event>
 8      4 +2.2883893e-04 9.11880000e+01 7.81616400e-03 1.18400000e-01
      -11 -1    0    0    0    0 +0.0000000000e+00 +0.0000000000e+00 +4.5593999997e+01 4.5594000000e+01 5.1100000000e-04 0.0000e+00 1.0000e+00
       11 -1    0    0    0    0 -0.0000000000e+00 -0.0000000000e+00 -4.5593999997e+01 4.5594000000e+01 5.1100000000e-04 0.0000e+00 -1.0000e+00
       23  2    1    2    0    0 -1.3322676296e-15 +5.3290705182e-15 +3.5527136788e-15 9.1188000000e+01 9.1188000000e+01 9.3918e-14 0.0000e+00
 -9990012  2    3    3    0    0 +1.1957560746e+00 +1.1003361710e+01 +2.9903521188e+01 5.9301884198e+01 4.9999890885e+01 4.8181e-05 0.0000e+00
      -11  1    4    4    0    0 +1.4078258311e+01 +1.9833849608e+01 +2.0039539379e+01 3.1514474232e+01 5.1100000000e-04 0.0000e+00 1.0000e+00
       11  1    4    4    0    0 -1.2025955579e+01 +2.9483254883e+00 +1.0094176722e+01 1.5975250694e+01 5.1100000000e-04 0.0000e+00 -1.0000e+00
      -12  1    4    4    0    0 -8.5654665759e-01 -1.1778813387e+01 -2.3019491324e-01 1.1812159272e+01 0.0000000000e+00 0.0000e+00 1.0000e+00
       12  1    3    3    0    0 -1.1957560746e+00 -1.1003361710e+01 -2.9903521188e+01 3.1886115802e+01 0.0000000000e+00 0.0000e+00 -1.0000e+00
</event>
<event>
 8      4 +2.2883893e-04 9.11880000e+01 7.81616400e-03 1.18400000e-01
      -11 -1    0    0    0    0 +0.0000000000e+00 +0.0000000000e+00 +4.5593999997e+01 4.5594000000e+01 5.1100000000e-04 0.0000e+00 1.0000e+00
       11 -1    0    0    0    0 -0.0000000000e+00 -0.0000000000e+00 -4.5593999997e+01 4.5594000000e+01 5.1100000000e-04 0.0000e+00 -1.0000e+00
       23  2    1    2    0    0 +0.0000000000e+00 +0.0000000000e+00 +0.0000000000e+00 9.1188000000e+01 9.1188000000e+01 4.2174e-14 0.0000e+00
 -9990012  2    3    3    0    0 +1.9299778420e+01 +2.4498208788e+01 +6.6390452986e+00 5.9301943433e+01 4.9999998915e+01 3.0171e-03 0.0000e+00
      -11  1    4    4    0    0 -6.1628517899e-01 -2.1882701949e+00 -7.9734925305e+00 8.2912554697e+00 5.1100000000e-04 0.0000e+00 1.0000e+00
       11  1    4    4    0    0 +1.6008440008e+00 +1.4844298489e+01 -1.0118690484e+01 1.8036180209e+01 5.1100000000e-04 0.0000e+00 -1.0000e+00
      -12  1    4    4    0    0 +1.8315219599e+01 +1.1842180494e+01 +2.4731228313e+01 3.2974507755e+01 0.0000000000e+00 0.0000e+00 1.0000e+00
       12  1    3    3    0    0 -1.9299778420e+01 -2.4498208788e+01 -6.6390452986e+00 3.1886056567e+01 0.0000000000e+00 0.0000e+00 -1.0000e+00
</event>
<event>
 8      3 +2.2883893e-04 9.11880000e+01 7.81616400e-03 1.18400000e-01
      -11 -1    0    0    0    0 +0.0000000000e+00 +0.0000000000e+00 +4.5593999997e+01 4.5594000000e+01 5.1100000000e-04 0.0000e+00 -1.0000e+00
       11 -1    0    0    0    0 -0.0000000000e+00 -0.0000000000e+00 -4.5593999997e+01 4.5594000000e+01 5.1100000000e-04 0.0000e+00 1.0000e+00
       23  2    1    2    0    0 -1.7763568394e-15 -3.5527136788e-15 +0.0000000000e+00 9.1188000000e+01 9.1188000000e+01 8.7459e-14 0.0000e+00
  9990012  2    3    3    0    0 -9.7971738231e+00 -2.5294212649e+01 +1.6761203172e+01 5.9301956968e+01 5.0000023600e+01 3.1300e-03 0.0000e+00
      -11  1    4    4    0    0 -1.6929430534e+01 +1.6578138531e-01 -8.8106717227e+00 1.9085623860e+01 5.1100000000e-04 0.0000e+00 1.0000e+00
       11  1    4    4    0    0 +1.1559057526e+01 -1.1549197771e+01 +1.1882607134e+01 2.0203765307e+01 5.1100000000e-04 0.0000e+00 -1.0000e+00
       12  1    4    4    0    0 -4.4268008148e+00 -1.3910796263e+01 +1.3689267761e+01 2.0012567800e+01 0.0000000000e+00 0.0000e+00 -1.0000e+00
      -12  1    3    3    0    0 +9.7971738231e+00 +2.5294212649e+01 -1.6761203172e+01 3.1886043032e+01 0.0000000000e+00 0.0000e+00 1.0000e+00
</event>
<event>
 8      3 +2.2883893e-04 9.11880000e+01 7.81616400e-03 1.18400000e-01
      -11 -1    0    0    0    0 +0.0000000000e+00 +0.0000000000e+00 +4.5593999997e+01 4.5594000000e+01 5.1100000000e-04 0.0000e+00 1.0000e+00
       11 -1    0    0    0    0 -0.0000000000e+00 -0.0000000000e+00 -4.5593999997e+01 4.5594000000e+01 5.1100000000e-04 0.0000e+00 -1.0000e+00
       23  2    1    2    0    0 -7.1054273576e-15 +0.0000000000e+00 +0.0000000000e+00 9.1188000000e+01 9.1188000000e+01 1.3148e-13 0.0000e+00
  9990012  2    3    3    0    0 +2.5872400640e+01 +1.0288961055e+01 +1.5539556361e+01 5.9301927078e+01 4.9999969088e+01 1.3504e-03 0.0000e+00
      -11  1    4    4    0    0 -7.9945412337e+00 -8.7788741317e+00 +5.8006684301e+00 1.3214729473e+01 5.1100000000e-04 0.0000e+00 1.0000e+00
       11  1    4    4    0    0 +4.8543256332e+00 +4.1237182105e+00 -6.9543250203e+00 9.4303852510e+00 5.1100000000e-04 0.0000e+00 -1.0000e+00
       12  1    4    4    0    0 +2.9012616240e+01 +1.4944116976e+01 +1.6693212951e+01 3.6656812354e+01 0.0000000000e+00 0.0000e+00 -1.0000e+00
      -12  1    3    3    0    0 -2.5872400640e+01 -1.0288961055e+01 -1.5539556361e+01 3.1886072922e+01 0.0000000000e+00 0.0000e+00 1.0000e+00
</event>
<event>
 8      3 +2.2883893e-04 9.11880000e+01 7.81616400e-03 1.18400000e-01
      -11 -1    0    0    0    0 +0.0000000000e+00 +0.0000000000e+00 +4.5593999997e+01 4.5594000000e+01 5.1100000000e-04 0.0000e+00 -1.0000e+00
       11 -1    0    0    0    0 -0.0000000000e+00 -0.0000000000e+00 -4.5593999997e+01 4.5594000000e+01 5.1100000000e-04 0.0000e+00 1.0000e+00
       23  2    1    2    0    0 +0.0000000000e+00 +1.3322676296e-15 +3.5527136788e-15 9.1188000000e+01 9.1188000000e+01 2.0914e-14 0.0000e+00
  9990012  2    3    3    0    0 -8.7457408844e+00 +3.7086162144e+00 +3.0437912878e+01 5.9302135448e+01 5.0000349104e+01 1.6606e-03 0.0000e+00
      -11  1    4    4    0    0 -1.0759972636e+01 -1.1219106790e+01 -2.5147327138e+00 1.5747039378e+01 5.1100000000e-04 0.0000e+00 1.0000e+00
       11  1    4    4    0    0 +8.9353449438e+00 +2.2132952795e+00 +2.5830535935e+01 2.7421809791e+01 5.1100000000e-04 0.0000e+00 -1.0000e+00
       12  1    4    4    0    0 -6.9211131923e+00 +1.2714427725e+01 +7.1221096566e+00 1.6133286279e+01 0.0000000000e+00 0.0000e+00 -1.0000e+00
      -12  1    3    3    0    0 +8.7457408844e+00 -3.7086162144e+00 -3.0437912878e+01 3.1885864552e+01 0.0000000000e+00 0.0000e+00 1.0000e+00
</event>
<event>
 8      4 +2.2883893e-04 9.11880000e+01 7.81616400e-03 1.18400000e-01
      -11 -1    0    0    0    0 +0.0000000000e+00 +0.0000000000e+00 +4.5593999997e+01 4.5594000000e+01 5.1100000000e-04 0.0000e+00 1.0000e+00
       11 -1    0    0    0    0 -0.0000000000e+00 -0.0000000000e+00 -4.5593999997e+01 4.5594000000e+01 5.1100000000e-04 0.0000e+00 -1.0000e+00
       23  2    1    2    0    0 +1.7763568394e-15 -3.5527136788e-15 -7.1054273576e-15 9.1188000000e+01 9.1188000000e+01 1.3291e-14 0.0000e+00
 -9990012  2    3    3    0    0 -1.4580626982e+01 -7.8045371194e+00 +2.7262001016e+01 5.9301918675e+01 4.9999953763e+01 2.3409e-03 0.0000e+00
      -11  1    4    4    0    0 -1.1529487860e+00 -1.9332934336e+01 +4.1598570576e+00 1.9808989170e+01 5.1100000000e-04 0.0000e+00 1.0000e+00
       11  1    4    4    0    0 -1.7800683103e+01 +1.7474409838e+00 +2.2525909493e+01 2.8763422391e+01 5.1100000000e-04 0.0000e+00 -1.0000e+00
      -12  1    4    4    0    0 +4.3730049066e+00 +9.7809562329e+00 +5.7623446613e-01 1.0729507114e+01 0.0000000000e+00 0.0000e+00 1.0000e+00
       12  1    3    3    0    0 +1.4580626982e+01 +7.8045371194e+00 -2.7262001016e+01 3.1886081325e+01 0.0000000000e+00 0.0000e+00 -1.0000e+00
</event>
<event>
 8      4 +2.2883893e-04 9.11880000e+01 7.81616400e-03 1.18400000e-01
      -11 -1    0    0    0    0 +0.0000000000e+00 +0.0000000000e+00 +4.5593999997e+01 4.5594000000e+01 5.1100000000e-04 0.0000e+00 -1.0000e+00
       11 -1    0    0    0    0 -0.0000000000e+00 -0.0000000000e+00 -4.5593999997e+01 4.5594000000e+01 5.1100000000e-04 0.0000e+00 1.0000e+00
       23  2    1    2    0    0 +0.0000000000e+00 -7.1054273576e-15 +0.0000000000e+00 9.1188000000e+01 9.1188000000e+01 8.3129e-14 0.0000e+00
 -9990012  2    3    3    0    0 +1.2416277073e+01 +2.3360556061e+01 -1.7800028710e+01 5.9301944460e+01 5.0000000789e+01 1.5029e-04 0.0000e+00
      -11  1    4    4    0    0 +5.1879291722e+00 +2.8677374155e+00 +2.4988914000e-01 5.9330406896e+00 5.1100000000e-04 0.0000e+00 1.0000e+00
       11  1    4    4    0    0 +1.3017612678e+01 +2.3943044711e+01 +6.4106776733e+00 2.7996864437e+01 5.1100000000e-04 0.0000e+00 -1.0000e+00
      -12  1    4    4    0    0 -5.7892647771e+00 -3.4502260655e+00 -2.4460595523e+01 2.5372039333e+01 0.0000000000e+00 0.0000e+00 1.0000e+00
       12  1    3    3    0    0 -1.2416277073e+01 -2.3360556061e+01 +1.7800028710e+01 3.1886055540e+01 0.0000000000e+00 0.0000e+00 -1.0000e+00
</event>
<event>
 8      4 +2.2883893e-04 9.11880000e+01 7.81616400e-03 1.18400000e-01
      -11 -1    0    0    0    0 +0.0000000000e+00 +0.0000000000e+00 +4.5593999997e+01 4.5594000000e+01 5.1100000000e-04 0.0000e+00 -1.0000e+00
       11 -1    0    0    0    0 -0.0000000000e+00 -0.0000000000e+00 -4.5593999997e+01 4.5594000000e+01 5.1100000000e-04 0.0000e+00 1.0000e+00
       23  2    1    2    0    0 -3.5527136788e-15 +0.0000000000e+00 +8.8817841970e-16 9.1188000000e+01 9.1188000000e+01 1.0670e-13 0.0000e+00
 -9990012  2    3    3    0    0 +2.6330851891e+01 -1.6490471149e+01 -7.1743280575e+00 5.9301946887e+01 5.0000005215e+01 4.1467e-04 0.0000e+00
      -11  1    4    4    0    0 -3.6216363971e+00 +7.0444706144e+00 -5.4331806114e+00 9.6052208849e+00 5.1100000000e-04 0.0000e+00 1.0000e+00
       11  1    4    4    0    0 +6.8630529164e+00 +7.9792212041e+00 +7.3918870174e-01 1.0550633467e+01 5.1100000000e-04 0.0000e+00 -1.0000e+00
      -12  1    4    4    0    0 +2.3089435372e+01 -3.1514162968e+01 -2.4803361479e+00 3.9146092535e+01 0.0000000000e+00 0.0000e+00 1.0000e+00
       12  1    3    3    0    0 -2.6330851891e+01 +1.6490471149e+01 +7.1743280575e+00 3.1886053113e+01 0.0000000000e+00 0.0000e+00 -1.0000e+00
</event>
<event>
 8      3 +2.2883893e-04 9.11880000e+01 7.81616400e-03 1.18400000e-01
      -11 -1    0    0    0    0 +0.0000000000e+00 +0.0000000000e+00 +4.5593999997e+01 4.5594000000e+01 5.1100000000e-04 0.0000e+00 -1.0000e+00
       11 -1    0    0    0    0 -0.0000000000e+00 -0.0000000000e+00 -4.5593999997e+01 4.5594000000e+01 5.1100000000e-04 0.0000e+00 1.0000e+00
       23  2    1    2    0    0 +0.0000000000e+00 -7.1054273576e-15 -3.5527136788e-15 9.1188000000e+01 9.1188000000e+01 2.5818e-15 0.0000e+00
  9990012  2    3    3    0    0 +8.5605687764e+00 +2.5764050051e+01 +1.6722767701e+01 5.9301943920e+01 4.9999999803e+01 6.1084e-04 0.0000e+00
      -11  1    4    4    0    0 -1.7313590206e+01 -1.9424138390e+00 +6.4266744987e+00 1.8569747513e+01 5.1100000000e-04 0.0000e+00 1.0000e+00
       11  1    4    4    0    0 +1.1162432945e+01 +5.7375492674e+00 +6.1243576662e+00 1.3965211704e+01 5.1100000000e-04 0.0000e+00 -1.0000e+00
       12  1    4    4    0    0 +1.4711726037e+01 +2.1968914622e+01 +4.1717355356e+00 2.6766984702e+01 0.0000000000e+00 0.0000e+00 -1.0000e+00
      -12  1    3    3    0    0 -8.5605687764e+00 -2.5764050051e+01 -1.6722767701e+01 3.1886056080e+01 0.0000000000e+00 0.0000e+00 1.0000e+00
</event>
<event>
 8      3 +2.2883893e-04 9.11880000e+01 7.81616400e-03 1.18400000e-01
      -11 -1    0    0    0    0 +0.0000000000e+00 +0.0000000000e+00 +4.5593999997e+01 4.5594000000e+01 5.1100000000e-04 0.0000e+00 -1.0000e+00
       11 -1    0    0    0    0 -0.0000000000e+00 -0.0000000000e+00 -4.5593999997e+01 4.5594000000e+01 5.1100000000e-04 0.0000e+00 1.0000e+00
       23  2    1    2    0    0 +0.0000000000e+00 -1.7763568394e-15 -3.5527136788e-15 9.1188000000e+01 9.1188000000e+01 5.4323e-14 0.0000e+00
  9990012  2    3    3    0    0 -2.3590667393e+01 +5.7220624354e+00 +2.0675093497e+01 5.9301935996e+01 4.9999985353e+01 2.1667e-03 0.0000e+00
      -11  1    4    4    0    0 -1.7022268002e+01 -1.2491116377e+01 -3.8324164577e+00 2.1458634916e+01 5.1100000000e-04 0.0000e+00 1.0000e+00
       11  1    4    4    0    0 -8.1608021439e+00 -1.0162384968e+00 +1.2982844749e+01 1.5368334013e+01 5.1100000000e-04 0.0000e+00 -1.0000e+00
       12  1    4    4    0    0 +1.5924027536e+00 +1.9229417309e+01 +1.1524665206e+01 2.2474967067e+01 0.0000000000e+00 0.0000e+00 -1.0000e+00
      -12  1    3    3    0    0 +2.3590667393e+01 -5.7220624354e+00 -2.0675093497e+01 3.1886064004e+01 0.0000000000e+00 0.0000e+00 1.0000e+00
</event>
<event>
 8      4 +2.2883893e-04 9.11880000e+01 7.81616400e-03 1.18400000e-01
      -11 -1    0    0    0    0 +0.0000000000e+00 +0.0000000000e+00 +4.5593999997e+01 4.5594000000e+01 5.1100000000e-04 0.0000e+00 -1.0000e+00
       11 -1    0    0    0    0 -0.0000000000e+00 -0.0000000000e+00 -4.5593999997e+01 4.5594000000e+01 5.1100000000e-04 0.0000e+00 1.0000e+00
       23  2    1    2    0    0 -3.5527136788e-15 -1.7763568394e-15 -3.5527136788e-15 9.1188000000e+01 9.1188000000e+01 6.4512e-14 0.0000e+00
 -9990012  2    3    3    0    0 -1.1866221273e+01 -1.0083392641e+01 -2.7825163965e+01 5.9301925232e+01 4.9999965721e+01 2.1034e-03 0.0000e+00
      -11  1    4    4    0    0 +4.9936996802e+00 +8.0160101395e+00 +6.6590810392e-01 9.4676760040e+00 5.1100000000e-04 0.0000e+00 1.0000e+00
       11  1    4    4    0    0 +4.5213088903e+00 +6.7351125312e+00 -5.9340514590e+00 1.0050718475e+01 5.1100000000e-04 0.0000e+00 -1.0000e+00
      -12  1    4    4    0    0 -2.1381229843e+01 -2.4834515311e+01 -2.2557020610e+01 3.9783530753e+01 0.0000000000e+00 0.0000e+00 1.0000e+00
       12  1    3    3    0    0 +1.1866221273e+01 +1.0083392641e+01 +2.7825163965e+01 3.1886074768e+01 0.0000000000e+00 0.0000e+00 -1.0000e+00
</event>
<event>
 8      3 +2.2883893e-04 9.11880000e+01 7.81616400e-03 1.18400000e-01
      -11 -1    0    0    0    0 +0.0000000000e+00 +0.0000000000e+00 +4.5593999997e+01 4.5594000000e+01 5.1100000000e-04 0.0000e+00 1.0000e+00
       11 -1    0    0    0    0 -0.0000000000e+00 -0.0000000000e+00 -4.5593999997e+01 4.5594000000e+01 5.1100000000e-04 0.0000e+00 -1.0000e+00
       23  2    1    2    0    0 -3.5527136788e-15 -1.7763568394e-15 +0.0000000000e+00 9.1188000000e+01 9.1188000000e+01 1.3312e-13 0.0000e+00
  9990012  2    3    3    0    0 +2.2208704420e+01 +9.6232059265e+00 -2.0757850334e+01 5.9301937296e+01 4.9999987722e+01 2.3443e-04 0.0000e+00
      -11  1    4    4    0    0 -2.6892029303e+00 +5.0537387868e+00 +5.4209744653e+00 7.8841012512e+00 5.1100000000e-04 0.0000e+00 1.0000e+00
       11  1    4    4    0    0 +1.7307321321e+01 -1.2727046796e+01 -2.4301713556e+01 3.2436004277e+01 5.1100000000e-04 0.0000e+00 -1.0000e+00
       12  1    4    4    0    0 +7.5905860292e+00 +1.7296513936e+01 -1.8771112430e+00 1.8981831767e+01 0.0000000000e+00 0.0000e+00 -1.0000e+00
      -12  1    3    3    0    0 -2.2208704420e+01 -9.6232059265e+00 +2.0757850334e+01 3.1886062704e+01 0.0000000000e+00 0.0000e+00 1.0000e+00
</event>
<event>
 8      3 +2.2883893e-04 9.11880000e+01 7.81616400e-03 1.18400000e-01
      -11 -1    0    0    0    0 +0.0000000000e+00 +0.0000000000e+00 +4.5593999997e+01 4.5594000000e+01 5.1100000000e-04 0.0000e+00 1.0000e+00
       11 -1    0    0    0    0 -0.0000000000e+00 -0.0000000000e+00 -4.5593999997e+01 4.5594000000e+01 5.1100000000e-04 0.0000e+00 -1.0000e+00
       23  2    1    2    0    0 +1.7763568394e-15 +3.5527136788e-15 +0.0000000000e+00 9.1188000000e+01 9.1188000000e+01 4.3865e-14 0.0000e+00
  9990012  2    3    3    0    0 -1.3910742264e+01 -1.9261674295e+01 -2.1265017086e+01 5.9301924691e+01 4.9999964734e+01 1.3615e-03 0.0000e+00
      -11  1    4    4    0    0 -4.1672920457e+00 +2.5645106378e-03 +1.3183713525e+01 1.3826663811e+01 5.1100000000e-04 0.0000e+00 1.0000e+00
       11  1    4    4    0    0 +6.0320020024e+00 -5.8883061631e+00 -1.4305408430e+01 1.6604273794e+01 5.1100000000e-04 0.0000e+00 -1.0000e+00
       12  1    4    4    0    0 -1.5775452221e+01 -1.3375932642e+01 -2.0143322180e+01 2.8870987085e+01 0.0000000000e+00 0.0000e+00 -1.0000e+00
      -12  1    3    3    0    0 +1.3910742264e+01 +1.9261674295e+01 +2.1265017086e+01 3.1886075309e+01 0.0000000000e+00 0.0000e+00 1.0000e+00
</event>
<event>
 8      3 +2.2883893e-04 9.11880000e+01 7.81616400e-03 1.18400000e-01
      -11 -1    0    0    0    0 +0.0000000000e+00 +0.0000000000e+00 +4.5593999997e+01 4.5594000000e+01 5.1100000000e-04 0.0000e+00 1.0000e+00
       11 -1    0    0    0    0 -0.0000000000e+00 -0.0000000000e+00 -4.5593999997e+01 4.5594000000e+01 5.1100000000e-04 0.0000e+00 -1.0000e+00
       23  2    1    2    0    0 +0.0000000000e+00 -1.7763568394e-15 +1.7763568394e-15 9.1188000000e+01 9.1188000000e+01 4.9881e-14 0.0000e+00
  9990012  2    3    3    0    0 +2.7050001978e+01 -1.2725726132e+01 -1.1093842398e+01 5.9301952083e+01 5.0000014692e+01 7.7426e-04 0.0000e+00
      -11  1    4    4    0    0 +1.2231412624e+01 -1.4908878270e+01 -2.0743837277e+01 2.8322939313e+01 5.1100000000e-04 0.0000e+00 -1.0000e+00
       11  1    4    4    0    0 -4.9778784681e+00 -5.7527815477e+00 +5.1353128854e+00 9.1785188496e+00 5.1100000000e-04 0.0000e+00 1.0000e+00
       12  1    4    4    0    0 +1.9796467822e+01 +7.9359336860e+00 +4.5146819944e+00 2.1800493921e+01 0.0000000000e+00 0.0000e+00 -1.0000e+00
      -12  1    3    3    0    0 -2.7050001978e+01 +1.2725726132e+01 +1.1093842398e+01 3.1886047917e+01 0.0000000000e+00 0.0000e+00 1.0000e+00
</event>
<event>
 7      4 +2.2883893e-04 5.93019400e+01 7.81616400e-03 1.26660500e-01
      -11 -1    0    0    0    0 +0.0000000000e+00 +0.0000000000e+00 +4.5593999997e+01 4.5594000000e+01 5.1100000000e-04 0.0000e+00 1.0000e+00
       11 -1    0    0    0    0 -0.0000000000e+00 -0.0000000000e+00 -4.5593999997e+01 4.5594000000e+01 5.1100000000e-04 0.0000e+00 -1.0000e+00
 -9990012  2    1    2    0    0 +2.8286928067e+01 +1.3787818478e+00 +1.4651596707e+01 5.9301943096e+01 4.9999998300e+01 7.8317e-03 0.0000e+00
      -11  1    3    3    0    0 -2.3620809512e+00 +3.0768625890e-01 +1.0663982760e+00 2.6098472749e+00 5.1100000000e-04 0.0000e+00 1.0000e+00
       11  1    3    3    0    0 -6.6589356879e+00 -2.1612176008e+00 -1.0168950142e+01 1.2345842752e+01 5.1100000000e-04 0.0000e+00 -1.0000e+00
      -12  1    3    3    0    0 +3.7307944706e+01 +3.2323131897e+00 +2.3754148573e+01 4.4346253068e+01 0.0000000000e+00 0.0000e+00 1.0000e+00
       12  1    1    2    0    0 -2.8286928067e+01 -1.3787818478e+00 -1.4651596707e+01 3.1886056904e+01 0.0000000000e+00 0.0000e+00 -1.0000e+00
</event>
<event>
 8      4 +2.2883893e-04 9.11880000e+01 7.81616400e-03 1.18400000e-01
      -11 -1    0    0    0    0 +0.0000000000e+00 +0.0000000000e+00 +4.5593999997e+01 4.5594000000e+01 5.1100000000e-04 0.0000e+00 -1.0000e+00
       11 -1    0    0    0    0 -0.0000000000e+00 -0.0000000000e+00 -4.5593999997e+01 4.5594000000e+01 5.1100000000e-04 0.0000e+00 1.0000e+00
       23  2    1    2    0    0 +3.5527136788e-15 +8.8817841970e-16 -7.1054273576e-15 9.1188000000e+01 9.1188000000e+01 1.9204e-14 0.0000e+00
 -9990012  2    3    3    0    0 +2.5230180329e+01 +6.8423319491e+00 -1.8257612502e+01 5.9301954146e+01 5.0000018453e+01 1.1715e-03 0.0000e+00
      -11  1    4    4    0    0 +1.0231078649e+01 +2.6012051857e+00 +2.9420010223e+00 1.0958859842e+01 5.1100000000e-04 0.0000e+00 1.0000e+00
       11  1    4    4    0    0 -5.2121637404e+00 -1.5511038794e+00 +9.6107731948e+00 1.1042623591e+01 5.1100000000e-04 0.0000e+00 -1.0000e+00
      -12  1    4    4    0    0 +2.0211265420e+01 +5.7922306428e+00 -3.0810386719e+01 3.7300470714e+01 0.0000000000e+00 0.0000e+00 1.0000e+00
       12  1    3    3    0    0 -2.5230180329e+01 -6.8423319491e+00 +1.8257612502e+01 3.1886045854e+01 0.0000000000e+00 0.0000e+00 -1.0000e+00
</event>
<event>
 8      3 +2.2883893e-04 9.11880000e+01 7.81616400e-03 1.18400000e-01
      -11 -1    0    0    0    0 +0.0000000000e+00 +0.0000000000e+00 +4.5593999997e+01 4.5594000000e+01 5.1100000000e-04 0.0000e+00 -1.0000e+00
       11 -1    0    0    0    0 -0.0000000000e+00 -0.0000000000e+00 -4.5593999997e+01 4.5594000000e+01 5.1100000000e-04 0.0000e+00 1.0000e+00
       23  2    1    2    0    0 -8.8817841970e-16 +0.0000000000e+00 +0.0000000000e+00 9.1188000000e+01 9.1188000000e+01 5.6262e-15 0.0000e+00
  9990012  2    3    3    0    0 +7.0816769873e+00 +1.5279964205e+01 +2.7075713635e+01 5.9301925863e+01 4.9999966872e+01 1.8989e-03 0.0000e+00
      -11  1    4    4    0    0 -2.7381909340e+00 -1.1070747969e+01 +7.2321667449e+00 1.3504198839e+01 5.1100000000e-04 0.0000e+00 1.0000e+00
       11  1    4    4    0    0 -7.4081639506e+00 +2.0400796117e+01 +4.9537238493e+00 2.2262361860e+01 5.1100000000e-04 0.0000e+00 -1.0000e+00
       12  1    4    4    0    0 +1.7228031872e+01 +5.9499160571e+00 +1.4889823040e+01 2.3535365165e+01 0.0000000000e+00 0.0000e+00 -1.0000e+00
      -12  1    3    3    0    0 -7.0816769873e+00 -1.5279964205e+01 -2.7075713635e+01 3.1886074137e+01 0.0000000000e+00 0.0000e+00 1.0000e+00
</event>
<event>
 8      3 +2.2883893e-04 9.11880000e+01 7.81616400e-03 1.18400000e-01
      -11 -1    0    0    0    0 +0.0000000000e+00 +0.0000000000e+00 +4.5593999997e+01 4.5594000000e+01 5.1100000000e-04 0.0000e+00 1.0000e+00
       11 -1    0    0    0    0 -0.0000000000e+00 -0.0000000000e+00 -4.5593999997e+01 4.5594000000e+01 5.1100000000e-04 0.0000e+00 -1.0000e+00
       23  2    1    2    0    0 +0.0000000000e+00 +0.0000000000e+00 +0.0000000000e+00 9.1188000000e+01 9.1188000000e+01 2.1681e-14 0.0000e+00
  9990012  2    3    3    0    0 -1.1093031524e+01 +2.0029337426e+01 -2.2192231209e+01 5.9301877122e+01 4.9999877980e+01 3.9473e-03 0.0000e+00
      -11  1    4    4    0    0 +1.4464111960e+01 +1.5879497769e+00 -1.1988796521e+01 1.8853736011e+01 5.1100000000e-04 0.0000e+00 1.0000e+00
       11  1    4    4    0    0 -2.1303457135e+00 -2.9892803914e+00 +4.2046584314e+00 5.5815161832e+00 5.1100000000e-04 0.0000e+00 -1.0000e+00
       12  1    4    4    0    0 -2.3426797771e+01 +2.1430668041e+01 -1.4408093119e+01 3.4866624927e+01 0.0000000000e+00 0.0000e+00 -1.0000e+00
      -12  1    3    3    0    0 +1.1093031524e+01 -2.0029337426e+01 +2.2192231209e+01 3.1886122878e+01 0.0000000000e+00 0.0000e+00 1.0000e+00
</event>
<event>
 8      4 +2.2883893e-04 9.11880000e+01 7.81616400e-03 1.18400000e-01
      -11 -1    0    0    0    0 +0.0000000000e+00 +0.0000000000e+00 +4.5593999997e+01 4.5594000000e+01 5.1100000000e-04 0.0000e+00 -1.0000e+00
       11 -1    0    0    0    0 -0.0000000000e+00 -0.0000000000e+00 -4.5593999997e+01 4.5594000000e+01 5.1100000000e-04 0.0000e+00 1.0000e+00
       23  2    1    2    0    0 +3.5527136788e-15 +0.0000000000e+00 +3.5527136788e-15 9.1188000000e+01 9.1188000000e+01 1.4128e-15 0.0000e+00
 -9990012  2    3    3    0    0 -4.6791047725e+00 +2.9841047367e-01 -3.1539514418e+01 5.9301889544e+01 4.9999900635e+01 2.6916e-03 0.0000e+00
      -11  1    4    4    0    0 -2.2287570779e+01 -8.9572943581e+00 -5.7084483257e+00 2.4689174065e+01 5.1100000000e-04 0.0000e+00 1.0000e+00
       11  1    4    4    0    0 -6.3916534009e-01 +3.4354749604e+00 -6.6157932630e+00 7.4819610595e+00 5.1100000000e-04 0.0000e+00 -1.0000e+00
      -12  1    4    4    0    0 +1.8247631346e+01 +5.8202298714e+00 -1.9215272829e+01 2.7130754420e+01 0.0000000000e+00 0.0000e+00 1.0000e+00
       12  1    3    3    0    0 +4.6791047725e+00 -2.9841047367e-01 +3.1539514418e+01 3.1886110456e+01 0.0000000000e+00 0.0000e+00 -1.0000e+00
</event>
<event>
 8      4 +2.2883893e-04 9.11880000e+01 7.81616400e-03 1.18400000e-01
      -11 -1    0    0    0    0 +0.0000000000e+00 +0.0000000000e+00 +4.5593999997e+01 4.5594000000e+01 5.1100000000e-04 0.0000e+00 -1.0000e+00
       11 -1    0    0    0    0 -0.0000000000e+00 -0.0000000000e+00 -4.5593999997e+01 4.5594000000e+01 5.1100000000e-04 0.0000e+00 1.0000e+00
       23  2    1    2    0    0 +1.3322676296e-15 +3.5527136788e-15 +2.6645352591e-15 9.1188000000e+01 9.1188000000e+01 1.2052e-14 0.0000e+00
 -9990012  2    3    3    0    0 -3.2609724828e+00 +3.1607087117e+01 +2.6607242622e+00 5.9301931708e+01 4.9999977532e+01 5.4987e-04 0.0000e+00
      -11  1    4    4    0    0 +3.5448218241e+00 +2.5164235570e+01 +1.1105428905e+01 2.7733284425e+01 5.1100000000e-04 0.0000e+00 1.0000e+00
       11  1    4    4    0    0 +3.5795730823e+00 +3.7989287913e+00 +9.4007451771e+00 1.0752637516e+01 5.1100000000e-04 0.0000e+00 -1.0000e+00
      -12  1    4    4    0    0 -1.0385367389e+01 +2.6439227558e+00 -1.7845449820e+01 2.0816009767e+01 0.0000000000e+00 0.0000e+00 1.0000e+00
       12  1    3    3    0    0 +3.2609724828e+00 -3.1607087117e+01 -2.6607242622e+00 3.1886068292e+01 0.0000000000e+00 0.0000e+00 -1.0000e+00
</event>
<event>
 8      3 +2.2883893e-04 9.11880000e+01 7.81616400e-03 1.18400000e-01
      -11 -1    0    0    0    0 +0.0000000000e+00 +0.0000000000e+00 +4.5593999997e+01 4.5594000000e+01 5.1100000000e-04 0.0000e+00 -1.0000e+00
       11 -1    0    0    0    0 -0.0000000000e+00 -0.0000000000e+00 -4.5593999997e+01 4.5594000000e+01 5.1100000000e-04 0.0000e+00 1.0000e+00
       23  2    1    2    0    0 +0.0000000000e+00 -3.5527136788e-15 +0.0000000000e+00 9.1188000000e+01 9.1188000000e+01 7.1746e-15 0.0000e+00
  9990012  2    3    3    0    0 -1.8642515056e+01 -2.0164691013e+01 +1.6203754432e+01 5.9301956204e+01 5.0000022207e+01 2.4361e-03 0.0000e+00
      -11  1    4    4    0    0 +1.0657397702e+01 -5.1920346379e+00 +1.7529474909e+01 2.1161754188e+01 5.1100000000e-04 0.0000e+00 1.0000e+00
       11  1    4    4    0    0 -3.5532476676e+00 -6.4707020161e+00 +6.5885549825e+00 9.8946758708e+00 5.1100000000e-04 0.0000e+00 -1.0000e+00
       12  1    4    4    0    0 -2.5746665090e+01 -8.5019543587e+00 -7.9142754600e+00 2.8245526146e+01 0.0000000000e+00 0.0000e+00 -1.0000e+00
      -12  1    3    3    0    0 +1.8642515056e+01 +2.0164691013e+01 -1.6203754432e+01 3.1886043796e+01 0.0000000000e+00 0.0000e+00 1.0000e+00
</event>
<event>
 8      3 +2.2883893e-04 9.11880000e+01 7.81616400e-03 1.18400000e-01
      -11 -1    0    0    0    0 +0.0000000000e+00 +0.0000000000e+00 +4.5593999997e+01 4.5594000000e+01 5.1100000000e-04 0.0000e+00 1.0000e+00
       11 -1    0    0    0    0 -0.0000000000e+00 -0.0000000000e+00 -4.5593999997e+01 4.5594000000e+01 5.1100000000e-04 0.0000e+00 -1.0000e+00
       23  2    1    2    0    0 +0.0000000000e+00 +0.0000000000e+00 -3.5527136788e-15 9.1188000000e+01 9.1188000000e+01 1.1144e-13 0.0000e+00
  9990012  2    3    3    0    0 +2.2605288549e+01 +9.3104835248e+00 -2.0470368651e+01 5.9301950283e+01 5.0000011408e+01 4.9407e-03 0.0000e+00
      -11  1    4    4    0    0 +1.2268033050e+01 -9.1824192368e+00 -1.6969445768e+00 1.5417557495e+01 5.1100000000e-04 0.0000e+00 1.0000e+00
       11  1    4    4    0    0 +1.6404976774e+01 +1.8083955818e-01 -1.8313984884e+01 2.4587761356e+01 5.1100000000e-04 0.0000e+00 -1.0000e+00
       12  1    4    4    0    0 -6.0677212748e+00 +1.8312063203e+01 -4.5943919005e-01 1.9296631432e+01 0.0000000000e+00 0.0000e+00 -1.0000e+00
      -12  1    3    3    0    0 -2.2605288549e+01 -9.3104835248e+00 +2.0470368651e+01 3.1886049717e+01 0.0000000000e+00 0.0000e+00 1.0000e+00
</event>
<event>
 8      3 +2.2883893e-04 9.11880000e+01 7.81616400e-03 1.18400000e-01
      -11 -1    0    0    0    0 +0.0000000000e+00 +0.0000000000e+00 +4.5593999997e+01 4.5594000000e+01 5.1100000000e-04 0.0000e+00 1.0000e+00
       11 -1    0    0    0    0 -0.0000000000e+00 -0.0000000000e+00 -4.5593999997e+01 4.5594000000e+01 5.1100000000e-04 0.0000e+00 -1.0000e+00
       23  2    1    2    0    0 +3.5527136788e-15 +1.7763568394e-15 -7.1054273576e-15 9.1188000000e+01 9.1188000000e+01 1.0130e-13 0.0000e+00
  9990012  2    3    3    0    0 +2.0104170427e+01 -9.5627008813e+00 -2.2827405298e+01 5.9302057183e+01 5.0000206367e+01 4.9767e-04 0.0000e+00
      -11  1    4    4    0    0 +2.3697482902e+01 -8.3843578367e+00 -2.3425008211e+01 3.4359848110e+01 5.1100000000e-04 0.0000e+00 -1.0000e+00
       11  1    4    4    0    0 -5.9186349542e+00 -5.4450250895e+00 +1.0903265598e+01 1.3548422008e+01 5.1100000000e-04 0.0000e+00 1.0000e+00
       12  1    4    4    0    0 +2.3253224800e+00 +4.2666820449e+00 -1.0305662685e+01 1.1393787065e+01 0.0000000000e+00 0.0000e+00 -1.0000e+00
      -12  1    3    3    0    0 -2.0104170427e+01 +9.5627008813e+00 +2.2827405298e+01 3.1885942817e+01 0.0000000000e+00 0.0000e+00 1.0000e+00
</event>
<event>
 8      3 +2.2883893e-04 9.11880000e+01 7.81616400e-03 1.18400000e-01
      -11 -1    0    0    0    0 +0.0000000000e+00 +0.0000000000e+00 +4.5593999997e+01 4.5594000000e+01 5.1100000000e-04 0.0000e+00 -1.0000e+00
       11 -1    0    0    0    0 -0.0000000000e+00 -0.0000000000e+00 -4.5593999997e+01 4.5594000000e+01 5.1100000000e-04 0.0000e+00 1.0000e+00
       23  2    1    2    0    0 -1.7763568394e-15 +7.1054273576e-15 -7.1054273576e-15 9.1188000000e+01 9.1188000000e+01 1.1422e-13 0.0000e+00
  9990012  2    3    3    0    0 -5.2461321906e+00 -2.3724761586e+01 +2.0647862003e+01 5.9301946300e+01 5.0000004145e+01 5.9977e-04 0.0000e+00
      -11  1    4    4    0    0 +1.3128022273e+01 -3.9482653411e+00 +7.7215692440e+00 1.5733925126e+01 5.1100000000e-04 0.0000e+00 1.0000e+00
       11  1    4    4    0    0 +6.7587663210e+00 -5.8748769666e-01 -3.8207036219e+00 7.7861312860e+00 5.1100000000e-04 0.0000e+00 -1.0000e+00
       12  1    4    4    0    0 -2.5132920785e+01 -1.9189008548e+01 +1.6746996381e+01 3.5781889889e+01 0.0000000000e+00 0.0000e+00 -1.0000e+00
      -12  1    3    3    0    0 +5.2461321906e+00 +2.3724761586e+01 -2.0647862003e+01 3.1886053700e+01 0.0000000000e+00 0.0000e+00 1.0000e+00
</event>
<event>
 8      3 +2.2883893e-04 9.11880000e+01 7.81616400e-03 1.18400000e-01
      -11 -1    0    0    0    0 +0.0000000000e+00 +0.0000000000e+00 +4.5593999997e+01 4.5594000000e+01 5.1100000000e-04 0.0000e+00 1.0000e+00
       11 -1    0    0    0    0 -0.0000000000e+00 -0.0000000000e+00 -4.5593999997e+01 4.5594000000e+01 5.1100000000e-04 0.0000e+00 -1.0000e+00
       23  2    1    2    0    0 -1.0658141036e-14 -8.8817841970e-16 +0.0000000000e+00 9.1188000000e+01 9.1188000000e+01 7.8002e-15 0.0000e+00
  9990012  2    3    3    0    0 -3.0941953076e+01 -5.2192667870e+00 -5.6634668493e+00 5.9301951912e+01 5.0000014378e+01 1.5867e-04 0.0000e+00
      -11  1    4    4    0    0 +1.7777060164e-01 -1.3355687774e+01 +7.9250725696e+00 1.5531026167e+01 5.1100000000e-04 0.0000e+00 1.0000e+00
       11  1    4    4    0    0 +1.0228028759e+00 -6.1188472319e+00 -3.9845506532e-01 6.2165250640e+00 5.1100000000e-04 0.0000e+00 -1.0000e+00
       12  1    4    4    0    0 -3.2142526554e+01 +1.4255268219e+01 -1.3190084354e+01 3.7554400681e+01 0.0000000000e+00 0.0000e+00 -1.0000e+00
      -12  1    3    3    0    0 +3.0941953076e+01 +5.2192667870e+00 +5.6634668493e+00 3.1886048088e+01 0.0000000000e+00 0.0000e+00 1.0000e+00
</event>
<event>
 8      3 +2.2883893e-04 9.11880000e+01 7.81616400e-03 1.18400000e-01
      -11 -1    0    0    0    0 +0.0000000000e+00 +0.0000000000e+00 +4.5593999997e+01 4.5594000000e+01 5.1100000000e-04 0.0000e+00 1.0000e+00
       11 -1    0    0    0    0 -0.0000000000e+00 -0.0000000000e+00 -4.5593999997e+01 4.5594000000e+01 5.1100000000e-04 0.0000e+00 -1.0000e+00
       23  2    1    2    0    0 +0.0000000000e+00 +0.0000000000e+00 -4.4408920985e-16 9.1188000000e+01 9.1188000000e+01 1.0366e-13 0.0000e+00
  9990012  2    3    3    0    0 -3.1801244119e+01 +1.2996252998e+00 -1.9272186665e+00 5.9301916433e+01 4.9999949674e+01 1.9340e-03 0.0000e+00
      -11  1    4    4    0    0 +3.6339211449e+00 -4.4380096991e+00 -1.2828526432e+01 1.4052487454e+01 5.1100000000e-04 0.0000e+00 1.0000e+00
       11  1    4    4    0    0 -2.5670238104e+01 -1.9442887543e+00 -3.7763435920e+00 2.6019265060e+01 5.1100000000e-04 0.0000e+00 -1.0000e+00
       12  1    4    4    0    0 -9.7649271596e+00 +7.6819237533e+00 +1.4677651357e+01 1.9230163919e+01 0.0000000000e+00 0.0000e+00 -1.0000e+00
      -12  1    3    3    0    0 +3.1801244119e+01 -1.2996252998e+00 +1.9272186665e+00 3.1886083567e+01 0.0000000000e+00 0.0000e+00 1.0000e+00
</event>
<event>
 8      4 +2.2883893e-04 9.11880000e+01 7.81616400e-03 1.18400000e-01
      -11 -1    0    0    0    0 +0.0000000000e+00 +0.0000000000e+00 +4.5593999997e+01 4.5594000000e+01 5.1100000000e-04 0.0000e+00 -1.0000e+00
       11 -1    0    0    0    0 -0.0000000000e+00 -0.0000000000e+00 -4.5593999997e+01 4.5594000000e+01 5.1100000000e-04 0.0000e+00 1.0000e+00
       23  2    1    2    0    0 -8.8817841970e-16 +0.0000000000e+00 +0.0000000000e+00 9.1188000000e+01 9.1188000000e+01 5.3612e-14 0.0000e+00
 -9990012  2    3    3    0    0 +5.2650499091e-01 -2.0694430214e+01 -2.4252506545e+01 5.9301941556e+01 4.9999995492e+01 2.4083e-03 0.0000e+00
      -11  1    4    4    0    0 -1.6964772309e+01 +1.2352638601e+00 -5.3549383783e+00 1.7832687448e+01 5.1100000000e-04 0.0000e+00 1.0000e+00
       11  1    4    4    0    0 +1.2322543762e+01 -9.7954496783e-01 +6.1527584420e-01 1.2376718375e+01 5.1100000000e-04 0.0000e+00 -1.0000e+00
      -12  1    4    4    0    0 +5.1687335380e+00 -2.0950149107e+01 -1.9512844011e+01 2.9092535733e+01 0.0000000000e+00 0.0000e+00 1.0000e+00
       12  1    3    3    0    0 -5.2650499091e-01 +2.0694430214e+01 +2.4252506545e+01 3.1886058444e+01 0.0000000000e+00 0.0000e+00 -1.0000e+00
</event>
<event>
 8      3 +2.2883893e-04 9.11880000e+01 7.81616400e-03 1.18400000e-01
      -11 -1    0    0    0    0 +0.0000000000e+00 +0.0000000000e+00 +4.5593999997e+01 4.5594000000e+01 5.1100000000e-04 0.0000e+00 -1.0000e+00
       11 -1    0    0    0    0 -0.0000000000e+00 -0.0000000000e+00 -4.5593999997e+01 4.5594000000e+01 5.1100000000e-04 0.0000e+00 1.0000e+00
       23  2    1    2    0    0 +4.4408920985e-16 +1.7763568394e-15 +0.0000000000e+00 9.1188000000e+01 9.1188000000e+01 5.0680e-15 0.0000e+00
  9990012  2    3    3    0    0 -2.6027804409e+00 -4.9058684292e+00 +3.1398710431e+01 5.9301936778e+01 4.9999986779e+01 3.1618e-03 0.0000e+00
      -11  1    4    4    0    0 -4.2381842257e+00 +1.0417072894e+01 +3.2401806675e+00 1.1703691051e+01 5.1100000000e-04 0.0000e+00 1.0000e+00
       11  1    4    4    0    0 -1.0282665854e+01 +4.9983176499e+00 +7.5164603721e-01 1.1457808185e+01 5.1100000000e-04 0.0000e+00 -1.0000e+00
       12  1    4    4    0    0 +1.1918069639e+01 -2.0321258973e+01 +2.7406883726e+01 3.6140437542e+01 0.0000000000e+00 0.0000e+00 -1.0000e+00
      -12  1    3    3    0    0 +2.6027804409e+00 +4.9058684292e+00 -3.1398710431e+01 3.1886063222e+01 0.0000000000e+00 0.0000e+00 1.0000e+00
</event>
<event>
 8      3 +2.2883893e-04 9.11880000e+01 7.81616400e-03 1.18400000e-01
      -11 -1    0    0    0    0 +0.0000000000e+00 +0.0000000000e+00 +4.5593999997e+01 4.5594000000e+01 5.1100000000e-04 0.0000e+00 1.0000e+00
       11 -1    0    0    0    0 -0.0000000000e+00 -0.0000000000e+00 -4.5593999997e+01 4.5594000000e+01 5.1100000000e-04 0.0000e+00 -1.0000e+00
       23  2    1    2    0    0 -1.7763568394e-15 -1.7763568394e-15 -3.5527136788e-15 9.1188000000e+01 9.1188000000e+01 6.7301e-15 0.0000e+00
  9990012  2    3    3    0    0 -7.4074395101e+00 -7.4246557504e+00 -3.0111876229e+01 5.9301940928e+01 4.9999994348e+01 1.0671e-03 0.0000e+00
      -11  1    4    4    0    0 +7.7568908751e+00 +1.1241574814e+01 -9.4500500036e+00 1.6608606374e+01 5.1100000000e-04 0.0000e+00 1.0000e+00
       11  1    4    4    0    0 +7.3561568612e+00 +1.0477339379e+00 -4.0968492337e+00 8.4849846244e+00 5.1100000000e-04 0.0000e+00 -1.0000e+00
       12  1    4    4    0    0 -2.2520487246e+01 -1.9713964503e+01 -1.6564976991e+01 3.4208349930e+01 0.0000000000e+00 0.0000e+00 -1.0000e+00
      -12  1    3    3    0    0 +7.4074395101e+00 +7.4246557504e+00 +3.0111876229e+01 3.1886059072e+01 0.0000000000e+00 0.0000e+00 1.0000e+00
</event>
<event>
 8      4 +2.2883893e-04 9.11880000e+01 7.81616400e-03 1.18400000e-01
      -11 -1    0    0    0    0 +0.0000000000e+00 +0.0000000000e+00 +4.5593999997e+01 4.5594000000e+01 5.1100000000e-04 0.0000e+00 1.0000e+00
       11 -1    0    0    0    0 -0.0000000000e+00 -0.0000000000e+00 -4.5593999997e+01 4.5594000000e+01 5.1100000000e-04 0.0000e+00 -1.0000e+00
       23  2    1    2    0    0 +0.0000000000e+00 +0.0000000000e+00 -1.7763568394e-15 9.1188000000e+01 9.1188000000e+01 1.3834e-13 0.0000e+00
 -9990012  2    3    3    0    0 -2.4855972241e+01 -1.8415903289e+01 -7.7301984772e+00 5.9301940060e+01 4.9999992764e+01 4.9298e-04 0.0000e+00
      -11  1    4    4    0    0 -1.2176926348e+01 -1.1265596798e+01 -3.4065789279e+00 1.6935052015e+01 5.1100000000e-04 0.0000e+00 1.0000e+00
       11  1    4    4    0    0 +1.8945588639e+00 +1.5056203477e+01 -4.4184719706e+00 1.5805110289e+01 5.1100000000e-04 0.0000e+00 -1.0000e+00
      -12  1    4    4    0    0 -1.4573604757e+01 -2.2206509968e+01 +9.4852421190e-02 2.6561777756e+01 0.0000000000e+00 0.0000e+00 1.0000e+00
       12  1    3    3    0    0 +2.4855972241e+01 +1.8415903289e+01 +7.7301984772e+00 3.1886059940e+01 0.0000000000e+00 0.0000e+00 -1.0000e+00
</event>
<event>
 8      3 +2.2883893e-04 9.11880000e+01 7.81616400e-03 1.18400000e-01
      -11 -1    0    0    0    0 +0.0000000000e+00 +0.0000000000e+00 +4.5593999997e+01 4.5594000000e+01 5.1100000000e-04 0.0000e+00 -1.0000e+00
       11 -1    0    0    0    0 -0.0000000000e+00 -0.0000000000e+00 -4.5593999997e+01 4.5594000000e+01 5.1100000000e-04 0.0000e+00 1.0000e+00
       23  2    1    2    0    0 +8.8817841970e-16 +1.3322676296e-15 +0.0000000000e+00 9.1188000000e+01 9.1188000000e+01 3.1443e-13 0.0000e+00
  9990012  2    3    3    0    0 +6.3354366427e+00 +3.9091610009e+00 +3.1004854381e+01 5.9301948310e+01 5.0000007810e+01 9.2407e-04 0.0000e+00
      -11  1    4    4    0    0 -8.7407466893e+00 +1.3321413642e+01 +1.4561767929e+01 2.1584851160e+01 5.1100000000e-04 0.0000e+00 1.0000e+00
       11  1    4    4    0    0 +9.2525645464e+00 -4.1753204866e+00 +2.4476313366e+01 2.6497795533e+01 5.1100000000e-04 0.0000e+00 -1.0000e+00
       12  1    4    4    0    0 +5.8236187856e+00 -5.2369321545e+00 -8.0332269135e+00 1.1219301618e+01 0.0000000000e+00 0.0000e+00 -1.0000e+00
      -12  1    3    3    0    0 -6.3354366427e+00 -3.9091610009e+00 -3.1004854381e+01 3.1886051690e+01 0.0000000000e+00 0.0000e+00 1.0000e+00
</event>
<event>
 8      3 +2.2883893e-04 9.11880000e+01 7.81616400e-03 1.18400000e-01
      -11 -1    0    0    0    0 +0.0000000000e+00 +0.0000000000e+00 +4.5593999997e+01 4.5594000000e+01 5.1100000000e-04 0.0000e+00 1.0000e+00
       11 -1    0    0    0    0 -0.0000000000e+00 -0.0000000000e+00 -4.5593999997e+01 4.5594000000e+01 5.1100000000e-04 0.0000e+00 -1.0000e+00
       23  2    1    2    0    0 +3.5527136788e-15 +0.0000000000e+00 +0.0000000000e+00 9.1188000000e+01 9.1188000000e+01 1.1846e-13 0.0000e+00
  9990012  2    3    3    0    0 -2.1152051618e+01 +1.6545136310e+01 -1.7192136673e+01 5.9301946834e+01 5.0000005118e+01 4.9307e-03 0.0000e+00
      -11  1    4    4    0    0 -2.9788490361e+01 +8.9053934949e+00 -6.1573941635e+00 3.1695010561e+01 5.1100000000e-04 0.0000e+00 1.0000e+00
       11  1    4    4    0    0 +1.4406973340e+01 +7.1498243864e+00 -1.1172103113e+00 1.6122314621e+01 5.1100000000e-04 0.0000e+00 -1.0000e+00
       12  1    4    4    0    0 -5.7705345970e+00 +4.8991842822e-01 -9.9175321981e+00 1.1484621653e+01 0.0000000000e+00 0.0000e+00 -1.0000e+00
      -12  1    3    3    0    0 +2.1152051618e+01 -1.6545136310e+01 +1.7192136673e+01 3.1886053166e+01 0.0000000000e+00 0.0000e+00 1.0000e+00
</event>
<event>
 8      4 +2.2883893e-04 9.11880000e+01 7.81616400e-03 1.18400000e-01
      -11 -1    0    0    0    0 +0.0000000000e+00 +0.0000000000e+00 +4.5593999997e+01 4.5594000000e+01 5.1100000000e-04 0.0000e+00 1.0000e+00
       11 -1    0    0    0    0 -0.0000000000e+00 -0.0000000000e+00 -4.5593999997e+01 4.5594000000e+01 5.1100000000e-04 0.0000e+00 -1.0000e+00
       23  2    1    2    0    0 -1.7763568394e-15 +0.0000000000e+00 -3.5527136788e-15 9.1188000000e+01 9.1188000000e+01 3.9381e-14 0.0000e+00
 -9990012  2    3    3    0    0 -1.2011317879e+01 -1.8891921224e+01 +2.2705636162e+01 5.9301915915e+01 4.9999948729e+01 1.0972e-03 0.0000e+00
      -11  1    4    4    0    0 -5.8982237843e+00 -1.3273217487e+01 -9.3104130668e+00 1.7252569026e+01 5.1100000000e-04 0.0000e+00 1.0000e+00
       11  1    4    4    0    0 +5.1490221772e+00 -5.0373835405e+00 -8.9606086264e-01 7.2588282557e+00 5.1100000000e-04 0.0000e+00 -1.0000e+00
      -12  1    4    4    0    0 -1.1262116272e+01 -5.8132019725e-01 +3.2912110092e+01 3.4790518634e+01 0.0000000000e+00 0.0000e+00 1.0000e+00
       12  1    3    3    0    0 +1.2011317879e+01 +1.8891921224e+01 -2.2705636162e+01 3.1886084085e+01 0.0000000000e+00 0.0000e+00 -1.0000e+00
</event>
<event>
 8      3 +2.2883893e-04 9.11880000e+01 7.81616400e-03 1.18400000e-01
      -11 -1    0    0    0    0 +0.0000000000e+00 +0.0000000000e+00 +4.5593999997e+01 4.5594000000e+01 5.1100000000e-04 0.0000e+00 1.0000e+00
       11 -1    0    0    0    0 -0.0000000000e+00 -0.0000000000e+00 -4.5593999997e+01 4.5594000000e+01 5.1100000000e-04 0.0000e+00 -1.0000e+00
       23  2    1    2    0    0 -6.6613381478e-16 +0.0000000000e+00 +0.0000000000e+00 9.1188000000e+01 9.1188000000e+01 9.4666e-14 0.0000e+00
  9990012  2    3    3    0    0 -1.1896717192e+00 -2.6777137545e+01 -1.7271084957e+01 5.9301940514e+01 4.9999993593e+01 3.7478e-03 0.0000e+00
      -11  1    4    4    0    0 +1.4360343037e+01 +3.5502343194e-01 -1.1982551095e+01 1.8706336487e+01 5.1100000000e-04 0.0000e+00 1.0000e+00
       11  1    4    4    0    0 -8.4137791910e-01 +3.6304454068e-01 -9.1316010041e+00 9.1774645355e+00 5.1100000000e-04 0.0000e+00 -1.0000e+00
       12  1    4    4    0    0 -1.4708636837e+01 -2.7495205518e+01 +3.8430671421e+00 3.1418139492e+01 0.0000000000e+00 0.0000e+00 -1.0000e+00
      -12  1    3    3    0    0 +1.1896717192e+00 +2.6777137545e+01 +1.7271084957e+01 3.1886059486e+01 0.0000000000e+00 0.0000e+00 1.0000e+00
</event>
<event>
 8      4 +2.2883893e-04 9.11880000e+01 7.81616400e-03 1.18400000e-01
      -11 -1    0    0    0    0 +0.0000000000e+00 +0.0000000000e+00 +4.5593999997e+01 4.5594000000e+01 5.1100000000e-04 0.0000e+00 -1.0000e+00
       11 -1    0    0    0    0 -0.0000000000e+00 -0.0000000000e+00 -4.5593999997e+01 4.5594000000e+01 5.1100000000e-04 0.0000e+00 1.0000e+00
       23  2    1    2    0    0 +0.0000000000e+00 -8.8817841970e-16 +0.0000000000e+00 9.1188000000e+01 9.1188000000e+01 3.6116e-14 0.0000e+00
 -9990012  2    3    3    0    0 +1.6129337183e+01 +4.7940127209e+00 -2.7084484708e+01 5.9302150665e+01 5.0000376855e+01 1.1813e-04 0.0000e+00
      -11  1    4    4    0    0 +1.6185689183e+01 -1.0224872951e+01 +8.8553599754e-01 1.9165300296e+01 5.1100000000e-04 0.0000e+00 1.0000e+00
       11  1    4    4    0    0 -2.3468791126e-01 -6.8456251953e-01 +4.2405191708e+00 4.3018260492e+00 5.1100000000e-04 0.0000e+00 -1.0000e+00
      -12  1    4    4    0    0 +1.7833591167e-01 +1.5703448192e+01 -3.2210539877e+01 3.5835024319e+01 0.0000000000e+00 0.0000e+00 1.0000e+00
       12  1    3    3    0    0 -1.6129337183e+01 -4.7940127209e+00 +2.7084484708e+01 3.1885849335e+01 0.0000000000e+00 0.0000e+00 -1.0000e+00
</event>
<event>
 8      3 +2.2883893e-04 9.11880000e+01 7.81616400e-03 1.18400000e-01
      -11 -1    0    0    0    0 +0.0000000000e+00 +0.0000000000e+00 +4.5593999997e+01 4.5594000000e+01 5.1100000000e-04 0.0000e+00 1.0000e+00
       11 -1    0    0    0    0 -0.0000000000e+00 -0.0000000000e+00 -4.5593999997e+01 4.5594000000e+01 5.1100000000e-04 0.0000e+00 -1.0000e+00
       23  2    1    2    0    0 -1.7763568394e-15 -1.7763568394e-15 +0.0000000000e+00 9.1188000000e+01 9.1188000000e+01 1.0380e-14 0.0000e+00
  9990012  2    3    3    0    0 -1.5762258468e+01 +1.4669327902e+01 -2.3517764614e+01 5.9301902315e+01 4.9999923927e+01 6.5727e-04 0.0000e+00
      -11  1    4    4    0    0 -6.5052611457e+00 -9.7892805058e+00 -1.0456613827e+00 1.1800078109e+01 5.1100000000e-04 0.0000e+00 1.0000e+00
       11  1    4    4    0    0 -1.1743848564e+01 +2.6641324182e+01 -2.8425849289e+01 4.0690380206e+01 5.1100000000e-04 0.0000e+00 -1.0000e+00
       12  1    4    4    0    0 +2.4868512412e+00 -2.1827157746e+00 +5.9537460574e+00 6.8114440000e+00 0.0000000000e+00 0.0000e+00 -1.0000e+00
      -12  1    3    3    0    0 +1.5762258468e+01 -1.4669327902e+01 +2.3517764614e+01 3.1886097685e+01 0.0000000000e+00 0.0000e+00 1.0000e+00
</event>
<event>
 8      3 +2.2883893e-04 9.11880000e+01 7.81616400e-03 1.18400000e-01
      -11 -1    0    0    0    0 +0.0000000000e+00 +0.0000000000e+00 +4.5593999997e+01 4.5594000000e+01 5.1100000000e-04 0.0000e+00 1.0000e+00
       11 -1    0    0    0    0 -0.0000000000e+00 -0.0000000000e+00 -4.5593999997e+01 4.5594000000e+01 5.1100000000e-04 0.0000e+00 -1.0000e+00
       23  2    1    2    0    0 +0.0000000000e+00 +1.7763568394e-15 +0.0000000000e+00 9.1188000000e+01 9.1188000000e+01 3.4276e-15 0.0000e+00
  9990012  2    3    3    0    0 +2.2061786149e+01 -1.3838087301e+01 -1.8398542974e+01 5.9301930129e+01 4.9999974652e+01 1.3701e-03 0.0000e+00
      -11  1    4    4    0    0 +3.0055492010e+00 -1.3252518328e+01 +1.3588001387e+01 1.9217084847e+01 5.1100000000e-04 0.0000e+00 1.0000e+00
       11  1    4    4    0    0 -1.7582055741e+00 +2.1761275155e+00 -1.8461747864e+00 3.3518919147e+00 5.1100000000e-04 0.0000e+00 -1.0000e+00
       12  1    4    4    0    0 +2.0814442522e+01 -2.7616964883e+00 -3.0140369575e+01 3.6732953368e+01 0.0000000000e+00 0.0000e+00 -1.0000e+00
      -12  1    3    3    0    0 -2.2061786149e+01 +1.3838087301e+01 +1.8398542974e+01 3.1886069871e+01 0.0000000000e+00 0.0000e+00 1.0000e+00
</event>
<event>
 8      4 +2.2883893e-04 9.11880000e+01 7.81616400e-03 1.18400000e-01
      -11 -1    0    0    0    0 +0.0000000000e+00 +0.0000000000e+00 +4.5593999997e+01 4.5594000000e+01 5.1100000000e-04 0.0000e+00 1.0000e+00
       11 -1    0    0    0    0 -0.0000000000e+00 -0.0000000000e+00 -4.5593999997e+01 4.5594000000e+01 5.1100000000e-04 0.0000e+00 -1.0000e+00
       23  2    1    2    0    0 +0.0000000000e+00 +1.7763568394e-15 +0.0000000000e+00 9.1188000000e+01 9.1188000000e+01 3.4076e-15 0.0000e+00
 -9990012  2    3    3    0    0 -1.6434491153e+01 +6.2478334514e+00 +2.6600632701e+01 5.9301928082e+01 4.9999970918e+01 4.4668e-03 0.0000e+00
      -11  1    4    4    0    0 -1.3531552577e+01 -2.1767887471e+00 -4.9237742177e+00 1.4563134182e+01 5.1100000000e-04 0.0000e+00 1.0000e+00
       11  1    4    4    0    0 -1.4763022840e+01 +1.0466853311e+00 +6.6811844203e+00 1.6238245566e+01 5.1100000000e-04 0.0000e+00 -1.0000e+00
      -12  1    4    4    0    0 +1.1860084264e+01 +7.3779368674e+00 +2.4843222498e+01 2.8500548333e+01 0.0000000000e+00 0.0000e+00 1.0000e+00
       12  1    3    3    0    0 +1.6434491153e+01 -6.2478334514e+00 -2.6600632701e+01 3.1886071918e+01 0.0000000000e+00 0.0000e+00 -1.0000e+00
</event>
<event>
 8      3 +2.2883893e-04 9.11880000e+01 7.81616400e-03 1.18400000e-01
      -11 -1    0    0    0    0 +0.0000000000e+00 +0.0000000000e+00 +4.5593999997e+01 4.5594000000e+01 5.1100000000e-04 0.0000e+00 -1.0000e+00
       11 -1    0    0    0    0 -0.0000000000e+00 -0.0000000000e+00 -4.5593999997e+01 4.5594000000e+01 5.1100000000e-04 0.0000e+00 1.0000e+00
       23  2    1    2    0    0 -7.1054273576e-15 +0.0000000000e+00 -1.7763568394e-15 9.1188000000e+01 9.1188000000e+01 7.9726e-14 0.0000e+00
  9990012  2    3    3    0    0 +2.0982432320e+01 +2.1899019348e+01 +9.8430123497e+00 5.9302040604e+01 5.0000176132e+01 7.6931e-04 0.0000e+00
      -11  1    4    4    0    0 +1.8070288887e+01 +7.5786233357e+00 -1.8616885641e+00 1.9683413238e+01 5.1100000000e-04 0.0000e+00 1.0000e+00
       11  1    4    4    0    0 -4.9995221385e+00 -4.4774883082e+00 -8.5535639607e+00 1.0872284942e+01 5.1100000000e-04 0.0000e+00 -1.0000e+00
       12  1    4    4    0    0 +7.9116655718e+00 +1.8797884321e+01 +2.0258264875e+01 2.8746342425e+01 0.0000000000e+00 0.0000e+00 -1.0000e+00
      -12  1    3    3    0    0 -2.0982432320e+01 -2.1899019348e+01 -9.8430123497e+00 3.1885959396e+01 0.0000000000e+00 0.0000e+00 1.0000e+00
</event>
<event>
 8      3 +2.2883893e-04 9.11880000e+01 7.81616400e-03 1.18400000e-01
      -11 -1    0    0    0    0 +0.0000000000e+00 +0.0000000000e+00 +4.5593999997e+01 4.5594000000e+01 5.1100000000e-04 0.0000e+00 -1.0000e+00
       11 -1    0    0    0    0 -0.0000000000e+00 -0.0000000000e+00 -4.5593999997e+01 4.5594000000e+01 5.1100000000e-04 0.0000e+00 1.0000e+00
       23  2    1    2    0    0 -3.5527136788e-15 +3.5527136788e-15 -3.5527136788e-15 9.1188000000e+01 9.1188000000e+01 2.0914e-14 0.0000e+00
  9990012  2    3    3    0    0 +1.8776206716e+01 -1.8747544295e+01 +1.7683462297e+01 5.9301934163e+01 4.9999982010e+01 5.0278e-03 0.0000e+00
      -11  1    4    4    0    0 +7.8612948074e-01 +5.5901941321e+00 -4.0339028458e+00 6.9383457989e+00 5.1100000000e-04 0.0000e+00 1.0000e+00
       11  1    4    4    0    0 -4.0003944130e+00 +3.0810992998e+00 -5.8257088530e+00 7.7094236008e+00 5.1100000000e-04 0.0000e+00 -1.0000e+00
       12  1    4    4    0    0 +2.1990471648e+01 -2.7418837727e+01 +2.7543073995e+01 4.4654164764e+01 0.0000000000e+00 0.0000e+00 -1.0000e+00
      -12  1    3    3    0    0 -1.8776206716e+01 +1.8747544295e+01 -1.7683462297e+01 3.1886065837e+01 0.0000000000e+00 0.0000e+00 1.0000e+00
</event>
<event>
 8      3 +2.2883893e-04 9.11880000e+01 7.81616400e-03 1.18400000e-01
      -11 -1    0    0    0    0 +0.0000000000e+00 +0.0000000000e+00 +4.5593999997e+01 4.5594000000e+01 5.1100000000e-04 0.0000e+00 1.0000e+00
       11 -1    0    0    0    0 -0.0000000000e+00 -0.0000000000e+00 -4.5593999997e+01 4.5594000000e+01 5.1100000000e-04 0.0000e+00 -1.0000e+00
       23  2    1    2    0    0 -8.8817841970e-16 -4.4408920985e-16 -7.1054273576e-15 9.1188000000e+01 9.1188000000e+01 1.6740e-13 0.0000e+00
  9990012  2    3    3    0    0 -4.2168422044e+00 +1.6601746941e+00 -3.1562478611e+01 5.9301827538e+01 4.9999787550e+01 1.0797e-03 0.0000e+00
      -11  1    4    4    0    0 -7.7010241500e+00 -5.2120797657e+00 +1.0391330143e+01 1.3944579264e+01 5.1100000000e-04 0.0000e+00 1.0000e+00
       11  1    4    4    0    0 +5.5873383789e+00 +6.1227253097e+00 -8.6560287483e+00 1.1984696464e+01 5.1100000000e-04 0.0000e+00 -1.0000e+00
       12  1    4    4    0    0 -2.1031564332e+00 +7.4952915018e-01 -3.3297780007e+01 3.3372551810e+01 0.0000000000e+00 0.0000e+00 -1.0000e+00
      -12  1    3    3    0    0 +4.2168422044e+00 -1.6601746941e+00 +3.1562478611e+01 3.1886172462e+01 0.0000000000e+00 0.0000e+00 1.0000e+00
</event>
<event>
 8      4 +2.2883893e-04 9.11880000e+01 7.81616400e-03 1.18400000e-01
      -11 -1    0    0    0    0 +0.0000000000e+00 +0.0000000000e+00 +4.5593999997e+01 4.5594000000e+01 5.1100000000e-04 0.0000e+00 1.0000e+00
       11 -1    0    0    0    0 -0.0000000000e+00 -0.0000000000e+00 -4.5593999997e+01 4.5594000000e+01 5.1100000000e-04 0.0000e+00 -1.0000e+00
       23  2    1    2    0    0 +3.5527136788e-15 +1.7763568394e-15 +0.0000000000e+00 9.1188000000e+01 9.1188000000e+01 1.0429e-13 0.0000e+00
 -9990012  2    3    3    0    0 -2.4597835602e+01 -9.2105192623e+00 +1.8078639051e+01 5.9301884348e+01 4.9999891159e+01 3.9789e-04 0.0000e+00
      -11  1    4    4    0    0 -3.2319721036e+00 -7.5361870147e+00 +5.3977913159e+00 9.8171232930e+00 5.1100000000e-04 0.0000e+00 1.0000e+00
       11  1    4    4    0    0 +8.4619813317e+00 +6.9586770066e+00 -6.7368568686e+00 1.2861320090e+01 5.1100000000e-04 0.0000e+00 -1.0000e+00
      -12  1    4    4    0    0 -2.9827844831e+01 -8.6330092542e+00 +1.9417704604e+01 3.6623440965e+01 0.0000000000e+00 0.0000e+00 1.0000e+00
       12  1    3    3    0    0 +2.4597835602e+01 +9.2105192623e+00 -1.8078639051e+01 3.1886115652e+01 0.0000000000e+00 0.0000e+00 -1.0000e+00
</event>
<event>
 8      3 +2.2883893e-04 9.11880000e+01 7.81616400e-03 1.18400000e-01
      -11 -1    0    0    0    0 +0.0000000000e+00 +0.0000000000e+00 +4.5593999997e+01 4.5594000000e+01 5.1100000000e-04 0.0000e+00 -1.0000e+00
       11 -1    0    0    0    0 -0.0000000000e+00 -0.0000000000e+00 -4.5593999997e+01 4.5594000000e+01 5.1100000000e-04 0.0000e+00 1.0000e+00
       23  2    1    2    0    0 +0.0000000000e+00 +0.0000000000e+00 +1.7763568394e-15 9.1188000000e+01 9.1188000000e+01 2.9252e-13 0.0000e+00
  9990012  2    3    3    0    0 +2.6952641671e+01 -1.4863928489e+01 +8.3270794630e+00 5.9301929129e+01 4.9999972828e+01 2.1206e-03 0.0000e+00
      -11  1    4    4    0    0 +6.5784014330e+00 +4.0505171575e+00 +8.0226538091e+00 1.1137550407e+01 5.1100000000e-04 0.0000e+00 -1.0000e+00
       11  1    4    4    0    0 +1.2427502639e+01 -3.4396255979e+00 +1.8784586298e+01 2.2784523887e+01 5.1100000000e-04 0.0000e+00 1.0000e+00
       12  1    4    4    0    0 +7.9467375996e+00 -1.5474820049e+01 -1.8480160644e+01 2.5379854836e+01 0.0000000000e+00 0.0000e+00 -1.0000e+00
      -12  1    3    3    0    0 -2.6952641671e+01 +1.4863928489e+01 -8.3270794630e+00 3.1886070871e+01 0.0000000000e+00 0.0000e+00 1.0000e+00
</event>
<event>
 8      3 +2.2883893e-04 9.11880000e+01 7.81616400e-03 1.18400000e-01
      -11 -1    0    0    0    0 +0.0000000000e+00 +0.0000000000e+00 +4.5593999997e+01 4.5594000000e+01 5.1100000000e-04 0.0000e+00 1.0000e+00
       11 -1    0    0    0    0 -0.0000000000e+00 -0.0000000000e+00 -4.5593999997e+01 4.5594000000e+01 5.1100000000e-04 0.0000e+00 -1.0000e+00
       23  2    1    2    0    0 +0.0000000000e+00 +0.0000000000e+00 -1.7763568394e-15 9.1188000000e+01 9.1188000000e+01 4.5082e-14 0.0000e+00
  9990012  2    3    3    0    0 -2.6159974917e+01 +1.6472633321e+01 +7.8120651249e+00 5.9301948227e+01 5.0000007658e+01 2.5525e-03 0.0000e+00
      -11  1    4    4    0    0 -8.8440942979e+00 +1.0844517966e+01 +1.2705481353e+01 1.8901080142e+01 5.1100000000e-04 0.0000e+00 1.0000e+00
       11  1    4    4    0    0 -3.6031505332e+00 +8.8365076506e+00 +1.3934327467e+01 1.6888814151e+01 5.1100000000e-04 0.0000e+00 -1.0000e+00
       12  1    4    4    0    0 -1.3712730086e+01 -3.2083922960e+00 -1.8827743695e+01 2.3512053933e+01 0.0000000000e+00 0.0000e+00 -1.0000e+00
      -12  1    3    3    0    0 +2.6159974917e+01 -1.6472633321e+01 -7.8120651249e+00 3.1886051773e+01 0.0000000000e+00 0.0000e+00 1.0000e+00
</event>
<event>
 8      4 +2.2883893e-04 9.11880000e+01 7.81616400e-03 1.18400000e-01
      -11 -1    0    0    0    0 +0.0000000000e+00 +0.0000000000e+00 +4.5593999997e+01 4.5594000000e+01 5.1100000000e-04 0.0000e+00 -1.0000e+00
       11 -1    0    0    0    0 -0.0000000000e+00 -0.0000000000e+00 -4.5593999997e+01 4.5594000000e+01 5.1100000000e-04 0.0000e+00 1.0000e+00
       23  2    1    2    0    0 +0.0000000000e+00 +0.0000000000e+00 +0.0000000000e+00 9.1188000000e+01 9.1188000000e+01 6.8624e-14 0.0000e+00
 -9990012  2    3    3    0    0 +9.3026634661e+00 +1.9303722554e+01 -2.3612441335e+01 5.9301942893e+01 4.9999997931e+01 1.4897e-03 0.0000e+00
      -11  1    4    4    0    0 -6.5315280806e+00 +1.7481890749e+00 -7.6828215341e+00 1.0234391584e+01 5.1100000000e-04 0.0000e+00 1.0000e+00
       11  1    4    4    0    0 +6.3547133453e+00 -1.2913963105e+01 -3.4237542558e+00 1.4794421862e+01 5.1100000000e-04 0.0000e+00 -1.0000e+00
      -12  1    4    4    0    0 +9.4794782014e+00 +3.0469496584e+01 -1.2505865545e+01 3.4273129447e+01 0.0000000000e+00 0.0000e+00 1.0000e+00
       12  1    3    3    0    0 -9.3026634661e+00 -1.9303722554e+01 +2.3612441335e+01 3.1886057107e+01 0.0000000000e+00 0.0000e+00 -1.0000e+00
</event>
<event>
 8      4 +2.2883893e-04 9.11880000e+01 7.81616400e-03 1.18400000e-01
      -11 -1    0    0    0    0 +0.0000000000e+00 +0.0000000000e+00 +4.5593999997e+01 4.5594000000e+01 5.1100000000e-04 0.0000e+00 1.0000e+00
       11 -1    0    0    0    0 -0.0000000000e+00 -0.0000000000e+00 -4.5593999997e+01 4.5594000000e+01 5.1100000000e-04 0.0000e+00 -1.0000e+00
       23  2    1    2    0    0 +0.0000000000e+00 +1.7763568394e-15 +0.0000000000e+00 9.1188000000e+01 9.1188000000e+01 7.7537e-14 0.0000e+00
 -9990012  2    3    3    0    0 +1.4595312583e+01 +8.8983236331e+00 +2.6916868276e+01 5.9301935479e+01 4.9999984409e+01 3.7287e-04 0.0000e+00
      -11  1    4    4    0    0 +2.0042038837e+01 -4.3222518667e+00 +2.3045397477e+01 3.0845672744e+01 5.1100000000e-04 0.0000e+00 1.0000e+00
       11  1    4    4    0    0 +1.1286126217e+00 +1.5300719849e+01 +1.0736091152e+01 1.8725636113e+01 5.1100000000e-04 0.0000e+00 -1.0000e+00
      -12  1    4    4    0    0 -6.5753388759e+00 -2.0801443492e+00 -6.8646203535e+00 9.7306266214e+00 0.0000000000e+00 0.0000e+00 1.0000e+00
       12  1    3    3    0    0 -1.4595312583e+01 -8.8983236331e+00 -2.6916868276e+01 3.1886064521e+01 0.0000000000e+00 0.0000e+00 -1.0000e+00
</event>
<event>
 8      3 +2.2883893e-04 9.11880000e+01 7.81616400e-03 1.18400000e-01
      -11 -1    0    0    0    0 +0.0000000000e+00 +0.0000000000e+00 +4.5593999997e+01 4.5594000000e+01 5.1100000000e-04 0.0000e+00 -1.0000e+00
       11 -1    0    0    0    0 -0.0000000000e+00 -0.0000000000e+00 -4.5593999997e+01 4.5594000000e+01 5.1100000000e-04 0.0000e+00 1.0000e+00
       23  2    1    2    0    0 +0.0000000000e+00 -3.5527136788e-15 +0.0000000000e+00 9.1188000000e+01 9.1188000000e+01 1.1566e-13 0.0000e+00
  9990012  2    3    3    0    0 -1.0955693817e+01 -2.9205080184e+01 -6.6149063038e+00 5.9301938453e+01 4.9999989834e+01 1.8385e-03 0.0000e+00
      -11  1    4    4    0    0 -2.6585835951e+01 -1.5075870651e+01 +1.2245471687e+00 3.0587384085e+01 5.1100000000e-04 0.0000e+00 1.0000e+00
       11  1    4    4    0    0 -3.4785517080e+00 -4.2723180330e+00 -4.1537729208e+00 6.8997719599e+00 5.1100000000e-04 0.0000e+00 -1.0000e+00
       12  1    4    4    0    0 +1.9108693842e+01 -9.8568914996e+00 -3.6856805518e+00 2.1814782409e+01 0.0000000000e+00 0.0000e+00 -1.0000e+00
      -12  1    3    3    0    0 +1.0955693817e+01 +2.9205080184e+01 +6.6149063038e+00 3.1886061547e+01 0.0000000000e+00 0.0000e+00 1.0000e+00
</event>
<event>
 8      4 +2.2883893e-04 9.11880000e+01 7.81616400e-03 1.18400000e-01
      -11 -1    0    0    0    0 +0.0000000000e+00 +0.0000000000e+00 +4.5593999997e+01 4.5594000000e+01 5.1100000000e-04 0.0000e+00 -1.0000e+00
       11 -1    0    0    0    0 -0.0000000000e+00 -0.0000000000e+00 -4.5593999997e+01 4.5594000000e+01 5.1100000000e-04 0.0000e+00 1.0000e+00
       23  2    1    2    0    0 +0.0000000000e+00 -1.7763568394e-15 +0.0000000000e+00 9.1188000000e+01 9.1188000000e+01 3.7817e-14 0.0000e+00
 -9990012  2    3    3    0    0 -1.9284298466e+01 -1.1304744276e+01 -2.2738485392e+01 5.9301950881e+01 5.0000012499e+01 3.1117e-04 0.0000e+00
      -11  1    4    4    0    0 +1.3969674042e+00 -1.6206040954e+00 -3.3261479897e+00 3.9548876435e+00 5.1100000000e-04 0.0000e+00 1.0000e+00
       11  1    4    4    0    0 -5.3953464614e+00 +7.9993414026e+00 +1.2499495258e+01 1.5790396077e+01 5.1100000000e-04 0.0000e+00 -1.0000e+00
      -12  1    4    4    0    0 -1.5285919409e+01 -1.7683481584e+01 -3.1911832660e+01 3.9556667160e+01 0.0000000000e+00 0.0000e+00 1.0000e+00
       12  1    3    3    0    0 +1.9284298466e+01 +1.1304744276e+01 +2.2738485392e+01 3.1886049119e+01 0.0000000000e+00 0.0000e+00 -1.0000e+00
</event>
<event>
 8      3 +2.2883893e-04 9.11880000e+01 7.81616400e-03 1.18400000e-01
      -11 -1    0    0    0    0 +0.0000000000e+00 +0.0000000000e+00 +4.5593999997e+01 4.5594000000e+01 5.1100000000e-04 0.0000e+00 -1.0000e+00
       11 -1    0    0    0    0 -0.0000000000e+00 -0.0000000000e+00 -4.5593999997e+01 4.5594000000e+01 5.1100000000e-04 0.0000e+00 1.0000e+00
       23  2    1    2    0    0 +3.5527136788e-15 +0.0000000000e+00 +7.1054273576e-15 9.1188000000e+01 9.1188000000e+01 1.2002e-13 0.0000e+00
  9990012  2    3    3    0    0 +2.2946914674e+01 -1.2078990989e+01 +1.8554185750e+01 5.9301941523e+01 4.9999995432e+01 2.4448e-03 0.0000e+00
      -11  1    4    4    0    0 +6.1468145815e+00 +8.6003229310e+00 -6.6694170957e+00 1.2499200321e+01 5.1100000000e-04 0.0000e+00 1.0000e+00
       11  1    4    4    0    0 -4.6585982751e+00 -3.8302498844e+00 -3.6728862251e+00 7.0614053523e+00 5.1100000000e-04 0.0000e+00 -1.0000e+00
       12  1    4    4    0    0 +2.1458698368e+01 -1.6849064035e+01 +2.8896489070e+01 3.9741335849e+01 0.0000000000e+00 0.0000e+00 -1.0000e+00
      -12  1    3    3    0    0 -2.2946914674e+01 +1.2078990989e+01 -1.8554185750e+01 3.1886058477e+01 0.0000000000e+00 0.0000e+00 1.0000e+00
</event>
<event>
 8      3 +2.2883893e-04 9.11880000e+01 7.81616400e-03 1.18400000e-01
      -11 -1    0    0    0    0 +0.0000000000e+00 +0.0000000000e+00 +4.5593999997e+01 4.5594000000e+01 5.1100000000e-04 0.0000e+00 -1.0000e+00
       11 -1    0    0    0    0 -0.0000000000e+00 -0.0000000000e+00 -4.5593999997e+01 4.5594000000e+01 5.1100000000e-04 0.0000e+00 1.0000e+00
       23  2    1    2    0    0 -3.5527136788e-15 -3.5527136788e-15 +1.7763568394e-15 9.1188000000e+01 9.1188000000e+01 4.2658e-14 0.0000e+00
  9990012  2    3    3    0    0 -1.8285441305e+01 +2.4048149471e+01 -1.0200503004e+01 5.9301935360e+01 4.9999984192e+01 4.3707e-04 0.0000e+00
      -11  1    4    4    0    0 +7.7984648114e+00 +3.9228605609e+00 -7.1225472736e+00 1.1266568613e+01 5.1100000000e-04 0.0000e+00 1.0000e+00
       11  1    4    4    0    0 +7.8108446942e+00 -7.9971120055e-01 +1.3124713407e+00 7.9606164411e+00 5.1100000000e-04 0.0000e+00 -1.0000e+00
       12  1    4    4    0    0 -3.3894750811e+01 +2.0925000111e+01 -4.3904270713e+00 4.0074750305e+01 0.0000000000e+00 0.0000e+00 -1.0000e+00
      -12  1    3    3    0    0 +1.8285441305e+01 -2.4048149471e+01 +1.0200503004e+01 3.1886064640e+01 0.0000000000e+00 0.0000e+00 1.0000e+00
</event>
<event>
 8      3 +2.2883893e-04 9.11880000e+01 7.81616400e-03 1.18400000e-01
      -11 -1    0    0    0    0 +0.0000000000e+00 +0.0000000000e+00 +4.5593999997e+01 4.5594000000e+01 5.1100000000e-04 0.0000e+00 1.0000e+00
       11 -1    0    0    0    0 -0.0000000000e+00 -0.0000000000e+00 -4.5593999997e+01 4.5594000000e+01 5.1100000000e-04 0.0000e+00 -1.0000e+00
       23  2    1    2    0    0 +0.0000000000e+00 -3.5527136788e-15 +3.5527136788e-15 9.1188000000e+01 9.1188000000e+01 9.9032e-15 0.0000e+00
  9990012  2    3    3    0    0 -1.5242958701e+01 +2.2987552367e+01 -1.5998321724e+01 5.9301926994e+01 4.9999968934e+01 2.4794e-04 0.0000e+00
      -11  1    4    4    0    0 +4.1417873373e+00 -2.1400108991e+00 +2.5619624729e+00 5.3195583435e+00 5.1100000000e-04 0.0000e+00 1.0000e+00
       11  1    4    4    0    0 -2.6777922086e+01 +1.2550482667e+01 +9.8866052469e-01 2.9589680233e+01 5.1100000000e-04 0.0000e+00 -1.0000e+00
       12  1    4    4    0    0 +7.3931760476e+00 +1.2577080598e+01 -1.9548944722e+01 2.4392688417e+01 0.0000000000e+00 0.0000e+00 -1.0000e+00
      -12  1    3    3    0    0 +1.5242958701e+01 -2.2987552367e+01 +1.5998321724e+01 3.1886073006e+01 0.0000000000e+00 0.0000e+00 1.0000e+00
</event>
<event>
 8      4 +2.2883893e-04 9.11880000e+01 7.81616400e-03 1.18400000e-01
      -11 -1    0    0    0    0 +0.0000000000e+00 +0.0000000000e+00 +4.5593999997e+01 4.5594000000e+01 5.1100000000e-04 0.0000e+00 -1.0000e+00
       11 -1    0    0    0    0 -0.0000000000e+00 -0.0000000000e+00 -4.5593999997e+01 4.5594000000e+01 5.1100000000e-04 0.0000e+00 1.0000e+00
       23  2    1    2    0    0 +3.5527136788e-15 +1.7763568394e-15 -4.4408920985e-16 9.1188000000e+01 9.1188000000e+01 1.1567e-13 0.0000e+00
 -9990012  2    3    3    0    0 +3.0535601549e+01 +8.4572472545e+00 +3.5740980453e+00 5.9301918869e+01 4.9999954116e+01 1.7979e-03 0.0000e+00
      -11  1    4    4    0    0 +9.7391672032e+00 -1.4566558734e+01 -4.9413206984e+00 1.8205841416e+01 5.1100000000e-04 0.0000e+00 1.0000e+00
       11  1    4    4    0    0 +5.7384316741e+00 +8.9757052827e-01 +1.2739198281e+01 1.4000800121e+01 5.1100000000e-04 0.0000e+00 -1.0000e+00
      -12  1    4    4    0    0 +1.5058002671e+01 +2.2126235460e+01 -4.2237795374e+00 2.7095277331e+01 0.0000000000e+00 0.0000e+00 1.0000e+00
       12  1    3    3    0    0 -3.0535601549e+01 -8.4572472545e+00 -3.5740980453e+00 3.1886081131e+01 0.0000000000e+00 0.0000e+00 -1.0000e+00
</event>
<event>
 8      4 +2.2883893e-04 9.11880000e+01 7.81616400e-03 1.18400000e-01
      -11 -1    0    0    0    0 +0.0000000000e+00 +0.0000000000e+00 +4.5593999997e+01 4.5594000000e+01 5.1100000000e-04 0.0000e+00 -1.0000e+00
       11 -1    0    0    0    0 -0.0000000000e+00 -0.0000000000e+00 -4.5593999997e+01 4.5594000000e+01 5.1100000000e-04 0.0000e+00 1.0000e+00
       23  2    1    2    0    0 -3.5527136788e-15 +0.0000000000e+00 -8.8817841970e-16 9.1188000000e+01 9.1188000000e+01 1.8556e-14 0.0000e+00
 -9990012  2    3    3    0    0 -3.1554002960e+01 +2.1497036576e+00 +4.0546246537e+00 5.9302010762e+01 5.0000121707e+01 3.0421e-03 0.0000e+00
      -11  1    4    4    0    0 +6.2999700948e-01 -1.0871074073e+00 +9.1002072756e+00 9.1865375124e+00 5.1100000000e-04 0.0000e+00 1.0000e+00
       11  1    4    4    0    0 +2.2009096387e+00 -1.1956568609e+01 +2.0084211447e-01 1.2159106627e+01 5.1100000000e-04 0.0000e+00 -1.0000e+00
      -12  1    4    4    0    0 -3.4384909608e+01 +1.5193379674e+01 -5.2464247363e+00 3.7956366623e+01 0.0000000000e+00 0.0000e+00 1.0000e+00
       12  1    3    3    0    0 +3.1554002960e+01 -2.1497036576e+00 -4.0546246537e+00 3.1885989238e+01 0.0000000000e+00 0.0000e+00 -1.0000e+00
</event>
<event>
 8      3 +2.2883893e-04 9.11880000e+01 7.81616400e-03 1.18400000e-01
      -11 -1    0    0    0    0 +0.0000000000e+00 +0.0000000000e+00 +4.5593999997e+01 4.5594000000e+01 5.1100000000e-04 0.0000e+00 1.0000e+00
       11 -1    0    0    0    0 -0.0000000000e+00 -0.0000000000e+00 -4.5593999997e+01 4.5594000000e+01 5.1100000000e-04 0.0000e+00 -1.0000e+00
       23  2    1    2    0    0 +0.0000000000e+00 +0.0000000000e+00 -1.7763568394e-15 9.1188000000e+01 9.1188000000e+01 3.5188e-14 0.0000e+00
  9990012  2    3    3    0    0 +2.7410642402e+01 -8.4905311126e+00 -1.3902806685e+01 5.9301945538e+01 5.0000002754e+01 7.5290e-04 0.0000e+00
      -11  1    4    4    0    0 +7.2050905860e+00 -3.6023758802e+00 +1.0853822161e+01 1.3516504656e+01 5.1100000000e-04 0.0000e+00 1.0000e+00
       11  1    4    4    0    0 +1.5503171878e+01 -1.1690132595e+01 +2.7986088583e-01 1.9418698740e+01 5.1100000000e-04 0.0000e+00 -1.0000e+00
       12  1    4    4    0    0 +4.7023799376e+00 +6.8019773622e+00 -2.5036489732e+01 2.6366742142e+01 0.0000000000e+00 0.0000e+00 -1.0000e+00
      -12  1    3    3    0    0 -2.7410642402e+01 +8.4905311126e+00 +1.3902806685e+01 3.1886054462e+01 0.0000000000e+00 0.0000e+00 1.0000e+00
</event>
<event>
 8      3 +2.2883893e-04 9.11880000e+01 7.81616400e-03 1.18400000e-01
      -11 -1    0    0    0    0 +0.0000000000e+00 +0.0000000000e+00 +4.5593999997e+01 4.5594000000e+01 5.1100000000e-04 0.0000e+00 -1.0000e+00
       11 -1    0    0    0    0 -0.0000000000e+00 -0.0000000000e+00 -4.5593999997e+01 4.5594000000e+01 5.1100000000e-04 0.0000e+00 1.0000e+00
       23  2    1    2    0    0 -7.1054273576e-15 +0.0000000000e+00 -1.1102230246e-16 9.1188000000e+01 9.1188000000e+01 9.0517e-14 0.0000e+00
  9990012  2    3    3    0    0 -3.0704297508e+01 -8.5893323040e+00 -4.3669478524e-01 5.9301933808e+01 4.9999981362e+01 6.9124e-04 0.0000e+00
      -11  1    4    4    0    0 +6.5156827998e+00 -2.9905472311e+00 -8.0354381192e+00 1.0768739997e+01 5.1100000000e-04 0.0000e+00 1.0000e+00
       11  1    4    4    0    0 -3.0734983012e+00 +8.4004361656e+00 -4.0702745485e+00 9.8275558884e+00 5.1100000000e-04 0.0000e+00 -1.0000e+00
       12  1    4    4    0    0 -3.4146482006e+01 -1.3999221238e+01 +1.1669017882e+01 3.8705637923e+01 0.0000000000e+00 0.0000e+00 -1.0000e+00
      -12  1    3    3    0    0 +3.0704297508e+01 +8.5893323040e+00 +4.3669478524e-01 3.1886066192e+01 0.0000000000e+00 0.0000e+00 1.0000e+00
</event>
<event>
 8      3 +2.2883893e-04 9.11880000e+01 7.81616400e-03 1.18400000e-01
      -11 -1    0    0    0    0 +0.0000000000e+00 +0.0000000000e+00 +4.5593999997e+01 4.5594000000e+01 5.1100000000e-04 0.0000e+00 1.0000e+00
       11 -1    0    0    0    0 -0.0000000000e+00 -0.0000000000e+00 -4.5593999997e+01 4.5594000000e+01 5.1100000000e-04 0.0000e+00 -1.0000e+00
       23  2    1    2    0    0 -2.6645352591e-15 +3.5527136788e-15 +0.0000000000e+00 9.1188000000e+01 9.1188000000e+01 5.1631e-14 0.0000e+00
  9990012  2    3    3    0    0 -6.9254398516e+00 +1.8972475690e+01 -2.4673985096e+01 5.9301920099e+01 4.9999956360e+01 1.0586e-03 0.0000e+00
      -11  1    4    4    0    0 -2.9352869366e+00 +8.3043753388e+00 -6.6582683251e-01 8.8329997623e+00 5.1100000000e-04 0.0000e+00 1.0000e+00
       11  1    4    4    0    0 +6.4124543213e+00 -1.2237645480e+01 +2.3699299025e+00 1.4017706850e+01 5.1100000000e-04 0.0000e+00 -1.0000e+00
       12  1    4    4    0    0 -1.0402607236e+01 +2.2905745831e+01 -2.6378088166e+01 3.6451213487e+01 0.0000000000e+00 0.0000e+00 -1.0000e+00
      -12  1    3    3    0    0 +6.9254398516e+00 -1.8972475690e+01 +2.4673985096e+01 3.1886079901e+01 0.0000000000e+00 0.0000e+00 1.0000e+00
</event>
<event>
 8      4 +2.2883893e-04 9.11880000e+01 7.81616400e-03 1.18400000e-01
      -11 -1    0    0    0    0 +0.0000000000e+00 +0.0000000000e+00 +4.5593999997e+01 4.5594000000e+01 5.1100000000e-04 0.0000e+00 1.0000e+00
       11 -1    0    0    0    0 -0.0000000000e+00 -0.0000000000e+00 -4.5593999997e+01 4.5594000000e+01 5.1100000000e-04 0.0000e+00 -1.0000e+00
       23  2    1    2    0    0 +3.5527136788e-15 +0.0000000000e+00 +0.0000000000e+00 9.1188000000e+01 9.1188000000e+01 2.7057e-13 0.0000e+00
 -9990012  2    3    3    0    0 -1.7772278379e+01 +3.5754109150e+00 -2.6231337194e+01 5.9301945165e+01 5.0000002073e+01 6.2936e-04 0.0000e+00
      -11  1    4    4    0    0 -9.3797721677e+00 -6.6689747249e-01 +6.4130913323e+00 1.1382118382e+01 5.1100000000e-04 0.0000e+00 1.0000e+00
       11  1    4    4    0    0 +7.1383745931e+00 +2.1742023181e+00 +3.7094947067e+00 8.3333005941e+00 5.1100000000e-04 0.0000e+00 -1.0000e+00
      -12  1    4    4    0    0 -1.5530880804e+01 +2.0681060693e+00 -3.6353923233e+01 3.9586526189e+01 0.0000000000e+00 0.0000e+00 1.0000e+00
       12  1    3    3    0    0 +1.7772278379e+01 -3.5754109150e+00 +2.6231337194e+01 3.1886054835e+01 0.0000000000e+00 0.0000e+00 -1.0000e+00
</event>
<event>
 8      4 +2.2883893e-04 9.11880000e+01 7.81616400e-03 1.18400000e-01
      -11 -1    0    0    0    0 +0.0000000000e+00 +0.0000000000e+00 +4.5593999997e+01 4.5594000000e+01 5.1100000000e-04 0.0000e+00 1.0000e+00
       11 -1    0    0    0    0 -0.0000000000e+00 -0.0000000000e+00 -4.5593999997e+01 4.5594000000e+01 5.1100000000e-04 0.0000e+00 -1.0000e+00
       23  2    1    2    0    0 -1.7763568394e-15 +0.0000000000e+00 -3.5527136788e-15 9.1188000000e+01 9.1188000000e+01 1.4450e-14 0.0000e+00
 -9990012  2    3    3    0    0 +6.5623933967e+00 +2.2541758605e+01 +2.1576097937e+01 5.9301891892e+01 4.9999904916e+01 1.3322e-03 0.0000e+00
      -11  1    4    4    0    0 +1.0156332277e+01 -2.2332355333e+00 -1.3263660554e-02 1.0398971221e+01 5.1100000000e-04 0.0000e+00 1.0000e+00
       11  1    4    4    0    0 -9.4433535227e+00 +9.1745920825e-01 -6.5659721720e+00 1.1538225513e+01 5.1100000000e-04 0.0000e+00 -1.0000e+00
      -12  1    4    4    0    0 +5.8494146426e+00 +2.3857534930e+01 +2.8155333770e+01 3.7364695158e+01 0.0000000000e+00 0.0000e+00 1.0000e+00
       12  1    3    3    0    0 -6.5623933967e+00 -2.2541758605e+01 -2.1576097937e+01 3.1886108108e+01 0.0000000000e+00 0.0000e+00 -1.0000e+00
</event>
<event>
 8      3 +2.2883893e-04 9.11880000e+01 7.81616400e-03 1.18400000e-01
      -11 -1    0    0    0    0 +0.0000000000e+00 +0.0000000000e+00 +4.5593999997e+01 4.5594000000e+01 5.1100000000e-04 0.0000e+00 1.0000e+00
       11 -1    0    0    0    0 -0.0000000000e+00 -0.0000000000e+00 -4.5593999997e+01 4.5594000000e+01 5.1100000000e-04 0.0000e+00 -1.0000e+00
       23  2    1    2    0    0 +3.5527136788e-15 +0.0000000000e+00 +0.0000000000e+00 9.1188000000e+01 9.1188000000e+01 9.6542e-14 0.0000e+00
  9990012  2    3    3    0    0 -2.6762648337e+01 +1.7043794395e+01 -3.1606937790e+00 5.9301948840e+01 5.0000008777e+01 2.1706e-04 0.0000e+00
      -11  1    4    4    0    0 -1.3466830080e+01 -1.2804708858e+00 +1.0579786399e+01 1.7173438753e+01 5.1100000000e-04 0.0000e+00 1.0000e+00
       11  1    4    4    0    0 -1.9815202918e+01 -3.1060718986e-02 -3.4999617891e+00 2.0121952297e+01 5.1100000000e-04 0.0000e+00 -1.0000e+00
       12  1    4    4    0    0 +6.5193846605e+00 +1.8355326000e+01 -1.0240518389e+01 2.2006557791e+01 0.0000000000e+00 0.0000e+00 -1.0000e+00
      -12  1    3    3    0    0 +2.6762648337e+01 -1.7043794395e+01 +3.1606937790e+00 3.1886051160e+01 0.0000000000e+00 0.0000e+00 1.0000e+00
</event>
<event>
 8      3 +2.2883893e-04 9.11880000e+01 7.81616400e-03 1.18400000e-01
      -11 -1    0    0    0    0 +0.0000000000e+00 +0.0000000000e+00 +4.5593999997e+01 4.5594000000e+01 5.1100000000e-04 0.0000e+00 -1.0000e+00
       11 -1    0    0    0    0 -0.0000000000e+00 -0.0000000000e+00 -4.5593999997e+01 4.5594000000e+01 5.1100000000e-04 0.0000e+00 1.0000e+00
       23  2    1    2    0    0 +0.0000000000e+00 +6.6613381478e-16 +1.7763568394e-15 9.1188000000e+01 9.1188000000e+01 1.6701e-13 0.0000e+00
  9990012  2    3    3    0    0 +2.7627080212e+01 +1.0023015889e+00 +1.5889072637e+01 5.9301909007e+01 4.9999936131e+01 1.5850e-03 0.0000e+00
      -11  1    4    4    0    0 -3.3031238003e+00 -5.1646159168e+00 -2.6950743870e+00 6.6968134676e+00 5.1100000000e-04 0.0000e+00 1.0000e+00
       11  1    4    4    0    0 +2.6511974961e+01 -7.8485528739e+00 -1.5334540560e+00 2.7691805289e+01 5.1100000000e-04 0.0000e+00 -1.0000e+00
       12  1    4    4    0    0 +4.4182290513e+00 +1.4015470379e+01 +2.0117601080e+01 2.4913290251e+01 0.0000000000e+00 0.0000e+00 -1.0000e+00
      -12  1    3    3    0    0 -2.7627080212e+01 -1.0023015889e+00 -1.5889072637e+01 3.1886090993e+01 0.0000000000e+00 0.0000e+00 1.0000e+00
</event>
<event>
 8      3 +2.2883893e-04 9.11880000e+01 7.81616400e-03 1.18400000e-01
      -11 -1    0    0    0    0 +0.0000000000e+00 +0.0000000000e+00 +4.5593999997e+01 4.5594000000e+01 5.1100000000e-04 0.0000e+00 1.0000e+00
       11 -1    0    0    0    0 -0.0000000000e+00 -0.0000000000e+00 -4.5593999997e+01 4.5594000000e+01 5.1100000000e-04 0.0000e+00 -1.0000e+00
       23  2    1    2    0    0 -1.7763568394e-15 +0.0000000000e+00 +0.0000000000e+00 9.1188000000e+01 9.1188000000e+01 7.0062e-14 0.0000e+00
  9990012  2    3    3    0    0 +8.6889117009e+00 +2.3195007069e+01 -2.0080203966e+01 5.9301950844e+01 5.0000012431e+01 1.3602e-03 0.0000e+00
      -11  1    4    4    0    0 -3.1124255022e+00 -2.8642123230e+00 +1.9239246659e+00 4.6467613581e+00 5.1100000000e-04 0.0000e+00 1.0000e+00
       11  1    4    4    0    0 -3.3574736834e+00 +2.6265832882e+01 +1.6819457093e+00 2.6532914430e+01 5.1100000000e-04 0.0000e+00 -1.0000e+00
       12  1    4    4    0    0 +1.5158810887e+01 -2.0661348977e-01 -2.3686074341e+01 2.8122275056e+01 0.0000000000e+00 0.0000e+00 -1.0000e+00
      -12  1    3    3    0    0 -8.6889117009e+00 -2.3195007069e+01 +2.0080203966e+01 3.1886049156e+01 0.0000000000e+00 0.0000e+00 1.0000e+00
</event>
<event>
 8      3 +2.2883893e-04 9.11880000e+01 7.81616400e-03 1.18400000e-01
      -11 -1    0    0    0    0 +0.0000000000e+00 +0.0000000000e+00 +4.5593999997e+01 4.5594000000e+01 5.1100000000e-04 0.0000e+00 -1.0000e+00
       11 -1    0    0    0    0 -0.0000000000e+00 -0.0000000000e+00 -4.5593999997e+01 4.5594000000e+01 5.1100000000e-04 0.0000e+00 1.0000e+00
       23  2    1    2    0    0 +0.0000000000e+00 +3.5527136788e-15 -3.5527136788e-15 9.1188000000e+01 9.1188000000e+01 8.2055e-14 0.0000e+00
  9990012  2    3    3    0    0 +2.5780882013e+00 +2.2920942720e+01 -2.2015986913e+01 5.9301955503e+01 5.0000020928e+01 3.8261e-03 0.0000e+00
      -11  1    4    4    0    0 -8.4988247769e-01 +7.1505618768e+00 +8.1324915511e+00 1.0862331907e+01 5.1100000000e-04 0.0000e+00 1.0000e+00
       11  1    4    4    0    0 +1.0761308932e+01 +1.2260383381e+01 +9.0614340416e-01 1.6338416897e+01 5.1100000000e-04 0.0000e+00 -1.0000e+00
       12  1    4    4    0    0 -7.3333382533e+00 +3.5099974622e+00 -3.1054621868e+01 3.2101206698e+01 0.0000000000e+00 0.0000e+00 -1.0000e+00
      -12  1    3    3    0    0 -2.5780882013e+00 -2.2920942720e+01 +2.2015986913e+01 3.1886044497e+01 0.0000000000e+00 0.0000e+00 1.0000e+00
</event>
<event>
 8      3 +2.2883893e-04 9.11880000e+01 7.81616400e-03 1.18400000e-01
      -11 -1    0    0    0    0 +0.0000000000e+00 +0.0000000000e+00 +4.5593999997e+01 4.5594000000e+01 5.1100000000e-04 0.0000e+00 -1.0000e+00
       11 -1    0    0    0    0 -0.0000000000e+00 -0.0000000000e+00 -4.5593999997e+01 4.5594000000e+01 5.1100000000e-04 0.0000e+00 1.0000e+00
       23  2    1    2    0    0 +0.0000000000e+00 +2.2204460493e-16 +1.7763568394e-15 9.1188000000e+01 9.1188000000e+01 2.5452e-14 0.0000e+00
  9990012  2    3    3    0    0 -2.7555484737e+01 -1.3425617763e+00 -1.5988070338e+01 5.9301865014e+01 4.9999855898e+01 3.8139e-04 0.0000e+00
      -11  1    4    4    0    0 -1.2005984468e+01 +2.9777895868e+00 -1.3437577110e+01 1.8264155407e+01 5.1100000000e-04 0.0000e+00 1.0000e+00
       11  1    4    4    0    0 -2.3690470535e+01 -5.3128260462e+00 -1.3169318129e+01 2.7620562178e+01 5.1100000000e-04 0.0000e+00 -1.0000e+00
       12  1    4    4    0    0 +8.1409702670e+00 +9.9247468313e-01 +1.0618824901e+01 1.3417147430e+01 0.0000000000e+00 0.0000e+00 -1.0000e+00
      -12  1    3    3    0    0 +2.7555484737e+01 +1.3425617763e+00 +1.5988070338e+01 3.1886134986e+01 0.0000000000e+00 0.0000e+00 1.0000e+00
</event>
<event>
 8      3 +2.2883893e-04 9.11880000e+01 7.81616400e-03 1.18400000e-01
      -11 -1    0    0    0    0 +0.0000000000e+00 +0.0000000000e+00 +4.5593999997e+01 4.5594000000e+01 5.1100000000e-04 0.0000e+00 1.0000e+00
       11 -1    0    0    0    0 -0.0000000000e+00 -0.0000000000e+00 -4.5593999997e+01 4.5594000000e+01 5.1100000000e-04 0.0000e+00 -1.0000e+00
       23  2    1    2    0    0 +0.0000000000e+00 +0.0000000000e+00 +0.0000000000e+00 9.1188000000e+01 9.1188000000e+01 5.0064e-15 0.0000e+00
  9990012  2    3    3    0    0 +2.0055198098e+00 -2.8036323126e+01 +1.5055339499e+01 5.9301940796e+01 4.9999994106e+01 1.4954e-03 0.0000e+00
      -11  1    4    4    0    0 +6.4411834270e+00 -5.6906867250e+00 +9.8141178798e+00 1.3045676271e+01 5.1100000000e-04 0.0000e+00 1.0000e+00
       11  1    4    4    0    0 -8.7151528977e+00 -8.2284640580e+00 -1.6248298283e+01 2.0190807516e+01 5.1100000000e-04 0.0000e+00 -1.0000e+00
       12  1    4    4    0    0 +4.2794892805e+00 -1.4117172343e+01 +2.1489519902e+01 2.6065457009e+01 0.0000000000e+00 0.0000e+00 -1.0000e+00
      -12  1    3    3    0    0 -2.0055198098e+00 +2.8036323126e+01 -1.5055339499e+01 3.1886059204e+01 0.0000000000e+00 0.0000e+00 1.0000e+00
</event>
<event>
 8      3 +2.2883893e-04 9.11880000e+01 7.81616400e-03 1.18400000e-01
      -11 -1    0    0    0    0 +0.0000000000e+00 +0.0000000000e+00 +4.5593999997e+01 4.5594000000e+01 5.1100000000e-04 0.0000e+00 1.0000e+00
       11 -1    0    0    0    0 -0.0000000000e+00 -0.0000000000e+00 -4.5593999997e+01 4.5594000000e+01 5.1100000000e-04 0.0000e+00 -1.0000e+00
       23  2    1    2    0    0 +1.7763568394e-15 -3.5527136788e-15 +2.6645352591e-15 9.1188000000e+01 9.1188000000e+01 2.3962e-14 0.0000e+00
  9990012  2    3    3    0    0 +1.4420388512e+01 -2.8333087728e+01 -2.4516725528e+00 5.9301918971e+01 4.9999954303e+01 2.9941e-03 0.0000e+00
      -11  1    4    4    0    0 +3.6379883096e+00 -2.3447491766e+01 +4.8213042524e+00 2.4212905732e+01 5.1100000000e-04 0.0000e+00 1.0000e+00
       11  1    4    4    0    0 -2.7219678656e+00 +5.5946313766e+00 -1.5067764858e+01 1.6301734490e+01 5.1100000000e-04 0.0000e+00 -1.0000e+00
       12  1    4    4    0    0 +1.3504368069e+01 -1.0480227339e+01 +7.7947880529e+00 1.8787278749e+01 0.0000000000e+00 0.0000e+00 -1.0000e+00
      -12  1    3    3    0    0 -1.4420388512e+01 +2.8333087728e+01 +2.4516725528e+00 3.1886081029e+01 0.0000000000e+00 0.0000e+00 1.0000e+00
</event>
<event>
 8      4 +2.2883893e-04 9.11880000e+01 7.81616400e-03 1.18400000e-01
      -11 -1    0    0    0    0 +0.0000000000e+00 +0.0000000000e+00 +4.5593999997e+01 4.5594000000e+01 5.1100000000e-04 0.0000e+00 1.0000e+00
       11 -1    0    0    0    0 -0.0000000000e+00 -0.0000000000e+00 -4.5593999997e+01 4.5594000000e+01 5.1100000000e-04 0.0000e+00 -1.0000e+00
       23  2    1    2    0    0 +0.0000000000e+00 +0.0000000000e+00 +0.0000000000e+00 9.1188000000e+01 9.1188000000e+01 1.4301e-14 0.0000e+00
 -9990012  2    3    3    0    0 -2.3330558873e+01 -1.6106651158e+01 +1.4593920425e+01 5.9301926202e+01 4.9999967491e+01 9.0927e-04 0.0000e+00
      -11  1    4    4    0    0 -2.3369734399e+01 -9.4704134746e+00 +1.4800421830e+01 2.9238428547e+01 5.1100000000e-04 0.0000e+00 1.0000e+00
       11  1    4    4    0    0 -1.2254787677e+01 -3.3216565115e+00 -8.1203448811e+00 1.5071603241e+01 5.1100000000e-04 0.0000e+00 -1.0000e+00
      -12  1    4    4    0    0 +1.2293963203e+01 -3.3145811718e+00 +7.9138434762e+00 1.4991894415e+01 0.0000000000e+00 0.0000e+00 1.0000e+00
       12  1    3    3    0    0 +2.3330558873e+01 +1.6106651158e+01 -1.4593920425e+01 3.1886073798e+01 0.0000000000e+00 0.0000e+00 -1.0000e+00
</event>
<event>
 8      3 +2.2883893e-04 9.11880000e+01 7.81616400e-03 1.18400000e-01
      -11 -1    0    0    0    0 +0.0000000000e+00 +0.0000000000e+00 +4.5593999997e+01 4.5594000000e+01 5.1100000000e-04 0.0000e+00 -1.0000e+00
       11 -1    0    0    0    0 -0.0000000000e+00 -0.0000000000e+00 -4.5593999997e+01 4.5594000000e+01 5.1100000000e-04 0.0000e+00 1.0000e+00
       23  2    1    2    0    0 +1.7763568394e-15 +0.0000000000e+00 +0.0000000000e+00 9.1188000000e+01 9.1188000000e+01 1.0043e-13 0.0000e+00
  9990012  2    3    3    0    0 +1.4870582115e+01 -2.4314771437e+00 +2.8101082138e+01 5.9301998198e+01 5.0000098794e+01 3.6757e-03 0.0000e+00
      -11  1    4    4    0    0 -1.0463557718e+01 +1.1351804758e+01 +8.5282212281e+00 1.7637462089e+01 5.1100000000e-04 0.0000e+00 1.0000e+00
       11  1    4    4    0    0 +1.2569094611e+01 -1.9089608511e+01 +1.3678102694e+01 2.6636174388e+01 5.1100000000e-04 0.0000e+00 -1.0000e+00
       12  1    4    4    0    0 +1.2765045221e+01 +5.3063266102e+00 +5.8947582167e+00 1.5028361721e+01 0.0000000000e+00 0.0000e+00 -1.0000e+00
      -12  1    3    3    0    0 -1.4870582115e+01 +2.4314771437e+00 -2.8101082138e+01 3.1886001802e+01 0.0000000000e+00 0.0000e+00 1.0000e+00
</event>
<event>
 8      4 +2.2883893e-04 9.11880000e+01 7.81616400e-03 1.18400000e-01
      -11 -1    0    0    0    0 +0.0000000000e+00 +0.0000000000e+00 +4.5593999997e+01 4.5594000000e+01 5.1100000000e-04 0.0000e+00 -1.0000e+00
       11 -1    0    0    0    0 -0.0000000000e+00 -0.0000000000e+00 -4.5593999997e+01 4.5594000000e+01 5.1100000000e-04 0.0000e+00 1.0000e+00
       23  2    1    2    0    0 +0.0000000000e+00 +8.8817841970e-16 +5.8286708793e-16 9.1188000000e+01 9.1188000000e+01 2.1056e-14 0.0000e+00
 -9990012  2    3    3    0    0 +3.1461049785e+01 +5.1870961948e+00 -1.2951800863e-01 5.9301946695e+01 5.0000004864e+01 1.4075e-05 0.0000e+00
      -11  1    4    4    0    0 +1.1602896307e+01 -4.0775573911e+00 -1.1283029677e+01 1.6690129896e+01 5.1100000000e-04 0.0000e+00 1.0000e+00
       11  1    4    4    0    0 +7.6252272147e+00 +1.9179614865e+01 -3.6957480060e+00 2.0968077404e+01 5.1100000000e-04 0.0000e+00 -1.0000e+00
      -12  1    4    4    0    0 +1.2232926263e+01 -9.9149612790e+00 +1.4849259674e+01 2.1643739395e+01 0.0000000000e+00 0.0000e+00 1.0000e+00
       12  1    3    3    0    0 -3.1461049785e+01 -5.1870961948e+00 +1.2951800863e-01 3.1886053305e+01 0.0000000000e+00 0.0000e+00 -1.0000e+00
</event>
<event>
 8      4 +2.2883893e-04 9.11880000e+01 7.81616400e-03 1.18400000e-01
      -11 -1    0    0    0    0 +0.0000000000e+00 +0.0000000000e+00 +4.5593999997e+01 4.5594000000e+01 5.1100000000e-04 0.0000e+00 1.0000e+00
       11 -1    0    0    0    0 -0.0000000000e+00 -0.0000000000e+00 -4.5593999997e+01 4.5594000000e+01 5.1100000000e-04 0.0000e+00 -1.0000e+00
       23  2    1    2    0    0 +3.5527136788e-15 +3.3306690739e-16 +0.0000000000e+00 9.1188000000e+01 9.1188000000e+01 7.7297e-14 0.0000e+00
 -9990012  2    3    3    0    0 -3.0286258762e+01 +8.5593656339e-01 +9.9363653608e+00 5.9301930098e+01 4.9999974595e+01 1.4825e-03 0.0000e+00
      -11  1    4    4    0    0 -3.3757157908e+01 -8.4533281973e+00 +2.3809961069e+01 4.2165373400e+01 5.1100000000e-04 0.0000e+00 1.0000e+00
       11  1    4    4    0    0 +2.3942698304e+00 +7.2980760482e+00 -9.6226112000e+00 1.2312152070e+01 5.1100000000e-04 0.0000e+00 -1.0000e+00
      -12  1    4    4    0    0 +1.0766293150e+00 +2.0111887125e+00 -4.2509845084e+00 4.8244046275e+00 0.0000000000e+00 0.0000e+00 1.0000e+00
       12  1    3    3    0    0 +3.0286258762e+01 -8.5593656339e-01 -9.9363653608e+00 3.1886069902e+01 0.0000000000e+00 0.0000e+00 -1.0000e+00
</event>
<event>
 8      4 +2.2883893e-04 9.11880000e+01 7.81616400e-03 1.18400000e-01
      -11 -1    0    0    0    0 +0.0000000000e+00 +0.0000000000e+00 +4.5593999997e+01 4.5594000000e+01 5.1100000000e-04 0.0000e+00 -1.0000e+00
       11 -1    0    0    0    0 -0.0000000000e+00 -0.0000000000e+00 -4.5593999997e+01 4.5594000000e+01 5.1100000000e-04 0.0000e+00 1.0000e+00
       23  2    1    2    0    0 -1.7763568394e-15 +0.0000000000e+00 +0.0000000000e+00 9.1188000000e+01 9.1188000000e+01 1.1058e-13 0.0000e+00
 -9990012  2    3    3    0    0 -1.0593813942e+01 +1.8779250395e+01 -2.3491090632e+01 5.9301945394e+01 5.0000002492e+01 4.2513e-03 0.0000e+00
      -11  1    4    4    0    0 -8.7679595176e+00 +1.0183507782e+01 -7.0234414174e-01 1.3456382590e+01 5.1100000000e-04 0.0000e+00 1.0000e+00
       11  1    4    4    0    0 -1.8849020707e+01 +1.0285227809e+01 -7.0505239733e+00 2.2600473032e+01 5.1100000000e-04 0.0000e+00 -1.0000e+00
      -12  1    4    4    0    0 +1.7023166283e+01 -1.6894851964e+00 -1.5738222517e+01 2.3245089772e+01 0.0000000000e+00 0.0000e+00 1.0000e+00
       12  1    3    3    0    0 +1.0593813942e+01 -1.8779250395e+01 +2.3491090632e+01 3.1886054606e+01 0.0000000000e+00 0.0000e+00 -1.0000e+00
</event>
<event>
 8      3 +2.2883893e-04 9.11880000e+01 7.81616400e-03 1.18400000e-01
      -11 -1    0    0    0    0 +0.0000000000e+00 +0.0000000000e+00 +4.5593999997e+01 4.5594000000e+01 5.1100000000e-04 0.0000e+00 1.0000e+00
       11 -1    0    0    0    0 -0.0000000000e+00 -0.0000000000e+00 -4.5593999997e+01 4.5594000000e+01 5.1100000000e-04 0.0000e+00 -1.0000e+00
       23  2    1    2    0    0 -8.8817841970e-16 +3.5527136788e-15 +0.0000000000e+00 9.1188000000e+01 9.1188000000e+01 2.3682e-14 0.0000e+00
  9990012  2    3    3    0    0 +6.0100382920e-01 -3.0728892431e+01 +8.4908784641e+00 5.9301936387e+01 4.9999986065e+01 6.8373e-04 0.0000e+00
      -11  1    4    4    0    0 -7.5115995695e+00 -5.8118945549e+00 +1.0692591222e+01 1.4301529768e+01 5.1100000000e-04 0.0000e+00 1.0000e+00
       11  1    4    4    0    0 -1.4228048233e+01 -1.3837874975e+01 +9.1990693330e-01 1.9868829089e+01 5.1100000000e-04 0.0000e+00 -1.0000e+00
       12  1    4    4    0    0 +2.2340651632e+01 -1.1079122901e+01 -3.1216196915e+00 2.5131577529e+01 0.0000000000e+00 0.0000e+00 -1.0000e+00
      -12  1    3    3    0    0 -6.0100382920e-01 +3.0728892431e+01 -8.4908784641e+00 3.1886063613e+01 0.0000000000e+00 0.0000e+00 1.0000e+00
</event>
<event>
 8      4 +2.2883893e-04 9.11880000e+01 7.81616400e-03 1.18400000e-01
      -11 -1    0    0    0    0 +0.0000000000e+00 +0.0000000000e+00 +4.5593999997e+01 4.5594000000e+01 5.1100000000e-04 0.0000e+00 1.0000e+00
       11 -1    0    0    0    0 -0.0000000000e+00 -0.0000000000e+00 -4.5593999997e+01 4.5594000000e+01 5.1100000000e-04 0.0000e+00 -1.0000e+00
       23  2    1    2    0    0 -8.8817841970e-16 +0.0000000000e+00 -3.5527136788e-15 9.1188000000e+01 9.1188000000e+01 1.8686e-13 0.0000e+00
 -9990012  2    3    3    0    0 +7.5874176222e+00 +7.7734449401e+00 +2.9979151963e+01 5.9301562368e+01 4.9999303939e+01 5.4111e-03 0.0000e+00
      -11  1    4    4    0    0 +7.1428320866e+00 -7.3779582531e+00 +1.7402888691e+01 2.0206802153e+01 5.1100000000e-04 0.0000e+00 1.0000e+00
       11  1    4    4    0    0 +6.8299747330e+00 -8.1727270755e+00 +1.0281451244e+01 1.4803724621e+01 5.1100000000e-04 0.0000e+00 -1.0000e+00
      -12  1    4    4    0    0 -6.3853891974e+00 +2.3324130269e+01 +2.2948120286e+00 2.4291035594e+01 0.0000000000e+00 0.0000e+00 1.0000e+00
       12  1    3    3    0    0 -7.5874176222e+00 -7.7734449401e+00 -2.9979151963e+01 3.1886437632e+01 0.0000000000e+00 0.0000e+00 -1.0000e+00
</event>
<event>
 8      4 +2.2883893e-04 9.11880000e+01 7.81616400e-03 1.18400000e-01
      -11 -1    0    0    0    0 +0.0000000000e+00 +0.0000000000e+00 +4.5593999997e+01 4.5594000000e+01 5.1100000000e-04 0.0000e+00 1.0000e+00
       11 -1    0    0    0    0 -0.0000000000e+00 -0.0000000000e+00 -4.5593999997e+01 4.5594000000e+01 5.1100000000e-04 0.0000e+00 -1.0000e+00
       23  2    1    2    0    0 +0.0000000000e+00 +3.5527136788e-15 +8.8817841970e-16 9.1188000000e+01 9.1188000000e+01 8.7332e-14 0.0000e+00
 -9990012  2    3    3    0    0 -1.3560636555e+01 -2.8740951953e+01 +2.6051244765e+00 5.9301955145e+01 5.0000020275e+01 2.8440e-03 0.0000e+00
      -11  1    4    4    0    0 +2.7535450817e+00 +7.5727239477e-01 -3.0794150180e+00 4.1997939367e+00 5.1100000000e-04 0.0000e+00 1.0000e+00
       11  1    4    4    0    0 -1.2911953814e+01 +8.3676406525e+00 -3.9435374587e+00 1.5883559089e+01 5.1100000000e-04 0.0000e+00 -1.0000e+00
      -12  1    4    4    0    0 -3.4022278231e+00 -3.7865865000e+01 +9.6280769532e+00 3.9218602119e+01 0.0000000000e+00 0.0000e+00 1.0000e+00
       12  1    3    3    0    0 +1.3560636555e+01 +2.8740951953e+01 -2.6051244765e+00 3.1886044855e+01 0.0000000000e+00 0.0000e+00 -1.0000e+00
</event>
<event>
 8      3 +2.2883893e-04 9.11880000e+01 7.81616400e-03 1.18400000e-01
      -11 -1    0    0    0    0 +0.0000000000e+00 +0.0000000000e+00 +4.5593999997e+01 4.5594000000e+01 5.1100000000e-04 0.0000e+00 1.0000e+00
       11 -1    0    0    0    0 -0.0000000000e+00 -0.0000000000e+00 -4.5593999997e+01 4.5594000000e+01 5.1100000000e-04 0.0000e+00 -1.0000e+00
       23  2    1    2    0    0 -1.7763568394e-15 +0.0000000000e+00 +0.0000000000e+00 9.1188000000e+01 9.1188000000e+01 1.3249e-13 0.0000e+00
  9990012  2    3    3    0    0 +1.4310622702e+01 -1.7557882237e+01 -2.2442088561e+01 5.9301945215e+01 5.0000002165e+01 3.1933e-04 0.0000e+00
      -11  1    4    4    0    0 +2.4790811294e-01 -1.0342713118e+01 +4.5835999598e+00 1.1315589332e+01 5.1100000000e-04 0.0000e+00 1.0000e+00
       11  1    4    4    0    0 +2.6552537605e+00 -1.2011477772e+01 +5.2837240198e+00 1.3388192954e+01 5.1100000000e-04 0.0000e+00 -1.0000e+00
       12  1    4    4    0    0 +1.1407460829e+01 +4.7963086537e+00 -3.2309412541e+01 3.4598162928e+01 0.0000000000e+00 0.0000e+00 -1.0000e+00
      -12  1    3    3    0    0 -1.4310622702e+01 +1.7557882237e+01 +2.2442088561e+01 3.1886054785e+01 0.0000000000e+00 0.0000e+00 1.0000e+00
</event>
<event>
 8      4 +2.2883893e-04 9.11880000e+01 7.81616400e-03 1.18400000e-01
      -11 -1    0    0    0    0 +0.0000000000e+00 +0.0000000000e+00 +4.5593999997e+01 4.5594000000e+01 5.1100000000e-04 0.0000e+00 -1.0000e+00
       11 -1    0    0    0    0 -0.0000000000e+00 -0.0000000000e+00 -4.5593999997e+01 4.5594000000e+01 5.1100000000e-04 0.0000e+00 1.0000e+00
       23  2    1    2    0    0 +4.4408920985e-16 +0.0000000000e+00 +0.0000000000e+00 9.1188000000e+01 9.1188000000e+01 1.8299e-13 0.0000e+00
 -9990012  2    3    3    0    0 +3.9699397124e+00 +2.5377147169e+01 -1.8893425789e+01 5.9301928467e+01 4.9999971621e+01 1.4960e-04 0.0000e+00
      -11  1    4    4    0    0 +2.4705091355e+01 +1.3647433463e+01 -1.4246009191e+01 3.1615546130e+01 5.1100000000e-04 0.0000e+00 1.0000e+00
       11  1    4    4    0    0 -6.9252113508e+00 +3.5215970236e-01 +3.7915595304e+00 7.9030685587e+00 5.1100000000e-04 0.0000e+00 -1.0000e+00
      -12  1    4    4    0    0 -1.3809940291e+01 +1.1377554004e+01 -8.4389761284e+00 1.9783313779e+01 0.0000000000e+00 0.0000e+00 1.0000e+00
       12  1    3    3    0    0 -3.9699397124e+00 -2.5377147169e+01 +1.8893425789e+01 3.1886071533e+01 0.0000000000e+00 0.0000e+00 -1.0000e+00
</event>
<event>
 8      4 +2.2883893e-04 9.11880000e+01 7.81616400e-03 1.18400000e-01
      -11 -1    0    0    0    0 +0.0000000000e+00 +0.0000000000e+00 +4.5593999997e+01 4.5594000000e+01 5.1100000000e-04 0.0000e+00 -1.0000e+00
       11 -1    0    0    0    0 -0.0000000000e+00 -0.0000000000e+00 -4.5593999997e+01 4.5594000000e+01 5.1100000000e-04 0.0000e+00 1.0000e+00
       23  2    1    2    0    0 +0.0000000000e+00 -8.8817841970e-16 +0.0000000000e+00 9.1188000000e+01 9.1188000000e+01 3.1496e-14 0.0000e+00
 -9990012  2    3    3    0    0 -2.5065122029e+01 +5.6444715838e+00 +1.8883864023e+01 5.9301941570e+01 4.9999995517e+01 1.0883e-03 0.0000e+00
      -11  1    4    4    0    0 -5.2406489618e+00 -8.5086142223e+00 +1.8837834653e+01 2.1324280345e+01 5.1100000000e-04 0.0000e+00 -1.0000e+00
       11  1    4    4    0    0 -1.4369004963e+01 +6.6997428070e+00 +1.4062028168e+01 2.1191873295e+01 5.1100000000e-04 0.0000e+00 1.0000e+00
      -12  1    4    4    0    0 -5.4554681042e+00 +7.4533429991e+00 -1.4015998799e+01 1.6785787930e+01 0.0000000000e+00 0.0000e+00 1.0000e+00
       12  1    3    3    0    0 +2.5065122029e+01 -5.6444715838e+00 -1.8883864023e+01 3.1886058430e+01 0.0000000000e+00 0.0000e+00 -1.0000e+00
</event>
<event>
 8      3 +2.2883893e-04 9.11880000e+01 7.81616400e-03 1.18400000e-01
      -11 -1    0    0    0    0 +0.0000000000e+00 +0.0000000000e+00 +4.5593999997e+01 4.5594000000e+01 5.1100000000e-04 0.0000e+00 1.0000e+00
       11 -1    0    0    0    0 -0.0000000000e+00 -0.0000000000e+00 -4.5593999997e+01 4.5594000000e+01 5.1100000000e-04 0.0000e+00 -1.0000e+00
       23  2    1    2    0    0 +1.7763568394e-15 -3.5527136788e-15 -1.7763568394e-15 9.1188000000e+01 9.1188000000e+01 1.0639e-13 0.0000e+00
  9990012  2    3    3    0    0 +1.1291210090e+01 -2.7313089643e+01 -1.1967559536e+01 5.9301972145e+01 5.0000051279e+01 4.2249e-04 0.0000e+00
      -11  1    4    4    0    0 -1.1235372550e+01 +7.1265414795e+00 -2.8317923029e+00 1.3602949595e+01 5.1100000000e-04 0.0000e+00 1.0000e+00
       11  1    4    4    0    0 +9.0303624112e+00 -1.0873686313e+01 +5.1131227248e+00 1.5030918920e+01 5.1100000000e-04 0.0000e+00 -1.0000e+00
       12  1    4    4    0    0 +1.3496220229e+01 -2.3565944809e+01 -1.4248889957e+01 3.0668103630e+01 0.0000000000e+00 0.0000e+00 -1.0000e+00
      -12  1    3    3    0    0 -1.1291210090e+01 +2.7313089643e+01 +1.1967559536e+01 3.1886027855e+01 0.0000000000e+00 0.0000e+00 1.0000e+00
</event>
<event>
 8      4 +2.2883893e-04 9.11880000e+01 7.81616400e-03 1.18400000e-01
      -11 -1    0    0    0    0 +0.0000000000e+00 +0.0000000000e+00 +4.5593999997e+01 4.5594000000e+01 5.1100000000e-04 0.0000e+00 -1.0000e+00
       11 -1    0    0    0    0 -0.0000000000e+00 -0.0000000000e+00 -4.5593999997e+01 4.5594000000e+01 5.1100000000e-04 0.0000e+00 1.0000e+00
       23  2    1    2    0    0 +0.0000000000e+00 +0.0000000000e+00 +8.8817841970e-16 9.1188000000e+01 9.1188000000e+01 4.0609e-14 0.0000e+00
 -9990012  2    3    3    0    0 -2.6968145857e+01 +1.6815451587e+01 +2.5853268459e+00 5.9301886754e+01 4.9999895547e+01 1.6320e-04 0.0000e+00
      -11  1    4    4    0    0 -5.2086484197e+00 +9.5990753393e+00 +1.4208724510e+01 1.7920940773e+01 5.1100000000e-04 0.0000e+00 1.0000e+00
       11  1    4    4    0    0 -1.7824769828e+01 +1.4882299587e+01 +3.9771192479e+00 2.3558920565e+01 5.1100000000e-04 0.0000e+00 -1.0000e+00
      -12  1    4    4    0    0 -3.9347276084e+00 -7.6659233389e+00 -1.5600516912e+01 1.7822025416e+01 0.0000000000e+00 0.0000e+00 1.0000e+00
       12  1    3    3    0    0 +2.6968145857e+01 -1.6815451587e+01 -2.5853268459e+00 3.1886113246e+01 0.0000000000e+00 0.0000e+00 -1.0000e+00
</event>
<event>
 8      4 +2.2883893e-04 9.11880000e+01 7.81616400e-03 1.18400000e-01
      -11 -1    0    0    0    0 +0.0000000000e+00 +0.0000000000e+00 +4.5593999997e+01 4.5594000000e+01 5.1100000000e-04 0.0000e+00 1.0000e+00
       11 -1    0    0    0    0 -0.0000000000e+00 -0.0000000000e+00 -4.5593999997e+01 4.5594000000e+01 5.1100000000e-04 0.0000e+00 -1.0000e+00
       23  2    1    2    0    0 +8.8817841970e-16 +8.8817841970e-16 +3.5527136788e-15 9.1188000000e+01 9.1188000000e+01 3.4638e-14 0.0000e+00
 -9990012  2    3    3    0    0 +5.3528715483e+00 -6.4844018986e-01 +3.1426879511e+01 5.9301914252e+01 4.9999945697e+01 1.2931e-03 0.0000e+00
      -11  1    4    4    0    0 -1.6027784720e+01 -1.3835471500e+01 +1.9930229909e+01 2.9077899153e+01 5.1100000000e-04 0.0000e+00 1.0000e+00
       11  1    4    4    0    0 +4.2280862993e+00 -1.6324963335e+00 -5.3029448582e-01 4.5632193171e+00 5.1100000000e-04 0.0000e+00 -1.0000e+00
      -12  1    4    4    0    0 +1.7152569969e+01 +1.4819527643e+01 +1.2026944088e+01 2.5660795783e+01 0.0000000000e+00 0.0000e+00 1.0000e+00
       12  1    3    3    0    0 -5.3528715483e+00 +6.4844018986e-01 -3.1426879511e+01 3.1886085748e+01 0.0000000000e+00 0.0000e+00 -1.0000e+00
</event>
<event>
 8      4 +2.2883893e-04 9.11880000e+01 7.81616400e-03 1.18400000e-01
      -11 -1    0    0    0    0 +0.0000000000e+00 +0.0000000000e+00 +4.5593999997e+01 4.5594000000e+01 5.1100000000e-04 0.0000e+00 1.0000e+00
       11 -1    0    0    0    0 -0.0000000000e+00 -0.0000000000e+00 -4.5593999997e+01 4.5594000000e+01 5.1100000000e-04 0.0000e+00 -1.0000e+00
       23  2    1    2    0    0 -1.6653345369e-16 +3.5527136788e-15 +3.5527136788e-15 9.1188000000e+01 9.1188000000e+01 1.8107e-14 0.0000e+00
 -9990012  2    3    3    0    0 +2.8670859064e-01 +1.7568055661e+01 +2.6608289239e+01 5.9301955439e+01 5.0000020811e+01 1.7667e-03 0.0000e+00
      -11  1    4    4    0    0 +3.9498656116e+00 +7.2753601545e-01 +1.6012312738e+01 1.6508328397e+01 5.1100000000e-04 0.0000e+00 1.0000e+00
       11  1    4    4    0    0 -2.7488692478e+00 -1.0104274579e+01 +1.1837946197e+01 1.5804734017e+01 5.1100000000e-04 0.0000e+00 -1.0000e+00
      -12  1    4    4    0    0 -9.1428777321e-01 +2.6944794225e+01 -1.2419696958e+00 2.6988893024e+01 0.0000000000e+00 0.0000e+00 1.0000e+00
       12  1    3    3    0    0 -2.8670859064e-01 -1.7568055661e+01 -2.6608289239e+01 3.1886044561e+01 0.0000000000e+00 0.0000e+00 -1.0000e+00
</event>
<event>
 8      4 +2.2883893e-04 9.11880000e+01 7.81616400e-03 1.18400000e-01
      -11 -1    0    0    0    0 +0.0000000000e+00 +0.0000000000e+00 +4.5593999997e+01 4.5594000000e+01 5.1100000000e-04 0.0000e+00 1.0000e+00
       11 -1    0    0    0    0 -0.0000000000e+00 -0.0000000000e+00 -4.5593999997e+01 4.5594000000e+01 5.1100000000e-04 0.0000e+00 -1.0000e+00
       23  2    1    2    0    0 +0.0000000000e+00 +1.7763568394e-15 +0.0000000000e+00 9.1188000000e+01 9.1188000000e+01 2.6152e-14 0.0000e+00
 -9990012  2    3    3    0    0 +2.1904429487e+01 +9.7564889335e+00 +2.1017329805e+01 5.9301933144e+01 4.9999980150e+01 5.8533e-04 0.0000e+00
      -11  1    4    4    0    0 +2.9865782155e-01 -6.5072464694e+00 +1.3363519184e+01 1.4866643815e+01 5.1100000000e-04 0.0000e+00 1.0000e+00
       11  1    4    4    0    0 +2.1521084009e+01 -5.2863216009e+00 +5.0440374824e+00 2.2727616843e+01 5.1100000000e-04 0.0000e+00 -1.0000e+00
      -12  1    4    4    0    0 +8.4687655810e-02 +2.1550057004e+01 +2.6097731392e+00 2.1707672485e+01 0.0000000000e+00 0.0000e+00 1.0000e+00
       12  1    3    3    0    0 -2.1904429487e+01 -9.7564889335e+00 -2.1017329805e+01 3.1886066856e+01 0.0000000000e+00 0.0000e+00 -1.0000e+00
</event>
<event>
 8      4 +2.2883893e-04 9.11880000e+01 7.81616400e-03 1.18400000e-01
      -11 -1    0    0    0    0 +0.0000000000e+00 +0.0000000000e+00 +4.5593999997e+01 4.5594000000e+01 5.1100000000e-04 0.0000e+00 1.0000e+00
       11 -1    0    0    0    0 -0.0000000000e+00 -0.0000000000e+00 -4.5593999997e+01 4.5594000000e+01 5.1100000000e-04 0.0000e+00 -1.0000e+00
       23  2    1    2    0    0 -1.7763568394e-15 -3.5527136788e-15 +8.8817841970e-16 9.1188000000e+01 9.1188000000e+01 1.9547e-13 0.0000e+00
 -9990012  2    3    3    0    0 +1.4255382080e+01 +2.8372232953e+01 +2.9192538888e+00 5.9301928366e+01 4.9999971436e+01 1.7962e-03 0.0000e+00
      -11  1    4    4    0    0 +6.1349571671e+00 -7.7806417957e+00 +2.2096395260e+00 1.0151777839e+01 5.1100000000e-04 0.0000e+00 1.0000e+00
       11  1    4    4    0    0 +5.0687328632e-01 +8.4740056458e+00 -1.4395187942e+01 1.6711885841e+01 5.1100000000e-04 0.0000e+00 -1.0000e+00
      -12  1    4    4    0    0 +7.6135516261e+00 +2.7678869103e+01 +1.5104802304e+01 3.2438264686e+01 0.0000000000e+00 0.0000e+00 1.0000e+00
       12  1    3    3    0    0 -1.4255382080e+01 -2.8372232953e+01 -2.9192538888e+00 3.1886071634e+01 0.0000000000e+00 0.0000e+00 -1.0000e+00
</event>
<event>
 8      3 +2.2883893e-04 9.11880000e+01 7.81616400e-03 1.18400000e-01
      -11 -1    0    0    0    0 +0.0000000000e+00 +0.0000000000e+00 +4.5593999997e+01 4.5594000000e+01 5.1100000000e-04 0.0000e+00 1.0000e+00
       11 -1    0    0    0    0 -0.0000000000e+00 -0.0000000000e+00 -4.5593999997e+01 4.5594000000e+01 5.1100000000e-04 0.0000e+00 -1.0000e+00
       23  2    1    2    0    0 -3.5527136788e-15 +0.0000000000e+00 +3.5527136788e-15 9.1188000000e+01 9.1188000000e+01 4.1082e-15 0.0000e+00
  9990012  2    3    3    0    0 +2.0526303015e+01 +5.5623353534e+00 -2.3758188948e+01 5.9301949255e+01 5.0000009533e+01 1.1585e-03 0.0000e+00
      -11  1    4    4    0    0 -3.9902407584e+00 -8.2495828750e+00 -5.1726990881e+00 1.0523044001e+01 5.1100000000e-04 0.0000e+00 1.0000e+00
       11  1    4    4    0    0 -6.6811503665e+00 +1.6924730171e+00 +4.4001151425e+00 8.1769950875e+00 5.1100000000e-04 0.0000e+00 -1.0000e+00
       12  1    4    4    0    0 +3.1197694140e+01 +1.2119445211e+01 -2.2985605002e+01 4.0601910167e+01 0.0000000000e+00 0.0000e+00 -1.0000e+00
      -12  1    3    3    0    0 -2.0526303015e+01 -5.5623353534e+00 +2.3758188948e+01 3.1886050745e+01 0.0000000000e+00 0.0000e+00 1.0000e+00
</event>
<event>
 8      3 +2.2883893e-04 9.11880000e+01 7.81616400e-03 1.18400000e-01
      -11 -1    0    0    0    0 +0.0000000000e+00 +0.0000000000e+00 +4.5593999997e+01 4.5594000000e+01 5.1100000000e-04 0.0000e+00 1.0000e+00
       11 -1    0    0    0    0 -0.0000000000e+00 -0.0000000000e+00 -4.5593999997e+01 4.5594000000e+01 5.1100000000e-04 0.0000e+00 -1.0000e+00
       23  2    1    2    0    0 +0.0000000000e+00 +0.0000000000e+00 -1.7763568394e-15 9.1188000000e+01 9.1188000000e+01 4.6324e-14 0.0000e+00
  9990012  2    3    3    0    0 -1.8805466347e+01 +2.1486349838e+01 +1.4192044961e+01 5.9301906886e+01 4.9999932263e+01 2.9492e-03 0.0000e+00
      -11  1    4    4    0    0 -3.2325432772e+00 -3.7535785882e+00 +2.2022675429e+00 5.4211318789e+00 5.1100000000e-04 0.0000e+00 1.0000e+00
       11  1    4    4    0    0 +5.9924904458e+00 +1.8929148098e+01 -1.0182099443e+01 2.2313622269e+01 5.1100000000e-04 0.0000e+00 -1.0000e+00
       12  1    4    4    0    0 -2.1565413516e+01 +6.3107803287e+00 +2.2171876861e+01 3.1567152738e+01 0.0000000000e+00 0.0000e+00 -1.0000e+00
      -12  1    3    3    0    0 +1.8805466347e+01 -2.1486349838e+01 -1.4192044961e+01 3.1886093114e+01 0.0000000000e+00 0.0000e+00 1.0000e+00
</event>
<event>
 8      4 +2.2883893e-04 9.11880000e+01 7.81616400e-03 1.18400000e-01
      -11 -1    0    0    0    0 +0.0000000000e+00 +0.0000000000e+00 +4.5593999997e+01 4.5594000000e+01 5.1100000000e-04 0.0000e+00 1.0000e+00
       11 -1    0    0    0    0 -0.0000000000e+00 -0.0000000000e+00 -4.5593999997e+01 4.5594000000e+01 5.1100000000e-04 0.0000e+00 -1.0000e+00
       23  2    1    2    0    0 +8.8817841970e-16 +0.0000000000e+00 +0.0000000000e+00 9.1188000000e+01 9.1188000000e+01 1.4367e-14 0.0000e+00
 -9990012  2    3    3    0    0 +3.2563013819e+00 +2.6782888414e+01 +1.6993880474e+01 5.9301975098e+01 5.0000056664e+01 6.8500e-04 0.0000e+00
      -11  1    4    4    0    0 +6.8833423244e-01 +7.6851867190e+00 -5.4679143395e+00 9.4569543938e+00 5.1100000000e-04 0.0000e+00 1.0000e+00
       11  1    4    4    0    0 +7.7924202961e+00 -6.2184668696e+00 -5.8085047000e+00 1.1538191860e+01 5.1100000000e-04 0.0000e+00 -1.0000e+00
      -12  1    4    4    0    0 -5.2244531466e+00 +2.5316168565e+01 +2.8270299514e+01 3.8306828844e+01 0.0000000000e+00 0.0000e+00 1.0000e+00
       12  1    3    3    0    0 -3.2563013819e+00 -2.6782888414e+01 -1.6993880474e+01 3.1886024902e+01 0.0000000000e+00 0.0000e+00 -1.0000e+00
</event>
<event>
 8      3 +2.2883893e-04 9.11880000e+01 7.81616400e-03 1.18400000e-01
      -11 -1    0    0    0    0 +0.0000000000e+00 +0.0000000000e+00 +4.5593999997e+01 4.5594000000e+01 5.1100000000e-04 0.0000e+00 1.0000e+00
       11 -1    0    0    0    0 -0.0000000000e+00 -0.0000000000e+00 -4.5593999997e+01 4.5594000000e+01 5.1100000000e-04 0.0000e+00 -1.0000e+00
       23  2    1    2    0    0 +0.0000000000e+00 -3.5527136788e-15 +0.0000000000e+00 9.1188000000e+01 9.1188000000e+01 8.8272e-14 0.0000e+00
  9990012  2    3    3    0    0 -1.3465633053e+01 -2.6874240654e+01 -1.0638171265e+01 5.9301972149e+01 5.0000051287e+01 7.5445e-04 0.0000e+00
      -11  1    4    4    0    0 -2.1328483621e+01 -9.0743407871e+00 -4.7548166805e-01 2.3183484582e+01 5.1100000000e-04 0.0000e+00 1.0000e+00
       11  1    4    4    0    0 -5.4504816398e+00 +5.0966145625e+00 -5.3923839544e+00 9.2065756434e+00 5.1100000000e-04 0.0000e+00 -1.0000e+00
       12  1    4    4    0    0 +1.3313332207e+01 -2.2896514429e+01 -4.7703056421e+00 2.6911911924e+01 0.0000000000e+00 0.0000e+00 -1.0000e+00
      -12  1    3    3    0    0 +1.3465633053e+01 +2.6874240654e+01 +1.0638171265e+01 3.1886027851e+01 0.0000000000e+00 0.0000e+00 1.0000e+00
</event>
<event>
 8      4 +2.2883893e-04 9.11880000e+01 7.81616400e-03 1.18400000e-01
      -11 -1    0    0    0    0 +0.0000000000e+00 +0.0000000000e+00 +4.5593999997e+01 4.5594000000e+01 5.1100000000e-04 0.0000e+00 -1.0000e+00
       11 -1    0    0    0    0 -0.0000000000e+00 -0.0000000000e+00 -4.5593999997e+01 4.5594000000e+01 5.1100000000e-04 0.0000e+00 1.0000e+00
       23  2    1    2    0    0 +3.5527136788e-15 +0.0000000000e+00 +0.0000000000e+00 9.1188000000e+01 9.1188000000e+01 4.3550e-14 0.0000e+00
 -9990012  2    3    3    0    0 +1.6683912242e+01 +2.3708441224e+01 -1.3276894312e+01 5.9301968018e+01 5.0000043753e+01 4.7130e-04 0.0000e+00
      -11  1    4    4    0    0 -9.2464510089e-01 -3.1331471202e+00 +1.0151505378e+01 1.0664175596e+01 5.1100000000e-04 0.0000e+00 1.0000e+00
       11  1    4    4    0    0 -2.6922774665e-01 -5.3968612081e+00 -1.0239522881e+00 5.4997339052e+00 5.1100000000e-04 0.0000e+00 -1.0000e+00
      -12  1    4    4    0    0 +1.7877785089e+01 +3.2238449552e+01 -2.2404447402e+01 4.3138058517e+01 0.0000000000e+00 0.0000e+00 1.0000e+00
       12  1    3    3    0    0 -1.6683912242e+01 -2.3708441224e+01 +1.3276894312e+01 3.1886031982e+01 0.0000000000e+00 0.0000e+00 -1.0000e+00
</event>
<event>
 8      3 +2.2883893e-04 9.11880000e+01 7.81616400e-03 1.18400000e-01
      -11 -1    0    0    0    0 +0.0000000000e+00 +0.0000000000e+00 +4.5593999997e+01 4.5594000000e+01 5.1100000000e-04 0.0000e+00 1.0000e+00
       11 -1    0    0    0    0 -0.0000000000e+00 -0.0000000000e+00 -4.5593999997e+01 4.5594000000e+01 5.1100000000e-04 0.0000e+00 -1.0000e+00
       23  2    1    2    0    0 +0.0000000000e+00 -1.7763568394e-15 +0.0000000000e+00 9.1188000000e+01 9.1188000000e+01 6.5743e-15 0.0000e+00
  9990012  2    3    3    0    0 -1.5976621430e+01 +1.1021561388e+01 -2.5298102855e+01 5.9301933203e+01 4.9999980259e+01 1.7574e-03 0.0000e+00
      -11  1    4    4    0    0 -2.1026484663e+01 -3.6588967802e+00 -1.9006855447e+01 2.8579033175e+01 5.1100000000e-04 0.0000e+00 1.0000e+00
       11  1    4    4    0    0 -1.0301936903e+01 +4.0741613639e+00 -1.5133996935e-01 1.1079332057e+01 5.1100000000e-04 0.0000e+00 -1.0000e+00
       12  1    4    4    0    0 +1.5351800136e+01 +1.0606296804e+01 -6.1399074379e+00 1.9643567972e+01 0.0000000000e+00 0.0000e+00 -1.0000e+00
      -12  1    3    3    0    0 +1.5976621430e+01 -1.1021561388e+01 +2.5298102855e+01 3.1886066797e+01 0.0000000000e+00 0.0000e+00 1.0000e+00
</event>
<event>
 8      4 +2.2883893e-04 9.11880000e+01 7.81616400e-03 1.18400000e-01
      -11 -1    0    0    0    0 +0.0000000000e+00 +0.0000000000e+00 +4.5593999997e+01 4.5594000000e+01 5.1100000000e-04 0.0000e+00 1.0000e+00
       11 -1    0    0    0    0 -0.0000000000e+00 -0.0000000000e+00 -4.5593999997e+01 4.5594000000e+01 5.1100000000e-04 0.0000e+00 -1.0000e+00
       23  2    1    2    0    0 -3.5527136788e-15 -8.8817841970e-16 +1.7763568394e-15 9.1188000000e+01 9.1188000000e+01 4.0974e-15 0.0000e+00
 -9990012  2    3    3    0    0 -2.8026298274e+01 +4.6989106140e+00 +1.4462609534e+01 5.9301949281e+01 5.0000009580e+01 4.4596e-04 0.0000e+00
      -11  1    4    4    0    0 -8.3982596292e+00 -1.1393573352e+00 +1.5893409839e+00 8.6229290245e+00 5.1100000000e-04 0.0000e+00 1.0000e+00
       11  1    4    4    0    0 -8.3999952143e+00 -1.9326412032e+01 +2.4387055460e+00 2.1213613710e+01 5.1100000000e-04 0.0000e+00 -1.0000e+00
      -12  1    4    4    0    0 -1.1228043431e+01 +2.5164679981e+01 +1.0434563005e+01 2.9465406546e+01 0.0000000000e+00 0.0000e+00 1.0000e+00
       12  1    3    3    0    0 +2.8026298274e+01 -4.6989106140e+00 -1.4462609534e+01 3.1886050719e+01 0.0000000000e+00 0.0000e+00 -1.0000e+00
</event>
<event>
 8      4 +2.2883893e-04 9.11880000e+01 7.81616400e-03 1.18400000e-01
      -11 -1    0    0    0    0 +0.0000000000e+00 +0.0000000000e+00 +4.5593999997e+01 4.5594000000e+01 5.1100000000e-04 0.0000e+00 -1.0000e+00
       11 -1    0    0    0    0 -0.0000000000e+00 -0.0000000000e+00 -4.5593999997e+01 4.5594000000e+01 5.1100000000e-04 0.0000e+00 1.0000e+00
       23  2    1    2    0    0 -3.5527136788e-15 +3.5527136788e-15 +0.0000000000e+00 9.1188000000e+01 9.1188000000e+01 7.5310e-14 0.0000e+00
 -9990012  2    3    3    0    0 +1.8050432982e+01 +2.3342422565e+01 -1.2084410771e+01 5.9301955942e+01 5.0000021728e+01 1.3840e-03 0.0000e+00
      -11  1    4    4    0    0 +8.6690752426e+00 +7.1492920857e+00 -1.7249702386e+01 2.0586827720e+01 5.1100000000e-04 0.0000e+00 1.0000e+00
       11  1    4    4    0    0 -6.3295323351e+00 +1.4435841642e+01 -8.4204362715e+00 1.7870653339e+01 5.1100000000e-04 0.0000e+00 -1.0000e+00
      -12  1    4    4    0    0 +1.5710890074e+01 +1.7572888374e+00 +1.3585727886e+01 2.0844474883e+01 0.0000000000e+00 0.0000e+00 1.0000e+00
       12  1    3    3    0    0 -1.8050432982e+01 -2.3342422565e+01 +1.2084410771e+01 3.1886044058e+01 0.0000000000e+00 0.0000e+00 -1.0000e+00
</event>
<event>
 8      3 +2.2883893e-04 9.11880000e+01 7.81616400e-03 1.18400000e-01
      -11 -1    0    0    0    0 +0.0000000000e+00 +0.0000000000e+00 +4.5593999997e+01 4.5594000000e+01 5.1100000000e-04 0.0000e+00 -1.0000e+00
       11 -1    0    0    0    0 -0.0000000000e+00 -0.0000000000e+00 -4.5593999997e+01 4.5594000000e+01 5.1100000000e-04 0.0000e+00 1.0000e+00
       23  2    1    2    0    0 +0.0000000000e+00 +3.5527136788e-15 +0.0000000000e+00 9.1188000000e+01 9.1188000000e+01 1.3883e-14 0.0000e+00
  9990012  2    3    3    0    0 +2.0139482692e+01 -2.0257673279e+01 +1.4168473345e+01 5.9301988542e+01 5.0000081183e+01 2.8169e-03 0.0000e+00
      -11  1    4    4    0    0 -1.4219959338e+01 -2.7929232899e+00 -4.1197304009e+00 1.5065850222e+01 5.1100000000e-04 0.0000e+00 1.0000e+00
       11  1    4    4    0    0 +6.3620375357e+00 -8.5153932583e+00 +7.1156463413e+00 1.2791398167e+01 5.1100000000e-04 0.0000e+00 -1.0000e+00
       12  1    4    4    0    0 +2.7997404495e+01 -8.9493567307e+00 +1.1172557404e+01 3.1444740153e+01 0.0000000000e+00 0.0000e+00 -1.0000e+00
      -12  1    3    3    0    0 -2.0139482692e+01 +2.0257673279e+01 -1.4168473345e+01 3.1886011458e+01 0.0000000000e+00 0.0000e+00 1.0000e+00
</event>
<event>
 8      3 +2.2883893e-04 9.11880000e+01 7.81616400e-03 1.18400000e-01
      -11 -1    0    0    0    0 +0.0000000000e+00 +0.0000000000e+00 +4.5593999997e+01 4.5594000000e+01 5.1100000000e-04 0.0000e+00 -1.0000e+00
       11 -1    0    0    0    0 -0.0000000000e+00 -0.0000000000e+00 -4.5593999997e+01 4.5594000000e+01 5.1100000000e-04 0.0000e+00 1.0000e+00
       23  2    1    2    0    0 +4.4408920985e-16 -3.5527136788e-15 -3.5527136788e-15 9.1188000000e+01 9.1188000000e+01 1.1659e-13 0.0000e+00
  9990012  2    3    3    0    0 -2.3707658218e+00 +2.9952428847e+01 +1.0674830895e+01 5.9301944442e+01 5.0000000756e+01 1.1127e-03 0.0000e+00
      -11  1    4    4    0    0 -1.8887730474e+00 +3.8199541957e+00 -7.7947069966e+00 8.8835224492e+00 5.1100000000e-04 0.0000e+00 1.0000e+00
       11  1    4    4    0    0 -1.0388146109e+00 +7.8905801155e+00 -1.2296048511e+01 1.4646951887e+01 5.1100000000e-04 0.0000e+00 -1.0000e+00
       12  1    4    4    0    0 +5.5682183647e-01 +1.8241894536e+01 +3.0765586402e+01 3.5771470105e+01 0.0000000000e+00 0.0000e+00 -1.0000e+00
      -12  1    3    3    0    0 +2.3707658218e+00 -2.9952428847e+01 -1.0674830895e+01 3.1886055558e+01 0.0000000000e+00 0.0000e+00 1.0000e+00
</event>
<event>
 8      3 +2.2883893e-04 9.11880000e+01 7.81616400e-03 1.18400000e-01
      -11 -1    0    0    0    0 +0.0000000000e+00 +0.0000000000e+00 +4.5593999997e+01 4.5594000000e+01 5.1100000000e-04 0.0000e+00 1.0000e+00
       11 -1    0    0    0    0 -0.0000000000e+00 -0.0000000000e+00 -4.5593999997e+01 4.5594000000e+01 5.1100000000e-04 0.0000e+00 -1.0000e+00
       23  2    1    2    0    0 +0.0000000000e+00 +0.0000000000e+00 +0.0000000000e+00 9.1188000000e+01 9.1188000000e+01 3.2469e-14 0.0000e+00
  9990012  2    3    3    0    0 -1.2627497506e+00 +2.6609525702e+01 -1.7523253483e+01 5.9301861826e+01 4.9999850083e+01 1.0798e-04 0.0000e+00
      -11  1    4    4    0    0 +4.3006916921e-01 -5.0686182131e+00 +9.0533128218e+00 1.0384523263e+01 5.1100000000e-04 0.0000e+00 1.0000e+00
       11  1    4    4    0    0 -5.4640085247e+00 +2.5493561867e+01 -3.0940269420e+01 4.0460812620e+01 5.1100000000e-04 0.0000e+00 -1.0000e+00
       12  1    4    4    0    0 +3.7711896049e+00 +6.1845820486e+00 +4.3637031156e+00 8.4565259435e+00 0.0000000000e+00 0.0000e+00 -1.0000e+00
      -12  1    3    3    0    0 +1.2627497506e+00 -2.6609525702e+01 +1.7523253483e+01 3.1886138174e+01 0.0000000000e+00 0.0000e+00 1.0000e+00
</event>
<event>
 8      4 +2.2883893e-04 9.11880000e+01 7.81616400e-03 1.18400000e-01
      -11 -1    0    0    0    0 +0.0000000000e+00 +0.0000000000e+00 +4.5593999997e+01 4.5594000000e+01 5.1100000000e-04 0.0000e+00 1.0000e+00
       11 -1    0    0    0    0 -0.0000000000e+00 -0.0000000000e+00 -4.5593999997e+01 4.5594000000e+01 5.1100000000e-04 0.0000e+00 -1.0000e+00
       23  2    1    2    0    0 +0.0000000000e+00 -8.8817841970e-16 +0.0000000000e+00 9.1188000000e+01 9.1188000000e+01 1.2697e-14 0.0000e+00
 -9990012  2    3    3    0    0 +1.9681523412e+01 +5.8609980429e+00 +2.4392776539e+01 5.9301933934e+01 4.9999981591e+01 1.8133e-03 0.0000e+00
      -11  1    4    4    0    0 -1.1163414347e+01 -1.1350848705e+01 +8.3283497029e+00 1.7967331333e+01 5.1100000000e-04 0.0000e+00 1.0000e+00
       11  1    4    4    0    0 -1.2749912641e+00 +1.6479395256e+00 +2.2387349002e+00 3.0583069856e+00 5.1100000000e-04 0.0000e+00 -1.0000e+00
      -12  1    4    4    0    0 +3.2119929024e+01 +1.5563907222e+01 +1.3825691936e+01 3.8276295615e+01 0.0000000000e+00 0.0000e+00 1.0000e+00
       12  1    3    3    0    0 -1.9681523412e+01 -5.8609980429e+00 -2.4392776539e+01 3.1886066066e+01 0.0000000000e+00 0.0000e+00 -1.0000e+00
</event>
<event>
 8      3 +2.2883893e-04 9.11880000e+01 7.81616400e-03 1.18400000e-01
      -11 -1    0    0    0    0 +0.0000000000e+00 +0.0000000000e+00 +4.5593999997e+01 4.5594000000e+01 5.1100000000e-04 0.0000e+00 1.0000e+00
       11 -1    0    0    0    0 -0.0000000000e+00 -0.0000000000e+00 -4.5593999997e+01 4.5594000000e+01 5.1100000000e-04 0.0000e+00 -1.0000e+00
       23  2    1    2    0    0 -1.7763568394e-15 +0.0000000000e+00 +3.5527136788e-15 9.1188000000e+01 9.1188000000e+01 7.1549e-15 0.0000e+00
  9990012  2    3    3    0    0 +9.4801470918e+00 -7.9446433785e+00 -2.9389277621e+01 5.9301949973e+01 5.0000010842e+01 4.8094e-03 0.0000e+00
      -11  1    4    4    0    0 +4.2105117609e+00 -7.0620431561e+00 +4.1925271613e+00 9.2292007827e+00 5.1100000000e-04 0.0000e+00 1.0000e+00
       11  1    4    4    0    0 -2.4708742723e-01 +1.7437430595e+01 -1.1670852076e+01 2.0984132729e+01 5.1100000000e-04 0.0000e+00 -1.0000e+00
       12  1    4    4    0    0 +5.5167227582e+00 -1.8320030817e+01 -2.1910952706e+01 2.9088616461e+01 0.0000000000e+00 0.0000e+00 -1.0000e+00
      -12  1    3    3    0    0 -9.4801470918e+00 +7.9446433785e+00 +2.9389277621e+01 3.1886050027e+01 0.0000000000e+00 0.0000e+00 1.0000e+00
</event>
<event>
 8      4 +2.2883893e-04 9.11880000e+01 7.81616400e-03 1.18400000e-01
      -11 -1    0    0    0    0 +0.0000000000e+00 +0.0000000000e+00 +4.5593999997e+01 4.5594000000e+01 5.1100000000e-04 0.0000e+00 -1.0000e+00
       11 -1    0    0    0    0 -0.0000000000e+00 -0.0000000000e+00 -4.5593999997e+01 4.5594000000e+01 5.1100000000e-04 0.0000e+00 1.0000e+00
       23  2    1    2    0    0 +0.0000000000e+00 +0.0000000000e+00 +0.0000000000e+00 9.1188000000e+01 9.1188000000e+01 9.4268e-14 0.0000e+00
 -9990012  2    3    3    0    0 -2.2581775391e+00 -3.0955372082e+01 -7.3065615974e+00 5.9301948678e+01 5.0000008481e+01 2.4465e-03 0.0000e+00
      -11  1    4    4    0    0 -2.9785616617e+00 +7.8900054173e-01 -1.0909715025e+00 3.2687261292e+00 5.1100000000e-04 0.0000e+00 1.0000e+00
       11  1    4    4    0    0 +1.0028803790e+01 +6.3164470625e+00 +8.0578041807e+00 1.4331874177e+01 5.1100000000e-04 0.0000e+00 -1.0000e+00
      -12  1    4    4    0    0 -9.3084196672e+00 -3.8060819686e+01 -1.4273394276e+01 4.1701348372e+01 0.0000000000e+00 0.0000e+00 1.0000e+00
       12  1    3    3    0    0 +2.2581775391e+00 +3.0955372082e+01 +7.3065615974e+00 3.1886051322e+01 0.0000000000e+00 0.0000e+00 -1.0000e+00
</event>
<event>
 8      3 +2.2883893e-04 9.11880000e+01 7.81616400e-03 1.18400000e-01
      -11 -1    0    0    0    0 +0.0000000000e+00 +0.0000000000e+00 +4.5593999997e+01 4.5594000000e+01 5.1100000000e-04 0.0000e+00 -1.0000e+00
       11 -1    0    0    0    0 -0.0000000000e+00 -0.0000000000e+00 -4.5593999997e+01 4.5594000000e+01 5.1100000000e-04 0.0000e+00 1.0000e+00
       23  2    1    2    0    0 +3.5527136788e-15 +0.0000000000e+00 +4.4408920985e-16 9.1188000000e+01 9.1188000000e+01 7.3995e-14 0.0000e+00
  9990012  2    3    3    0    0 -1.9397049425e+01 -2.5037107412e+01 +3.6902214340e+00 5.9301952767e+01 5.0000015938e+01 6.7664e-04 0.0000e+00
      -11  1    4    4    0    0 +7.8436220169e+00 -1.2508425493e+01 -8.4657522922e+00 1.7019167923e+01 5.1100000000e-04 0.0000e+00 1.0000e+00
       11  1    4    4    0    0 +3.2518396697e+00 +2.6860260638e+00 +6.4859771038e+00 7.7367368125e+00 5.1100000000e-04 0.0000e+00 -1.0000e+00
       12  1    4    4    0    0 -3.0492511111e+01 -1.5214707983e+01 +5.6699966223e+00 3.4546048031e+01 0.0000000000e+00 0.0000e+00 -1.0000e+00
      -12  1    3    3    0    0 +1.9397049425e+01 +2.5037107412e+01 -3.6902214340e+00 3.1886047233e+01 0.0000000000e+00 0.0000e+00 1.0000e+00
</event>
<event>
 8      4 +2.2883893e-04 9.11880000e+01 7.81616400e-03 1.18400000e-01
      -11 -1    0    0    0    0 +0.0000000000e+00 +0.0000000000e+00 +4.5593999997e+01 4.5594000000e+01 5.1100000000e-04 0.0000e+00 -1.0000e+00
       11 -1    0    0    0    0 -0.0000000000e+00 -0.0000000000e+00 -4.5593999997e+01 4.5594000000e+01 5.1100000000e-04 0.0000e+00 1.0000e+00
       23  2    1    2    0    0 -3.5527136788e-15 +0.0000000000e+00 +0.0000000000e+00 9.1188000000e+01 9.1188000000e+01 7.1965e-14 0.0000e+00
 -9990012  2    3    3    0    0 +2.5061362582e+01 +1.8916647931e+01 -5.5508958412e+00 5.9301891613e+01 4.9999904407e+01 1.7744e-03 0.0000e+00
      -11  1    4    4    0    0 +8.2553176863e-01 -5.6520177280e+00 +5.9566853588e+00 8.2528121161e+00 5.1100000000e-04 0.0000e+00 1.0000e+00
       11  1    4    4    0    0 +2.1667097373e+01 +7.9622353386e-01 +4.6709579309e+00 2.2179155276e+01 5.1100000000e-04 0.0000e+00 -1.0000e+00
      -12  1    4    4    0    0 +2.5687334407e+00 +2.3772442126e+01 -1.6178539131e+01 2.8869924221e+01 0.0000000000e+00 0.0000e+00 1.0000e+00
       12  1    3    3    0    0 -2.5061362582e+01 -1.8916647931e+01 +5.5508958412e+00 3.1886108387e+01 0.0000000000e+00 0.0000e+00 -1.0000e+00
</event>
<event>
 8      4 +2.2883893e-04 9.11880000e+01 7.81616400e-03 1.18400000e-01
      -11 -1    0    0    0    0 +0.0000000000e+00 +0.0000000000e+00 +4.5593999997e+01 4.5594000000e+01 5.1100000000e-04 0.0000e+00 1.0000e+00
       11 -1    0    0    0    0 -0.0000000000e+00 -0.0000000000e+00 -4.5593999997e+01 4.5594000000e+01 5.1100000000e-04 0.0000e+00 -1.0000e+00
       23  2    1    2    0    0 +1.7763568394e-15 -1.7763568394e-15 -3.5527136788e-15 9.1188000000e+01 9.1188000000e+01 1.4144e-14 0.0000e+00
 -9990012  2    3    3    0    0 +8.8899719070e+00 -4.7604948937e+00 +3.0249396085e+01 5.9301954845e+01 5.0000019727e+01 6.5110e-03 0.0000e+00
      -11  1    4    4    0    0 +1.3237708958e+01 -2.1441668730e+01 +9.4067521002e+00 2.6897380573e+01 5.1100000000e-04 0.0000e+00 1.0000e+00
       11  1    4    4    0    0 +2.3691304798e+00 +5.4742759829e+00 -1.8276892011e+00 6.2386637066e+00 5.1100000000e-04 0.0000e+00 -1.0000e+00
      -12  1    4    4    0    0 -6.7168675304e+00 +1.1206897853e+01 +2.2670333186e+01 2.6165910565e+01 0.0000000000e+00 0.0000e+00 1.0000e+00
       12  1    3    3    0    0 -8.8899719070e+00 +4.7604948937e+00 -3.0249396085e+01 3.1886045155e+01 0.0000000000e+00 0.0000e+00 -1.0000e+00
</event>
<event>
 8      4 +2.2883893e-04 9.11880000e+01 7.81616400e-03 1.18400000e-01
      -11 -1    0    0    0    0 +0.0000000000e+00 +0.0000000000e+00 +4.5593999997e+01 4.5594000000e+01 5.1100000000e-04 0.0000e+00 1.0000e+00
       11 -1    0    0    0    0 -0.0000000000e+00 -0.0000000000e+00 -4.5593999997e+01 4.5594000000e+01 5.1100000000e-04 0.0000e+00 -1.0000e+00
       23  2    1    2    0    0 -8.8817841970e-16 +3.5527136788e-15 -1.9984014443e-15 9.1188000000e+01 9.1188000000e+01 2.6261e-14 0.0000e+00
 -9990012  2    3    3    0    0 +1.8289375449e+00 +3.1797983302e+01 -1.5046567480e+00 5.9301941188e+01 4.9999994821e+01 2.4003e-03 0.0000e+00
      -11  1    4    4    0    0 -6.9581730988e+00 +1.3163808005e+01 +1.8190906898e+01 2.3507681895e+01 5.1100000000e-04 0.0000e+00 1.0000e+00
       11  1    4    4    0    0 +3.0368330331e+00 +3.8310876087e-01 -1.6018943310e+01 1.6308760597e+01 5.1100000000e-04 0.0000e+00 -1.0000e+00
      -12  1    4    4    0    0 +5.7502776105e+00 +1.8251066536e+01 -3.6766203358e+00 1.9485498695e+01 0.0000000000e+00 0.0000e+00 1.0000e+00
       12  1    3    3    0    0 -1.8289375449e+00 -3.1797983302e+01 +1.5046567480e+00 3.1886058812e+01 0.0000000000e+00 0.0000e+00 -1.0000e+00
</event>
<event>
 8      4 +2.2883893e-04 9.11880000e+01 7.81616400e-03 1.18400000e-01
      -11 -1    0    0    0    0 +0.0000000000e+00 +0.0000000000e+00 +4.5593999997e+01 4.5594000000e+01 5.1100000000e-04 0.0000e+00 -1.0000e+00
       11 -1    0    0    0    0 -0.0000000000e+00 -0.0000000000e+00 -4.5593999997e+01 4.5594000000e+01 5.1100000000e-04 0.0000e+00 1.0000e+00
       23  2    1    2    0    0 +3.5527136788e-15 +0.0000000000e+00 +0.0000000000e+00 9.1188000000e+01 9.1188000000e+01 7.2751e-14 0.0000e+00
 -9990012  2    3    3    0    0 +7.2947596258e+00 +3.0535061499e+01 +5.5782869793e+00 5.9301940595e+01 4.9999993739e+01 9.2378e-05 0.0000e+00
      -11  1    4    4    0    0 +2.1555774748e+01 +2.5245036262e+01 -3.4414168253e+00 3.3373741638e+01 5.1100000000e-04 0.0000e+00 1.0000e+00
       11  1    4    4    0    0 -1.3729426654e+01 +9.1182899419e+00 +1.2532659783e+01 2.0705263321e+01 5.1100000000e-04 0.0000e+00 -1.0000e+00
      -12  1    4    4    0    0 -5.3158846861e-01 -3.8282647047e+00 -3.5129559784e+00 5.2229356358e+00 0.0000000000e+00 0.0000e+00 1.0000e+00
       12  1    3    3    0    0 -7.2947596258e+00 -3.0535061499e+01 -5.5782869793e+00 3.1886059405e+01 0.0000000000e+00 0.0000e+00 -1.0000e+00
</event>
<event>
 8      4 +2.2883893e-04 9.11880000e+01 7.81616400e-03 1.18400000e-01
      -11 -1    0    0    0    0 +0.0000000000e+00 +0.0000000000e+00 +4.5593999997e+01 4.5594000000e+01 5.1100000000e-04 0.0000e+00 1.0000e+00
       11 -1    0    0    0    0 -0.0000000000e+00 -0.0000000000e+00 -4.5593999997e+01 4.5594000000e+01 5.1100000000e-04 0.0000e+00 -1.0000e+00
       23  2    1    2    0    0 +3.5527136788e-15 -1.7763568394e-15 +7.1054273576e-15 9.1188000000e+01 9.1188000000e+01 3.1765e-14 0.0000e+00
 -9990012  2    3    3    0    0 +2.1210838294e+01 -1.4389705306e+01 +1.8967258860e+01 5.9301949937e+01 5.0000010777e+01 4.3532e-04 0.0000e+00
      -11  1    4    4    0    0 +1.3322662669e+01 -6.8505238330e+00 -3.6734198230e+00 1.5424559340e+01 5.1100000000e-04 0.0000e+00 -1.0000e+00
       11  1    4    4    0    0 +9.1580777818e+00 +5.7118824809e+00 -5.9607368288e+00 1.2329897564e+01 5.1100000000e-04 0.0000e+00 1.0000e+00
      -12  1    4    4    0    0 -1.2699021559e+00 -1.3251063954e+01 +2.8601415512e+01 3.1547493033e+01 0.0000000000e+00 0.0000e+00 1.0000e+00
       12  1    3    3    0    0 -2.1210838294e+01 +1.4389705306e+01 -1.8967258860e+01 3.1886050063e+01 0.0000000000e+00 0.0000e+00 -1.0000e+00
</event>
<event>
 8      4 +2.2883893e-04 9.11880000e+01 7.81616400e-03 1.18400000e-01
      -11 -1    0    0    0    0 +0.0000000000e+00 +0.0000000000e+00 +4.5593999997e+01 4.5594000000e+01 5.1100000000e-04 0.0000e+00 1.0000e+00
       11 -1    0    0    0    0 -0.0000000000e+00 -0.0000000000e+00 -4.5593999997e+01 4.5594000000e+01 5.1100000000e-04 0.0000e+00 -1.0000e+00
       23  2    1    2    0    0 -3.5527136788e-15 +0.0000000000e+00 -3.5527136788e-15 9.1188000000e+01 9.1188000000e+01 2.1418e-13 0.0000e+00
 -9990012  2    3    3    0    0 +2.3716151617e+01 +1.0968114301e+01 +1.8274679350e+01 5.9301964119e+01 5.0000036642e+01 2.5990e-04 0.0000e+00
      -11  1    4    4    0    0 +4.9488989058e+00 -3.6700368682e+00 +1.5496460791e+01 1.6676362562e+01 5.1100000000e-04 0.0000e+00 1.0000e+00
       11  1    4    4    0    0 -4.8743827258e+00 +1.7094749267e+01 +5.7236922183e+00 1.8674868469e+01 5.1100000000e-04 0.0000e+00 -1.0000e+00
      -12  1    4    4    0    0 +2.3641635437e+01 -2.4565980981e+00 -2.9454736595e+00 2.3950733088e+01 0.0000000000e+00 0.0000e+00 1.0000e+00
       12  1    3    3    0    0 -2.3716151617e+01 -1.0968114301e+01 -1.8274679350e+01 3.1886035881e+01 0.0000000000e+00 0.0000e+00 -1.0000e+00
</event>
<event>
 8      3 +2.2883893e-04 9.11880000e+01 7.81616400e-03 1.18400000e-01
      -11 -1    0    0    0    0 +0.0000000000e+00 +0.0000000000e+00 +4.5593999997e+01 4.5594000000e+01 5.1100000000e-04 0.0000e+00 -1.0000e+00
       11 -1    0    0    0    0 -0.0000000000e+00 -0.0000000000e+00 -4.5593999997e+01 4.5594000000e+01 5.1100000000e-04 0.0000e+00 1.0000e+00
       23  2    1    2    0    0 +0.0000000000e+00 +5.3429483060e-16 +0.0000000000e+00 9.1188000000e+01 9.1188000000e+01 2.1876e-13 0.0000e+00
  9990012  2    3    3    0    0 +1.1090561311e+01 -5.8291982629e-02 +2.9895075070e+01 5.9301961338e+01 5.0000031570e+01 2.1144e-03 0.0000e+00
      -11  1    4    4    0    0 +6.4999755589e+00 -1.6787387649e+01 +1.2415803995e+00 1.8044599981e+01 5.1100000000e-04 0.0000e+00 1.0000e+00
       11  1    4    4    0    0 +1.4184135423e+00 -2.1421072694e+00 -3.1964068243e+00 4.1009190895e+00 5.1100000000e-04 0.0000e+00 -1.0000e+00
       12  1    4    4    0    0 +3.1721722094e+00 +1.8871202935e+01 +3.1849901494e+01 3.7156442267e+01 0.0000000000e+00 0.0000e+00 -1.0000e+00
      -12  1    3    3    0    0 -1.1090561311e+01 +5.8291982629e-02 -2.9895075070e+01 3.1886038662e+01 0.0000000000e+00 0.0000e+00 1.0000e+00
</event>
<event>
 8      4 +2.2883893e-04 9.11880000e+01 7.81616400e-03 1.18400000e-01
      -11 -1    0    0    0    0 +0.0000000000e+00 +0.0000000000e+00 +4.5593999997e+01 4.5594000000e+01 5.1100000000e-04 0.0000e+00 1.0000e+00
       11 -1    0    0    0    0 -0.0000000000e+00 -0.0000000000e+00 -4.5593999997e+01 4.5594000000e+01 5.1100000000e-04 0.0000e+00 -1.0000e+00
       23  2    1    2    0    0 +0.0000000000e+00 +0.0000000000e+00 +0.0000000000e+00 9.1188000000e+01 9.1188000000e+01 1.2771e-13 0.0000e+00
 -9990012  2    3    3    0    0 +2.6202932576e+01 -1.0648030283e+01 +1.4722298054e+01 5.9301948433e+01 5.0000008035e+01 5.3512e-04 0.0000e+00
      -11  1    4    4    0    0 +1.2272943815e+01 +6.3542635117e+00 +1.8114202324e+01 2.2784339814e+01 5.1100000000e-04 0.0000e+00 1.0000e+00
       11  1    4    4    0    0 -5.4723757966e+00 -8.7143472156e+00 -1.0059948047e+01 1.4390597598e+01 5.1100000000e-04 0.0000e+00 -1.0000e+00
      -12  1    4    4    0    0 +1.9402364558e+01 -8.2879465795e+00 +6.6680437775e+00 2.2127011022e+01 0.0000000000e+00 0.0000e+00 1.0000e+00
       12  1    3    3    0    0 -2.6202932576e+01 +1.0648030283e+01 -1.4722298054e+01 3.1886051567e+01 0.0000000000e+00 0.0000e+00 -1.0000e+00
</event>
<event>
 8      3 +2.2883893e-04 9.11880000e+01 7.81616400e-03 1.18400000e-01
      -11 -1    0    0    0    0 +0.0000000000e+00 +0.0000000000e+00 +4.5593999997e+01 4.5594000000e+01 5.1100000000e-04 0.0000e+00 1.0000e+00
       11 -1    0    0    0    0 -0.0000000000e+00 -0.0000000000e+00 -4.5593999997e+01 4.5594000000e+01 5.1100000000e-04 0.0000e+00 -1.0000e+00
       23  2    1    2    0    0 +0.0000000000e+00 -7.1054273576e-15 -4.4408920985e-16 9.1188000000e+01 9.1188000000e+01 1.0560e-13 0.0000e+00
  9990012  2    3    3    0    0 -9.9761600196e+00 +3.0056250782e+01 +3.7173341358e+00 5.9301944225e+01 5.0000000360e+01 1.4496e-03 0.0000e+00
      -11  1    4    4    0    0 +7.3493575687e+00 +8.0542580302e+00 +7.3290590371e+00 1.3137702833e+01 5.1100000000e-04 0.0000e+00 1.0000e+00
       11  1    4    4    0    0 -2.2418972273e+01 +1.0817906199e+00 +4.9648631009e+00 2.2987615244e+01 5.1100000000e-04 0.0000e+00 -1.0000e+00
       12  1    4    4    0    0 +5.0934546848e+00 +2.0920202132e+01 -8.5765880021e+00 2.3176626148e+01 0.0000000000e+00 0.0000e+00 -1.0000e+00
      -12  1    3    3    0    0 +9.9761600196e+00 -3.0056250782e+01 -3.7173341358e+00 3.1886055775e+01 0.0000000000e+00 0.0000e+00 1.0000e+00
</event>
<event>
 8      3 +2.2883893e-04 9.11880000e+01 7.81616400e-03 1.18400000e-01
      -11 -1    0    0    0    0 +0.0000000000e+00 +0.0000000000e+00 +4.5593999997e+01 4.5594000000e+01 5.1100000000e-04 0.0000e+00 -1.0000e+00
       11 -1    0    0    0    0 -0.0000000000e+00 -0.0000000000e+00 -4.5593999997e+01 4.5594000000e+01 5.1100000000e-04 0.0000e+00 1.0000e+00
       23  2    1    2    0    0 +8.8817841970e-16 -3.5527136788e-15 +0.0000000000e+00 9.1188000000e+01 9.1188000000e+01 5.2769e-15 0.0000e+00
  9990012  2    3    3    0    0 +5.8286703050e+00 +2.9762487797e+01 -9.8458142701e+00 5.9301966443e+01 5.0000040880e+01 2.4584e-03 0.0000e+00
      -11  1    4    4    0    0 +1.4990784677e+01 +1.7314488093e+01 +1.1968786047e+01 2.5841187335e+01 5.1100000000e-04 0.0000e+00 -1.0000e+00
       11  1    4    4    0    0 -1.4203763698e+01 +2.8972625590e+00 -1.1210052354e+01 1.8325018624e+01 5.1100000000e-04 0.0000e+00 1.0000e+00
       12  1    4    4    0    0 +5.0416493261e+00 +9.5507371444e+00 -1.0604547963e+01 1.5135760484e+01 0.0000000000e+00 0.0000e+00 -1.0000e+00
      -12  1    3    3    0    0 -5.8286703050e+00 -2.9762487797e+01 +9.8458142701e+00 3.1886033557e+01 0.0000000000e+00 0.0000e+00 1.0000e+00
</event>
<event>
 8      3 +2.2883893e-04 9.11880000e+01 7.81616400e-03 1.18400000e-01
      -11 -1    0    0    0    0 +0.0000000000e+00 +0.0000000000e+00 +4.5593999997e+01 4.5594000000e+01 5.1100000000e-04 0.0000e+00 1.0000e+00
       11 -1    0    0    0    0 -0.0000000000e+00 -0.0000000000e+00 -4.5593999997e+01 4.5594000000e+01 5.1100000000e-04 0.0000e+00 -1.0000e+00
       23  2    1    2    0    0 -3.5527136788e-15 +0.0000000000e+00 +0.0000000000e+00 9.1188000000e+01 9.1188000000e+01 8.3437e-14 0.0000e+00
  9990012  2    3    3    0    0 +2.2135359455e+01 +1.3636409642e+01 -1.8460617646e+01 5.9301949602e+01 5.0000010167e+01 1.2492e-03 0.0000e+00
      -11  1    4    4    0    0 -1.1173830849e+01 +8.7165769156e+00 -1.4306572102e+01 2.0137309020e+01 5.1100000000e-04 0.0000e+00 -1.0000e+00
       11  1    4    4    0    0 +1.5544982833e+01 +1.0769765025e+00 +7.7851998816e+00 1.7418831968e+01 5.1100000000e-04 0.0000e+00 1.0000e+00
       12  1    4    4    0    0 +1.7764207471e+01 +3.8428562234e+00 -1.1939245425e+01 2.1745808615e+01 0.0000000000e+00 0.0000e+00 -1.0000e+00
      -12  1    3    3    0    0 -2.2135359455e+01 -1.3636409642e+01 +1.8460617646e+01 3.1886050398e+01 0.0000000000e+00 0.0000e+00 1.0000e+00
</event>
<event>
 8      4 +2.2883893e-04 9.11880000e+01 7.81616400e-03 1.18400000e-01
      -11 -1    0    0    0    0 +0.0000000000e+00 +0.0000000000e+00 +4.5593999997e+01 4.5594000000e+01 5.1100000000e-04 0.0000e+00 1.0000e+00
       11 -1    0    0    0    0 -0.0000000000e+00 -0.0000000000e+00 -4.5593999997e+01 4.5594000000e+01 5.1100000000e-04 0.0000e+00 -1.0000e+00
       23  2    1    2    0    0 +0.0000000000e+00 +1.7763568394e-15 +0.0000000000e+00 9.1188000000e+01 9.1188000000e+01 6.1210e-14 0.0000e+00
 -9990012  2    3    3    0    0 -2.5532104425e+01 -9.6028228992e+00 +1.6511118559e+01 5.9301959166e+01 5.0000027608e+01 7.7842e-04 0.0000e+00
      -11  1    4    4    0    0 +3.9578477969e+00 +8.6210697886e+00 +5.6647885528e+00 1.1048856642e+01 5.1100000000e-04 0.0000e+00 1.0000e+00
       11  1    4    4    0    0 +6.2656535543e+00 -2.7979570211e+00 +5.8027031119e+00 8.9865645060e+00 5.1100000000e-04 0.0000e+00 -1.0000e+00
      -12  1    4    4    0    0 -3.5755605777e+01 -1.5425935667e+01 +5.0436268947e+00 3.9266538018e+01 0.0000000000e+00 0.0000e+00 1.0000e+00
       12  1    3    3    0    0 +2.5532104425e+01 +9.6028228992e+00 -1.6511118559e+01 3.1886040834e+01 0.0000000000e+00 0.0000e+00 -1.0000e+00
</event>
<event>
 8      4 +2.2883893e-04 9.11880000e+01 7.81616400e-03 1.18400000e-01
      -11 -1    0    0    0    0 +0.0000000000e+00 +0.0000000000e+00 +4.5593999997e+01 4.5594000000e+01 5.1100000000e-04 0.0000e+00 1.0000e+00
       11 -1    0    0    0    0 -0.0000000000e+00 -0.0000000000e+00 -4.5593999997e+01 4.5594000000e+01 5.1100000000e-04 0.0000e+00 -1.0000e+00
       23  2    1    2    0    0 +0.0000000000e+00 +0.0000000000e+00 -4.4408920985e-16 9.1188000000e+01 9.1188000000e+01 5.0684e-13 0.0000e+00
 -9990012  2    3    3    0    0 -2.6264899734e+01 -1.8001279762e+01 -1.6818504639e+00 5.9301958351e+01 5.0000026121e+01 1.1506e-03 0.0000e+00
      -11  1    4    4    0    0 -7.3275528206e+00 +1.3239055503e+01 -1.4167459200e+00 1.5197788991e+01 5.1100000000e-04 0.0000e+00 1.0000e+00
       11  1    4    4    0    0 -1.3438142939e+01 -1.9738413742e+00 -3.8322480028e+00 1.4112613522e+01 5.1100000000e-04 0.0000e+00 -1.0000e+00
      -12  1    4    4    0    0 -5.4992039739e+00 -2.9266493891e+01 +3.5671434588e+00 2.9991555837e+01 0.0000000000e+00 0.0000e+00 1.0000e+00
       12  1    3    3    0    0 +2.6264899734e+01 +1.8001279762e+01 +1.6818504639e+00 3.1886041649e+01 0.0000000000e+00 0.0000e+00 -1.0000e+00
</event>
<event>
 8      3 +2.2883893e-04 9.11880000e+01 7.81616400e-03 1.18400000e-01
      -11 -1    0    0    0    0 +0.0000000000e+00 +0.0000000000e+00 +4.5593999997e+01 4.5594000000e+01 5.1100000000e-04 0.0000e+00 1.0000e+00
       11 -1    0    0    0    0 -0.0000000000e+00 -0.0000000000e+00 -4.5593999997e+01 4.5594000000e+01 5.1100000000e-04 0.0000e+00 -1.0000e+00
       23  2    1    2    0    0 +0.0000000000e+00 +0.0000000000e+00 +1.7763568394e-15 9.1188000000e+01 9.1188000000e+01 4.4382e-14 0.0000e+00
  9990012  2    3    3    0    0 +1.1104950474e+01 -2.6279577690e+01 -1.4240214811e+01 5.9301955302e+01 5.0000020561e+01 9.7427e-04 0.0000e+00
      -11  1    4    4    0    0 -3.7200196022e+00 -2.6443703272e+00 +4.9560883978e+00 6.7375108709e+00 5.1100000000e-04 0.0000e+00 1.0000e+00
       11  1    4    4    0    0 +1.7606994768e+01 -3.1848213271e+01 -6.1618981656e+00 3.6909130884e+01 5.1100000000e-04 0.0000e+00 -1.0000e+00
       12  1    4    4    0    0 -2.7820246917e+00 +8.2130059079e+00 -1.3034405043e+01 1.5655313547e+01 0.0000000000e+00 0.0000e+00 -1.0000e+00
      -12  1    3    3    0    0 -1.1104950474e+01 +2.6279577690e+01 +1.4240214811e+01 3.1886044698e+01 0.0000000000e+00 0.0000e+00 1.0000e+00
</event>
<event>
 8      4 +2.2883893e-04 9.11880000e+01 7.81616400e-03 1.18400000e-01
      -11 -1    0    0    0    0 +0.0000000000e+00 +0.0000000000e+00 +4.5593999997e+01 4.5594000000e+01 5.1100000000e-04 0.0000e+00 1.0000e+00
       11 -1    0    0    0    0 -0.0000000000e+00 -0.0000000000e+00 -4.5593999997e+01 4.5594000000e+01 5.1100000000e-04 0.0000e+00 -1.0000e+00
       23  2    1    2    0    0 +0.0000000000e+00 +0.0000000000e+00 -4.4408920985e-15 9.1188000000e+01 9.1188000000e+01 2.6117e-14 0.0000e+00
 -9990012  2    3    3    0    0 -9.1919397349e+00 +3.0460291193e+01 +2.0973461155e+00 5.9301953579e+01 5.0000017419e+01 7.2556e-03 0.0000e+00
      -11  1    4    4    0    0 -9.3624293627e+00 +5.0155442097e+00 -1.3464812907e+01 1.7149692538e+01 5.1100000000e-04 0.0000e+00 -1.0000e+00
       11  1    4    4    0    0 -7.2716046104e+00 +1.1326451823e+01 +2.1296760390e+01 2.5193585451e+01 5.1100000000e-04 0.0000e+00 1.0000e+00
      -12  1    4    4    0    0 +7.4420942382e+00 +1.4118295160e+01 -5.7346013681e+00 1.6958675589e+01 0.0000000000e+00 0.0000e+00 1.0000e+00
       12  1    3    3    0    0 +9.1919397349e+00 -3.0460291193e+01 -2.0973461155e+00 3.1886046421e+01 0.0000000000e+00 0.0000e+00 -1.0000e+00
</event>
<event>
 8      4 +2.2883893e-04 9.11880000e+01 7.81616400e-03 1.18400000e-01
      -11 -1    0    0    0    0 +0.0000000000e+00 +0.0000000000e+00 +4.5593999997e+01 4.5594000000e+01 5.1100000000e-04 0.0000e+00 1.0000e+00
       11 -1    0    0    0    0 -0.0000000000e+00 -0.0000000000e+00 -4.5593999997e+01 4.5594000000e+01 5.1100000000e-04 0.0000e+00 -1.0000e+00
       23  2    1    2    0    0 +0.0000000000e+00 +0.0000000000e+00 +8.8817841970e-16 9.1188000000e+01 9.1188000000e+01 3.9778e-14 0.0000e+00
 -9990012  2    3    3    0    0 +1.3096232471e+01 -2.7968515430e+01 -7.9353512829e+00 5.9301969198e+01 5.0000045905e+01 3.5292e-04 0.0000e+00
      -11  1    4    4    0    0 +6.1536893695e+00 -1.9855898883e+01 +4.5741168121e+00 2.1284904467e+01 5.1100000000e-04 0.0000e+00 1.0000e+00
       11  1    4    4    0    0 +1.5988493500e+01 -1.3012062314e+01 -1.7069628664e+01 2.6764116146e+01 5.1100000000e-04 0.0000e+00 -1.0000e+00
      -12  1    4    4    0    0 -9.0459503992e+00 +4.8994457664e+00 +4.5601605693e+00 1.1252948585e+01 0.0000000000e+00 0.0000e+00 1.0000e+00
       12  1    3    3    0    0 -1.3096232471e+01 +2.7968515430e+01 +7.9353512829e+00 3.1886030802e+01 0.0000000000e+00 0.0000e+00 -1.0000e+00
</event>
<event>
 8      3 +2.2883893e-04 9.11880000e+01 7.81616400e-03 1.18400000e-01
      -11 -1    0    0    0    0 +0.0000000000e+00 +0.0000000000e+00 +4.5593999997e+01 4.5594000000e+01 5.1100000000e-04 0.0000e+00 1.0000e+00
       11 -1    0    0    0    0 -0.0000000000e+00 -0.0000000000e+00 -4.5593999997e+01 4.5594000000e+01 5.1100000000e-04 0.0000e+00 -1.0000e+00
       23  2    1    2    0    0 -7.1054273576e-15 -1.7763568394e-15 -3.5527136788e-15 9.1188000000e+01 9.1188000000e+01 2.3783e-15 0.0000e+00
  9990012  2    3    3    0    0 +2.2171949313e+01 +1.4217876840e+01 +1.7971568222e+01 5.9301943133e+01 4.9999998368e+01 2.7518e-03 0.0000e+00
      -11  1    4    4    0    0 +3.4855510793e+01 -8.6741977395e-01 +1.0004350963e+01 3.6273214473e+01 5.1100000000e-04 0.0000e+00 1.0000e+00
       11  1    4    4    0    0 -3.3386782593e+00 -7.7305696511e-02 +3.1192721442e+00 4.5697491901e+00 5.1100000000e-04 0.0000e+00 -1.0000e+00
       12  1    4    4    0    0 -9.3448832209e+00 +1.5162602311e+01 +4.8479451146e+00 1.8458979470e+01 0.0000000000e+00 0.0000e+00 -1.0000e+00
      -12  1    3    3    0    0 -2.2171949313e+01 -1.4217876840e+01 -1.7971568222e+01 3.1886056867e+01 0.0000000000e+00 0.0000e+00 1.0000e+00
</event>
<event>
 8      4 +2.2883893e-04 9.11880000e+01 7.81616400e-03 1.18400000e-01
      -11 -1    0    0    0    0 +0.0000000000e+00 +0.0000000000e+00 +4.5593999997e+01 4.5594000000e+01 5.1100000000e-04 0.0000e+00 1.0000e+00
       11 -1    0    0    0    0 -0.0000000000e+00 -0.0000000000e+00 -4.5593999997e+01 4.5594000000e+01 5.1100000000e-04 0.0000e+00 -1.0000e+00
       23  2    1    2    0    0 +0.0000000000e+00 -3.5527136788e-15 +0.0000000000e+00 9.1188000000e+01 9.1188000000e+01 2.1640e-14 0.0000e+00
 -9990012  2    3    3    0    0 -1.8569304963e+01 -2.4858671689e+01 +7.3449120313e+00 5.9301946972e+01 5.0000005370e+01 2.0937e-03 0.0000e+00
      -11  1    4    4    0    0 -8.1700548735e+00 -2.4547338243e+01 -6.1657638267e+00 2.6595831539e+01 5.1100000000e-04 0.0000e+00 1.0000e+00
       11  1    4    4    0    0 -2.9187270754e+00 -2.9362158717e+00 -8.4220388312e+00 9.3846187840e+00 5.1100000000e-04 0.0000e+00 -1.0000e+00
      -12  1    4    4    0    0 -7.4805230138e+00 +2.6248824250e+00 +2.1932714689e+01 2.3321496649e+01 0.0000000000e+00 0.0000e+00 1.0000e+00
       12  1    3    3    0    0 +1.8569304963e+01 +2.4858671689e+01 -7.3449120313e+00 3.1886053028e+01 0.0000000000e+00 0.0000e+00 -1.0000e+00
</event>
<event>
 8      4 +2.2883893e-04 9.11880000e+01 7.81616400e-03 1.18400000e-01
      -11 -1    0    0    0    0 +0.0000000000e+00 +0.0000000000e+00 +4.5593999997e+01 4.5594000000e+01 5.1100000000e-04 0.0000e+00 1.0000e+00
       11 -1    0    0    0    0 -0.0000000000e+00 -0.0000000000e+00 -4.5593999997e+01 4.5594000000e+01 5.1100000000e-04 0.0000e+00 -1.0000e+00
       23  2    1    2    0    0 +3.5527136788e-15 +2.6645352591e-15 +0.0000000000e+00 9.1188000000e+01 9.1188000000e+01 4.1909e-14 0.0000e+00
 -9990012  2    3    3    0    0 -2.5466585782e+01 -7.6532751788e+00 +1.7595457122e+01 5.9301957228e+01 5.0000024074e+01 8.9660e-03 0.0000e+00
      -11  1    4    4    0    0 -3.9009964147e+00 +5.4463055800e+00 -1.9711891374e+00 6.9832373850e+00 5.1100000000e-04 0.0000e+00 1.0000e+00
       11  1    4    4    0    0 -9.9213891506e-01 +1.3338408838e+01 -2.8584249537e-01 1.3378310662e+01 5.1100000000e-04 0.0000e+00 -1.0000e+00
      -12  1    4    4    0    0 -2.0573450452e+01 -2.6437989597e+01 +1.9852488754e+01 3.8940409181e+01 0.0000000000e+00 0.0000e+00 1.0000e+00
       12  1    3    3    0    0 +2.5466585782e+01 +7.6532751788e+00 -1.7595457122e+01 3.1886042772e+01 0.0000000000e+00 0.0000e+00 -1.0000e+00
</event>
<event>
 8      3 +2.2883893e-04 9.11880000e+01 7.81616400e-03 1.18400000e-01
      -11 -1    0    0    0    0 +0.0000000000e+00 +0.0000000000e+00 +4.5593999997e+01 4.5594000000e+01 5.1100000000e-04 0.0000e+00 1.0000e+00
       11 -1    0    0    0    0 -0.0000000000e+00 -0.0000000000e+00 -4.5593999997e+01 4.5594000000e+01 5.1100000000e-04 0.0000e+00 -1.0000e+00
       23  2    1    2    0    0 -3.5527136788e-15 +3.5527136788e-15 +0.0000000000e+00 9.1188000000e+01 9.1188000000e+01 1.2187e-13 0.0000e+00
  9990012  2    3    3    0    0 -2.1008182083e+01 +2.3203566290e+01 -6.0805455868e+00 5.9301917806e+01 4.9999952178e+01 6.8717e-03 0.0000e+00
      -11  1    4    4    0    0 +6.4364982646e-02 -1.4513237294e+01 -3.3198382063e+00 1.4888234469e+01 5.1100000000e-04 0.0000e+00 1.0000e+00
       11  1    4    4    0    0 -1.6595717518e+01 +2.0855465585e+01 -3.8732902100e+00 2.6932706177e+01 5.1100000000e-04 0.0000e+00 -1.0000e+00
       12  1    4    4    0    0 -4.4768295479e+00 +1.6861338000e+01 +1.1125828296e+00 1.7480977161e+01 0.0000000000e+00 0.0000e+00 -1.0000e+00
      -12  1    3    3    0    0 +2.1008182083e+01 -2.3203566290e+01 +6.0805455868e+00 3.1886082194e+01 0.0000000000e+00 0.0000e+00 1.0000e+00
</event>
<event>
 8      3 +2.2883893e-04 9.11880000e+01 7.81616400e-03 1.18400000e-01
      -11 -1    0    0    0    0 +0.0000000000e+00 +0.0000000000e+00 +4.5593999997e+01 4.5594000000e+01 5.1100000000e-04 0.0000e+00 1.0000e+00
       11 -1    0    0    0    0 -0.0000000000e+00 -0.0000000000e+00 -4.5593999997e+01 4.5594000000e+01 5.1100000000e-04 0.0000e+00 -1.0000e+00
       23  2    1    2    0    0 +0.0000000000e+00 +0.0000000000e+00 +0.0000000000e+00 9.1188000000e+01 9.1188000000e+01 1.8482e-13 0.0000e+00
  9990012  2    3    3    0    0 -2.0971322533e+01 +2.3415312186e+01 +5.3526095685e+00 5.9301895774e+01 4.9999911996e+01 1.2201e-04 0.0000e+00
      -11  1    4    4    0    0 +4.0115489845e+00 +4.5640746106e+00 +9.7546771567e+00 1.1492477061e+01 5.1100000000e-04 0.0000e+00 1.0000e+00
       11  1    4    4    0    0 -3.0005366060e+01 +1.8217531966e+01 +6.5824189027e+00 3.5714544687e+01 5.1100000000e-04 0.0000e+00 -1.0000e+00
       12  1    4    4    0    0 +5.0224945426e+00 +6.3370560874e-01 -1.0984486491e+01 1.2094874026e+01 0.0000000000e+00 0.0000e+00 -1.0000e+00
      -12  1    3    3    0    0 +2.0971322533e+01 -2.3415312186e+01 -5.3526095685e+00 3.1886104226e+01 0.0000000000e+00 0.0000e+00 1.0000e+00
</event>
<event>
 8      3 +2.2883893e-04 9.11880000e+01 7.81616400e-03 1.18400000e-01
      -11 -1    0    0    0    0 +0.0000000000e+00 +0.0000000000e+00 +4.5593999997e+01 4.5594000000e+01 5.1100000000e-04 0.0000e+00 -1.0000e+00
       11 -1    0    0    0    0 -0.0000000000e+00 -0.0000000000e+00 -4.5593999997e+01 4.5594000000e+01 5.1100000000e-04 0.0000e+00 1.0000e+00
       23  2    1    2    0    0 +0.0000000000e+00 +2.2204460493e-15 +3.5527136788e-15 9.1188000000e+01 9.1188000000e+01 2.7038e-14 0.0000e+00
  9990012  2    3    3    0    0 +2.6999404813e+01 -3.4016621928e+00 +1.6618645456e+01 5.9301975746e+01 5.0000057847e+01 4.8687e-03 0.0000e+00
      -11  1    4    4    0    0 -4.5923443392e+00 +2.2623970714e+00 -7.4983208447e+00 9.0792556297e+00 5.1100000000e-04 0.0000e+00 1.0000e+00
       11  1    4    4    0    0 +2.9843332309e+01 +7.4417387660e+00 +1.8186844711e+01 3.5731852457e+01 5.1100000000e-04 0.0000e+00 -1.0000e+00
       12  1    4    4    0    0 +1.7484168427e+00 -1.3105798030e+01 +5.9301215892e+00 1.4490867660e+01 0.0000000000e+00 0.0000e+00 -1.0000e+00
      -12  1    3    3    0    0 -2.6999404813e+01 +3.4016621928e+00 -1.6618645456e+01 3.1886024254e+01 0.0000000000e+00 0.0000e+00 1.0000e+00
</event>
<event>
 8      3 +2.2883893e-04 9.11880000e+01 7.81616400e-03 1.18400000e-01
      -11 -1    0    0    0    0 +0.0000000000e+00 +0.0000000000e+00 +4.5593999997e+01 4.5594000000e+01 5.1100000000e-04 0.0000e+00 1.0000e+00
       11 -1    0    0    0    0 -0.0000000000e+00 -0.0000000000e+00 -4.5593999997e+01 4.5594000000e+01 5.1100000000e-04 0.0000e+00 -1.0000e+00
       23  2    1    2    0    0 -8.8817841970e-16 +1.7763568394e-15 -3.5527136788e-15 9.1188000000e+01 9.1188000000e+01 7.1104e-15 0.0000e+00
  9990012  2    3    3    0    0 -5.8597703810e+00 -1.3777544578e+01 -2.8152503418e+01 5.9301935768e+01 4.9999984936e+01 2.1070e-03 0.0000e+00
      -11  1    4    4    0    0 -6.1922511813e+00 -7.8808412154e+00 +9.9898186715e+00 1.4150904929e+01 5.1100000000e-04 0.0000e+00 1.0000e+00
       11  1    4    4    0    0 -4.5943437922e+00 +7.3973506244e+00 -7.9305927141e+00 1.1778076762e+01 5.1100000000e-04 0.0000e+00 -1.0000e+00
       12  1    4    4    0    0 +4.9268245925e+00 -1.3294053987e+01 -3.0211729376e+01 3.3372954077e+01 0.0000000000e+00 0.0000e+00 -1.0000e+00
      -12  1    3    3    0    0 +5.8597703810e+00 +1.3777544578e+01 +2.8152503418e+01 3.1886064232e+01 0.0000000000e+00 0.0000e+00 1.0000e+00
</event>
<event>
 8      4 +2.2883893e-04 9.11880000e+01 7.81616400e-03 1.18400000e-01
      -11 -1    0    0    0    0 +0.0000000000e+00 +0.0000000000e+00 +4.5593999997e+01 4.5594000000e+01 5.1100000000e-04 0.0000e+00 1.0000e+00
       11 -1    0    0    0    0 -0.0000000000e+00 -0.0000000000e+00 -4.5593999997e+01 4.5594000000e+01 5.1100000000e-04 0.0000e+00 -1.0000e+00
       23  2    1    2    0    0 +1.1657341759e-15 +0.0000000000e+00 +0.0000000000e+00 9.1188000000e+01 9.1188000000e+01 8.5308e-15 0.0000e+00
 -9990012  2    3    3    0    0 -4.3148337369e-01 +1.1835251189e+01 +2.9605071317e+01 5.9301959225e+01 5.0000027716e+01 1.5175e-03 0.0000e+00
      -11  1    4    4    0    0 +4.9119755918e+00 +1.2320576798e+00 +3.1520599574e+01 3.1924812734e+01 5.1100000000e-04 0.0000e+00 1.0000e+00
       11  1    4    4    0    0 +7.0483611823e+00 +7.2649811819e+00 +6.5008277040e+00 1.2029967083e+01 5.1100000000e-04 0.0000e+00 -1.0000e+00
      -12  1    4    4    0    0 -1.2391820148e+01 +3.3382123273e+00 -8.4163559605e+00 1.5347179408e+01 0.0000000000e+00 0.0000e+00 1.0000e+00
       12  1    3    3    0    0 +4.3148337369e-01 -1.1835251189e+01 -2.9605071317e+01 3.1886040775e+01 0.0000000000e+00 0.0000e+00 -1.0000e+00
</event>
<event>
 8      3 +2.2883893e-04 9.11880000e+01 7.81616400e-03 1.18400000e-01
      -11 -1    0    0    0    0 +0.0000000000e+00 +0.0000000000e+00 +4.5593999997e+01 4.5594000000e+01 5.1100000000e-04 0.0000e+00 1.0000e+00
       11 -1    0    0    0    0 -0.0000000000e+00 -0.0000000000e+00 -4.5593999997e+01 4.5594000000e+01 5.1100000000e-04 0.0000e+00 -1.0000e+00
       23  2    1    2    0    0 +0.0000000000e+00 +0.0000000000e+00 +0.0000000000e+00 9.1188000000e+01 9.1188000000e+01 9.1109e-16 0.0000e+00
  9990012  2    3    3    0    0 +1.4279271885e+01 -2.3247267155e+01 -1.6504412388e+01 5.9301817036e+01 4.9999768397e+01 7.2455e-04 0.0000e+00
      -11  1    4    4    0    0 -7.7688160081e+00 +5.3845377444e+00 -1.0766837340e+00 9.5135165429e+00 5.1100000000e-04 0.0000e+00 1.0000e+00
       11  1    4    4    0    0 -6.6950177526e+00 -1.0260608074e+01 -8.6797744103e+00 1.5014720271e+01 5.1100000000e-04 0.0000e+00 -1.0000e+00
       12  1    4    4    0    0 +2.8743105646e+01 -1.8371196825e+01 -6.7479542441e+00 3.4773580222e+01 0.0000000000e+00 0.0000e+00 -1.0000e+00
      -12  1    3    3    0    0 -1.4279271885e+01 +2.3247267155e+01 +1.6504412388e+01 3.1886182964e+01 0.0000000000e+00 0.0000e+00 1.0000e+00
</event>
<event>
 8      4 +2.2883893e-04 9.11880000e+01 7.81616400e-03 1.18400000e-01
      -11 -1    0    0    0    0 +0.0000000000e+00 +0.0000000000e+00 +4.5593999997e+01 4.5594000000e+01 5.1100000000e-04 0.0000e+00 -1.0000e+00
       11 -1    0    0    0    0 -0.0000000000e+00 -0.0000000000e+00 -4.5593999997e+01 4.5594000000e+01 5.1100000000e-04 0.0000e+00 1.0000e+00
       23  2    1    2    0    0 -3.5527136788e-15 +1.7763568394e-15 -3.5527136788e-15 9.1188000000e+01 9.1188000000e+01 4.1413e-14 0.0000e+00
 -9990012  2    3    3    0    0 -1.9927694190e+01 +1.1075306597e+01 -2.2292363915e+01 5.9301876045e+01 4.9999876017e+01 5.9999e-04 0.0000e+00
      -11  1    4    4    0    0 -2.0407745027e+01 -2.2991193861e+00 -3.8149407635e+00 2.0888173217e+01 5.1100000000e-04 0.0000e+00 1.0000e+00
       11  1    4    4    0    0 -1.2277781260e+01 +1.5648958797e+01 -6.9505319445e+00 2.1069971967e+01 5.1100000000e-04 0.0000e+00 -1.0000e+00
      -12  1    4    4    0    0 +1.2757832097e+01 -2.2745328145e+00 -1.1526891207e+01 1.7343730862e+01 0.0000000000e+00 0.0000e+00 1.0000e+00
       12  1    3    3    0    0 +1.9927694190e+01 -1.1075306597e+01 +2.2292363915e+01 3.1886123955e+01 0.0000000000e+00 0.0000e+00 -1.0000e+00
</event>
<event>
 8      3 +2.2883893e-04 9.11880000e+01 7.81616400e-03 1.18400000e-01
      -11 -1    0    0    0    0 +0.0000000000e+00 +0.0000000000e+00 +4.5593999997e+01 4.5594000000e+01 5.1100000000e-04 0.0000e+00 1.0000e+00
       11 -1    0    0    0    0 -0.0000000000e+00 -0.0000000000e+00 -4.5593999997e+01 4.5594000000e+01 5.1100000000e-04 0.0000e+00 -1.0000e+00
       23  2    1    2    0    0 +0.0000000000e+00 +0.0000000000e+00 -1.7763568394e-15 9.1188000000e+01 9.1188000000e+01 1.1933e-13 0.0000e+00
  9990012  2    3    3    0    0 -4.0778230513e-01 +3.0573254024e+01 -9.0455909360e+00 5.9302064802e+01 5.0000220263e+01 1.1402e-03 0.0000e+00
      -11  1    4    4    0    0 +2.3859449202e-01 -5.5729630876e+00 -1.7389070221e+01 1.8261834747e+01 5.1100000000e-04 0.0000e+00 1.0000e+00
       11  1    4    4    0    0 +2.9143396533e+00 +3.5841851271e+01 +9.6545671669e+00 3.7233618486e+01 5.1100000000e-04 0.0000e+00 -1.0000e+00
       12  1    4    4    0    0 -3.5607164504e+00 +3.0436584143e-01 -1.3110878818e+00 3.8066115693e+00 0.0000000000e+00 0.0000e+00 -1.0000e+00
      -12  1    3    3    0    0 +4.0778230513e-01 -3.0573254024e+01 +9.0455909360e+00 3.1885935198e+01 0.0000000000e+00 0.0000e+00 1.0000e+00
</event>
<event>
 8      3 +2.2883893e-04 9.11880000e+01 7.81616400e-03 1.18400000e-01
      -11 -1    0    0    0    0 +0.0000000000e+00 +0.0000000000e+00 +4.5593999997e+01 4.5594000000e+01 5.1100000000e-04 0.0000e+00 -1.0000e+00
       11 -1    0    0    0    0 -0.0000000000e+00 -0.0000000000e+00 -4.5593999997e+01 4.5594000000e+01 5.1100000000e-04 0.0000e+00 1.0000e+00
       23  2    1    2    0    0 -1.7763568394e-15 +3.5527136788e-15 -2.6645352591e-15 9.1188000000e+01 9.1188000000e+01 1.8767e-14 0.0000e+00
  9990012  2    3    3    0    0 +1.1636699411e+01 +2.8632612818e+01 +7.8408997063e+00 5.9301968604e+01 5.0000044822e+01 8.5277e-04 0.0000e+00
      -11  1    4    4    0    0 +6.2540665730e+00 -2.9053972910e+00 -1.2334438844e+00 7.0054311927e+00 5.1100000000e-04 0.0000e+00 1.0000e+00
       11  1    4    4    0    0 -3.5615265088e+00 +5.5069698006e+00 -1.4590865814e+01 1.5997017000e+01 5.1100000000e-04 0.0000e+00 -1.0000e+00
       12  1    4    4    0    0 +8.9441593469e+00 +2.6031040308e+01 +2.3665209404e+01 3.6299520411e+01 0.0000000000e+00 0.0000e+00 -1.0000e+00
      -12  1    3    3    0    0 -1.1636699411e+01 -2.8632612818e+01 -7.8408997063e+00 3.1886031396e+01 0.0000000000e+00 0.0000e+00 1.0000e+00
</event>
<event>
 8      4 +2.2883893e-04 9.11880000e+01 7.81616400e-03 1.18400000e-01
      -11 -1    0    0    0    0 +0.0000000000e+00 +0.0000000000e+00 +4.5593999997e+01 4.5594000000e+01 5.1100000000e-04 0.0000e+00 -1.0000e+00
       11 -1    0    0    0    0 -0.0000000000e+00 -0.0000000000e+00 -4.5593999997e+01 4.5594000000e+01 5.1100000000e-04 0.0000e+00 1.0000e+00
       23  2    1    2    0    0 +3.5527136788e-15 +1.7763568394e-15 -3.5527136788e-15 9.1188000000e+01 9.1188000000e+01 1.8755e-14 0.0000e+00
 -9990012  2    3    3    0    0 +1.7992635616e+01 +1.4944908277e+01 -2.1671075506e+01 5.9301941394e+01 4.9999995197e+01 1.0034e-03 0.0000e+00
      -11  1    4    4    0    0 +6.7471196536e+00 -3.8979019253e+00 -4.5256875502e-01 7.8052598790e+00 5.1100000000e-04 0.0000e+00 1.0000e+00
       11  1    4    4    0    0 +1.2063296051e+01 +1.0885842754e+01 +1.0127250524e+01 1.9146432762e+01 5.1100000000e-04 0.0000e+00 -1.0000e+00
      -12  1    4    4    0    0 -8.1778008830e-01 +7.9569674479e+00 -3.1345757275e+01 3.2350248753e+01 0.0000000000e+00 0.0000e+00 1.0000e+00
       12  1    3    3    0    0 -1.7992635616e+01 -1.4944908277e+01 +2.1671075506e+01 3.1886058606e+01 0.0000000000e+00 0.0000e+00 -1.0000e+00
</event>
<event>
 8      3 +2.2883893e-04 9.11880000e+01 7.81616400e-03 1.18400000e-01
      -11 -1    0    0    0    0 +0.0000000000e+00 +0.0000000000e+00 +4.5593999997e+01 4.5594000000e+01 5.1100000000e-04 0.0000e+00 1.0000e+00
       11 -1    0    0    0    0 -0.0000000000e+00 -0.0000000000e+00 -4.5593999997e+01 4.5594000000e+01 5.1100000000e-04 0.0000e+00 -1.0000e+00
       23  2    1    2    0    0 +1.7763568394e-15 +8.8817841970e-16 +0.0000000000e+00 9.1188000000e+01 9.1188000000e+01 4.6121e-14 0.0000e+00
  9990012  2    3    3    0    0 -1.2628226732e+01 -5.7242790778e+00 -2.8713806025e+01 5.9301919372e+01 4.9999955034e+01 2.3702e-03 0.0000e+00
      -11  1    4    4    0    0 -1.6128041004e+01 +3.1449905275e+00 +4.3263959115e-02 1.6431875853e+01 5.1100000000e-04 0.0000e+00 1.0000e+00
       11  1    4    4    0    0 +7.5340676771e+00 -1.5286330210e+01 -3.0639343216e+01 3.5059997433e+01 5.1100000000e-04 0.0000e+00 -1.0000e+00
       12  1    4    4    0    0 -4.0342534059e+00 +6.4170606044e+00 +1.8822732315e+00 7.8100460858e+00 0.0000000000e+00 0.0000e+00 -1.0000e+00
      -12  1    3    3    0    0 +1.2628226732e+01 +5.7242790778e+00 +2.8713806025e+01 3.1886080628e+01 0.0000000000e+00 0.0000e+00 1.0000e+00
</event>
<event>
 8      4 +2.2883893e-04 9.11880000e+01 7.81616400e-03 1.18400000e-01
      -11 -1    0    0    0    0 +0.0000000000e+00 +0.0000000000e+00 +4.5593999997e+01 4.5594000000e+01 5.1100000000e-04 0.0000e+00 -1.0000e+00
       11 -1    0    0    0    0 -0.0000000000e+00 -0.0000000000e+00 -4.5593999997e+01 4.5594000000e+01 5.1100000000e-04 0.0000e+00 1.0000e+00
       23  2    1    2    0    0 -8.8817841970e-16 +0.0000000000e+00 +0.0000000000e+00 9.1188000000e+01 9.1188000000e+01 1.5705e-13 0.0000e+00
 -9990012  2    3    3    0    0 +5.3757857417e+00 +2.3752653462e+01 -2.0582379279e+01 5.9301922229e+01 4.9999960244e+01 7.4746e-03 0.0000e+00
      -11  1    4    4    0    0 -7.9357469339e+00 +2.3928622912e+00 -2.5355223443e+01 2.6675629804e+01 5.1100000000e-04 0.0000e+00 1.0000e+00
       11  1    4    4    0    0 +5.8467755189e+00 -1.5629586295e+00 +5.9539208830e+00 8.4898055213e+00 5.1100000000e-04 0.0000e+00 -1.0000e+00
      -12  1    4    4    0    0 +7.4647571566e+00 +2.2922749801e+01 -1.1810767191e+00 2.4136486904e+01 0.0000000000e+00 0.0000e+00 1.0000e+00
       12  1    3    3    0    0 -5.3757857417e+00 -2.3752653462e+01 +2.0582379279e+01 3.1886077771e+01 0.0000000000e+00 0.0000e+00 -1.0000e+00
</event>
<event>
 8      3 +2.2883893e-04 9.11880000e+01 7.81616400e-03 1.18400000e-01
      -11 -1    0    0    0    0 +0.0000000000e+00 +0.0000000000e+00 +4.5593999997e+01 4.5594000000e+01 5.1100000000e-04 0.0000e+00 1.0000e+00
       11 -1    0    0    0    0 -0.0000000000e+00 -0.0000000000e+00 -4.5593999997e+01 4.5594000000e+01 5.1100000000e-04 0.0000e+00 -1.0000e+00
       23  2    1    2    0    0 +3.5527136788e-15 +8.8817841970e-16 +3.5527136788e-15 9.1188000000e+01 9.1188000000e+01 1.3135e-14 0.0000e+00
  9990012  2    3    3    0    0 -2.8795072740e+01 +6.4050264331e+00 +1.2105327743e+01 5.9301960148e+01 5.0000029399e+01 1.4230e-03 0.0000e+00
      -11  1    4    4    0    0 +2.9858548271e+00 -7.6502152908e+00 +2.1190206457e+00 8.4812364548e+00 5.1100000000e-04 0.0000e+00 1.0000e+00
       11  1    4    4    0    0 -6.6696614230e+00 +1.4040473426e+01 -1.0208359609e+01 1.8596501921e+01 5.1100000000e-04 0.0000e+00 -1.0000e+00
       12  1    4    4    0    0 -2.5111266144e+01 +1.4768298023e-02 +2.0194666706e+01 3.2224221772e+01 0.0000000000e+00 0.0000e+00 -1.0000e+00
      -12  1    3    3    0    0 +2.8795072740e+01 -6.4050264331e+00 -1.2105327743e+01 3.1886039852e+01 0.0000000000e+00 0.0000e+00 1.0000e+00
</event>
<event>
 8      3 +2.2883893e-04 9.11880000e+01 7.81616400e-03 1.18400000e-01
      -11 -1    0    0    0    0 +0.0000000000e+00 +0.0000000000e+00 +4.5593999997e+01 4.5594000000e+01 5.1100000000e-04 0.0000e+00 -1.0000e+00
       11 -1    0    0    0    0 -0.0000000000e+00 -0.0000000000e+00 -4.5593999997e+01 4.5594000000e+01 5.1100000000e-04 0.0000e+00 1.0000e+00
       23  2    1    2    0    0 -1.7763568394e-15 +0.0000000000e+00 +3.5527136788e-15 9.1188000000e+01 9.1188000000e+01 4.9010e-14 0.0000e+00
  9990012  2    3    3    0    0 -1.2345252588e+01 +8.2034066448e+00 +2.8231531044e+01 5.9301945256e+01 5.0000002241e+01 6.6948e-04 0.0000e+00
      -11  1    4    4    0    0 -6.0866815608e+00 -2.2403786317e-01 +1.4976479167e+01 1.6167647135e+01 5.1100000000e-04 0.0000e+00 -1.0000e+00
       11  1    4    4    0    0 -7.8893823207e+00 -4.2488683924e+00 +2.4514751311e+01 2.6101116224e+01 5.1100000000e-04 0.0000e+00 1.0000e+00
       12  1    4    4    0    0 +1.6308112931e+00 +1.2676312900e+01 -1.1259699434e+01 1.7033181898e+01 0.0000000000e+00 0.0000e+00 -1.0000e+00
      -12  1    3    3    0    0 +1.2345252588e+01 -8.2034066448e+00 -2.8231531044e+01 3.1886054744e+01 0.0000000000e+00 0.0000e+00 1.0000e+00
</event>
<event>
 8      4 +2.2883893e-04 9.11880000e+01 7.81616400e-03 1.18400000e-01
      -11 -1    0    0    0    0 +0.0000000000e+00 +0.0000000000e+00 +4.5593999997e+01 4.5594000000e+01 5.1100000000e-04 0.0000e+00 -1.0000e+00
       11 -1    0    0    0    0 -0.0000000000e+00 -0.0000000000e+00 -4.5593999997e+01 4.5594000000e+01 5.1100000000e-04 0.0000e+00 1.0000e+00
       23  2    1    2    0    0 -3.5527136788e-15 -8.8817841970e-16 +0.0000000000e+00 9.1188000000e+01 9.1188000000e+01 1.6096e-14 0.0000e+00
 -9990012  2    3    3    0    0 +2.4486554792e+01 -3.9761163253e+00 -2.0032900703e+01 5.9301984614e+01 5.0000074020e+01 1.0596e-02 0.0000e+00
      -11  1    4    4    0    0 -6.1585281375e+00 +1.0051319675e+01 -1.4612179598e+01 1.8774245362e+01 5.1100000000e-04 0.0000e+00 1.0000e+00
       11  1    4    4    0    0 +1.6137357977e+01 +3.7818524667e-01 +5.8655448397e+00 1.7174456704e+01 5.1100000000e-04 0.0000e+00 -1.0000e+00
      -12  1    4    4    0    0 +1.4507724952e+01 -1.4405621247e+01 -1.1286265945e+01 2.3353282548e+01 0.0000000000e+00 0.0000e+00 1.0000e+00
       12  1    3    3    0    0 -2.4486554792e+01 +3.9761163253e+00 +2.0032900703e+01 3.1886015386e+01 0.0000000000e+00 0.0000e+00 -1.0000e+00
</event>
<event>
 8      3 +2.2883893e-04 9.11880000e+01 7.81616400e-03 1.18400000e-01
      -11 -1    0    0    0    0 +0.0000000000e+00 +0.0000000000e+00 +4.5593999997e+01 4.5594000000e+01 5.1100000000e-04 0.0000e+00 -1.0000e+00
       11 -1    0    0    0    0 -0.0000000000e+00 -0.0000000000e+00 -4.5593999997e+01 4.5594000000e+01 5.1100000000e-04 0.0000e+00 1.0000e+00
       23  2    1    2    0    0 -2.2204460493e-16 +0.0000000000e+00 +1.7763568394e-15 9.1188000000e+01 9.1188000000e+01 1.2546e-13 0.0000e+00
  9990012  2    3    3    0    0 -7.6119811329e-01 -3.0801467879e+01 +8.2102858806e+00 5.9301974216e+01 5.0000055057e+01 3.8420e-03 0.0000e+00
      -11  1    4    4    0    0 +1.8799830228e+00 -1.7705449642e+01 -1.6532918556e+01 2.4297215466e+01 5.1100000000e-04 0.0000e+00 1.0000e+00
       11  1    4    4    0    0 +5.0505017935e+00 +2.4464859608e+00 +1.1576186609e+00 5.7300037651e+00 5.1100000000e-04 0.0000e+00 -1.0000e+00
       12  1    4    4    0    0 -7.6916829296e+00 -1.5542504198e+01 +2.3585585776e+01 2.9274754985e+01 0.0000000000e+00 0.0000e+00 -1.0000e+00
      -12  1    3    3    0    0 +7.6119811329e-01 +3.0801467879e+01 -8.2102858806e+00 3.1886025784e+01 0.0000000000e+00 0.0000e+00 1.0000e+00
</event>
<event>
 8      3 +2.2883893e-04 9.11880000e+01 7.81616400e-03 1.18400000e-01
      -11 -1    0    0    0    0 +0.0000000000e+00 +0.0000000000e+00 +4.5593999997e+01 4.5594000000e+01 5.1100000000e-04 0.0000e+00 1.0000e+00
       11 -1    0    0    0    0 -0.0000000000e+00 -0.0000000000e+00 -4.5593999997e+01 4.5594000000e+01 5.1100000000e-04 0.0000e+00 -1.0000e+00
       23  2    1    2    0    0 -1.7763568394e-15 -3.5527136788e-15 +1.7763568394e-15 9.1188000000e+01 9.1188000000e+01 6.4028e-14 0.0000e+00
  9990012  2    3    3    0    0 -1.0841416822e+01 +2.7370238688e+01 -1.2249602255e+01 5.9301967949e+01 5.0000043626e+01 3.4626e-03 0.0000e+00
      -11  1    4    4    0    0 +1.2832214030e+01 -4.3491616631e+00 -1.8161925943e+00 1.3670386969e+01 5.1100000000e-04 0.0000e+00 1.0000e+00
       11  1    4    4    0    0 -7.5682241708e+00 +1.8745426808e+01 +3.7416005359e+00 2.0558906054e+01 5.1100000000e-04 0.0000e+00 -1.0000e+00
       12  1    4    4    0    0 -1.6105406681e+01 +1.2973973543e+01 -1.4175010196e+01 2.5072674926e+01 0.0000000000e+00 0.0000e+00 -1.0000e+00
      -12  1    3    3    0    0 +1.0841416822e+01 -2.7370238688e+01 +1.2249602255e+01 3.1886032051e+01 0.0000000000e+00 0.0000e+00 1.0000e+00
</event>
<event>
 8      3 +2.2883893e-04 9.11880000e+01 7.81616400e-03 1.18400000e-01
      -11 -1    0    0    0    0 +0.0000000000e+00 +0.0000000000e+00 +4.5593999997e+01 4.5594000000e+01 5.1100000000e-04 0.0000e+00 1.0000e+00
       11 -1    0    0    0    0 -0.0000000000e+00 -0.0000000000e+00 -4.5593999997e+01 4.5594000000e+01 5.1100000000e-04 0.0000e+00 -1.0000e+00
       23  2    1    2    0    0 +1.7763568394e-15 +3.5527136788e-15 -8.8817841970e-16 9.1188000000e+01 9.1188000000e+01 4.4341e-15 0.0000e+00
  9990012  2    3    3    0    0 -1.1759513056e+01 -2.8539571452e+01 -7.9951204740e+00 5.9302027577e+01 5.0000152373e+01 3.6760e-04 0.0000e+00
      -11  1    4    4    0    0 -7.4102307674e+00 +7.2764590597e+00 +1.0156145044e+01 1.4526033832e+01 5.1100000000e-04 0.0000e+00 1.0000e+00
       11  1    4    4    0    0 -5.0119563772e-01 +1.2202895246e+00 +2.0314891784e+00 2.4222411388e+00 5.1100000000e-04 0.0000e+00 -1.0000e+00
       12  1    4    4    0    0 -3.8480866511e+00 -3.7036320036e+01 -2.0182754696e+01 4.2353752606e+01 0.0000000000e+00 0.0000e+00 -1.0000e+00
      -12  1    3    3    0    0 +1.1759513056e+01 +2.8539571452e+01 +7.9951204740e+00 3.1885972423e+01 0.0000000000e+00 0.0000e+00 1.0000e+00
</event>
<event>
 8      4 +2.2883893e-04 9.11880000e+01 7.81616400e-03 1.18400000e-01
      -11 -1    0    0    0    0 +0.0000000000e+00 +0.0000000000e+00 +4.5593999997e+01 4.5594000000e+01 5.1100000000e-04 0.0000e+00 1.0000e+00
       11 -1    0    0    0    0 -0.0000000000e+00 -0.0000000000e+00 -4.5593999997e+01 4.5594000000e+01 5.1100000000e-04 0.0000e+00 -1.0000e+00
       23  2    1    2    0    0 +0.0000000000e+00 -1.3322676296e-15 +0.0000000000e+00 9.1188000000e+01 9.1188000000e+01 6.6898e-13 0.0000e+00
 -9990012  2    3    3    0    0 +3.0780909994e+01 +3.2520769095e+00 +7.6603358160e+00 5.9301934562e+01 4.9999982737e+01 5.9624e-03 0.0000e+00
      -11  1    4    4    0    0 +1.7185338691e+01 +1.5861491525e+01 +9.6145706000e+00 2.5285623334e+01 5.1100000000e-04 0.0000e+00 1.0000e+00
       11  1    4    4    0    0 +9.0969491721e+00 +8.4549199023e+00 -5.6442459058e-01 1.2432165144e+01 5.1100000000e-04 0.0000e+00 -1.0000e+00
      -12  1    4    4    0    0 +4.4986221313e+00 -2.1064334518e+01 -1.3898101935e+00 2.1584146083e+01 0.0000000000e+00 0.0000e+00 1.0000e+00
       12  1    3    3    0    0 -3.0780909994e+01 -3.2520769095e+00 -7.6603358160e+00 3.1886065438e+01 0.0000000000e+00 0.0000e+00 -1.0000e+00
</event>
<event>
 8      3 +2.2883893e-04 9.11880000e+01 7.81616400e-03 1.18400000e-01
      -11 -1    0    0    0    0 +0.0000000000e+00 +0.0000000000e+00 +4.5593999997e+01 4.5594000000e+01 5.1100000000e-04 0.0000e+00 1.0000e+00
       11 -1    0    0    0    0 -0.0000000000e+00 -0.0000000000e+00 -4.5593999997e+01 4.5594000000e+01 5.1100000000e-04 0.0000e+00 -1.0000e+00
       23  2    1    2    0    0 +0.0000000000e+00 +1.7763568394e-15 +0.0000000000e+00 9.1188000000e+01 9.1188000000e+01 2.0954e-15 0.0000e+00
  9990012  2    3    3    0    0 +2.5146802122e+01 +1.4054919314e+01 -1.3668156112e+01 5.9301938697e+01 4.9999990278e+01 9.6442e-04 0.0000e+00
      -11  1    4    4    0    0 -3.4657151409e+00 +4.6308428930e+00 +7.0518655075e-01 5.8269353583e+00 5.1100000000e-04 0.0000e+00 1.0000e+00
       11  1    4    4    0    0 +3.1130203548e+01 -7.8843821506e+00 -2.2464532469e+00 3.2191607716e+01 5.1100000000e-04 0.0000e+00 -1.0000e+00
       12  1    4    4    0    0 -2.5176862851e+00 +1.7308458571e+01 -1.2126889416e+01 2.1283395623e+01 0.0000000000e+00 0.0000e+00 -1.0000e+00
      -12  1    3    3    0    0 -2.5146802122e+01 -1.4054919314e+01 +1.3668156112e+01 3.1886061303e+01 0.0000000000e+00 0.0000e+00 1.0000e+00
</event>
<event>
 8      4 +2.2883893e-04 9.11880000e+01 7.81616400e-03 1.18400000e-01
      -11 -1    0    0    0    0 +0.0000000000e+00 +0.0000000000e+00 +4.5593999997e+01 4.5594000000e+01 5.1100000000e-04 0.0000e+00 -1.0000e+00
       11 -1    0    0    0    0 -0.0000000000e+00 -0.0000000000e+00 -4.5593999997e+01 4.5594000000e+01 5.1100000000e-04 0.0000e+00 1.0000e+00
       23  2    1    2    0    0 +0.0000000000e+00 +0.0000000000e+00 -1.7763568394e-15 9.1188000000e+01 9.1188000000e+01 9.8917e-17 0.0000e+00
 -9990012  2    3    3    0    0 -2.0991443575e+01 +2.1120965343e+01 -1.1400915357e+01 5.9302003836e+01 5.0000109076e+01 7.8182e-03 0.0000e+00
      -11  1    4    4    0    0 -8.4051927106e+00 +8.8254791100e-01 -1.0301341629e+01 1.3324556088e+01 5.1100000000e-04 0.0000e+00 1.0000e+00
       11  1    4    4    0    0 -1.7372505488e+01 +2.2268576187e+01 +1.2895306701e+01 3.1048065439e+01 5.1100000000e-04 0.0000e+00 -1.0000e+00
      -12  1    4    4    0    0 +4.7862546229e+00 -2.0301587552e+00 -1.3994880430e+01 1.4929382309e+01 0.0000000000e+00 0.0000e+00 1.0000e+00
       12  1    3    3    0    0 +2.0991443575e+01 -2.1120965343e+01 +1.1400915357e+01 3.1885996164e+01 0.0000000000e+00 0.0000e+00 -1.0000e+00
</event>
<event>
 8      4 +2.2883893e-04 9.11880000e+01 7.81616400e-03 1.18400000e-01
      -11 -1    0    0    0    0 +0.0000000000e+00 +0.0000000000e+00 +4.5593999997e+01 4.5594000000e+01 5.1100000000e-04 0.0000e+00 1.0000e+00
       11 -1    0    0    0    0 -0.0000000000e+00 -0.0000000000e+00 -4.5593999997e+01 4.5594000000e+01 5.1100000000e-04 0.0000e+00 -1.0000e+00
       23  2    1    2    0    0 +3.5527136788e-15 +8.8817841970e-16 -2.5535129566e-15 9.1188000000e+01 9.1188000000e+01 1.6153e-14 0.0000e+00
 -9990012  2    3    3    0    0 -3.1257961701e+01 +6.2726839428e+00 +5.6122903228e-01 5.9301926055e+01 4.9999967223e+01 2.1060e-03 0.0000e+00
      -11  1    4    4    0    0 -5.1496841916e+00 -8.0955666801e+00 +9.7078186178e+00 1.3649146117e+01 5.1100000000e-04 0.0000e+00 1.0000e+00
       11  1    4    4    0    0 -1.3686773061e+01 -6.8984674890e+00 -1.3758122410e+01 2.0596177874e+01 5.1100000000e-04 0.0000e+00 -1.0000e+00
      -12  1    4    4    0    0 -1.2421504449e+01 +2.1266718112e+01 +4.6115328241e+00 2.5056602064e+01 0.0000000000e+00 0.0000e+00 1.0000e+00
       12  1    3    3    0    0 +3.1257961701e+01 -6.2726839428e+00 -5.6122903228e-01 3.1886073945e+01 0.0000000000e+00 0.0000e+00 -1.0000e+00
</event>
<event>
 8      4 +2.2883893e-04 9.11880000e+01 7.81616400e-03 1.18400000e-01
      -11 -1    0    0    0    0 +0.0000000000e+00 +0.0000000000e+00 +4.5593999997e+01 4.5594000000e+01 5.1100000000e-04 0.0000e+00 -1.0000e+00
       11 -1    0    0    0    0 -0.0000000000e+00 -0.0000000000e+00 -4.5593999997e+01 4.5594000000e+01 5.1100000000e-04 0.0000e+00 1.0000e+00
       23  2    1    2    0    0 -1.7763568394e-15 +0.0000000000e+00 +1.1102230246e-16 9.1188000000e+01 9.1188000000e+01 1.3655e-13 0.0000e+00
 -9990012  2    3    3    0    0 -6.8400196620e+00 +3.1141249290e+01 +4.0285806198e-01 5.9301865538e+01 4.9999856854e+01 5.7790e-04 0.0000e+00
      -11  1    4    4    0    0 -1.4856729706e+01 +1.1306381111e+01 -1.1672329989e+01 2.2018173381e+01 5.1100000000e-04 0.0000e+00 1.0000e+00
       11  1    4    4    0    0 -1.3002615546e+00 +2.4465192488e+01 +5.9553643608e+00 2.5213145153e+01 5.1100000000e-04 0.0000e+00 -1.0000e+00
      -12  1    4    4    0    0 +9.3169715990e+00 -4.6303243094e+00 +6.1198236901e+00 1.2070547004e+01 0.0000000000e+00 0.0000e+00 1.0000e+00
       12  1    3    3    0    0 +6.8400196620e+00 -3.1141249290e+01 -4.0285806198e-01 3.1886134462e+01 0.0000000000e+00 0.0000e+00 -1.0000e+00
</event>
<event>
 8      3 +2.2883893e-04 9.11880000e+01 7.81616400e-03 1.18400000e-01
      -11 -1    0    0    0    0 +0.0000000000e+00 +0.0000000000e+00 +4.5593999997e+01 4.5594000000e+01 5.1100000000e-04 0.0000e+00 1.0000e+00
       11 -1    0    0    0    0 -0.0000000000e+00 -0.0000000000e+00 -4.5593999997e+01 4.5594000000e+01 5.1100000000e-04 0.0000e+00 -1.0000e+00
       23  2    1    2    0    0 +4.4408920985e-16 +0.0000000000e+00 +0.0000000000e+00 9.1188000000e+01 9.1188000000e+01 1.3268e-14 0.0000e+00
  9990012  2    3    3    0    0 -2.5654153634e+00 +3.1425516471e+01 -4.7514845870e+00 5.9301936473e+01 4.9999986223e+01 2.4503e-03 0.0000e+00
      -11  1    4    4    0    0 -1.4800390566e+01 +3.9612128648e+00 -3.6521400293e+00 1.5750583968e+01 5.1100000000e-04 0.0000e+00 1.0000e+00
       11  1    4    4    0    0 +3.1298993514e+00 -1.0098541318e+00 -1.1452108134e+01 1.1914984528e+01 5.1100000000e-04 0.0000e+00 -1.0000e+00
       12  1    4    4    0    0 +9.1050758516e+00 +2.8474157738e+01 +1.0352763576e+01 3.1636367978e+01 0.0000000000e+00 0.0000e+00 -1.0000e+00
      -12  1    3    3    0    0 +2.5654153634e+00 -3.1425516471e+01 +4.7514845870e+00 3.1886063527e+01 0.0000000000e+00 0.0000e+00 1.0000e+00
</event>
<event>
 8      4 +2.2883893e-04 9.11880000e+01 7.81616400e-03 1.18400000e-01
      -11 -1    0    0    0    0 +0.0000000000e+00 +0.0000000000e+00 +4.5593999997e+01 4.5594000000e+01 5.1100000000e-04 0.0000e+00 1.0000e+00
       11 -1    0    0    0    0 -0.0000000000e+00 -0.0000000000e+00 -4.5593999997e+01 4.5594000000e+01 5.1100000000e-04 0.0000e+00 -1.0000e+00
       23  2    1    2    0    0 +0.0000000000e+00 -3.5527136788e-15 -3.5527136788e-15 9.1188000000e+01 9.1188000000e+01 1.8916e-13 0.0000e+00
 -9990012  2    3    3    0    0 -2.1181615041e+01 +9.7114976167e+00 +2.1765692464e+01 5.9301962772e+01 5.0000034184e+01 2.2940e-04 0.0000e+00
      -11  1    4    4    0    0 -5.7501854357e+00 -4.9807848680e+00 -1.0013414582e+00 7.6730395166e+00 5.1100000000e-04 0.0000e+00 -1.0000e+00
       11  1    4    4    0    0 +1.1525804955e+01 +1.3229021050e+01 +2.1852114210e+00 1.7681242236e+01 5.1100000000e-04 0.0000e+00 1.0000e+00
      -12  1    4    4    0    0 -2.6957234560e+01 +1.4632614352e+00 +2.0581822501e+01 3.3947681019e+01 0.0000000000e+00 0.0000e+00 1.0000e+00
       12  1    3    3    0    0 +2.1181615041e+01 -9.7114976167e+00 -2.1765692464e+01 3.1886037228e+01 0.0000000000e+00 0.0000e+00 -1.0000e+00
</event>
<event>
 8      3 +2.2883893e-04 9.11880000e+01 7.81616400e-03 1.18400000e-01
      -11 -1    0    0    0    0 +0.0000000000e+00 +0.0000000000e+00 +4.5593999997e+01 4.5594000000e+01 5.1100000000e-04 0.0000e+00 1.0000e+00
       11 -1    0    0    0    0 -0.0000000000e+00 -0.0000000000e+00 -4.5593999997e+01 4.5594000000e+01 5.1100000000e-04 0.0000e+00 -1.0000e+00
       23  2    1    2    0    0 +0.0000000000e+00 -3.5527136788e-15 -1.7763568394e-15 9.1188000000e+01 9.1188000000e+01 3.9212e-14 0.0000e+00
  9990012  2    3    3    0    0 +9.8788757478e+00 -2.8766481093e+01 -9.5716325852e+00 5.9301972168e+01 5.0000051322e+01 1.8879e-04 0.0000e+00
      -11  1    4    4    0    0 -3.8387850249e+00 -1.7603857515e+01 -1.8734537472e-01 1.8018522925e+01 5.1100000000e-04 0.0000e+00 1.0000e+00
       11  1    4    4    0    0 +2.4613903520e+01 -1.0111341204e+01 +3.8303983296e-01 2.6612594523e+01 5.1100000000e-04 0.0000e+00 -1.0000e+00
       12  1    4    4    0    0 -1.0896242748e+01 -1.0512823748e+00 -9.7673270434e+00 1.4670854720e+01 0.0000000000e+00 0.0000e+00 -1.0000e+00
      -12  1    3    3    0    0 -9.8788757478e+00 +2.8766481093e+01 +9.5716325852e+00 3.1886027832e+01 0.0000000000e+00 0.0000e+00 1.0000e+00
</event>
<event>
 8      3 +2.2883893e-04 9.11880000e+01 7.81616400e-03 1.18400000e-01
      -11 -1    0    0    0    0 +0.0000000000e+00 +0.0000000000e+00 +4.5593999997e+01 4.5594000000e+01 5.1100000000e-04 0.0000e+00 1.0000e+00
       11 -1    0    0    0    0 -0.0000000000e+00 -0.0000000000e+00 -4.5593999997e+01 4.5594000000e+01 5.1100000000e-04 0.0000e+00 -1.0000e+00
       23  2    1    2    0    0 +3.5527136788e-15 -1.0658141036e-14 -8.8817841970e-16 9.1188000000e+01 9.1188000000e+01 6.9630e-14 0.0000e+00
  9990012  2    3    3    0    0 -1.4501230742e+01 +2.7977238222e+01 -4.8692347910e+00 5.9301937229e+01 4.9999987601e+01 2.7210e-04 0.0000e+00
      -11  1    4    4    0    0 +1.0254314412e+00 -2.3854810886e+00 +4.6724194419e+00 5.3454217202e+00 5.1100000000e-04 0.0000e+00 1.0000e+00
       11  1    4    4    0    0 -7.0070823965e+00 +3.5415396308e+01 -1.8531211929e+01 4.0580233060e+01 5.1100000000e-04 0.0000e+00 -1.0000e+00
       12  1    4    4    0    0 -8.5195797863e+00 -5.0526769973e+00 +8.9895576966e+00 1.3376282449e+01 0.0000000000e+00 0.0000e+00 -1.0000e+00
      -12  1    3    3    0    0 +1.4501230742e+01 -2.7977238222e+01 +4.8692347910e+00 3.1886062771e+01 0.0000000000e+00 0.0000e+00 1.0000e+00
</event>
<event>
 8      4 +2.2883893e-04 9.11880000e+01 7.81616400e-03 1.18400000e-01
      -11 -1    0    0    0    0 +0.0000000000e+00 +0.0000000000e+00 +4.5593999997e+01 4.5594000000e+01 5.1100000000e-04 0.0000e+00 1.0000e+00
       11 -1    0    0    0    0 -0.0000000000e+00 -0.0000000000e+00 -4.5593999997e+01 4.5594000000e+01 5.1100000000e-04 0.0000e+00 -1.0000e+00
       23  2    1    2    0    0 +0.0000000000e+00 -2.6645352591e-15 +2.2204460493e-16 9.1188000000e+01 9.1188000000e+01 7.2140e-14 0.0000e+00
 -9990012  2    3    3    0    0 -3.1335461805e+01 -5.6884941399e+00 +1.5648755894e+00 5.9301969082e+01 5.0000045692e+01 1.0463e-03 0.0000e+00
      -11  1    4    4    0    0 -1.6234834112e+01 +1.0285924930e+01 -2.0463717699e+00 1.9327641553e+01 5.1100000000e-04 0.0000e+00 1.0000e+00
       11  1    4    4    0    0 -4.0282959573e-01 -1.8260784245e+01 -9.1015904537e+00 2.0407289432e+01 5.1100000000e-04 0.0000e+00 -1.0000e+00
      -12  1    4    4    0    0 -1.4697798097e+01 +2.2863651748e+00 +1.2712837813e+01 1.9567038097e+01 0.0000000000e+00 0.0000e+00 1.0000e+00
       12  1    3    3    0    0 +3.1335461805e+01 +5.6884941399e+00 -1.5648755894e+00 3.1886030918e+01 0.0000000000e+00 0.0000e+00 -1.0000e+00
</event>
<event>
 8      3 +2.2883893e-04 9.11880000e+01 7.81616400e-03 1.18400000e-01
      -11 -1    0    0    0    0 +0.0000000000e+00 +0.0000000000e+00 +4.5593999997e+01 4.5594000000e+01 5.1100000000e-04 0.0000e+00 1.0000e+00
       11 -1    0    0    0    0 -0.0000000000e+00 -0.0000000000e+00 -4.5593999997e+01 4.5594000000e+01 5.1100000000e-04 0.0000e+00 -1.0000e+00
       23  2    1    2    0    0 +0.0000000000e+00 +0.0000000000e+00 +3.5527136788e-15 9.1188000000e+01 9.1188000000e+01 1.1240e-13 0.0000e+00
  9990012  2    3    3    0    0 +1.6143550147e+01 +5.4376125011e+00 -2.6954362234e+01 5.9301960978e+01 5.0000030913e+01 1.0502e-03 0.0000e+00
      -11  1    4    4    0    0 +6.2563882739e+00 -1.3168911552e+01 -7.1598856945e+00 1.6242739582e+01 5.1100000000e-04 0.0000e+00 1.0000e+00
       11  1    4    4    0    0 +1.2067695143e+01 +1.6126263861e+01 +2.7016132755e+00 2.0322016798e+01 5.1100000000e-04 0.0000e+00 -1.0000e+00
       12  1    4    4    0    0 -2.1805332701e+00 +2.4802601918e+00 -2.2496089815e+01 2.2737204598e+01 0.0000000000e+00 0.0000e+00 -1.0000e+00
      -12  1    3    3    0    0 -1.6143550147e+01 -5.4376125011e+00 +2.6954362234e+01 3.1886039022e+01 0.0000000000e+00 0.0000e+00 1.0000e+00
</event>
<event>
 8      4 +2.2883893e-04 9.11880000e+01 7.81616400e-03 1.18400000e-01
      -11 -1    0    0    0    0 +0.0000000000e+00 +0.0000000000e+00 +4.5593999997e+01 4.5594000000e+01 5.1100000000e-04 0.0000e+00 -1.0000e+00
       11 -1    0    0    0    0 -0.0000000000e+00 -0.0000000000e+00 -4.5593999997e+01 4.5594000000e+01 5.1100000000e-04 0.0000e+00 1.0000e+00
       23  2    1    2    0    0 +0.0000000000e+00 +8.8817841970e-16 +0.0000000000e+00 9.1188000000e+01 9.1188000000e+01 1.4239e-13 0.0000e+00
 -9990012  2    3    3    0    0 -2.9413223672e+01 -2.6461018836e+00 -1.2024149903e+01 5.9301956614e+01 5.0000022954e+01 7.6738e-04 0.0000e+00
      -11  1    4    4    0    0 -1.1766923213e+01 +9.0444977534e+00 +2.6990409283e+00 1.5084702308e+01 5.1100000000e-04 0.0000e+00 1.0000e+00
       11  1    4    4    0    0 -5.5649483452e+00 -1.8525346965e+01 +5.1123291664e+00 2.0007324660e+01 5.1100000000e-04 0.0000e+00 -1.0000e+00
      -12  1    4    4    0    0 -1.2081352113e+01 +6.8347473284e+00 -1.9835519997e+01 2.4209929646e+01 0.0000000000e+00 0.0000e+00 1.0000e+00
       12  1    3    3    0    0 +2.9413223672e+01 +2.6461018836e+00 +1.2024149903e+01 3.1886043386e+01 0.0000000000e+00 0.0000e+00 -1.0000e+00
</event>
<event>
 8      4 +2.2883893e-04 9.11880000e+01 7.81616400e-03 1.18400000e-01
      -11 -1    0    0    0    0 +0.0000000000e+00 +0.0000000000e+00 +4.5593999997e+01 4.5594000000e+01 5.1100000000e-04 0.0000e+00 -1.0000e+00
       11 -1    0    0    0    0 -0.0000000000e+00 -0.0000000000e+00 -4.5593999997e+01 4.5594000000e+01 5.1100000000e-04 0.0000e+00 1.0000e+00
       23  2    1    2    0    0 +0.0000000000e+00 -8.8817841970e-16 +3.5527136788e-15 9.1188000000e+01 9.1188000000e+01 7.5077e-14 0.0000e+00
 -9990012  2    3    3    0    0 -2.0257527797e+01 +3.5259060486e+00 -2.4370497131e+01 5.9301943857e+01 4.9999999689e+01 1.1918e-03 0.0000e+00
      -11  1    4    4    0    0 -1.0882972376e+01 +4.3767216953e-01 -1.5551586528e+01 1.8986376391e+01 5.1100000000e-04 0.0000e+00 1.0000e+00
       11  1    4    4    0    0 -1.8850547282e+01 +1.2851644377e+01 +2.0428260177e+00 2.2905917018e+01 5.1100000000e-04 0.0000e+00 -1.0000e+00
      -12  1    4    4    0    0 +9.4759918610e+00 -9.7634104979e+00 -1.0861736621e+01 1.7409650448e+01 0.0000000000e+00 0.0000e+00 1.0000e+00
       12  1    3    3    0    0 +2.0257527797e+01 -3.5259060486e+00 +2.4370497131e+01 3.1886056143e+01 0.0000000000e+00 0.0000e+00 -1.0000e+00
</event>
<event>
 8      3 +2.2883893e-04 9.11880000e+01 7.81616400e-03 1.18400000e-01
      -11 -1    0    0    0    0 +0.0000000000e+00 +0.0000000000e+00 +4.5593999997e+01 4.5594000000e+01 5.1100000000e-04 0.0000e+00 1.0000e+00
       11 -1    0    0    0    0 -0.0000000000e+00 -0.0000000000e+00 -4.5593999997e+01 4.5594000000e+01 5.1100000000e-04 0.0000e+00 -1.0000e+00
       23  2    1    2    0    0 -2.2204460493e-16 +0.0000000000e+00 +3.5527136788e-15 9.1188000000e+01 9.1188000000e+01 1.0375e-13 0.0000e+00
  9990012  2    3    3    0    0 -1.7533903148e+00 +2.5558795823e+01 -1.8984053841e+01 5.9301941577e+01 4.9999995531e+01 5.2928e-04 0.0000e+00
      -11  1    4    4    0    0 -3.0327061270e+00 +3.9572857446e+00 +4.2464608841e+00 6.5490340676e+00 5.1100000000e-04 0.0000e+00 1.0000e+00
       11  1    4    4    0    0 +1.1051555929e+01 -8.6126286830e+00 -1.3705755681e+01 1.9600051029e+01 5.1100000000e-04 0.0000e+00 -1.0000e+00
       12  1    4    4    0    0 -9.7722401170e+00 +3.0214138761e+01 -9.5247590440e+00 3.3152856481e+01 0.0000000000e+00 0.0000e+00 -1.0000e+00
      -12  1    3    3    0    0 +1.7533903148e+00 -2.5558795823e+01 +1.8984053841e+01 3.1886058423e+01 0.0000000000e+00 0.0000e+00 1.0000e+00
</event>
<event>
 8      3 +2.2883893e-04 9.11880000e+01 7.81616400e-03 1.18400000e-01
      -11 -1    0    0    0    0 +0.0000000000e+00 +0.0000000000e+00 +4.5593999997e+01 4.5594000000e+01 5.1100000000e-04 0.0000e+00 -1.0000e+00
       11 -1    0    0    0    0 -0.0000000000e+00 -0.0000000000e+00 -4.5593999997e+01 4.5594000000e+01 5.1100000000e-04 0.0000e+00 1.0000e+00
       23  2    1    2    0    0 +0.0000000000e+00 -8.8817841970e-16 +0.0000000000e+00 9.1188000000e+01 9.1188000000e+01 6.2076e-14 0.0000e+00
  9990012  2    3    3    0    0 +8.6976557916e+00 -4.8536384344e+00 +3.0290478783e+01 5.9301950900e+01 5.0000012534e+01 3.8516e-03 0.0000e+00
      -11  1    4    4    0    0 -1.1800421534e+01 +4.9935453981e+00 +8.4071769284e+00 1.5325340720e+01 5.1100000000e-04 0.0000e+00 1.0000e+00
       11  1    4    4    0    0 -8.0663305446e+00 -5.6035797686e-01 +5.2785900582e+00 9.6562520048e+00 5.1100000000e-04 0.0000e+00 -1.0000e+00
       12  1    4    4    0    0 +2.8564407870e+01 -9.2868258557e+00 +1.6604711796e+01 3.4320358175e+01 0.0000000000e+00 0.0000e+00 -1.0000e+00
      -12  1    3    3    0    0 -8.6976557916e+00 +4.8536384344e+00 -3.0290478783e+01 3.1886049100e+01 0.0000000000e+00 0.0000e+00 1.0000e+00
</event>
<event>
 8      4 +2.2883893e-04 9.11880000e+01 7.81616400e-03 1.18400000e-01
      -11 -1    0    0    0    0 +0.0000000000e+00 +0.0000000000e+00 +4.5593999997e+01 4.5594000000e+01 5.1100000000e-04 0.0000e+00 1.0000e+00
       11 -1    0    0    0    0 -0.0000000000e+00 -0.0000000000e+00 -4.5593999997e+01 4.5594000000e+01 5.1100000000e-04 0.0000e+00 -1.0000e+00
       23  2    1    2    0    0 -3.5527136788e-15 -3.5527136788e-15 +1.7763568394e-15 9.1188000000e+01 9.1188000000e+01 2.9851e-14 0.0000e+00
 -9990012  2    3    3    0    0 -2.2646006085e+01 -1.7462023080e+01 +1.4105192103e+01 5.9301948411e+01 5.0000007994e+01 7.4706e-03 0.0000e+00
      -11  1    4    4    0    0 -1.9720450113e+01 -1.6139576933e+01 -3.2079760824e+00 2.5684104171e+01 5.1100000000e-04 0.0000e+00 1.0000e+00
       11  1    4    4    0    0 +8.1796010397e+00 +9.9954485527e+00 +6.8404204631e+00 1.4615273426e+01 5.1100000000e-04 0.0000e+00 -1.0000e+00
      -12  1    4    4    0    0 -1.1105157012e+01 -1.1317894700e+01 +1.0472747722e+01 1.9002570814e+01 0.0000000000e+00 0.0000e+00 1.0000e+00
       12  1    3    3    0    0 +2.2646006085e+01 +1.7462023080e+01 -1.4105192103e+01 3.1886051589e+01 0.0000000000e+00 0.0000e+00 -1.0000e+00
</event>
<event>
 8      3 +2.2883893e-04 9.11880000e+01 7.81616400e-03 1.18400000e-01
      -11 -1    0    0    0    0 +0.0000000000e+00 +0.0000000000e+00 +4.5593999997e+01 4.5594000000e+01 5.1100000000e-04 0.0000e+00 1.0000e+00
       11 -1    0    0    0    0 -0.0000000000e+00 -0.0000000000e+00 -4.5593999997e+01 4.5594000000e+01 5.1100000000e-04 0.0000e+00 -1.0000e+00
       23  2    1    2    0    0 +3.5527136788e-15 +0.0000000000e+00 -3.5527136788e-15 9.1188000000e+01 9.1188000000e+01 1.1947e-14 0.0000e+00
  9990012  2    3    3    0    0 +2.4637216025e+01 -6.1273208399e+00 -1.9292059567e+01 5.9301952323e+01 5.0000015129e+01 5.6627e-04 0.0000e+00
      -11  1    4    4    0    0 +5.8338902244e+00 -2.2533897057e+00 +8.6434110033e+00 1.0668673505e+01 5.1100000000e-04 0.0000e+00 1.0000e+00
       11  1    4    4    0    0 -2.8610417623e-01 -3.1384530258e+00 +7.6336888636e+00 8.2586287556e+00 5.1100000000e-04 0.0000e+00 -1.0000e+00
       12  1    4    4    0    0 +1.9089429977e+01 -7.3547810849e-01 -3.5569159433e+01 4.0374650063e+01 0.0000000000e+00 0.0000e+00 -1.0000e+00
      -12  1    3    3    0    0 -2.4637216025e+01 +6.1273208399e+00 +1.9292059567e+01 3.1886047677e+01 0.0000000000e+00 0.0000e+00 1.0000e+00
</event>
<event>
 8      3 +2.2883893e-04 9.11880000e+01 7.81616400e-03 1.18400000e-01
      -11 -1    0    0    0    0 +0.0000000000e+00 +0.0000000000e+00 +4.5593999997e+01 4.5594000000e+01 5.1100000000e-04 0.0000e+00 1.0000e+00
       11 -1    0    0    0    0 -0.0000000000e+00 -0.0000000000e+00 -4.5593999997e+01 4.5594000000e+01 5.1100000000e-04 0.0000e+00 -1.0000e+00
       23  2    1    2    0    0 +3.5527136788e-15 -1.7763568394e-15 +7.1054273576e-15 9.1188000000e+01 9.1188000000e+01 2.0067e-13 0.0000e+00
  9990012  2    3    3    0    0 -1.7116040789e+01 +1.4188312306e+01 -2.2857238283e+01 5.9301946618e+01 5.0000004724e+01 1.0773e-03 0.0000e+00
      -11  1    4    4    0    0 +8.6109186218e+00 +2.6774920140e+00 +1.1489400553e+00 9.0904865936e+00 5.1100000000e-04 0.0000e+00 1.0000e+00
       11  1    4    4    0    0 +2.9344939084e-01 +1.4704557852e+01 -6.3311219229e-02 1.4707621926e+01 5.1100000000e-04 0.0000e+00 -1.0000e+00
       12  1    4    4    0    0 -2.6020408802e+01 -3.1937375599e+00 -2.3942867119e+01 3.5503838098e+01 0.0000000000e+00 0.0000e+00 -1.0000e+00
      -12  1    3    3    0    0 +1.7116040789e+01 -1.4188312306e+01 +2.2857238283e+01 3.1886053382e+01 0.0000000000e+00 0.0000e+00 1.0000e+00
</event>
<event>
 8      3 +2.2883893e-04 9.11880000e+01 7.81616400e-03 1.18400000e-01
      -11 -1    0    0    0    0 +0.0000000000e+00 +0.0000000000e+00 +4.5593999997e+01 4.5594000000e+01 5.1100000000e-04 0.0000e+00 1.0000e+00
       11 -1    0    0    0    0 -0.0000000000e+00 -0.0000000000e+00 -4.5593999997e+01 4.5594000000e+01 5.1100000000e-04 0.0000e+00 -1.0000e+00
       23  2    1    2    0    0 +0.0000000000e+00 +1.1102230246e-16 +0.0000000000e+00 9.1188000000e+01 9.1188000000e+01 7.8362e-14 0.0000e+00
  9990012  2    3    3    0    0 +1.1877584106e+01 +9.1370504904e-01 -2.9577144097e+01 5.9301963651e+01 5.0000035788e+01 9.5754e-04 0.0000e+00
      -11  1    4    4    0    0 +1.9735917784e+01 +1.5124188659e+01 -1.3057006333e+01 2.8084389757e+01 5.1100000000e-04 0.0000e+00 1.0000e+00
       11  1    4    4    0    0 +6.9664219329e+00 -5.4267731322e+00 -3.0385960908e+00 9.3388418789e+00 5.1100000000e-04 0.0000e+00 -1.0000e+00
       12  1    4    4    0    0 -1.4824755611e+01 -8.7837104783e+00 -1.3481541673e+01 2.1878732015e+01 0.0000000000e+00 0.0000e+00 -1.0000e+00
      -12  1    3    3    0    0 -1.1877584106e+01 -9.1370504904e-01 +2.9577144097e+01 3.1886036349e+01 0.0000000000e+00 0.0000e+00 1.0000e+00
</event>
<event>
 8      3 +2.2883893e-04 9.11880000e+01 7.81616400e-03 1.18400000e-01
      -11 -1    0    0    0    0 +0.0000000000e+00 +0.0000000000e+00 +4.5593999997e+01 4.5594000000e+01 5.1100000000e-04 0.0000e+00 1.0000e+00
       11 -1    0    0    0    0 -0.0000000000e+00 -0.0000000000e+00 -4.5593999997e+01 4.5594000000e+01 5.1100000000e-04 0.0000e+00 -1.0000e+00
       23  2    1    2    0    0 +0.0000000000e+00 +0.0000000000e+00 +0.0000000000e+00 9.1188000000e+01 9.1188000000e+01 1.9727e-13 0.0000e+00
  9990012  2    3    3    0    0 -7.1719060143e+00 +2.3955774796e+01 -1.9783988747e+01 5.9301927920e+01 4.9999970624e+01 1.6497e-03 0.0000e+00
      -11  1    4    4    0    0 +6.3249104927e-01 +2.3947339371e+01 -1.6072984396e-01 2.3956229717e+01 5.1100000000e-04 0.0000e+00 1.0000e+00
       11  1    4    4    0    0 +5.4670435647e+00 +1.0884596497e+01 -9.2554292917e+00 1.5297907631e+01 5.1100000000e-04 0.0000e+00 -1.0000e+00
       12  1    4    4    0    0 -1.3271440628e+01 -1.0876161072e+01 -1.0367829611e+01 2.0047790573e+01 0.0000000000e+00 0.0000e+00 -1.0000e+00
      -12  1    3    3    0    0 +7.1719060143e+00 -2.3955774796e+01 +1.9783988747e+01 3.1886072080e+01 0.0000000000e+00 0.0000e+00 1.0000e+00
</event>
<event>
 8      4 +2.2883893e-04 9.11880000e+01 7.81616400e-03 1.18400000e-01
      -11 -1    0    0    0    0 +0.0000000000e+00 +0.0000000000e+00 +4.5593999997e+01 4.5594000000e+01 5.1100000000e-04 0.0000e+00 1.0000e+00
       11 -1    0    0    0    0 -0.0000000000e+00 -0.0000000000e+00 -4.5593999997e+01 4.5594000000e+01 5.1100000000e-04 0.0000e+00 -1.0000e+00
       23  2    1    2    0    0 +3.5527136788e-15 +2.6645352591e-15 +0.0000000000e+00 9.1188000000e+01 9.1188000000e+01 4.0543e-14 0.0000e+00
 -9990012  2    3    3    0    0 +1.8147079981e+01 +6.4764129983e+00 +2.5405926482e+01 5.9301928784e+01 4.9999972199e+01 4.5853e-03 0.0000e+00
      -11  1    4    4    0    0 +1.6342363765e+01 -8.2668171459e+00 +3.1009207911e+01 3.6013665388e+01 5.1100000000e-04 0.0000e+00 1.0000e+00
       11  1    4    4    0    0 +3.0857521369e+00 -3.1709393809e+00 -2.4372445619e+00 5.0514239698e+00 5.1100000000e-04 0.0000e+00 -1.0000e+00
      -12  1    4    4    0    0 -1.2810359204e+00 +1.7914169525e+01 -3.1660368671e+00 1.8236839426e+01 0.0000000000e+00 0.0000e+00 1.0000e+00
       12  1    3    3    0    0 -1.8147079981e+01 -6.4764129983e+00 -2.5405926482e+01 3.1886071216e+01 0.0000000000e+00 0.0000e+00 -1.0000e+00
</event>
<event>
 8      4 +2.2883893e-04 9.11880000e+01 7.81616400e-03 1.18400000e-01
      -11 -1    0    0    0    0 +0.0000000000e+00 +0.0000000000e+00 +4.5593999997e+01 4.5594000000e+01 5.1100000000e-04 0.0000e+00 -1.0000e+00
       11 -1    0    0    0    0 -0.0000000000e+00 -0.0000000000e+00 -4.5593999997e+01 4.5594000000e+01 5.1100000000e-04 0.0000e+00 1.0000e+00
       23  2    1    2    0    0 +0.0000000000e+00 -8.8817841970e-16 +3.5527136788e-15 9.1188000000e+01 9.1188000000e+01 1.0905e-13 0.0000e+00
 -9990012  2    3    3    0    0 +1.0462523077e+01 +6.9268480477e+00 -2.9313395023e+01 5.9301941278e+01 4.9999994986e+01 3.4601e-04 0.0000e+00
      -11  1    4    4    0    0 +1.6019600115e+00 +1.5356991658e+01 +5.7087610427e+00 1.6461877827e+01 5.1100000000e-04 0.0000e+00 1.0000e+00
       11  1    4    4    0    0 +1.2012094915e+01 -1.3628808899e+01 -2.2486794542e+01 2.8908316888e+01 5.1100000000e-04 0.0000e+00 -1.0000e+00
      -12  1    4    4    0    0 -3.1515318496e+00 +5.1986652884e+00 -1.2535361524e+01 1.3931746564e+01 0.0000000000e+00 0.0000e+00 1.0000e+00
       12  1    3    3    0    0 -1.0462523077e+01 -6.9268480477e+00 +2.9313395023e+01 3.1886058722e+01 0.0000000000e+00 0.0000e+00 -1.0000e+00
</event>
<event>
 8      3 +2.2883893e-04 9.11880000e+01 7.81616400e-03 1.18400000e-01
      -11 -1    0    0    0    0 +0.0000000000e+00 +0.0000000000e+00 +4.5593999997e+01 4.5594000000e+01 5.1100000000e-04 0.0000e+00 1.0000e+00
       11 -1    0    0    0    0 -0.0000000000e+00 -0.0000000000e+00 -4.5593999997e+01 4.5594000000e+01 5.1100000000e-04 0.0000e+00 -1.0000e+00
       23  2    1    2    0    0 -1.7763568394e-15 +3.5527136788e-15 +1.7763568394e-15 9.1188000000e+01 9.1188000000e+01 3.6216e-14 0.0000e+00
  9990012  2    3    3    0    0 -1.5057369777e+01 -2.6885029349e+01 -8.1971975123e+00 5.9301902171e+01 4.9999923663e+01 6.1932e-03 0.0000e+00
      -11  1    4    4    0    0 -1.9061148174e+01 -3.7037933976e+00 +7.0484437582e+00 2.0657347722e+01 5.1100000000e-04 0.0000e+00 1.0000e+00
       11  1    4    4    0    0 +1.0836016442e+01 -1.5070787808e+01 +1.7154676997e+00 1.8641103165e+01 5.1100000000e-04 0.0000e+00 -1.0000e+00
       12  1    4    4    0    0 -6.8322380452e+00 -8.1104481434e+00 -1.6961108970e+01 2.0003451284e+01 0.0000000000e+00 0.0000e+00 -1.0000e+00
      -12  1    3    3    0    0 +1.5057369777e+01 +2.6885029349e+01 +8.1971975123e+00 3.1886097829e+01 0.0000000000e+00 0.0000e+00 1.0000e+00
</event>
<event>
 8      3 +2.2883893e-04 9.11880000e+01 7.81616400e-03 1.18400000e-01
      -11 -1    0    0    0    0 +0.0000000000e+00 +0.0000000000e+00 +4.5593999997e+01 4.5594000000e+01 5.1100000000e-04 0.0000e+00 -1.0000e+00
       11 -1    0    0    0    0 -0.0000000000e+00 -0.0000000000e+00 -4.5593999997e+01 4.5594000000e+01 5.1100000000e-04 0.0000e+00 1.0000e+00
       23  2    1    2    0    0 +0.0000000000e+00 +1.7763568394e-15 +0.0000000000e+00 9.1188000000e+01 9.1188000000e+01 2.7235e-14 0.0000e+00
  9990012  2    3    3    0    0 -2.5380758378e+01 +1.5377419912e+01 +1.1665003720e+01 5.9301948962e+01 5.0000008999e+01 1.3155e-03 0.0000e+00
      -11  1    4    4    0    0 -2.4705399397e+01 +4.5363095558e+00 -8.3293305176e+00 2.6463420242e+01 5.1100000000e-04 0.0000e+00 1.0000e+00
       11  1    4    4    0    0 -8.8741205528e-01 +9.8812603097e+00 +2.5439375409e+01 2.7305468810e+01 5.1100000000e-04 0.0000e+00 -1.0000e+00
       12  1    4    4    0    0 +2.1205307446e-01 +9.5985004693e-01 -5.4450411711e+00 5.5330599106e+00 0.0000000000e+00 0.0000e+00 -1.0000e+00
      -12  1    3    3    0    0 +2.5380758378e+01 -1.5377419912e+01 -1.1665003720e+01 3.1886051038e+01 0.0000000000e+00 0.0000e+00 1.0000e+00
</event>
<event>
 8      4 +2.2883893e-04 9.11880000e+01 7.81616400e-03 1.18400000e-01
      -11 -1    0    0    0    0 +0.0000000000e+00 +0.0000000000e+00 +4.5593999997e+01 4.5594000000e+01 5.1100000000e-04 0.0000e+00 1.0000e+00
       11 -1    0    0    0    0 -0.0000000000e+00 -0.0000000000e+00 -4.5593999997e+01 4.5594000000e+01 5.1100000000e-04 0.0000e+00 -1.0000e+00
       23  2    1    2    0    0 +0.0000000000e+00 +0.0000000000e+00 +0.0000000000e+00 9.1188000000e+01 9.1188000000e+01 5.1668e-14 0.0000e+00
 -9990012  2    3    3    0    0 +3.0331477130e+01 -8.4917367039e+00 +4.9608674042e+00 5.9301979512e+01 5.0000064715e+01 8.9354e-04 0.0000e+00
      -11  1    4    4    0    0 -9.4150953837e+00 -7.2242058379e+00 +6.0679221714e+00 1.3328647749e+01 5.1100000000e-04 0.0000e+00 -1.0000e+00
       11  1    4    4    0    0 +1.5120650870e+01 -3.5351179825e+00 -1.1320890978e+01 1.9217016279e+01 5.1100000000e-04 0.0000e+00 1.0000e+00
      -12  1    4    4    0    0 +2.4625921644e+01 +2.2675871164e+00 +1.0213836211e+01 2.6756315484e+01 0.0000000000e+00 0.0000e+00 1.0000e+00
       12  1    3    3    0    0 -3.0331477130e+01 +8.4917367039e+00 -4.9608674042e+00 3.1886020488e+01 0.0000000000e+00 0.0000e+00 -1.0000e+00
</event>
<event>
 8      3 +2.2883893e-04 9.11880000e+01 7.81616400e-03 1.18400000e-01
      -11 -1    0    0    0    0 +0.0000000000e+00 +0.0000000000e+00 +4.5593999997e+01 4.5594000000e+01 5.1100000000e-04 0.0000e+00 1.0000e+00
       11 -1    0    0    0    0 -0.0000000000e+00 -0.0000000000e+00 -4.5593999997e+01 4.5594000000e+01 5.1100000000e-04 0.0000e+00 -1.0000e+00
       23  2    1    2    0    0 +0.0000000000e+00 -4.4408920985e-16 +3.5527136788e-15 9.1188000000e+01 9.1188000000e+01 5.0878e-14 0.0000e+00
  9990012  2    3    3    0    0 -2.3710955595e+01 -5.2641934536e-01 +2.1312955170e+01 5.9301818186e+01 4.9999770495e+01 1.2125e-03 0.0000e+00
      -11  1    4    4    0    0 +1.0802978486e+01 -5.6006052961e+00 +6.9556117543e+00 1.4016121396e+01 5.1100000000e-04 0.0000e+00 1.0000e+00
       11  1    4    4    0    0 -1.3916019204e+01 +5.1861389497e+00 +1.9054853761e+01 2.4158623302e+01 5.1100000000e-04 0.0000e+00 -1.0000e+00
       12  1    4    4    0    0 -2.0597914877e+01 -1.1195299899e-01 -4.6975103453e+00 2.1127073489e+01 0.0000000000e+00 0.0000e+00 -1.0000e+00
      -12  1    3    3    0    0 +2.3710955595e+01 +5.2641934536e-01 -2.1312955170e+01 3.1886181814e+01 0.0000000000e+00 0.0000e+00 1.0000e+00
</event>
<event>
 8      3 +2.2883893e-04 9.11880000e+01 7.81616400e-03 1.18400000e-01
      -11 -1    0    0    0    0 +0.0000000000e+00 +0.0000000000e+00 +4.5593999997e+01 4.5594000000e+01 5.1100000000e-04 0.0000e+00 1.0000e+00
       11 -1    0    0    0    0 -0.0000000000e+00 -0.0000000000e+00 -4.5593999997e+01 4.5594000000e+01 5.1100000000e-04 0.0000e+00 -1.0000e+00
       23  2    1    2    0    0 +0.0000000000e+00 +3.5527136788e-15 -1.7763568394e-15 9.1188000000e+01 9.1188000000e+01 5.2195e-14 0.0000e+00
  9990012  2    3    3    0    0 +2.0667318913e+01 -2.0281171158e+01 -1.3351250951e+01 5.9301954831e+01 5.0000019702e+01 1.5397e-03 0.0000e+00
      -11  1    4    4    0    0 +3.4339257260e+00 -1.1230614949e+01 +5.6351070213e+00 1.3025858491e+01 5.1100000000e-04 0.0000e+00 1.0000e+00
       11  1    4    4    0    0 -7.4752393293e+00 -4.0700993375e+00 -1.9273111831e+01 2.1068881118e+01 5.1100000000e-04 0.0000e+00 -1.0000e+00
       12  1    4    4    0    0 +2.4708632516e+01 -4.9804568719e+00 +2.8675385895e-01 2.5207215222e+01 0.0000000000e+00 0.0000e+00 -1.0000e+00
      -12  1    3    3    0    0 -2.0667318913e+01 +2.0281171158e+01 +1.3351250951e+01 3.1886045169e+01 0.0000000000e+00 0.0000e+00 1.0000e+00
</event>
<event>
 8      3 +2.2883893e-04 9.11880000e+01 7.81616400e-03 1.18400000e-01
      -11 -1    0    0    0    0 +0.0000000000e+00 +0.0000000000e+00 +4.5593999997e+01 4.5594000000e+01 5.1100000000e-04 0.0000e+00 1.0000e+00
       11 -1    0    0    0    0 -0.0000000000e+00 -0.0000000000e+00 -4.5593999997e+01 4.5594000000e+01 5.1100000000e-04 0.0000e+00 -1.0000e+00
       23  2    1    2    0    0 +3.5527136788e-15 +0.0000000000e+00 -1.7763568394e-15 9.1188000000e+01 9.1188000000e+01 1.6427e-14 0.0000e+00
  9990012  2    3    3    0    0 -2.5744986516e+01 +1.0765341968e+01 -1.5427988628e+01 5.9301956791e+01 5.0000023277e+01 1.0138e-03 0.0000e+00
      -11  1    4    4    0    0 -2.7016975393e+01 +1.4214757812e+01 -9.0150859088e-01 3.0541594867e+01 5.1100000000e-04 0.0000e+00 1.0000e+00
       11  1    4    4    0    0 -1.0829931008e+01 -6.0667089097e+00 -7.9437970195e+00 1.4737580330e+01 5.1100000000e-04 0.0000e+00 -1.0000e+00
       12  1    4    4    0    0 +1.2101919885e+01 +2.6172930658e+00 -6.5826830179e+00 1.4022781593e+01 0.0000000000e+00 0.0000e+00 -1.0000e+00
      -12  1    3    3    0    0 +2.5744986516e+01 -1.0765341968e+01 +1.5427988628e+01 3.1886043209e+01 0.0000000000e+00 0.0000e+00 1.0000e+00
</event>
<event>
 8      4 +2.2883893e-04 9.11880000e+01 7.81616400e-03 1.18400000e-01
      -11 -1    0    0    0    0 +0.0000000000e+00 +0.0000000000e+00 +4.5593999997e+01 4.5594000000e+01 5.1100000000e-04 0.0000e+00 1.0000e+00
       11 -1    0    0    0    0 -0.0000000000e+00 -0.0000000000e+00 -4.5593999997e+01 4.5594000000e+01 5.1100000000e-04 0.0000e+00 -1.0000e+00
       23  2    1    2    0    0 +0.0000000000e+00 +8.8817841970e-16 -3.5527136788e-15 9.1188000000e+01 9.1188000000e+01 5.6952e-14 0.0000e+00
 -9990012  2    3    3    0    0 -5.0977384377e+00 -5.1944745746e+00 +3.1044319301e+01 5.9301964433e+01 5.0000037214e+01 3.5944e-05 0.0000e+00
      -11  1    4    4    0    0 -2.2844402714e+00 -1.8915210507e+00 -9.6844591527e+00 1.0128438605e+01 5.1100000000e-04 0.0000e+00 -1.0000e+00
       11  1    4    4    0    0 +4.5701424609e+00 -1.3784698933e+01 +2.4635701051e+01 2.8597585445e+01 5.1100000000e-04 0.0000e+00 1.0000e+00
      -12  1    4    4    0    0 -7.3834406272e+00 +1.0481745409e+01 +1.6093077403e+01 2.0575940382e+01 0.0000000000e+00 0.0000e+00 1.0000e+00
       12  1    3    3    0    0 +5.0977384377e+00 +5.1944745746e+00 -3.1044319301e+01 3.1886035567e+01 0.0000000000e+00 0.0000e+00 -1.0000e+00
</event>
<event>
 8      3 +2.2883893e-04 9.11880000e+01 7.81616400e-03 1.18400000e-01
      -11 -1    0    0    0    0 +0.0000000000e+00 +0.0000000000e+00 +4.5593999997e+01 4.5594000000e+01 5.1100000000e-04 0.0000e+00 1.0000e+00
       11 -1    0    0    0    0 -0.0000000000e+00 -0.0000000000e+00 -4.5593999997e+01 4.5594000000e+01 5.1100000000e-04 0.0000e+00 -1.0000e+00
       23  2    1    2    0    0 -6.6613381478e-16 +0.0000000000e+00 +0.0000000000e+00 9.1188000000e+01 9.1188000000e+01 2.0648e-13 0.0000e+00
  9990012  2    3    3    0    0 -1.1789625618e+00 +1.2423801657e+01 -2.9342545111e+01 5.9301862668e+01 4.9999851620e+01 7.5127e-04 0.0000e+00
      -11  1    4    4    0    0 -5.0526158648e+00 -9.6759034579e+00 -8.9526930908e+00 1.4117462543e+01 5.1100000000e-04 0.0000e+00 1.0000e+00
       11  1    4    4    0    0 -2.8605889500e+00 +2.5372809752e+01 -2.3368804329e+00 2.5640270168e+01 5.1100000000e-04 0.0000e+00 -1.0000e+00
       12  1    4    4    0    0 +6.7342422529e+00 -3.2731046368e+00 -1.8052971587e+01 1.9544129958e+01 0.0000000000e+00 0.0000e+00 -1.0000e+00
      -12  1    3    3    0    0 +1.1789625618e+00 -1.2423801657e+01 +2.9342545111e+01 3.1886137332e+01 0.0000000000e+00 0.0000e+00 1.0000e+00
</event>
<event>
 8      4 +2.2883893e-04 9.11880000e+01 7.81616400e-03 1.18400000e-01
      -11 -1    0    0    0    0 +0.0000000000e+00 +0.0000000000e+00 +4.5593999997e+01 4.5594000000e+01 5.1100000000e-04 0.0000e+00 -1.0000e+00
       11 -1    0    0    0    0 -0.0000000000e+00 -0.0000000000e+00 -4.5593999997e+01 4.5594000000e+01 5.1100000000e-04 0.0000e+00 1.0000e+00
       23  2    1    2    0    0 +0.0000000000e+00 -3.5527136788e-15 +1.7763568394e-15 9.1188000000e+01 9.1188000000e+01 1.5920e-13 0.0000e+00
 -9990012  2    3    3    0    0 -2.4982595880e+01 +1.2441897553e+01 -1.5420431894e+01 5.9301942993e+01 4.9999998114e+01 6.9914e-03 0.0000e+00
      -11  1    4    4    0    0 +4.9119913201e+00 -1.1162720163e+01 -5.6832635189e+00 1.3454867693e+01 5.1100000000e-04 0.0000e+00 1.0000e+00
       11  1    4    4    0    0 +2.6043513861e+00 -2.1137879253e+00 -8.6390930104e-01 3.4636808567e+00 5.1100000000e-04 0.0000e+00 -1.0000e+00
      -12  1    4    4    0    0 -3.2498938586e+01 +2.5718405641e+01 -8.8732590744e+00 4.2383394443e+01 0.0000000000e+00 0.0000e+00 1.0000e+00
       12  1    3    3    0    0 +2.4982595880e+01 -1.2441897553e+01 +1.5420431894e+01 3.1886057007e+01 0.0000000000e+00 0.0000e+00 -1.0000e+00
</event>
<event>
 8      3 +2.2883893e-04 9.11880000e+01 7.81616400e-03 1.18400000e-01
      -11 -1    0    0    0    0 +0.0000000000e+00 +0.0000000000e+00 +4.5593999997e+01 4.5594000000e+01 5.1100000000e-04 0.0000e+00 -1.0000e+00
       11 -1    0    0    0    0 -0.0000000000e+00 -0.0000000000e+00 -4.5593999997e+01 4.5594000000e+01 5.1100000000e-04 0.0000e+00 1.0000e+00
       23  2    1    2    0    0 -2.2204460493e-15 +0.0000000000e+00 -3.5527136788e-15 9.1188000000e+01 9.1188000000e+01 1.4857e-14 0.0000e+00
  9990012  2    3    3    0    0 +2.3351321786e+00 +8.5598544649e+00 +3.0626727179e+01 5.9301947117e+01 5.0000005635e+01 1.6739e-03 0.0000e+00
      -11  1    4    4    0    0 +5.8949331438e+00 -1.1701992368e+00 -3.6449607155e+00 7.0288933626e+00 5.1100000000e-04 0.0000e+00 1.0000e+00
       11  1    4    4    0    0 +1.3474864011e+01 +1.5004983988e+01 +1.1056328210e+01 2.2999215168e+01 5.1100000000e-04 0.0000e+00 -1.0000e+00
       12  1    4    4    0    0 -1.7034664976e+01 -5.2749302859e+00 +2.3215359684e+01 2.9273838587e+01 0.0000000000e+00 0.0000e+00 -1.0000e+00
      -12  1    3    3    0    0 -2.3351321786e+00 -8.5598544649e+00 -3.0626727179e+01 3.1886052883e+01 0.0000000000e+00 0.0000e+00 1.0000e+00
</event>
<event>
 8      3 +2.2883893e-04 9.11880000e+01 7.81616400e-03 1.18400000e-01
      -11 -1    0    0    0    0 +0.0000000000e+00 +0.0000000000e+00 +4.5593999997e+01 4.5594000000e+01 5.1100000000e-04 0.0000e+00 -1.0000e+00
       11 -1    0    0    0    0 -0.0000000000e+00 -0.0000000000e+00 -4.5593999997e+01 4.5594000000e+01 5.1100000000e-04 0.0000e+00 1.0000e+00
       23  2    1    2    0    0 -8.8817841970e-16 +3.5527136788e-15 -1.7763568394e-15 9.1188000000e+01 9.1188000000e+01 5.1495e-14 0.0000e+00
  9990012  2    3    3    0    0 -5.5416007580e+00 +2.8728880696e+01 -1.2675369654e+01 5.9301907093e+01 4.9999932640e+01 8.7922e-04 0.0000e+00
      -11  1    4    4    0    0 -1.8309124559e+01 +8.7703151649e+00 -2.0590668208e+01 2.8915706592e+01 5.1100000000e-04 0.0000e+00 1.0000e+00
       11  1    4    4    0    0 -8.3704789035e-01 -1.4839610512e+00 -2.4281478076e+00 2.9662588574e+00 5.1100000000e-04 0.0000e+00 -1.0000e+00
       12  1    4    4    0    0 +1.3604571691e+01 +2.1442526582e+01 +1.0343446361e+01 2.7419941644e+01 0.0000000000e+00 0.0000e+00 -1.0000e+00
      -12  1    3    3    0    0 +5.5416007580e+00 -2.8728880696e+01 +1.2675369654e+01 3.1886092907e+01 0.0000000000e+00 0.0000e+00 1.0000e+00
</event>
<event>
 8      4 +2.2883893e-04 9.11880000e+01 7.81616400e-03 1.18400000e-01
      -11 -1    0    0    0    0 +0.0000000000e+00 +0.0000000000e+00 +4.5593999997e+01 4.5594000000e+01 5.1100000000e-04 0.0000e+00 1.0000e+00
       11 -1    0    0    0    0 -0.0000000000e+00 -0.0000000000e+00 -4.5593999997e+01 4.5594000000e+01 5.1100000000e-04 0.0000e+00 -1.0000e+00
       23  2    1    2    0    0 -8.8817841970e-16 +3.5527136788e-15 -1.7763568394e-15 9.1188000000e+01 9.1188000000e+01 1.3641e-13 0.0000e+00
 -9990012  2    3    3    0    0 -4.2488022742e+00 -2.9224091482e+01 -1.2025465659e+01 5.9302083548e+01 5.0000254450e+01 3.6126e-03 0.0000e+00
      -11  1    4    4    0    0 -2.2041363253e+00 +1.9642014821e+00 +2.9419788346e+00 4.1679184406e+00 5.1100000000e-04 0.0000e+00 1.0000e+00
       11  1    4    4    0    0 +1.0556813387e+01 +7.0838879056e+00 -4.6892962377e+00 1.3550545237e+01 5.1100000000e-04 0.0000e+00 -1.0000e+00
      -12  1    4    4    0    0 -1.2601479336e+01 -3.8272180869e+01 -1.0278148256e+01 4.1583619870e+01 0.0000000000e+00 0.0000e+00 1.0000e+00
       12  1    3    3    0    0 +4.2488022742e+00 +2.9224091482e+01 +1.2025465659e+01 3.1885916452e+01 0.0000000000e+00 0.0000e+00 -1.0000e+00
</event>
<event>
 8      4 +2.2883893e-04 9.11880000e+01 7.81616400e-03 1.18400000e-01
      -11 -1    0    0    0    0 +0.0000000000e+00 +0.0000000000e+00 +4.5593999997e+01 4.5594000000e+01 5.1100000000e-04 0.0000e+00 1.0000e+00
       11 -1    0    0    0    0 -0.0000000000e+00 -0.0000000000e+00 -4.5593999997e+01 4.5594000000e+01 5.1100000000e-04 0.0000e+00 -1.0000e+00
       23  2    1    2    0    0 -3.5527136788e-15 +0.0000000000e+00 -3.5527136788e-15 9.1188000000e+01 9.1188000000e+01 2.8311e-13 0.0000e+00
 -9990012  2    3    3    0    0 -1.1946977835e+01 +2.6045689580e+01 -1.3986482480e+01 5.9301797384e+01 4.9999732557e+01 3.0790e-03 0.0000e+00
      -11  1    4    4    0    0 +1.2527086597e+01 +8.3760910520e+00 +2.0765899212e+00 1.5211805477e+01 5.1100000000e-04 0.0000e+00 1.0000e+00
       11  1    4    4    0    0 +2.6230906470e+00 +3.5338044145e+00 -1.2582285434e+01 1.3329751880e+01 5.1100000000e-04 0.0000e+00 -1.0000e+00
      -12  1    4    4    0    0 -2.7097155079e+01 +1.4135794114e+01 -3.4807869671e+00 3.0760240026e+01 0.0000000000e+00 0.0000e+00 1.0000e+00
       12  1    3    3    0    0 +1.1946977835e+01 -2.6045689580e+01 +1.3986482480e+01 3.1886202616e+01 0.0000000000e+00 0.0000e+00 -1.0000e+00
</event>
<event>
 8      3 +2.2883893e-04 9.11880000e+01 7.81616400e-03 1.18400000e-01
      -11 -1    0    0    0    0 +0.0000000000e+00 +0.0000000000e+00 +4.5593999997e+01 4.5594000000e+01 5.1100000000e-04 0.0000e+00 1.0000e+00
       11 -1    0    0    0    0 -0.0000000000e+00 -0.0000000000e+00 -4.5593999997e+01 4.5594000000e+01 5.1100000000e-04 0.0000e+00 -1.0000e+00
       23  2    1    2    0    0 +3.5527136788e-15 -1.7763568394e-15 -1.7763568394e-15 9.1188000000e+01 9.1188000000e+01 1.5077e-13 0.0000e+00
  9990012  2    3    3    0    0 +2.3855071089e+01 +1.4557932359e+01 -1.5353248957e+01 5.9301951879e+01 5.0000014319e+01 1.3904e-04 0.0000e+00
      -11  1    4    4    0    0 +1.8052683099e+01 +9.9470979083e+00 +1.0428802956e+01 2.3099871325e+01 5.1100000000e-04 0.0000e+00 1.0000e+00
       11  1    4    4    0    0 +3.8042051951e+00 +1.2043443604e+01 -2.5550984415e+01 2.8502093184e+01 5.1100000000e-04 0.0000e+00 -1.0000e+00
       12  1    4    4    0    0 +1.9981827946e+00 -7.4326091538e+00 -2.3106749824e-01 7.6999873703e+00 0.0000000000e+00 0.0000e+00 -1.0000e+00
      -12  1    3    3    0    0 -2.3855071089e+01 -1.4557932359e+01 +1.5353248957e+01 3.1886048121e+01 0.0000000000e+00 0.0000e+00 1.0000e+00
</event>
<event>
 8      3 +2.2883893e-04 9.11880000e+01 7.81616400e-03 1.18400000e-01
      -11 -1    0    0    0    0 +0.0000000000e+00 +0.0000000000e+00 +4.5593999997e+01 4.5594000000e+01 5.1100000000e-04 0.0000e+00 1.0000e+00
       11 -1    0    0    0    0 -0.0000000000e+00 -0.0000000000e+00 -4.5593999997e+01 4.5594000000e+01 5.1100000000e-04 0.0000e+00 -1.0000e+00
       23  2    1    2    0    0 +1.7763568394e-15 -7.1054273576e-15 -1.7763568394e-15 9.1188000000e+01 9.1188000000e+01 1.5025e-14 0.0000e+00
  9990012  2    3    3    0    0 -8.6551841525e+00 +2.6797364055e+01 +1.4956926872e+01 5.9301943573e+01 4.9999999171e+01 3.3814e-04 0.0000e+00
      -11  1    4    4    0    0 +4.6804367073e-01 -4.5698787901e+00 -1.2382073092e+01 1.3206763091e+01 5.1100000000e-04 0.0000e+00 -1.0000e+00
       11  1    4    4    0    0 -3.7174409375e+00 +7.7689168899e+00 +1.8350083713e+01 2.0270693360e+01 5.1100000000e-04 0.0000e+00 1.0000e+00
       12  1    4    4    0    0 -5.4057868857e+00 +2.3598325955e+01 +8.9889162510e+00 2.5824487122e+01 0.0000000000e+00 0.0000e+00 -1.0000e+00
      -12  1    3    3    0    0 +8.6551841525e+00 -2.6797364055e+01 -1.4956926872e+01 3.1886056427e+01 0.0000000000e+00 0.0000e+00 1.0000e+00
</event>
<event>
 8      4 +2.2883893e-04 9.11880000e+01 7.81616400e-03 1.18400000e-01
      -11 -1    0    0    0    0 +0.0000000000e+00 +0.0000000000e+00 +4.5593999997e+01 4.5594000000e+01 5.1100000000e-04 0.0000e+00 -1.0000e+00
       11 -1    0    0    0    0 -0.0000000000e+00 -0.0000000000e+00 -4.5593999997e+01 4.5594000000e+01 5.1100000000e-04 0.0000e+00 1.0000e+00
       23  2    1    2    0    0 +1.7763568394e-15 +3.5527136788e-15 -3.5527136788e-15 9.1188000000e+01 9.1188000000e+01 7.6355e-15 0.0000e+00
 -9990012  2    3    3    0    0 +1.1655686643e+01 -2.1855223304e+01 -2.0079931061e+01 5.9302118356e+01 5.0000317933e+01 4.6160e-04 0.0000e+00
      -11  1    4    4    0    0 -3.5416451812e+00 -1.0752956651e+01 -3.1877710864e+00 1.1761428998e+01 5.1100000000e-04 0.0000e+00 1.0000e+00
       11  1    4    4    0    0 -4.2056150563e+00 +9.7774396795e+00 +4.8451932379e+00 1.1694503943e+01 5.1100000000e-04 0.0000e+00 -1.0000e+00
      -12  1    4    4    0    0 +1.9402946880e+01 -2.0879706333e+01 -2.1737353212e+01 3.5846185416e+01 0.0000000000e+00 0.0000e+00 1.0000e+00
       12  1    3    3    0    0 -1.1655686643e+01 +2.1855223304e+01 +2.0079931061e+01 3.1885881644e+01 0.0000000000e+00 0.0000e+00 -1.0000e+00
</event>
<event>
 8      4 +2.2883893e-04 9.11880000e+01 7.81616400e-03 1.18400000e-01
      -11 -1    0    0    0    0 +0.0000000000e+00 +0.0000000000e+00 +4.5593999997e+01 4.5594000000e+01 5.1100000000e-04 0.0000e+00 1.0000e+00
       11 -1    0    0    0    0 -0.0000000000e+00 -0.0000000000e+00 -4.5593999997e+01 4.5594000000e+01 5.1100000000e-04 0.0000e+00 -1.0000e+00
       23  2    1    2    0    0 +0.0000000000e+00 +0.0000000000e+00 +1.7763568394e-15 9.1188000000e+01 9.1188000000e+01 4.4494e-15 0.0000e+00
 -9990012  2    3    3    0    0 -1.7200730603e+01 -2.5590796130e+01 +8.1220222808e+00 5.9301933674e+01 4.9999981117e+01 2.1351e-04 0.0000e+00
      -11  1    4    4    0    0 -1.4097494791e+01 -1.9311612223e+00 -1.7605744723e+00 1.4337655519e+01 5.1100000000e-04 0.0000e+00 1.0000e+00
       11  1    4    4    0    0 -7.6288964522e+00 -1.0462293159e+01 +2.2625721722e+01 2.6068811306e+01 5.1100000000e-04 0.0000e+00 -1.0000e+00
      -12  1    4    4    0    0 +4.5256606409e+00 -1.3197341749e+01 -1.2743124968e+01 1.8895466849e+01 0.0000000000e+00 0.0000e+00 1.0000e+00
       12  1    3    3    0    0 +1.7200730603e+01 +2.5590796130e+01 -8.1220222808e+00 3.1886066326e+01 0.0000000000e+00 0.0000e+00 -1.0000e+00
</event>
<event>
 8      4 +2.2883893e-04 9.11880000e+01 7.81616400e-03 1.18400000e-01
      -11 -1    0    0    0    0 +0.0000000000e+00 +0.0000000000e+00 +4.5593999997e+01 4.5594000000e+01 5.1100000000e-04 0.0000e+00 -1.0000e+00
       11 -1    0    0    0    0 -0.0000000000e+00 -0.0000000000e+00 -4.5593999997e+01 4.5594000000e+01 5.1100000000e-04 0.0000e+00 1.0000e+00
       23  2    1    2    0    0 +0.0000000000e+00 -3.5527136788e-15 -3.5527136788e-15 9.1188000000e+01 9.1188000000e+01 2.8420e-14 0.0000e+00
 -9990012  2    3    3    0    0 +2.2429808626e+01 +2.1758173736e+01 +6.3409456874e+00 5.9301921039e+01 4.9999958073e+01 3.6384e-03 0.0000e+00
      -11  1    4    4    0    0 -5.4238013269e-01 -4.9962647498e-01 -1.2386350163e+01 1.2408282453e+01 5.1100000000e-04 0.0000e+00 1.0000e+00
       11  1    4    4    0    0 +8.9242576339e+00 +2.6057355097e+01 +1.6673328281e+01 3.2196707987e+01 5.1100000000e-04 0.0000e+00 -1.0000e+00
      -12  1    4    4    0    0 +1.4047931125e+01 -3.7995548866e+00 +2.0539675689e+00 1.4696930598e+01 0.0000000000e+00 0.0000e+00 1.0000e+00
       12  1    3    3    0    0 -2.2429808626e+01 -2.1758173736e+01 -6.3409456874e+00 3.1886078961e+01 0.0000000000e+00 0.0000e+00 -1.0000e+00
</event>
<event>
 8      4 +2.2883893e-04 9.11880000e+01 7.81616400e-03 1.18400000e-01
      -11 -1    0    0    0    0 +0.0000000000e+00 +0.0000000000e+00 +4.5593999997e+01 4.5594000000e+01 5.1100000000e-04 0.0000e+00 1.0000e+00
       11 -1    0    0    0    0 -0.0000000000e+00 -0.0000000000e+00 -4.5593999997e+01 4.5594000000e+01 5.1100000000e-04 0.0000e+00 -1.0000e+00
       23  2    1    2    0    0 +3.5527136788e-15 +0.0000000000e+00 +0.0000000000e+00 9.1188000000e+01 9.1188000000e+01 1.2622e-13 0.0000e+00
 -9990012  2    3    3    0    0 -2.1000039763e+01 +2.3563783852e+01 -4.5238838627e+00 5.9301966934e+01 5.0000041776e+01 4.8926e-03 0.0000e+00
      -11  1    4    4    0    0 -3.1469430394e+01 +1.0594001369e+01 +3.4262106279e+00 3.3381084971e+01 5.1100000000e-04 0.0000e+00 1.0000e+00
       11  1    4    4    0    0 +1.1076576157e+01 +8.9746466955e+00 -1.3109483233e+01 1.9367327476e+01 5.1100000000e-04 0.0000e+00 -1.0000e+00
      -12  1    4    4    0    0 -6.0718552662e-01 +3.9951357872e+00 +5.1593887420e+00 6.5535544869e+00 0.0000000000e+00 0.0000e+00 1.0000e+00
       12  1    3    3    0    0 +2.1000039763e+01 -2.3563783852e+01 +4.5238838627e+00 3.1886033066e+01 0.0000000000e+00 0.0000e+00 -1.0000e+00
</event>
<event>
 8      4 +2.2883893e-04 9.11880000e+01 7.81616400e-03 1.18400000e-01
      -11 -1    0    0    0    0 +0.0000000000e+00 +0.0000000000e+00 +4.5593999997e+01 4.5594000000e+01 5.1100000000e-04 0.0000e+00 1.0000e+00
       11 -1    0    0    0    0 -0.0000000000e+00 -0.0000000000e+00 -4.5593999997e+01 4.5594000000e+01 5.1100000000e-04 0.0000e+00 -1.0000e+00
       23  2    1    2    0    0 -8.8817841970e-16 -1.7763568394e-15 +0.0000000000e+00 9.1188000000e+01 9.1188000000e+01 1.1762e-14 0.0000e+00
 -9990012  2    3    3    0    0 -5.0208977932e+00 +8.9011151879e+00 +3.0203926426e+01 5.9302008753e+01 5.0000118044e+01 3.4474e-05 0.0000e+00
      -11  1    4    4    0    0 -5.9505576198e+00 +2.1375092745e+01 +1.3566874860e+00 2.2229357324e+01 5.1100000000e-04 0.0000e+00 -1.0000e+00
       11  1    4    4    0    0 +4.3281190759e+00 -1.4015427623e+01 +9.7477575404e+00 1.7612030080e+01 5.1100000000e-04 0.0000e+00 1.0000e+00
      -12  1    4    4    0    0 -3.3984592492e+00 +1.5414500664e+00 +1.9099481400e+01 1.9460621350e+01 0.0000000000e+00 0.0000e+00 1.0000e+00
       12  1    3    3    0    0 +5.0208977932e+00 -8.9011151879e+00 -3.0203926426e+01 3.1885991247e+01 0.0000000000e+00 0.0000e+00 -1.0000e+00
</event>
<event>
 8      4 +2.2883893e-04 9.11880000e+01 7.81616400e-03 1.18400000e-01
      -11 -1    0    0    0    0 +0.0000000000e+00 +0.0000000000e+00 +4.5593999997e+01 4.5594000000e+01 5.1100000000e-04 0.0000e+00 -1.0000e+00
       11 -1    0    0    0    0 -0.0000000000e+00 -0.0000000000e+00 -4.5593999997e+01 4.5594000000e+01 5.1100000000e-04 0.0000e+00 1.0000e+00
       23  2    1    2    0    0 +1.0658141036e-14 -6.6613381478e-16 -1.7763568394e-15 9.1188000000e+01 9.1188000000e+01 2.2815e-13 0.0000e+00
 -9990012  2    3    3    0    0 +3.1668267715e+01 +1.5470463290e+00 -3.3834659334e+00 5.9301947028e+01 5.0000005471e+01 1.5954e-03 0.0000e+00
      -11  1    4    4    0    0 -4.8631758015e+00 +8.4767716531e+00 +1.0076211817e+01 1.4036957697e+01 5.1100000000e-04 0.0000e+00 1.0000e+00
       11  1    4    4    0    0 -2.2519209189e+00 -3.3665547040e+00 +2.3656793387e-02 4.0503577996e+00 5.1100000000e-04 0.0000e+00 -1.0000e+00
      -12  1    4    4    0    0 +3.8783364436e+01 -3.5631706201e+00 -1.3483334544e+01 4.1214631531e+01 0.0000000000e+00 0.0000e+00 1.0000e+00
       12  1    3    3    0    0 -3.1668267715e+01 -1.5470463290e+00 +3.3834659334e+00 3.1886052972e+01 0.0000000000e+00 0.0000e+00 -1.0000e+00
</event>
<event>
 8      4 +2.2883893e-04 9.11880000e+01 7.81616400e-03 1.18400000e-01
      -11 -1    0    0    0    0 +0.0000000000e+00 +0.0000000000e+00 +4.5593999997e+01 4.5594000000e+01 5.1100000000e-04 0.0000e+00 -1.0000e+00
       11 -1    0    0    0    0 -0.0000000000e+00 -0.0000000000e+00 -4.5593999997e+01 4.5594000000e+01 5.1100000000e-04 0.0000e+00 1.0000e+00
       23  2    1    2    0    0 +0.0000000000e+00 +0.0000000000e+00 +0.0000000000e+00 9.1188000000e+01 9.1188000000e+01 1.1137e-14 0.0000e+00
 -9990012  2    3    3    0    0 -1.6351247915e+01 -7.9043529685e+00 -2.6208400580e+01 5.9301915806e+01 4.9999948531e+01 6.3301e-04 0.0000e+00
      -11  1    4    4    0    0 -1.9310562023e+01 +1.1955176890e+01 -1.7893442310e+01 2.8913653143e+01 5.1100000000e-04 0.0000e+00 1.0000e+00
       11  1    4    4    0    0 -7.1041711179e+00 -8.0386272998e+00 +3.0446553366e+00 1.1151623313e+01 5.1100000000e-04 0.0000e+00 -1.0000e+00
      -12  1    4    4    0    0 +1.0063485226e+01 -1.1820902559e+01 -1.1359613607e+01 1.9236639350e+01 0.0000000000e+00 0.0000e+00 1.0000e+00
       12  1    3    3    0    0 +1.6351247915e+01 +7.9043529685e+00 +2.6208400580e+01 3.1886084194e+01 0.0000000000e+00 0.0000e+00 -1.0000e+00
</event>
<event>
 8      4 +2.2883893e-04 9.11880000e+01 7.81616400e-03 1.18400000e-01
      -11 -1    0    0    0    0 +0.0000000000e+00 +0.0000000000e+00 +4.5593999997e+01 4.5594000000e+01 5.1100000000e-04 0.0000e+00 -1.0000e+00
       11 -1    0    0    0    0 -0.0000000000e+00 -0.0000000000e+00 -4.5593999997e+01 4.5594000000e+01 5.1100000000e-04 0.0000e+00 1.0000e+00
       23  2    1    2    0    0 +1.7763568394e-15 -7.1054273576e-15 +3.5527136788e-15 9.1188000000e+01 9.1188000000e+01 1.0905e-14 0.0000e+00
 -9990012  2    3    3    0    0 -1.0425618963e+01 +2.6405280225e+01 -1.4518516369e+01 5.9301958037e+01 5.0000025549e+01 6.1336e-03 0.0000e+00
      -11  1    4    4    0    0 -9.3363700780e+00 -8.0575932994e+00 -6.7324112136e+00 1.4050550773e+01 5.1100000000e-04 0.0000e+00 -1.0000e+00
       11  1    4    4    0    0 +6.4125261062e+00 +3.6121115292e+01 -8.0711184244e+00 3.7563258830e+01 5.1100000000e-04 0.0000e+00 1.0000e+00
      -12  1    4    4    0    0 -7.5017749912e+00 -1.6582417678e+00 +2.8501326854e-01 7.6881484339e+00 0.0000000000e+00 0.0000e+00 1.0000e+00
       12  1    3    3    0    0 +1.0425618963e+01 -2.6405280225e+01 +1.4518516369e+01 3.1886041963e+01 0.0000000000e+00 0.0000e+00 -1.0000e+00
</event>
<event>
 8      3 +2.2883893e-04 9.11880000e+01 7.81616400e-03 1.18400000e-01
      -11 -1    0    0    0    0 +0.0000000000e+00 +0.0000000000e+00 +4.5593999997e+01 4.5594000000e+01 5.1100000000e-04 0.0000e+00 -1.0000e+00
       11 -1    0    0    0    0 -0.0000000000e+00 -0.0000000000e+00 -4.5593999997e+01 4.5594000000e+01 5.1100000000e-04 0.0000e+00 1.0000e+00
       23  2    1    2    0    0 -3.5527136788e-15 -3.5527136788e-15 +8.8817841970e-16 9.1188000000e+01 9.1188000000e+01 8.8887e-14 0.0000e+00
  9990012  2    3    3    0    0 +2.2787845710e+01 +2.2209679823e+01 +2.0407297684e+00 5.9301947125e+01 5.0000005649e+01 2.0118e-03 0.0000e+00
      -11  1    4    4    0    0 +8.9300812660e+00 +1.8109968418e+01 -1.4931427620e+01 2.5113041205e+01 5.1100000000e-04 0.0000e+00 1.0000e+00
       11  1    4    4    0    0 +2.0038886346e+01 -1.9552017960e+00 +1.5506039431e+01 2.5412930550e+01 5.1100000000e-04 0.0000e+00 -1.0000e+00
       12  1    4    4    0    0 -6.1811219015e+00 +6.0549132008e+00 +1.4661179572e+00 8.7759753700e+00 0.0000000000e+00 0.0000e+00 -1.0000e+00
      -12  1    3    3    0    0 -2.2787845710e+01 -2.2209679823e+01 -2.0407297684e+00 3.1886052875e+01 0.0000000000e+00 0.0000e+00 1.0000e+00
</event>
<event>
 8      4 +2.2883893e-04 9.11880000e+01 7.81616400e-03 1.18400000e-01
      -11 -1    0    0    0    0 +0.0000000000e+00 +0.0000000000e+00 +4.5593999997e+01 4.5594000000e+01 5.1100000000e-04 0.0000e+00 1.0000e+00
       11 -1    0    0    0    0 -0.0000000000e+00 -0.0000000000e+00 -4.5593999997e+01 4.5594000000e+01 5.1100000000e-04 0.0000e+00 -1.0000e+00
       23  2    1    2    0    0 +0.0000000000e+00 -1.7763568394e-15 +0.0000000000e+00 9.1188000000e+01 9.1188000000e+01 2.5466e-15 0.0000e+00
 -9990012  2    3    3    0    0 -2.8051284800e+01 -1.0627236198e+01 +1.0812370746e+01 5.9301951494e+01 5.0000013617e+01 1.8500e-03 0.0000e+00
      -11  1    4    4    0    0 +4.0336000730e+00 +6.7690258031e+00 +5.4885593553e+00 9.6028081273e+00 5.1100000000e-04 0.0000e+00 1.0000e+00
       11  1    4    4    0    0 +4.7070390909e+00 -4.7640151679e+00 +8.3237883812e+00 1.0683515844e+01 5.1100000000e-04 0.0000e+00 -1.0000e+00
      -12  1    4    4    0    0 -3.6791923964e+01 -1.2632246833e+01 -2.9999769903e+00 3.9015627523e+01 0.0000000000e+00 0.0000e+00 1.0000e+00
       12  1    3    3    0    0 +2.8051284800e+01 +1.0627236198e+01 -1.0812370746e+01 3.1886048506e+01 0.0000000000e+00 0.0000e+00 -1.0000e+00
</event>
<event>
 8      3 +2.2883893e-04 9.11880000e+01 7.81616400e-03 1.18400000e-01
      -11 -1    0    0    0    0 +0.0000000000e+00 +0.0000000000e+00 +4.5593999997e+01 4.5594000000e+01 5.1100000000e-04 0.0000e+00 1.0000e+00
       11 -1    0    0    0    0 -0.0000000000e+00 -0.0000000000e+00 -4.5593999997e+01 4.5594000000e+01 5.1100000000e-04 0.0000e+00 -1.0000e+00
       23  2    1    2    0    0 +3.5527136788e-15 -3.5527136788e-15 -8.8817841970e-16 9.1188000000e+01 9.1188000000e+01 6.9581e-14 0.0000e+00
  9990012  2    3    3    0    0 +2.7418209214e+01 -1.4343790034e+01 -7.6956430960e+00 5.9301867722e+01 4.9999860836e+01 2.3899e-03 0.0000e+00
      -11  1    4    4    0    0 +5.2514427760e-01 -8.1321382525e+00 +7.8534191601e+00 1.1317404377e+01 5.1100000000e-04 0.0000e+00 1.0000e+00
       11  1    4    4    0    0 +3.0964642596e+01 +6.5963046109e+00 -8.3677718568e+00 3.2746601835e+01 5.1100000000e-04 0.0000e+00 -1.0000e+00
       12  1    4    4    0    0 -4.0715776603e+00 -1.2807956392e+01 -7.1812903993e+00 1.5237861509e+01 0.0000000000e+00 0.0000e+00 -1.0000e+00
      -12  1    3    3    0    0 -2.7418209214e+01 +1.4343790034e+01 +7.6956430960e+00 3.1886132278e+01 0.0000000000e+00 0.0000e+00 1.0000e+00
</event>
<event>
 8      3 +2.2883893e-04 9.11880000e+01 7.81616400e-03 1.18400000e-01
      -11 -1    0    0    0    0 +0.0000000000e+00 +0.0000000000e+00 +4.5593999997e+01 4.5594000000e+01 5.1100000000e-04 0.0000e+00 -1.0000e+00
       11 -1    0    0    0    0 -0.0000000000e+00 -0.0000000000e+00 -4.5593999997e+01 4.5594000000e+01 5.1100000000e-04 0.0000e+00 1.0000e+00
       23  2    1    2    0    0 +3.5527136788e-15 +0.0000000000e+00 +0.0000000000e+00 9.1188000000e+01 9.1188000000e+01 4.8804e-14 0.0000e+00
  9990012  2    3    3    0    0 -2.4152996347e+01 -1.3972681354e+01 +1.5431387981e+01 5.9301783671e+01 4.9999707548e+01 3.0204e-05 0.0000e+00
      -11  1    4    4    0    0 -2.4442546893e+01 -9.4232312298e+00 +3.4196967129e+00 2.6418359361e+01 5.1100000000e-04 0.0000e+00 1.0000e+00
       11  1    4    4    0    0 -8.4630923033e+00 +9.9524078589e+00 +2.0254426133e+00 1.3220316621e+01 5.1100000000e-04 0.0000e+00 -1.0000e+00
       12  1    4    4    0    0 +8.7526428498e+00 -1.4501857983e+01 +9.9862486550e+00 1.9663107689e+01 0.0000000000e+00 0.0000e+00 -1.0000e+00
      -12  1    3    3    0    0 +2.4152996347e+01 +1.3972681354e+01 -1.5431387981e+01 3.1886216329e+01 0.0000000000e+00 0.0000e+00 1.0000e+00
</event>
<event>
 8      3 +2.2883893e-04 9.11880000e+01 7.81616400e-03 1.18400000e-01
      -11 -1    0    0    0    0 +0.0000000000e+00 +0.0000000000e+00 +4.5593999997e+01 4.5594000000e+01 5.1100000000e-04 0.0000e+00 -1.0000e+00
       11 -1    0    0    0    0 -0.0000000000e+00 -0.0000000000e+00 -4.5593999997e+01 4.5594000000e+01 5.1100000000e-04 0.0000e+00 1.0000e+00
       23  2    1    2    0    0 +0.0000000000e+00 +0.0000000000e+00 +2.6645352591e-15 9.1188000000e+01 9.1188000000e+01 3.3663e-14 0.0000e+00
  9990012  2    3    3    0    0 -4.5510008798e+00 +3.1251475549e+01 -4.4000017572e+00 5.9301853345e+01 4.9999834617e+01 1.1615e-03 0.0000e+00
      -11  1    4    4    0    0 -3.1410792400e+00 +1.8237318279e+01 -1.7532824846e+01 2.5492471519e+01 5.1100000000e-04 0.0000e+00 1.0000e+00
       11  1    4    4    0    0 -1.4416949562e+01 +9.2546888834e+00 +4.3655670831e+00 1.7679249905e+01 5.1100000000e-04 0.0000e+00 -1.0000e+00
       12  1    4    4    0    0 +1.3007027922e+01 +3.7594683866e+00 +8.7672560056e+00 1.6130131921e+01 0.0000000000e+00 0.0000e+00 -1.0000e+00
      -12  1    3    3    0    0 +4.5510008798e+00 -3.1251475549e+01 +4.4000017572e+00 3.1886146655e+01 0.0000000000e+00 0.0000e+00 1.0000e+00
</event>
<event>
 8      4 +2.2883893e-04 9.11880000e+01 7.81616400e-03 1.18400000e-01
      -11 -1    0    0    0    0 +0.0000000000e+00 +0.0000000000e+00 +4.5593999997e+01 4.5594000000e+01 5.1100000000e-04 0.0000e+00 1.0000e+00
       11 -1    0    0    0    0 -0.0000000000e+00 -0.0000000000e+00 -4.5593999997e+01 4.5594000000e+01 5.1100000000e-04 0.0000e+00 -1.0000e+00
       23  2    1    2    0    0 +1.7763568394e-15 -1.7763568394e-15 +0.0000000000e+00 9.1188000000e+01 9.1188000000e+01 4.8711e-14 0.0000e+00
 -9990012  2    3    3    0    0 +1.5840324779e+01 -9.2306629328e+00 +2.6088301112e+01 5.9301945334e+01 5.0000002382e+01 4.0028e-03 0.0000e+00
      -11  1    4    4    0    0 +1.4171914542e+01 -2.5240070235e+01 +2.1795558030e+01 3.6234660995e+01 5.1100000000e-04 0.0000e+00 1.0000e+00
       11  1    4    4    0    0 -6.0863897595e+00 +7.2369590182e+00 +6.0523528303e+00 1.1227140828e+01 5.1100000000e-04 0.0000e+00 -1.0000e+00
      -12  1    4    4    0    0 +7.7547999964e+00 +8.7724482845e+00 -1.7596097489e+00 1.1840143511e+01 0.0000000000e+00 0.0000e+00 1.0000e+00
       12  1    3    3    0    0 -1.5840324779e+01 +9.2306629328e+00 -2.6088301112e+01 3.1886054666e+01 0.0000000000e+00 0.0000e+00 -1.0000e+00
</event>
<event>
 8      4 +2.2883893e-04 9.11880000e+01 7.81616400e-03 1.18400000e-01
      -11 -1    0    0    0    0 +0.0000000000e+00 +0.0000000000e+00 +4.5593999997e+01 4.5594000000e+01 5.1100000000e-04 0.0000e+00 -1.0000e+00
       11 -1    0    0    0    0 -0.0000000000e+00 -0.0000000000e+00 -4.5593999997e+01 4.5594000000e+01 5.1100000000e-04 0.0000e+00 1.0000e+00
       23  2    1    2    0    0 -1.7763568394e-15 -1.3322676296e-15 +3.5527136788e-15 9.1188000000e+01 9.1188000000e+01 2.7600e-14 0.0000e+00
 -9990012  2    3    3    0    0 +1.1105989031e+01 +2.0471943808e+00 -2.9819135402e+01 5.9302033913e+01 5.0000163929e+01 1.0729e-03 0.0000e+00
      -11  1    4    4    0    0 -7.6628989044e+00 +8.7681848284e+00 -1.0871797222e+01 1.5931009381e+01 5.1100000000e-04 0.0000e+00 1.0000e+00
       11  1    4    4    0    0 +1.8693195536e+00 +1.2928576041e+01 -7.1990964441e+00 1.4915408942e+01 5.1100000000e-04 0.0000e+00 -1.0000e+00
      -12  1    4    4    0    0 +1.6899568382e+01 -1.9649566489e+01 -1.1748241736e+01 2.8455615590e+01 0.0000000000e+00 0.0000e+00 1.0000e+00
       12  1    3    3    0    0 -1.1105989031e+01 -2.0471943808e+00 +2.9819135402e+01 3.1885966087e+01 0.0000000000e+00 0.0000e+00 -1.0000e+00
</event>
<event>
 8      3 +2.2883893e-04 9.11880000e+01 7.81616400e-03 1.18400000e-01
      -11 -1    0    0    0    0 +0.0000000000e+00 +0.0000000000e+00 +4.5593999997e+01 4.5594000000e+01 5.1100000000e-04 0.0000e+00 -1.0000e+00
       11 -1    0    0    0    0 -0.0000000000e+00 -0.0000000000e+00 -4.5593999997e+01 4.5594000000e+01 5.1100000000e-04 0.0000e+00 1.0000e+00
       23  2    1    2    0    0 -3.5527136788e-15 +0.0000000000e+00 -3.5527136788e-15 9.1188000000e+01 9.1188000000e+01 6.9274e-14 0.0000e+00
  9990012  2    3    3    0    0 +2.3104207726e+01 +9.1477448039e+00 +1.9980845018e+01 5.9301955760e+01 5.0000021397e+01 1.7060e-03 0.0000e+00
      -11  1    4    4    0    0 -3.4478427342e+00 +1.9798789050e+01 +8.3856080120e+00 2.1776089855e+01 5.1100000000e-04 0.0000e+00 1.0000e+00
       11  1    4    4    0    0 +4.7955333702e+00 +5.2802796897e+00 -1.8858695517e+00 7.3780077347e+00 5.1100000000e-04 0.0000e+00 -1.0000e+00
       12  1    4    4    0    0 +2.1756517090e+01 -1.5931323936e+01 +1.3481106557e+01 3.0147858170e+01 0.0000000000e+00 0.0000e+00 -1.0000e+00
      -12  1    3    3    0    0 -2.3104207726e+01 -9.1477448039e+00 -1.9980845018e+01 3.1886044240e+01 0.0000000000e+00 0.0000e+00 1.0000e+00
</event>
<event>
 8      3 +2.2883893e-04 9.11880000e+01 7.81616400e-03 1.18400000e-01
      -11 -1    0    0    0    0 +0.0000000000e+00 +0.0000000000e+00 +4.5593999997e+01 4.5594000000e+01 5.1100000000e-04 0.0000e+00 -1.0000e+00
       11 -1    0    0    0    0 -0.0000000000e+00 -0.0000000000e+00 -4.5593999997e+01 4.5594000000e+01 5.1100000000e-04 0.0000e+00 1.0000e+00
       23  2    1    2    0    0 +3.5527136788e-15 -8.8817841970e-16 +0.0000000000e+00 9.1188000000e+01 9.1188000000e+01 2.6263e-13 0.0000e+00
  9990012  2    3    3    0    0 -3.0739406568e+01 -4.5835515728e+00 +7.1256942578e+00 5.9302335826e+01 5.0000714541e+01 1.3368e-03 0.0000e+00
      -11  1    4    4    0    0 +9.5212744038e+00 -2.5219546558e+00 -7.4067873236e+00 1.2323774595e+01 5.1100000000e-04 0.0000e+00 1.0000e+00
       11  1    4    4    0    0 -9.5633193965e-02 -4.3909692719e+00 +2.1048290319e+00 4.8703246678e+00 5.1100000000e-04 0.0000e+00 -1.0000e+00
       12  1    4    4    0    0 -4.0165047778e+01 +2.3293723549e+00 +1.2427652549e+01 4.2108236563e+01 0.0000000000e+00 0.0000e+00 -1.0000e+00
      -12  1    3    3    0    0 +3.0739406568e+01 +4.5835515728e+00 -7.1256942578e+00 3.1885664174e+01 0.0000000000e+00 0.0000e+00 1.0000e+00
</event>
<event>
 8      4 +2.2883893e-04 9.11880000e+01 7.81616400e-03 1.18400000e-01
      -11 -1    0    0    0    0 +0.0000000000e+00 +0.0000000000e+00 +4.5593999997e+01 4.5594000000e+01 5.1100000000e-04 0.0000e+00 1.0000e+00
       11 -1    0    0    0    0 -0.0000000000e+00 -0.0000000000e+00 -4.5593999997e+01 4.5594000000e+01 5.1100000000e-04 0.0000e+00 -1.0000e+00
       23  2    1    2    0    0 -3.5527136788e-15 +0.0000000000e+00 +3.5527136788e-15 9.1188000000e+01 9.1188000000e+01 6.4689e-14 0.0000e+00
 -9990012  2    3    3    0    0 -1.6998576461e+01 +2.1417672332e+01 -1.6402792865e+01 5.9301954407e+01 5.0000018929e+01 1.8798e-03 0.0000e+00
      -11  1    4    4    0    0 +1.2329225514e+01 -2.9507465191e+00 -3.0160817034e+00 1.3031249208e+01 5.1100000000e-04 0.0000e+00 1.0000e+00
       11  1    4    4    0    0 -1.0017540835e+01 -1.4355168792e+00 -9.3707711117e+00 1.3792142132e+01 5.1100000000e-04 0.0000e+00 -1.0000e+00
      -12  1    4    4    0    0 -1.9310261140e+01 +2.5803935730e+01 -4.0159400496e+00 3.2478563068e+01 0.0000000000e+00 0.0000e+00 1.0000e+00
       12  1    3    3    0    0 +1.6998576461e+01 -2.1417672332e+01 +1.6402792865e+01 3.1886045593e+01 0.0000000000e+00 0.0000e+00 -1.0000e+00
</event>
<event>
 8      4 +2.2883893e-04 9.11880000e+01 7.81616400e-03 1.18400000e-01
      -11 -1    0    0    0    0 +0.0000000000e+00 +0.0000000000e+00 +4.5593999997e+01 4.5594000000e+01 5.1100000000e-04 0.0000e+00 -1.0000e+00
       11 -1    0    0    0    0 -0.0000000000e+00 -0.0000000000e+00 -4.5593999997e+01 4.5594000000e+01 5.1100000000e-04 0.0000e+00 1.0000e+00
       23  2    1    2    0    0 -4.4408920985e-16 +0.0000000000e+00 -3.5527136788e-15 9.1188000000e+01 9.1188000000e+01 1.0232e-14 0.0000e+00
 -9990012  2    3    3    0    0 +1.9150728441e+00 +2.6216994363e+01 -1.8047835894e+01 5.9301910903e+01 4.9999939589e+01 7.7311e-04 0.0000e+00
      -11  1    4    4    0    0 -1.2061833806e+01 +1.4356684313e+01 -1.9575142550e+01 2.7106981118e+01 5.1100000000e-04 0.0000e+00 1.0000e+00
       11  1    4    4    0    0 +7.2241797117e+00 +2.0013430009e+01 +3.0664406575e+00 2.1497190789e+01 5.1100000000e-04 0.0000e+00 -1.0000e+00
      -12  1    4    4    0    0 +6.7527269379e+00 -8.1531199593e+00 -1.5391340016e+00 1.0697738997e+01 0.0000000000e+00 0.0000e+00 1.0000e+00
       12  1    3    3    0    0 -1.9150728441e+00 -2.6216994363e+01 +1.8047835894e+01 3.1886089097e+01 0.0000000000e+00 0.0000e+00 -1.0000e+00
</event>
<event>
 8      4 +2.2883893e-04 9.11880000e+01 7.81616400e-03 1.18400000e-01
      -11 -1    0    0    0    0 +0.0000000000e+00 +0.0000000000e+00 +4.5593999997e+01 4.5594000000e+01 5.1100000000e-04 0.0000e+00 1.0000e+00
       11 -1    0    0    0    0 -0.0000000000e+00 -0.0000000000e+00 -4.5593999997e+01 4.5594000000e+01 5.1100000000e-04 0.0000e+00 -1.0000e+00
       23  2    1    2    0    0 -3.5527136788e-15 -1.7763568394e-15 -3.5527136788e-15 9.1188000000e+01 9.1188000000e+01 3.2337e-13 0.0000e+00
 -9990012  2    3    3    0    0 +2.1845110049e+01 +1.1634886932e+01 +2.0103503653e+01 5.9301791600e+01 4.9999722008e+01 2.8937e-03 0.0000e+00
      -11  1    4    4    0    0 -4.9918201525e+00 +1.5533526377e+01 -5.0927749262e+00 1.7092251661e+01 5.1100000000e-04 0.0000e+00 -1.0000e+00
       11  1    4    4    0    0 +2.4068020673e+01 +1.3976919899e+00 +2.6773600832e+01 3.6028445203e+01 5.1100000000e-04 0.0000e+00 1.0000e+00
      -12  1    4    4    0    0 +2.7689095293e+00 -5.2963314345e+00 -1.5773222525e+00 6.1810947359e+00 0.0000000000e+00 0.0000e+00 1.0000e+00
       12  1    3    3    0    0 -2.1845110049e+01 -1.1634886932e+01 -2.0103503653e+01 3.1886208400e+01 0.0000000000e+00 0.0000e+00 -1.0000e+00
</event>
<event>
 8      3 +2.2883893e-04 9.11880000e+01 7.81616400e-03 1.18400000e-01
      -11 -1    0    0    0    0 +0.0000000000e+00 +0.0000000000e+00 +4.5593999997e+01 4.5594000000e+01 5.1100000000e-04 0.0000e+00 -1.0000e+00
       11 -1    0    0    0    0 -0.0000000000e+00 -0.0000000000e+00 -4.5593999997e+01 4.5594000000e+01 5.1100000000e-04 0.0000e+00 1.0000e+00
       23  2    1    2    0    0 -3.5527136788e-15 +0.0000000000e+00 -1.3322676296e-15 9.1188000000e+01 9.1188000000e+01 5.3435e-14 0.0000e+00
  9990012  2    3    3    0    0 +2.3242502869e+01 +2.1547789215e+01 -3.4927441660e+00 5.9301946285e+01 5.0000004117e+01 5.7558e-04 0.0000e+00
      -11  1    4    4    0    0 +9.0234001288e+00 +5.0671123566e+00 -1.1547220770e+01 1.5505988691e+01 5.1100000000e-04 0.0000e+00 1.0000e+00
       11  1    4    4    0    0 +3.9357384209e+00 -7.9046284244e+00 -8.7623994139e+00 1.2439969099e+01 5.1100000000e-04 0.0000e+00 -1.0000e+00
       12  1    4    4    0    0 +1.0283364319e+01 +2.4385305283e+01 +1.6816876018e+01 3.1355988495e+01 0.0000000000e+00 0.0000e+00 -1.0000e+00
      -12  1    3    3    0    0 -2.3242502869e+01 -2.1547789215e+01 +3.4927441660e+00 3.1886053715e+01 0.0000000000e+00 0.0000e+00 1.0000e+00
</event>
<event>
 8      4 +2.2883893e-04 9.11880000e+01 7.81616400e-03 1.18400000e-01
      -11 -1    0    0    0    0 +0.0000000000e+00 +0.0000000000e+00 +4.5593999997e+01 4.5594000000e+01 5.1100000000e-04 0.0000e+00 -1.0000e+00
       11 -1    0    0    0    0 -0.0000000000e+00 -0.0000000000e+00 -4.5593999997e+01 4.5594000000e+01 5.1100000000e-04 0.0000e+00 1.0000e+00
       23  2    1    2    0    0 +0.0000000000e+00 +0.0000000000e+00 -3.5527136788e-15 9.1188000000e+01 9.1188000000e+01 4.0776e-15 0.0000e+00
 -9990012  2    3    3    0    0 +8.4295297645e+00 -1.7054940654e+01 -2.5588886960e+01 5.9301966872e+01 5.0000041663e+01 4.2394e-03 0.0000e+00
      -11  1    4    4    0    0 +1.9427196565e+01 +6.9566901709e+00 -1.2327172968e+01 2.4036861238e+01 5.1100000000e-04 0.0000e+00 1.0000e+00
       11  1    4    4    0    0 -9.5048376580e+00 -2.0008550970e+00 -3.8500145598e-01 9.7207811623e+00 5.1100000000e-04 0.0000e+00 -1.0000e+00
      -12  1    4    4    0    0 -1.4928291429e+00 -2.2010775728e+01 -1.2876712537e+01 2.5544324472e+01 0.0000000000e+00 0.0000e+00 1.0000e+00
       12  1    3    3    0    0 -8.4295297645e+00 +1.7054940654e+01 +2.5588886960e+01 3.1886033128e+01 0.0000000000e+00 0.0000e+00 -1.0000e+00
</event>
<event>
 8      4 +2.2883893e-04 9.11880000e+01 7.81616400e-03 1.18400000e-01
      -11 -1    0    0    0    0 +0.0000000000e+00 +0.0000000000e+00 +4.5593999997e+01 4.5594000000e+01 5.1100000000e-04 0.0000e+00 1.0000e+00
       11 -1    0    0    0    0 -0.0000000000e+00 -0.0000000000e+00 -4.5593999997e+01 4.5594000000e+01 5.1100000000e-04 0.0000e+00 -1.0000e+00
       23  2    1    2    0    0 -3.5527136788e-15 -3.5527136788e-15 +1.7763568394e-15 9.1188000000e+01 9.1188000000e+01 1.0448e-13 0.0000e+00
 -9990012  2    3    3    0    0 -2.8460334940e+01 -1.3183444109e+01 -5.7381713996e+00 5.9301945454e+01 5.0000002602e+01 4.9380e-04 0.0000e+00
      -11  1    4    4    0    0 -1.5853320092e+00 +7.6949262363e+00 +6.9603143824e+00 1.0496244277e+01 5.1100000000e-04 0.0000e+00 1.0000e+00
       11  1    4    4    0    0 -1.2141410918e+01 -4.4776910476e+00 -2.1477888763e+01 2.5075152685e+01 5.1100000000e-04 0.0000e+00 -1.0000e+00
      -12  1    4    4    0    0 -1.4733592013e+01 -1.6400679298e+01 +8.7794029813e+00 2.3730548492e+01 0.0000000000e+00 0.0000e+00 1.0000e+00
       12  1    3    3    0    0 +2.8460334940e+01 +1.3183444109e+01 +5.7381713996e+00 3.1886054546e+01 0.0000000000e+00 0.0000e+00 -1.0000e+00
</event>
<event>
 8      3 +2.2883893e-04 9.11880000e+01 7.81616400e-03 1.18400000e-01
      -11 -1    0    0    0    0 +0.0000000000e+00 +0.0000000000e+00 +4.5593999997e+01 4.5594000000e+01 5.1100000000e-04 0.0000e+00 1.0000e+00
       11 -1    0    0    0    0 -0.0000000000e+00 -0.0000000000e+00 -4.5593999997e+01 4.5594000000e+01 5.1100000000e-04 0.0000e+00 -1.0000e+00
       23  2    1    2    0    0 -3.5527136788e-15 -3.5527136788e-15 +0.0000000000e+00 9.1188000000e+01 9.1188000000e+01 1.8374e-14 0.0000e+00
  9990012  2    3    3    0    0 +1.4347515008e+01 +1.8433318802e+01 -2.1704444934e+01 5.9301931587e+01 4.9999977311e+01 3.7279e-03 0.0000e+00
      -11  1    4    4    0    0 +1.0632139967e+01 -2.3132434375e+00 +5.7824776537e+00 1.2321953723e+01 5.1100000000e-04 0.0000e+00 1.0000e+00
       11  1    4    4    0    0 -1.6115213935e+00 +3.6861167827e+00 +7.0360233591e+00 8.1049418942e+00 5.1100000000e-04 0.0000e+00 -1.0000e+00
       12  1    4    4    0    0 +5.3268964348e+00 +1.7060445456e+01 -3.4522945947e+01 3.8875035970e+01 0.0000000000e+00 0.0000e+00 -1.0000e+00
      -12  1    3    3    0    0 -1.4347515008e+01 -1.8433318802e+01 +2.1704444934e+01 3.1886068413e+01 0.0000000000e+00 0.0000e+00 1.0000e+00
</event>
<event>
 8      4 +2.2883893e-04 9.11880000e+01 7.81616400e-03 1.18400000e-01
      -11 -1    0    0    0    0 +0.0000000000e+00 +0.0000000000e+00 +4.5593999997e+01 4.5594000000e+01 5.1100000000e-04 0.0000e+00 1.0000e+00
       11 -1    0    0    0    0 -0.0000000000e+00 -0.0000000000e+00 -4.5593999997e+01 4.5594000000e+01 5.1100000000e-04 0.0000e+00 -1.0000e+00
       23  2    1    2    0    0 +0.0000000000e+00 -8.8817841970e-16 -3.5527136788e-15 9.1188000000e+01 9.1188000000e+01 6.9864e-14 0.0000e+00
 -9990012  2    3    3    0    0 +1.2191985704e+01 -2.1615850835e+00 +2.9383732779e+01 5.9301941644e+01 4.9999995653e+01 9.1787e-04 0.0000e+00
      -11  1    4    4    0    0 -1.0662108053e+01 +1.3716542566e+01 +2.0030443942e+01 2.6514953759e+01 5.1100000000e-04 0.0000e+00 -1.0000e+00
       11  1    4    4    0    0 +2.1425546743e+01 -7.7931950847e+00 +4.4656184546e+00 2.3232083233e+01 5.1100000000e-04 0.0000e+00 1.0000e+00
      -12  1    4    4    0    0 +1.4285470139e+00 -8.0849325646e+00 +4.8876703824e+00 9.5549046522e+00 0.0000000000e+00 0.0000e+00 1.0000e+00
       12  1    3    3    0    0 -1.2191985704e+01 +2.1615850835e+00 -2.9383732779e+01 3.1886058356e+01 0.0000000000e+00 0.0000e+00 -1.0000e+00
</event>
<event>
 8      3 +2.2883893e-04 9.11880000e+01 7.81616400e-03 1.18400000e-01
      -11 -1    0    0    0    0 +0.0000000000e+00 +0.0000000000e+00 +4.5593999997e+01 4.5594000000e+01 5.1100000000e-04 0.0000e+00 1.0000e+00
       11 -1    0    0    0    0 -0.0000000000e+00 -0.0000000000e+00 -4.5593999997e+01 4.5594000000e+01 5.1100000000e-04 0.0000e+00 -1.0000e+00
       23  2    1    2    0    0 +1.0658141036e-14 +0.0000000000e+00 +1.3322676296e-15 9.1188000000e+01 9.1188000000e+01 5.1243e-14 0.0000e+00
  9990012  2    3    3    0    0 -2.9402620745e+01 -1.1766643432e+01 -3.7083573025e+00 5.9301954177e+01 5.0000018511e+01 1.0545e-03 0.0000e+00
      -11  1    4    4    0    0 -4.5718251406e+00 -1.4263057184e-01 +1.3976462744e+01 1.4705898126e+01 5.1100000000e-04 0.0000e+00 1.0000e+00
       11  1    4    4    0    0 +4.8060021714e+00 -2.3258295154e+00 +4.0365673097e+00 6.6933560875e+00 5.1100000000e-04 0.0000e+00 -1.0000e+00
       12  1    4    4    0    0 -2.9636797776e+01 -9.2981833443e+00 -2.1721387356e+01 3.7902699964e+01 0.0000000000e+00 0.0000e+00 -1.0000e+00
      -12  1    3    3    0    0 +2.9402620745e+01 +1.1766643432e+01 +3.7083573025e+00 3.1886045823e+01 0.0000000000e+00 0.0000e+00 1.0000e+00
</event>
<event>
 8      4 +2.2883893e-04 9.11880000e+01 7.81616400e-03 1.18400000e-01
      -11 -1    0    0    0    0 +0.0000000000e+00 +0.0000000000e+00 +4.5593999997e+01 4.5594000000e+01 5.1100000000e-04 0.0000e+00 -1.0000e+00
       11 -1    0    0    0    0 -0.0000000000e+00 -0.0000000000e+00 -4.5593999997e+01 4.5594000000e+01 5.1100000000e-04 0.0000e+00 1.0000e+00
       23  2    1    2    0    0 +3.5527136788e-15 +1.7763568394e-15 +0.0000000000e+00 9.1188000000e+01 9.1188000000e+01 2.2805e-16 0.0000e+00
 -9990012  2    3    3    0    0 +2.0383283303e+01 +1.1995481063e+01 -2.1385770972e+01 5.9301937147e+01 4.9999987452e+01 3.2505e-04 0.0000e+00
      -11  1    4    4    0    0 -2.2146894638e+00 -1.1012223198e+01 +1.6428074180e+00 1.1352212368e+01 5.1100000000e-04 0.0000e+00 1.0000e+00
       11  1    4    4    0    0 -2.8329337986e+00 -1.2953352121e+00 +2.8953579161e+00 4.2528231732e+00 5.1100000000e-04 0.0000e+00 -1.0000e+00
      -12  1    4    4    0    0 +2.5430906566e+01 +2.4303039473e+01 -2.5923936306e+01 4.3696901606e+01 0.0000000000e+00 0.0000e+00 1.0000e+00
       12  1    3    3    0    0 -2.0383283303e+01 -1.1995481063e+01 +2.1385770972e+01 3.1886062853e+01 0.0000000000e+00 0.0000e+00 -1.0000e+00
</event>
<event>
 8      3 +2.2883893e-04 9.11880000e+01 7.81616400e-03 1.18400000e-01
      -11 -1    0    0    0    0 +0.0000000000e+00 +0.0000000000e+00 +4.5593999997e+01 4.5594000000e+01 5.1100000000e-04 0.0000e+00 -1.0000e+00
       11 -1    0    0    0    0 -0.0000000000e+00 -0.0000000000e+00 -4.5593999997e+01 4.5594000000e+01 5.1100000000e-04 0.0000e+00 1.0000e+00
       23  2    1    2    0    0 -2.2204460493e-15 +3.5527136788e-15 -3.5527136788e-15 9.1188000000e+01 9.1188000000e+01 8.0202e-14 0.0000e+00
  9990012  2    3    3    0    0 -8.1517159001e-01 -1.8260702947e+01 +2.6126690371e+01 5.9301925821e+01 4.9999966794e+01 4.7252e-03 0.0000e+00
      -11  1    4    4    0    0 -5.7874398661e+00 -4.1442364187e+00 -4.8604933390e+00 8.6193707112e+00 5.1100000000e-04 0.0000e+00 1.0000e+00
       11  1    4    4    0    0 +7.9059832513e+00 -3.8851492231e+00 -6.9878880819e+00 1.1244088925e+01 5.1100000000e-04 0.0000e+00 -1.0000e+00
       12  1    4    4    0    0 -2.9337149752e+00 -1.0231317306e+01 +3.7975071792e+01 3.9438466184e+01 0.0000000000e+00 0.0000e+00 -1.0000e+00
      -12  1    3    3    0    0 +8.1517159001e-01 +1.8260702947e+01 -2.6126690371e+01 3.1886074179e+01 0.0000000000e+00 0.0000e+00 1.0000e+00
</event>
<event>
 8      4 +2.2883893e-04 9.11880000e+01 7.81616400e-03 1.18400000e-01
      -11 -1    0    0    0    0 +0.0000000000e+00 +0.0000000000e+00 +4.5593999997e+01 4.5594000000e+01 5.1100000000e-04 0.0000e+00 1.0000e+00
       11 -1    0    0    0    0 -0.0000000000e+00 -0.0000000000e+00 -4.5593999997e+01 4.5594000000e+01 5.1100000000e-04 0.0000e+00 -1.0000e+00
       23  2    1    2    0    0 +8.8817841970e-16 +0.0000000000e+00 +0.0000000000e+00 9.1188000000e+01 9.1188000000e+01 3.2677e-14 0.0000e+00
 -9990012  2    3    3    0    0 -7.5586524274e+00 +1.9631131426e+01 +2.3962552970e+01 5.9301976535e+01 5.0000059285e+01 3.6718e-03 0.0000e+00
      -11  1    4    4    0    0 +8.7564130075e+00 +4.0100298356e+00 +1.0462520597e+01 1.4220388375e+01 5.1100000000e-04 0.0000e+00 1.0000e+00
       11  1    4    4    0    0 -2.1502067010e+00 -1.1550885943e+01 +3.9933749868e-01 1.1756097380e+01 5.1100000000e-04 0.0000e+00 -1.0000e+00
      -12  1    4    4    0    0 -1.4164858734e+01 +2.7171987534e+01 +1.3100694874e+01 3.3325490779e+01 0.0000000000e+00 0.0000e+00 1.0000e+00
       12  1    3    3    0    0 +7.5586524274e+00 -1.9631131426e+01 -2.3962552970e+01 3.1886023465e+01 0.0000000000e+00 0.0000e+00 -1.0000e+00
</event>
<event>
 8      4 +2.2883893e-04 9.11880000e+01 7.81616400e-03 1.18400000e-01
      -11 -1    0    0    0    0 +0.0000000000e+00 +0.0000000000e+00 +4.5593999997e+01 4.5594000000e+01 5.1100000000e-04 0.0000e+00 1.0000e+00
       11 -1    0    0    0    0 -0.0000000000e+00 -0.0000000000e+00 -4.5593999997e+01 4.5594000000e+01 5.1100000000e-04 0.0000e+00 -1.0000e+00
       23  2    1    2    0    0 -3.5527136788e-15 -7.1054273576e-15 +0.0000000000e+00 9.1188000000e+01 9.1188000000e+01 7.1325e-14 0.0000e+00
 -9990012  2    3    3    0    0 +2.0605765094e+01 +2.4013942337e+01 +3.9312177656e+00 5.9301930083e+01 4.9999974567e+01 1.7735e-03 0.0000e+00
      -11  1    4    4    0    0 +6.5944329157e+00 +3.0610784613e+00 +5.8279423588e+00 9.3178140797e+00 5.1100000000e-04 0.0000e+00 1.0000e+00
       11  1    4    4    0    0 -9.1145922494e+00 +1.6988468048e+00 -1.4620720828e+01 1.7312635562e+01 5.1100000000e-04 0.0000e+00 -1.0000e+00
      -12  1    4    4    0    0 +2.3125924428e+01 +1.9254017070e+01 +1.2723996234e+01 3.2671480440e+01 0.0000000000e+00 0.0000e+00 1.0000e+00
       12  1    3    3    0    0 -2.0605765094e+01 -2.4013942337e+01 -3.9312177656e+00 3.1886069917e+01 0.0000000000e+00 0.0000e+00 -1.0000e+00
</event>
<event>
 8      3 +2.2883893e-04 9.11880000e+01 7.81616400e-03 1.18400000e-01
      -11 -1    0    0    0    0 +0.0000000000e+00 +0.0000000000e+00 +4.5593999997e+01 4.5594000000e+01 5.1100000000e-04 0.0000e+00 -1.0000e+00
       11 -1    0    0    0    0 -0.0000000000e+00 -0.0000000000e+00 -4.5593999997e+01 4.5594000000e+01 5.1100000000e-04 0.0000e+00 1.0000e+00
       23  2    1    2    0    0 +7.1054273576e-15 -2.6645352591e-15 +1.7763568394e-15 9.1188000000e+01 9.1188000000e+01 3.8749e-14 0.0000e+00
  9990012  2    3    3    0    0 +2.7798217211e+01 -7.9111412920e+00 +1.3468233930e+01 5.9301947221e+01 5.0000005824e+01 1.1558e-03 0.0000e+00
      -11  1    4    4    0    0 +9.0131391814e+00 +4.9279210145e+00 +4.2620445578e+00 1.1121425606e+01 5.1100000000e-04 0.0000e+00 1.0000e+00
       11  1    4    4    0    0 -8.2140784339e+00 +5.5996991120e+00 -6.5319267129e+00 1.1895115868e+01 5.1100000000e-04 0.0000e+00 -1.0000e+00
       12  1    4    4    0    0 +2.6999156463e+01 -1.8438761418e+01 +1.5738116085e+01 3.6285405748e+01 0.0000000000e+00 0.0000e+00 -1.0000e+00
      -12  1    3    3    0    0 -2.7798217211e+01 +7.9111412920e+00 -1.3468233930e+01 3.1886052779e+01 0.0000000000e+00 0.0000e+00 1.0000e+00
</event>
<event>
 8      4 +2.2883893e-04 9.11880000e+01 7.81616400e-03 1.18400000e-01
      -11 -1    0    0    0    0 +0.0000000000e+00 +0.0000000000e+00 +4.5593999997e+01 4.5594000000e+01 5.1100000000e-04 0.0000e+00 -1.0000e+00
       11 -1    0    0    0    0 -0.0000000000e+00 -0.0000000000e+00 -4.5593999997e+01 4.5594000000e+01 5.1100000000e-04 0.0000e+00 1.0000e+00
       23  2    1    2    0    0 -3.5527136788e-15 -1.7763568394e-15 +1.7763568394e-15 9.1188000000e+01 9.1188000000e+01 2.1474e-13 0.0000e+00
 -9990012  2    3    3    0    0 -2.5136253314e+01 -1.5075026260e+01 -1.2555258419e+01 5.9301919002e+01 4.9999954360e+01 3.0027e-03 0.0000e+00
      -11  1    4    4    0    0 -1.7207707022e+01 -3.3965310448e+00 -5.3269956173e+00 1.8330807038e+01 5.1100000000e-04 0.0000e+00 1.0000e+00
       11  1    4    4    0    0 -1.4391230779e+01 -5.2348293715e+00 +1.2152072201e+01 1.9549522269e+01 5.1100000000e-04 0.0000e+00 -1.0000e+00
      -12  1    4    4    0    0 +6.4626844868e+00 -6.4436658441e+00 -1.9380335003e+01 2.1421589696e+01 0.0000000000e+00 0.0000e+00 1.0000e+00
       12  1    3    3    0    0 +2.5136253314e+01 +1.5075026260e+01 +1.2555258419e+01 3.1886080998e+01 0.0000000000e+00 0.0000e+00 -1.0000e+00
</event>
<event>
 8      4 +2.2883893e-04 9.11880000e+01 7.81616400e-03 1.18400000e-01
      -11 -1    0    0    0    0 +0.0000000000e+00 +0.0000000000e+00 +4.5593999997e+01 4.5594000000e+01 5.1100000000e-04 0.0000e+00 -1.0000e+00
       11 -1    0    0    0    0 -0.0000000000e+00 -0.0000000000e+00 -4.5593999997e+01 4.5594000000e+01 5.1100000000e-04 0.0000e+00 1.0000e+00
       23  2    1    2    0    0 -1.7763568394e-15 +0.0000000000e+00 +0.0000000000e+00 9.1188000000e+01 9.1188000000e+01 1.4102e-13 0.0000e+00
 -9990012  2    3    3    0    0 +9.2367983656e+00 +2.7635338173e+01 -1.2949447251e+01 5.9301975725e+01 5.0000057808e+01 6.4704e-04 0.0000e+00
      -11  1    4    4    0    0 -4.9866885212e+00 +1.5197844544e+01 -1.1557255514e+01 1.9733517083e+01 5.1100000000e-04 0.0000e+00 1.0000e+00
       11  1    4    4    0    0 -9.1115291449e+00 +2.1070657662e+00 +8.0687864916e+00 1.2351720739e+01 5.1100000000e-04 0.0000e+00 -1.0000e+00
      -12  1    4    4    0    0 +2.3335016032e+01 +1.0330427863e+01 -9.4609782285e+00 2.7216737903e+01 0.0000000000e+00 0.0000e+00 1.0000e+00
       12  1    3    3    0    0 -9.2367983656e+00 -2.7635338173e+01 +1.2949447251e+01 3.1886024275e+01 0.0000000000e+00 0.0000e+00 -1.0000e+00
</event>
<event>
 8      4 +2.2883893e-04 9.11880000e+01 7.81616400e-03 1.18400000e-01
      -11 -1    0    0    0    0 +0.0000000000e+00 +0.0000000000e+00 +4.5593999997e+01 4.5594000000e+01 5.1100000000e-04 0.0000e+00 1.0000e+00
       11 -1    0    0    0    0 -0.0000000000e+00 -0.0000000000e+00 -4.5593999997e+01 4.5594000000e+01 5.1100000000e-04 0.0000e+00 -1.0000e+00
       23  2    1    2    0    0 +0.0000000000e+00 +0.0000000000e+00 +0.0000000000e+00 9.1188000000e+01 9.1188000000e+01 8.2461e-14 0.0000e+00
 -9990012  2    3    3    0    0 +2.8809367031e+00 +2.5371129637e+01 +1.9097798896e+01 5.9301953866e+01 5.0000017943e+01 4.7538e-04 0.0000e+00
      -11  1    4    4    0    0 +9.0615353298e+00 +1.5205589460e+01 +6.3767555452e+00 1.8814472751e+01 5.1100000000e-04 0.0000e+00 1.0000e+00
       11  1    4    4    0    0 +4.6558746834e+00 -8.7874773097e+00 -6.0966355699e+00 1.1664728547e+01 5.1100000000e-04 0.0000e+00 -1.0000e+00
      -12  1    4    4    0    0 -1.0836473310e+01 +1.8953017488e+01 +1.8817678921e+01 2.8822752569e+01 0.0000000000e+00 0.0000e+00 1.0000e+00
       12  1    3    3    0    0 -2.8809367031e+00 -2.5371129637e+01 -1.9097798896e+01 3.1886046134e+01 0.0000000000e+00 0.0000e+00 -1.0000e+00
</event>
<event>
 8      4 +2.2883893e-04 9.11880000e+01 7.81616400e-03 1.18400000e-01
      -11 -1    0    0    0    0 +0.0000000000e+00 +0.0000000000e+00 +4.5593999997e+01 4.5594000000e+01 5.1100000000e-04 0.0000e+00 -1.0000e+00
       11 -1    0    0    0    0 -0.0000000000e+00 -0.0000000000e+00 -4.5593999997e+01 4.5594000000e+01 5.1100000000e-04 0.0000e+00 1.0000e+00
       23  2    1    2    0    0 -8.8817841970e-16 +0.0000000000e+00 +0.0000000000e+00 9.1188000000e+01 9.1188000000e+01 1.9201e-13 0.0000e+00
 -9990012  2    3    3    0    0 +2.8898628583e+00 +2.9579104549e+01 -1.1551872927e+01 5.9301945033e+01 5.0000001833e+01 6.9946e-04 0.0000e+00
      -11  1    4    4    0    0 -9.3367019600e+00 +2.0789339053e+01 -2.4540002657e+01 3.3490033628e+01 5.1100000000e-04 0.0000e+00 1.0000e+00
       11  1    4    4    0    0 +1.1192720457e+01 +4.5796255210e+00 +1.6342531406e+01 2.0330476978e+01 5.1100000000e-04 0.0000e+00 -1.0000e+00
      -12  1    4    4    0    0 +1.0338443611e+00 +4.2101399748e+00 -3.3544016754e+00 5.4814344263e+00 0.0000000000e+00 0.0000e+00 1.0000e+00
       12  1    3    3    0    0 -2.8898628583e+00 -2.9579104549e+01 +1.1551872927e+01 3.1886054967e+01 0.0000000000e+00 0.0000e+00 -1.0000e+00
</event>
<event>
 8      3 +2.2883893e-04 9.11880000e+01 7.81616400e-03 1.18400000e-01
      -11 -1    0    0    0    0 +0.0000000000e+00 +0.0000000000e+00 +4.5593999997e+01 4.5594000000e+01 5.1100000000e-04 0.0000e+00 -1.0000e+00
       11 -1    0    0    0    0 -0.0000000000e+00 -0.0000000000e+00 -4.5593999997e+01 4.5594000000e+01 5.1100000000e-04 0.0000e+00 1.0000e+00
       23  2    1    2    0    0 +1.7763568394e-15 +3.5527136788e-15 +0.0000000000e+00 9.1188000000e+01 9.1188000000e+01 6.2753e-14 0.0000e+00
  9990012  2    3    3    0    0 -1.4738052875e+01 -2.6072777446e+01 +1.0941707279e+01 5.9301939025e+01 4.9999990877e+01 5.6657e-04 0.0000e+00
      -11  1    4    4    0    0 -5.6748905206e+00 +4.0889782349e+00 -8.6856488149e+00 1.1151888675e+01 5.1100000000e-04 0.0000e+00 -1.0000e+00
       11  1    4    4    0    0 -1.9930891036e+01 -1.9023754560e+01 +7.8951954300e+00 2.8661433428e+01 5.1100000000e-04 0.0000e+00 1.0000e+00
       12  1    4    4    0    0 +1.0867728682e+01 -1.1138001122e+01 +1.1732160664e+01 1.9488616922e+01 0.0000000000e+00 0.0000e+00 -1.0000e+00
      -12  1    3    3    0    0 +1.4738052875e+01 +2.6072777446e+01 -1.0941707279e+01 3.1886060975e+01 0.0000000000e+00 0.0000e+00 1.0000e+00
</event>
<event>
 8      4 +2.2883893e-04 9.11880000e+01 7.81616400e-03 1.18400000e-01
      -11 -1    0    0    0    0 +0.0000000000e+00 +0.0000000000e+00 +4.5593999997e+01 4.5594000000e+01 5.1100000000e-04 0.0000e+00 1.0000e+00
       11 -1    0    0    0    0 -0.0000000000e+00 -0.0000000000e+00 -4.5593999997e+01 4.5594000000e+01 5.1100000000e-04 0.0000e+00 -1.0000e+00
       23  2    1    2    0    0 +0.0000000000e+00 +0.0000000000e+00 +0.0000000000e+00 9.1188000000e+01 9.1188000000e+01 1.2265e-13 0.0000e+00
 -9990012  2    3    3    0    0 -2.4070038208e+01 +1.8684139807e+01 +9.3944856053e+00 5.9301950080e+01 5.0000011039e+01 3.7611e-03 0.0000e+00
      -11  1    4    4    0    0 -1.8719866719e+01 -3.4855380253e+00 +1.2395133892e+01 2.2720513413e+01 5.1100000000e-04 0.0000e+00 1.0000e+00
       11  1    4    4    0    0 -6.0883502309e+00 +2.8518541311e+01 +7.4957568587e-01 2.9170825683e+01 5.1100000000e-04 0.0000e+00 -1.0000e+00
      -12  1    4    4    0    0 +7.3817874194e-01 -6.3488634785e+00 -3.7502239721e+00 7.4106109845e+00 0.0000000000e+00 0.0000e+00 1.0000e+00
       12  1    3    3    0    0 +2.4070038208e+01 -1.8684139807e+01 -9.3944856053e+00 3.1886049920e+01 0.0000000000e+00 0.0000e+00 -1.0000e+00
</event>
<event>
 8      4 +2.2883893e-04 9.11880000e+01 7.81616400e-03 1.18400000e-01
      -11 -1    0    0    0    0 +0.0000000000e+00 +0.0000000000e+00 +4.5593999997e+01 4.5594000000e+01 5.1100000000e-04 0.0000e+00 -1.0000e+00
       11 -1    0    0    0    0 -0.0000000000e+00 -0.0000000000e+00 -4.5593999997e+01 4.5594000000e+01 5.1100000000e-04 0.0000e+00 1.0000e+00
       23  2    1    2    0    0 -9.9920072216e-16 -3.5527136788e-15 +3.5527136788e-15 9.1188000000e+01 9.1188000000e+01 2.6546e-14 0.0000e+00
 -9990012  2    3    3    0    0 -3.5479877976e-01 +2.6994867223e+01 -1.6966722571e+01 5.9301977775e+01 5.0000061547e+01 8.2107e-05 0.0000e+00
      -11  1    4    4    0    0 +2.3829279310e+00 +2.2895683111e+01 -9.6523505374e+00 2.4961140235e+01 5.1100000000e-04 0.0000e+00 1.0000e+00
       11  1    4    4    0    0 -9.2178162106e+00 -8.5871157241e+00 -1.3802589646e+01 1.8687380056e+01 5.1100000000e-04 0.0000e+00 -1.0000e+00
      -12  1    4    4    0    0 +6.4800894998e+00 +1.2686299836e+01 +6.4882176122e+00 1.5653457485e+01 0.0000000000e+00 0.0000e+00 1.0000e+00
       12  1    3    3    0    0 +3.5479877976e-01 -2.6994867223e+01 +1.6966722571e+01 3.1886022225e+01 0.0000000000e+00 0.0000e+00 -1.0000e+00
</event>
<event>
 8      4 +2.2883893e-04 9.11880000e+01 7.81616400e-03 1.18400000e-01
      -11 -1    0    0    0    0 +0.0000000000e+00 +0.0000000000e+00 +4.5593999997e+01 4.5594000000e+01 5.1100000000e-04 0.0000e+00 1.0000e+00
       11 -1    0    0    0    0 -0.0000000000e+00 -0.0000000000e+00 -4.5593999997e+01 4.5594000000e+01 5.1100000000e-04 0.0000e+00 -1.0000e+00
       23  2    1    2    0    0 +0.0000000000e+00 -3.5527136788e-15 -3.5527136788e-15 9.1188000000e+01 9.1188000000e+01 2.5862e-14 0.0000e+00
 -9990012  2    3    3    0    0 -1.4526426663e+01 -1.9716574595e+01 +2.0419589152e+01 5.9301952793e+01 5.0000015985e+01 6.6813e-04 0.0000e+00
      -11  1    4    4    0    0 +7.5413208723e+00 +8.6579236248e+00 -4.5527946398e+00 1.2351481745e+01 5.1100000000e-04 0.0000e+00 1.0000e+00
       11  1    4    4    0    0 -2.4396500689e+00 -1.0427144935e+01 +3.6245748697e-01 1.0714878424e+01 5.1100000000e-04 0.0000e+00 -1.0000e+00
      -12  1    4    4    0    0 -1.9628097466e+01 -1.7947353285e+01 +2.4609926305e+01 3.6235592624e+01 0.0000000000e+00 0.0000e+00 1.0000e+00
       12  1    3    3    0    0 +1.4526426663e+01 +1.9716574595e+01 -2.0419589152e+01 3.1886047207e+01 0.0000000000e+00 0.0000e+00 -1.0000e+00
</event>
<event>
 8      3 +2.2883893e-04 9.11880000e+01 7.81616400e-03 1.18400000e-01
      -11 -1    0    0    0    0 +0.0000000000e+00 +0.0000000000e+00 +4.5593999997e+01 4.5594000000e+01 5.1100000000e-04 0.0000e+00 1.0000e+00
       11 -1    0    0    0    0 -0.0000000000e+00 -0.0000000000e+00 -4.5593999997e+01 4.5594000000e+01 5.1100000000e-04 0.0000e+00 -1.0000e+00
       23  2    1    2    0    0 +0.0000000000e+00 +0.0000000000e+00 -8.8817841970e-16 9.1188000000e+01 9.1188000000e+01 2.0815e-13 0.0000e+00
  9990012  2    3    3    0    0 +2.9013269449e+01 +1.3211507668e+01 -6.3765712605e-01 5.9301947475e+01 5.0000006288e+01 4.0646e-03 0.0000e+00
      -11  1    4    4    0    0 -8.8421155842e+00 +8.7814213003e+00 +7.1598057886e+00 1.4372167103e+01 5.1100000000e-04 0.0000e+00 1.0000e+00
       11  1    4    4    0    0 +1.1449921991e+01 -2.2102439967e+00 +7.3381782658e+00 1.3778053297e+01 5.1100000000e-04 0.0000e+00 -1.0000e+00
       12  1    4    4    0    0 +2.6405463042e+01 +6.6403303649e+00 -1.5135641180e+01 3.1151727075e+01 0.0000000000e+00 0.0000e+00 -1.0000e+00
      -12  1    3    3    0    0 -2.9013269449e+01 -1.3211507668e+01 +6.3765712605e-01 3.1886052525e+01 0.0000000000e+00 0.0000e+00 1.0000e+00
</event>
<event>
 8      4 +2.2883893e-04 9.11880000e+01 7.81616400e-03 1.18400000e-01
      -11 -1    0    0    0    0 +0.0000000000e+00 +0.0000000000e+00 +4.5593999997e+01 4.5594000000e+01 5.1100000000e-04 0.0000e+00 -1.0000e+00
       11 -1    0    0    0    0 -0.0000000000e+00 -0.0000000000e+00 -4.5593999997e+01 4.5594000000e+01 5.1100000000e-04 0.0000e+00 1.0000e+00
       23  2    1    2    0    0 +7.1054273576e-15 -1.7763568394e-15 +0.0000000000e+00 9.1188000000e+01 9.1188000000e+01 1.8880e-13 0.0000e+00
 -9990012  2    3    3    0    0 -2.0596213922e+01 -1.8460045180e+00 -2.4271535518e+01 5.9301965486e+01 5.0000039136e+01 2.6539e-04 0.0000e+00
      -11  1    4    4    0    0 +6.4241488445e+00 +7.9265623363e+00 -1.9172142500e+01 2.1717990863e+01 5.1100000000e-04 0.0000e+00 1.0000e+00
       11  1    4    4    0    0 -7.0472615786e+00 +7.5463015587e+00 +1.2370518118e+00 1.0399079787e+01 5.1100000000e-04 0.0000e+00 -1.0000e+00
      -12  1    4    4    0    0 -1.9973101187e+01 -1.7318868413e+01 -6.3364448301e+00 2.7184894836e+01 0.0000000000e+00 0.0000e+00 1.0000e+00
       12  1    3    3    0    0 +2.0596213922e+01 +1.8460045180e+00 +2.4271535518e+01 3.1886034514e+01 0.0000000000e+00 0.0000e+00 -1.0000e+00
</event>
<event>
 8      3 +2.2883893e-04 9.11880000e+01 7.81616400e-03 1.18400000e-01
      -11 -1    0    0    0    0 +0.0000000000e+00 +0.0000000000e+00 +4.5593999997e+01 4.5594000000e+01 5.1100000000e-04 0.0000e+00 1.0000e+00
       11 -1    0    0    0    0 -0.0000000000e+00 -0.0000000000e+00 -4.5593999997e+01 4.5594000000e+01 5.1100000000e-04 0.0000e+00 -1.0000e+00
       23  2    1    2    0    0 +3.5527136788e-15 +0.0000000000e+00 -3.5527136788e-15 9.1188000000e+01 9.1188000000e+01 1.1865e-13 0.0000e+00
  9990012  2    3    3    0    0 -1.6580165279e+01 -1.8291196851e+01 -2.0180479933e+01 5.9301928852e+01 4.9999972323e+01 3.9272e-04 0.0000e+00
      -11  1    4    4    0    0 +4.8754295957e+00 -5.9432475914e+00 -9.0454080504e+00 1.1870611304e+01 5.1100000000e-04 0.0000e+00 1.0000e+00
       11  1    4    4    0    0 -2.7867376870e+01 -3.9233425455e+00 -1.9246494312e+01 3.4094146916e+01 5.1100000000e-04 0.0000e+00 -1.0000e+00
       12  1    4    4    0    0 +6.4117819958e+00 -8.4246067145e+00 +8.1114224291e+00 1.3337170632e+01 0.0000000000e+00 0.0000e+00 -1.0000e+00
      -12  1    3    3    0    0 +1.6580165279e+01 +1.8291196851e+01 +2.0180479933e+01 3.1886071148e+01 0.0000000000e+00 0.0000e+00 1.0000e+00
</event>
<event>
 8      4 +2.2883893e-04 9.11880000e+01 7.81616400e-03 1.18400000e-01
      -11 -1    0    0    0    0 +0.0000000000e+00 +0.0000000000e+00 +4.5593999997e+01 4.5594000000e+01 5.1100000000e-04 0.0000e+00 1.0000e+00
       11 -1    0    0    0    0 -0.0000000000e+00 -0.0000000000e+00 -4.5593999997e+01 4.5594000000e+01 5.1100000000e-04 0.0000e+00 -1.0000e+00
       23  2    1    2    0    0 +1.7763568394e-15 +1.7763568394e-15 +0.0000000000e+00 9.1188000000e+01 9.1188000000e+01 4.2631e-14 0.0000e+00
 -9990012  2    3    3    0    0 -1.5279145571e+01 +9.1269598448e+00 +2.6456859147e+01 5.9301967300e+01 5.0000042443e+01 1.0825e-03 0.0000e+00
      -11  1    4    4    0    0 -1.4553643387e+01 -3.9077411792e+00 +2.2230469796e+01 2.6856521826e+01 5.1100000000e-04 0.0000e+00 1.0000e+00
       11  1    4    4    0    0 -1.0466044466e+01 +1.7003077644e+01 -2.2517495601e+00 2.0092613382e+01 5.1100000000e-04 0.0000e+00 -1.0000e+00
      -12  1    4    4    0    0 +9.7405422826e+00 -3.9683766204e+00 +6.4781389117e+00 1.2352832093e+01 0.0000000000e+00 0.0000e+00 1.0000e+00
       12  1    3    3    0    0 +1.5279145571e+01 -9.1269598448e+00 -2.6456859147e+01 3.1886032700e+01 0.0000000000e+00 0.0000e+00 -1.0000e+00
</event>
<event>
 8      4 +2.2883893e-04 9.11880000e+01 7.81616400e-03 1.18400000e-01
      -11 -1    0    0    0    0 +0.0000000000e+00 +0.0000000000e+00 +4.5593999997e+01 4.5594000000e+01 5.1100000000e-04 0.0000e+00 -1.0000e+00
       11 -1    0    0    0    0 -0.0000000000e+00 -0.0000000000e+00 -4.5593999997e+01 4.5594000000e+01 5.1100000000e-04 0.0000e+00 1.0000e+00
       23  2    1    2    0    0 +3.5527136788e-15 +0.0000000000e+00 -1.3322676296e-15 9.1188000000e+01 9.1188000000e+01 5.5075e-14 0.0000e+00
 -9990012  2    3    3    0    0 -1.7782378456e+01 +2.6315014399e+01 -2.8333214346e+00 5.9301942283e+01 4.9999996819e+01 1.5806e-03 0.0000e+00
      -11  1    4    4    0    0 +9.2185895442e+00 +2.5661463798e+00 +3.4007428437e+00 1.0155419862e+01 5.1100000000e-04 0.0000e+00 -1.0000e+00
       11  1    4    4    0    0 -1.5988745670e+01 +6.7261477526e+00 -1.8572545294e+01 2.5412998458e+01 5.1100000000e-04 0.0000e+00 1.0000e+00
      -12  1    4    4    0    0 -1.1012222330e+01 +1.7022720266e+01 +1.2338481016e+01 2.3733523963e+01 0.0000000000e+00 0.0000e+00 1.0000e+00
       12  1    3    3    0    0 +1.7782378456e+01 -2.6315014399e+01 +2.8333214346e+00 3.1886057717e+01 0.0000000000e+00 0.0000e+00 -1.0000e+00
</event>
<event>
 8      3 +2.2883893e-04 9.11880000e+01 7.81616400e-03 1.18400000e-01
      -11 -1    0    0    0    0 +0.0000000000e+00 +0.0000000000e+00 +4.5593999997e+01 4.5594000000e+01 5.1100000000e-04 0.0000e+00 -1.0000e+00
       11 -1    0    0    0    0 -0.0000000000e+00 -0.0000000000e+00 -4.5593999997e+01 4.5594000000e+01 5.1100000000e-04 0.0000e+00 1.0000e+00
       23  2    1    2    0    0 -3.5527136788e-15 +0.0000000000e+00 +0.0000000000e+00 9.1188000000e+01 9.1188000000e+01 7.3159e-14 0.0000e+00
  9990012  2    3    3    0    0 +2.1964612049e+01 -1.2778695138e+01 +1.9260923467e+01 5.9301915187e+01 4.9999947402e+01 1.2066e-04 0.0000e+00
      -11  1    4    4    0    0 +2.9573312915e+00 +8.8627961790e+00 +7.3071307592e+00 1.1861244651e+01 5.1100000000e-04 0.0000e+00 1.0000e+00
       11  1    4    4    0    0 +4.6126263501e+00 -2.9238669200e+01 +8.5736429726e+00 3.0816934508e+01 5.1100000000e-04 0.0000e+00 -1.0000e+00
       12  1    4    4    0    0 +1.4394654408e+01 +7.5971778824e+00 +3.3801497350e+00 1.6623736028e+01 0.0000000000e+00 0.0000e+00 -1.0000e+00
      -12  1    3    3    0    0 -2.1964612049e+01 +1.2778695138e+01 -1.9260923467e+01 3.1886084813e+01 0.0000000000e+00 0.0000e+00 1.0000e+00
</event>
<event>
 8      4 +2.2883893e-04 9.11880000e+01 7.81616400e-03 1.18400000e-01
      -11 -1    0    0    0    0 +0.0000000000e+00 +0.0000000000e+00 +4.5593999997e+01 4.5594000000e+01 5.1100000000e-04 0.0000e+00 -1.0000e+00
       11 -1    0    0    0    0 -0.0000000000e+00 -0.0000000000e+00 -4.5593999997e+01 4.5594000000e+01 5.1100000000e-04 0.0000e+00 1.0000e+00
       23  2    1    2    0    0 -2.1094237468e-15 -4.4408920985e-16 +3.5527136788e-15 9.1188000000e+01 9.1188000000e+01 1.1303e-14 0.0000e+00
 -9990012  2    3    3    0    0 +6.2873380893e-01 -2.8876622645e+00 -3.1748807793e+01 5.9301941983e+01 4.9999996271e+01 3.4557e-04 0.0000e+00
      -11  1    4    4    0    0 -1.3680606465e+01 +9.6101365363e+00 +3.2532783011e+00 1.7032249924e+01 5.1100000000e-04 0.0000e+00 1.0000e+00
       11  1    4    4    0    0 -2.2932163498e+00 +5.0631169276e-01 -5.7240282399e+00 6.1870584537e+00 5.1100000000e-04 0.0000e+00 -1.0000e+00
      -12  1    4    4    0    0 +1.6602556624e+01 -1.3004110494e+01 -2.9278057855e+01 3.6082633606e+01 0.0000000000e+00 0.0000e+00 1.0000e+00
       12  1    3    3    0    0 -6.2873380893e-01 +2.8876622645e+00 +3.1748807793e+01 3.1886058017e+01 0.0000000000e+00 0.0000e+00 -1.0000e+00
</event>
<event>
 8      4 +2.2883893e-04 9.11880000e+01 7.81616400e-03 1.18400000e-01
      -11 -1    0    0    0    0 +0.0000000000e+00 +0.0000000000e+00 +4.5593999997e+01 4.5594000000e+01 5.1100000000e-04 0.0000e+00 1.0000e+00
       11 -1    0    0    0    0 -0.0000000000e+00 -0.0000000000e+00 -4.5593999997e+01 4.5594000000e+01 5.1100000000e-04 0.0000e+00 -1.0000e+00
       23  2    1    2    0    0 +0.0000000000e+00 +0.0000000000e+00 +0.0000000000e+00 9.1188000000e+01 9.1188000000e+01 4.6378e-14 0.0000e+00
 -9990012  2    3    3    0    0 -2.2250534686e+01 -1.6285298344e+01 +1.6013155723e+01 5.9301978106e+01 5.0000062151e+01 3.6239e-04 0.0000e+00
      -11  1    4    4    0    0 +1.2077709974e+01 +1.3032659177e+00 +1.3876074655e+01 1.8442207795e+01 5.1100000000e-04 0.0000e+00 1.0000e+00
       11  1    4    4    0    0 -1.0853662398e+01 -1.2469871777e+01 -1.3279192561e+00 1.6585025155e+01 5.1100000000e-04 0.0000e+00 -1.0000e+00
      -12  1    4    4    0    0 -2.3474582262e+01 -5.1186924845e+00 +3.4650003243e+00 2.4274745156e+01 0.0000000000e+00 0.0000e+00 1.0000e+00
       12  1    3    3    0    0 +2.2250534686e+01 +1.6285298344e+01 -1.6013155723e+01 3.1886021894e+01 0.0000000000e+00 0.0000e+00 -1.0000e+00
</event>
<event>
 8      4 +2.2883893e-04 9.11880000e+01 7.81616400e-03 1.18400000e-01
      -11 -1    0    0    0    0 +0.0000000000e+00 +0.0000000000e+00 +4.5593999997e+01 4.5594000000e+01 5.1100000000e-04 0.0000e+00 -1.0000e+00
       11 -1    0    0    0    0 -0.0000000000e+00 -0.0000000000e+00 -4.5593999997e+01 4.5594000000e+01 5.1100000000e-04 0.0000e+00 1.0000e+00
       23  2    1    2    0    0 -1.7763568394e-15 +1.7763568394e-15 +0.0000000000e+00 9.1188000000e+01 9.1188000000e+01 2.6014e-14 0.0000e+00
 -9990012  2    3    3    0    0 +1.2864613350e+01 -1.2502698198e+01 -2.6361154695e+01 5.9301855427e+01 4.9999838414e+01 2.4112e-03 0.0000e+00
      -11  1    4    4    0    0 +4.4427633924e-01 -1.2811312795e-01 +6.8473251471e+00 6.8629189395e+00 5.1100000000e-04 0.0000e+00 1.0000e+00
       11  1    4    4    0    0 +1.7276395592e+01 +2.4178633770e+00 -1.9955935072e+00 1.7558539280e+01 5.1100000000e-04 0.0000e+00 -1.0000e+00
      -12  1    4    4    0    0 -4.8560585812e+00 -1.4792448447e+01 -3.1212886335e+01 3.4880397208e+01 0.0000000000e+00 0.0000e+00 1.0000e+00
       12  1    3    3    0    0 -1.2864613350e+01 +1.2502698198e+01 +2.6361154695e+01 3.1886144573e+01 0.0000000000e+00 0.0000e+00 -1.0000e+00
</event>
<event>
 8      4 +2.2883893e-04 9.11880000e+01 7.81616400e-03 1.18400000e-01
      -11 -1    0    0    0    0 +0.0000000000e+00 +0.0000000000e+00 +4.5593999997e+01 4.5594000000e+01 5.1100000000e-04 0.0000e+00 -1.0000e+00
       11 -1    0    0    0    0 -0.0000000000e+00 -0.0000000000e+00 -4.5593999997e+01 4.5594000000e+01 5.1100000000e-04 0.0000e+00 1.0000e+00
       23  2    1    2    0    0 +3.5527136788e-15 +0.0000000000e+00 -1.7763568394e-15 9.1188000000e+01 9.1188000000e+01 5.9349e-14 0.0000e+00
 -9990012  2    3    3    0    0 -2.8614304608e+01 +3.9279773451e+00 -1.3510197559e+01 5.9301751047e+01 4.9999648048e+01 1.0046e-03 0.0000e+00
      -11  1    4    4    0    0 -1.0859427153e+00 -1.2944496189e+01 -9.4488380267e+00 1.6062994536e+01 5.1100000000e-04 0.0000e+00 1.0000e+00
       11  1    4    4    0    0 -3.2846569004e+01 +1.1159263950e+01 -5.8795186517e-01 3.4695416915e+01 5.1100000000e-04 0.0000e+00 -1.0000e+00
      -12  1    4    4    0    0 +5.3182071118e+00 +5.7132095833e+00 -3.4734076672e+00 8.5433395958e+00 0.0000000000e+00 0.0000e+00 1.0000e+00
       12  1    3    3    0    0 +2.8614304608e+01 -3.9279773451e+00 +1.3510197559e+01 3.1886248953e+01 0.0000000000e+00 0.0000e+00 -1.0000e+00
</event>
<event>
 8      3 +2.2883893e-04 9.11880000e+01 7.81616400e-03 1.18400000e-01
      -11 -1    0    0    0    0 +0.0000000000e+00 +0.0000000000e+00 +4.5593999997e+01 4.5594000000e+01 5.1100000000e-04 0.0000e+00 -1.0000e+00
       11 -1    0    0    0    0 -0.0000000000e+00 -0.0000000000e+00 -4.5593999997e+01 4.5594000000e+01 5.1100000000e-04 0.0000e+00 1.0000e+00
       23  2    1    2    0    0 +3.5527136788e-15 +0.0000000000e+00 +0.0000000000e+00 9.1188000000e+01 9.1188000000e+01 1.5843e-14 0.0000e+00
  9990012  2    3    3    0    0 +2.1170867756e+01 -1.8316711670e+01 +1.5265012525e+01 5.9301824699e+01 4.9999782373e+01 4.7651e-03 0.0000e+00
      -11  1    4    4    0    0 -3.0418461257e+00 -7.4472603206e+00 -1.2715212420e+01 1.5046299920e+01 5.1100000000e-04 0.0000e+00 1.0000e+00
       11  1    4    4    0    0 +2.3960245138e+00 -1.0606833622e+01 +3.4099762762e+00 1.1396218295e+01 5.1100000000e-04 0.0000e+00 -1.0000e+00
       12  1    4    4    0    0 +2.1816689368e+01 -2.6261772687e-01 +2.4570248668e+01 3.2859306485e+01 0.0000000000e+00 0.0000e+00 -1.0000e+00
      -12  1    3    3    0    0 -2.1170867756e+01 +1.8316711670e+01 -1.5265012525e+01 3.1886175301e+01 0.0000000000e+00 0.0000e+00 1.0000e+00
</event>
<event>
 8      3 +2.2883893e-04 9.11880000e+01 7.81616400e-03 1.18400000e-01
      -11 -1    0    0    0    0 +0.0000000000e+00 +0.0000000000e+00 +4.5593999997e+01 4.5594000000e+01 5.1100000000e-04 0.0000e+00 -1.0000e+00
       11 -1    0    0    0    0 -0.0000000000e+00 -0.0000000000e+00 -4.5593999997e+01 4.5594000000e+01 5.1100000000e-04 0.0000e+00 1.0000e+00
       23  2    1    2    0    0 -1.7763568394e-15 +0.0000000000e+00 +0.0000000000e+00 9.1188000000e+01 9.1188000000e+01 9.7443e-14 0.0000e+00
  9990012  2    3    3    0    0 +1.5101393299e+01 +8.0195640655e+00 +2.6913848068e+01 5.9301941836e+01 4.9999996003e+01 6.0787e-03 0.0000e+00
      -11  1    4    4    0    0 -8.2595281837e+00 -4.3995041586e+00 +1.6979063193e+01 1.9387213050e+01 5.1100000000e-04 0.0000e+00 1.0000e+00
       11  1    4    4    0    0 +6.5921221668e+00 -8.1073942527e+00 +8.3260062356e+00 1.3360699695e+01 5.1100000000e-04 0.0000e+00 -1.0000e+00
       12  1    4    4    0    0 +1.6768799316e+01 +2.0526462477e+01 +1.6087786397e+00 2.6554029092e+01 0.0000000000e+00 0.0000e+00 -1.0000e+00
      -12  1    3    3    0    0 -1.5101393299e+01 -8.0195640655e+00 -2.6913848068e+01 3.1886058164e+01 0.0000000000e+00 0.0000e+00 1.0000e+00
</event>
<event>
 8      3 +2.2883893e-04 9.11880000e+01 7.81616400e-03 1.18400000e-01
      -11 -1    0    0    0    0 +0.0000000000e+00 +0.0000000000e+00 +4.5593999997e+01 4.5594000000e+01 5.1100000000e-04 0.0000e+00 1.0000e+00
       11 -1    0    0    0    0 -0.0000000000e+00 -0.0000000000e+00 -4.5593999997e+01 4.5594000000e+01 5.1100000000e-04 0.0000e+00 -1.0000e+00
       23  2    1    2    0    0 -8.8817841970e-16 +0.0000000000e+00 +0.0000000000e+00 9.1188000000e+01 9.1188000000e+01 4.5956e-15 0.0000e+00
  9990012  2    3    3    0    0 -7.1379300091e+00 +1.3648697646e+01 -2.7919299553e+01 5.9301885784e+01 4.9999893778e+01 2.1415e-03 0.0000e+00
      -11  1    4    4    0    0 -2.3965484177e+01 +5.5888576673e+00 -1.1430314999e+01 2.7133592890e+01 5.1100000000e-04 0.0000e+00 1.0000e+00
       11  1    4    4    0    0 -1.3558033742e+00 +5.0085141852e+00 -1.2172330236e+01 1.3232121552e+01 5.1100000000e-04 0.0000e+00 -1.0000e+00
       12  1    4    4    0    0 +1.8183357542e+01 +3.0513257933e+00 -4.3166543179e+00 1.8936171342e+01 0.0000000000e+00 0.0000e+00 -1.0000e+00
      -12  1    3    3    0    0 +7.1379300091e+00 -1.3648697646e+01 +2.7919299553e+01 3.1886114216e+01 0.0000000000e+00 0.0000e+00 1.0000e+00
</event>
<event>
 8      3 +2.2883893e-04 9.11880000e+01 7.81616400e-03 1.18400000e-01
      -11 -1    0    0    0    0 +0.0000000000e+00 +0.0000000000e+00 +4.5593999997e+01 4.5594000000e+01 5.1100000000e-04 0.0000e+00 -1.0000e+00
       11 -1    0    0    0    0 -0.0000000000e+00 -0.0000000000e+00 -4.5593999997e+01 4.5594000000e+01 5.1100000000e-04 0.0000e+00 1.0000e+00
       23  2    1    2    0    0 -8.8817841970e-16 -3.5527136788e-15 -1.7763568394e-15 9.1188000000e+01 9.1188000000e+01 9.9163e-14 0.0000e+00
  9990012  2    3    3    0    0 -1.0410002908e+00 +3.0962709115e+01 +7.5463237248e+00 5.9301952281e+01 5.0000015052e+01 1.3920e-04 0.0000e+00
      -11  1    4    4    0    0 +9.2033811605e-01 -1.2207995050e+01 +4.9741682859e+00 1.3214556965e+01 5.1100000000e-04 0.0000e+00 1.0000e+00
       11  1    4    4    0    0 +5.9996634629e+00 +2.8971930829e+01 +3.4402749499e+00 2.9785973706e+01 5.1100000000e-04 0.0000e+00 -1.0000e+00
       12  1    4    4    0    0 -7.9610018698e+00 +1.4198773336e+01 -8.6811951104e-01 1.6301421610e+01 0.0000000000e+00 0.0000e+00 -1.0000e+00
      -12  1    3    3    0    0 +1.0410002908e+00 -3.0962709115e+01 -7.5463237248e+00 3.1886047719e+01 0.0000000000e+00 0.0000e+00 1.0000e+00
</event>
<event>
 8      4 +2.2883893e-04 9.11880000e+01 7.81616400e-03 1.18400000e-01
      -11 -1    0    0    0    0 +0.0000000000e+00 +0.0000000000e+00 +4.5593999997e+01 4.5594000000e+01 5.1100000000e-04 0.0000e+00 1.0000e+00
       11 -1    0    0    0    0 -0.0000000000e+00 -0.0000000000e+00 -4.5593999997e+01 4.5594000000e+01 5.1100000000e-04 0.0000e+00 -1.0000e+00
       23  2    1    2    0    0 +0.0000000000e+00 -1.7763568394e-15 +0.0000000000e+00 9.1188000000e+01 9.1188000000e+01 3.5784e-14 0.0000e+00
 -9990012  2    3    3    0    0 +2.6754167840e+01 +3.9707436070e+00 +1.6886895360e+01 5.9301960163e+01 5.0000029426e+01 6.6825e-04 0.0000e+00
      -11  1    4    4    0    0 +1.7720144457e+01 +1.8353203741e+01 +2.8486973503e+01 3.8240701703e+01 5.1100000000e-04 0.0000e+00 1.0000e+00
       11  1    4    4    0    0 +4.4886720046e+00 -3.4903497620e+00 -2.7927181967e+00 6.3348238345e+00 5.1100000000e-04 0.0000e+00 -1.0000e+00
      -12  1    4    4    0    0 +4.5453513790e+00 -1.0892110372e+01 -8.8073599469e+00 1.4726434625e+01 0.0000000000e+00 0.0000e+00 1.0000e+00
       12  1    3    3    0    0 -2.6754167840e+01 -3.9707436070e+00 -1.6886895360e+01 3.1886039837e+01 0.0000000000e+00 0.0000e+00 -1.0000e+00
</event>
<event>
 8      4 +2.2883893e-04 9.11880000e+01 7.81616400e-03 1.18400000e-01
      -11 -1    0    0    0    0 +0.0000000000e+00 +0.0000000000e+00 +4.5593999997e+01 4.5594000000e+01 5.1100000000e-04 0.0000e+00 1.0000e+00
       11 -1    0    0    0    0 -0.0000000000e+00 -0.0000000000e+00 -4.5593999997e+01 4.5594000000e+01 5.1100000000e-04 0.0000e+00 -1.0000e+00
       23  2    1    2    0    0 +0.0000000000e+00 -1.7763568394e-15 +0.0000000000e+00 9.1188000000e+01 9.1188000000e+01 9.2171e-14 0.0000e+00
 -9990012  2    3    3    0    0 +1.0329766247e+01 +1.1332220130e+01 +2.7956996213e+01 5.9302001176e+01 5.0000104224e+01 4.4126e-04 0.0000e+00
      -11  1    4    4    0    0 +1.2701184365e+01 -2.9567392637e+00 +4.9897822990e+00 1.3962819164e+01 5.1100000000e-04 0.0000e+00 1.0000e+00
       11  1    4    4    0    0 -1.0258088779e+01 -6.9092753505e+00 +1.8548502381e+01 2.2293797615e+01 5.1100000000e-04 0.0000e+00 -1.0000e+00
      -12  1    4    4    0    0 +7.8866706607e+00 +2.1198234744e+01 +4.4187115331e+00 2.3045384397e+01 0.0000000000e+00 0.0000e+00 1.0000e+00
       12  1    3    3    0    0 -1.0329766247e+01 -1.1332220130e+01 -2.7956996213e+01 3.1885998824e+01 0.0000000000e+00 0.0000e+00 -1.0000e+00
</event>
<event>
 8      4 +2.2883893e-04 9.11880000e+01 7.81616400e-03 1.18400000e-01
      -11 -1    0    0    0    0 +0.0000000000e+00 +0.0000000000e+00 +4.5593999997e+01 4.5594000000e+01 5.1100000000e-04 0.0000e+00 1.0000e+00
       11 -1    0    0    0    0 -0.0000000000e+00 -0.0000000000e+00 -4.5593999997e+01 4.5594000000e+01 5.1100000000e-04 0.0000e+00 -1.0000e+00
       23  2    1    2    0    0 +3.5527136788e-15 +8.8817841970e-16 -1.7763568394e-15 9.1188000000e+01 9.1188000000e+01 1.0108e-13 0.0000e+00
 -9990012  2    3    3    0    0 -2.7514292304e+01 -6.3991850691e+00 +1.4789659414e+01 5.9301954837e+01 5.0000019713e+01 1.8571e-03 0.0000e+00
      -11  1    4    4    0    0 -1.1385561737e+01 -9.8289277630e+00 +1.5025171745e+01 2.1260165175e+01 5.1100000000e-04 0.0000e+00 1.0000e+00
       11  1    4    4    0    0 +1.5834446411e+00 -1.3272072319e+01 -2.4776986961e+00 1.3593902738e+01 5.1100000000e-04 0.0000e+00 -1.0000e+00
      -12  1    4    4    0    0 -1.7712175209e+01 +1.6701815012e+01 +2.2421863655e+00 2.4447886924e+01 0.0000000000e+00 0.0000e+00 1.0000e+00
       12  1    3    3    0    0 +2.7514292304e+01 +6.3991850691e+00 -1.4789659414e+01 3.1886045163e+01 0.0000000000e+00 0.0000e+00 -1.0000e+00
</event>
<event>
 8      3 +2.2883893e-04 9.11880000e+01 7.81616400e-03 1.18400000e-01
      -11 -1    0    0    0    0 +0.0000000000e+00 +0.0000000000e+00 +4.5593999997e+01 4.5594000000e+01 5.1100000000e-04 0.0000e+00 1.0000e+00
       11 -1    0    0    0    0 -0.0000000000e+00 -0.0000000000e+00 -4.5593999997e+01 4.5594000000e+01 5.1100000000e-04 0.0000e+00 -1.0000e+00
       23  2    1    2    0    0 +0.0000000000e+00 -4.4408920985e-15 +1.7763568394e-15 9.1188000000e+01 9.1188000000e+01 7.5170e-14 0.0000e+00
  9990012  2    3    3    0    0 +3.0933383303e+01 -7.4486063371e+00 +2.0879804284e+00 5.9302021871e+01 5.0000141968e+01 2.1740e-03 0.0000e+00
      -11  1    4    4    0    0 +7.0213603180e+00 +5.3338628093e+00 +8.2335631077e+00 1.2064043886e+01 5.1100000000e-04 0.0000e+00 1.0000e+00
       11  1    4    4    0    0 +1.0106868911e+01 -2.5398822031e+01 +6.3983575054e-01 2.7343341965e+01 5.1100000000e-04 0.0000e+00 -1.0000e+00
       12  1    4    4    0    0 +1.3805154074e+01 +1.2616352885e+01 -6.7854184298e+00 1.9894636020e+01 0.0000000000e+00 0.0000e+00 -1.0000e+00
      -12  1    3    3    0    0 -3.0933383303e+01 +7.4486063371e+00 -2.0879804284e+00 3.1885978129e+01 0.0000000000e+00 0.0000e+00 1.0000e+00
</event>
<event>
 8      4 +2.2883893e-04 9.11880000e+01 7.81616400e-03 1.18400000e-01
      -11 -1    0    0    0    0 +0.0000000000e+00 +0.0000000000e+00 +4.5593999997e+01 4.5594000000e+01 5.1100000000e-04 0.0000e+00 -1.0000e+00
       11 -1    0    0    0    0 -0.0000000000e+00 -0.0000000000e+00 -4.5593999997e+01 4.5594000000e+01 5.1100000000e-04 0.0000e+00 1.0000e+00
       23  2    1    2    0    0 -8.8817841970e-16 +0.0000000000e+00 +0.0000000000e+00 9.1188000000e+01 9.1188000000e+01 1.2733e-13 0.0000e+00
 -9990012  2    3    3    0    0 +5.6343013913e+00 -3.0803315015e+01 +6.0101057785e+00 5.9302094971e+01 5.0000275283e+01 5.8709e-04 0.0000e+00
      -11  1    4    4    0    0 +1.9931736457e+00 -1.3162608929e+01 +3.3609646175e-01 1.3316905650e+01 5.1100000000e-04 0.0000e+00 1.0000e+00
       11  1    4    4    0    0 -1.8029725977e+01 -8.7165710168e-01 +4.2647862812e+00 1.8547754775e+01 5.1100000000e-04 0.0000e+00 -1.0000e+00
      -12  1    4    4    0    0 +2.1670853723e+01 -1.6769048984e+01 +1.4092230355e+00 2.7437434546e+01 0.0000000000e+00 0.0000e+00 1.0000e+00
       12  1    3    3    0    0 -5.6343013913e+00 +3.0803315015e+01 -6.0101057785e+00 3.1885905029e+01 0.0000000000e+00 0.0000e+00 -1.0000e+00
</event>
<event>
 8      3 +2.2883893e-04 9.11880000e+01 7.81616400e-03 1.18400000e-01
      -11 -1    0    0    0    0 +0.0000000000e+00 +0.0000000000e+00 +4.5593999997e+01 4.5594000000e+01 5.1100000000e-04 0.0000e+00 1.0000e+00
       11 -1    0    0    0    0 -0.0000000000e+00 -0.0000000000e+00 -4.5593999997e+01 4.5594000000e+01 5.1100000000e-04 0.0000e+00 -1.0000e+00
       23  2    1    2    0    0 +0.0000000000e+00 -1.7763568394e-15 -3.5527136788e-15 9.1188000000e+01 9.1188000000e+01 1.6659e-13 0.0000e+00
  9990012  2    3    3    0    0 +1.7267504914e+01 +4.3723004434e+00 -2.6446882165e+01 5.9301932300e+01 4.9999978612e+01 9.1903e-05 0.0000e+00
      -11  1    4    4    0    0 -6.7553907698e+00 -1.2723128070e+01 -3.3395792874e-01 1.4409192222e+01 5.1100000000e-04 0.0000e+00 1.0000e+00
       11  1    4    4    0    0 +1.2465883272e+01 -2.0372751957e+00 -3.5230248579e+00 1.3113368765e+01 5.1100000000e-04 0.0000e+00 -1.0000e+00
       12  1    4    4    0    0 +1.1557012412e+01 +1.9132703709e+01 -2.2589899378e+01 3.1779371313e+01 0.0000000000e+00 0.0000e+00 -1.0000e+00
      -12  1    3    3    0    0 -1.7267504914e+01 -4.3723004434e+00 +2.6446882165e+01 3.1886067700e+01 0.0000000000e+00 0.0000e+00 1.0000e+00
</event>
<event>
 8      3 +2.2883893e-04 9.11880000e+01 7.81616400e-03 1.18400000e-01
      -11 -1    0    0    0    0 +0.0000000000e+00 +0.0000000000e+00 +4.5593999997e+01 4.5594000000e+01 5.1100000000e-04 0.0000e+00 1.0000e+00
       11 -1    0    0    0    0 -0.0000000000e+00 -0.0000000000e+00 -4.5593999997e+01 4.5594000000e+01 5.1100000000e-04 0.0000e+00 -1.0000e+00
       23  2    1    2    0    0 -3.5527136788e-15 +0.0000000000e+00 +1.7763568394e-15 9.1188000000e+01 9.1188000000e+01 8.0412e-14 0.0000e+00
  9990012  2    3    3    0    0 -2.9363076404e+01 +2.3506660662e+00 -1.2206783126e+01 5.9301930296e+01 4.9999974957e+01 5.5367e-04 0.0000e+00
      -11  1    4    4    0    0 -7.6581807704e+00 -7.3446467964e+00 +6.8755891370e+00 1.2643784857e+01 5.1100000000e-04 0.0000e+00 1.0000e+00
       11  1    4    4    0    0 -2.9093068058e+00 +6.9525407906e+00 +9.6317549711e+00 1.2229987474e+01 5.1100000000e-04 0.0000e+00 -1.0000e+00
       12  1    4    4    0    0 -1.8795588828e+01 +2.7427720720e+00 -2.8714127234e+01 3.4428157965e+01 0.0000000000e+00 0.0000e+00 -1.0000e+00
      -12  1    3    3    0    0 +2.9363076404e+01 -2.3506660662e+00 +1.2206783126e+01 3.1886069704e+01 0.0000000000e+00 0.0000e+00 1.0000e+00
</event>
<event>
 8      4 +2.2883893e-04 9.11880000e+01 7.81616400e-03 1.18400000e-01
      -11 -1    0    0    0    0 +0.0000000000e+00 +0.0000000000e+00 +4.5593999997e+01 4.5594000000e+01 5.1100000000e-04 0.0000e+00 1.0000e+00
       11 -1    0    0    0    0 -0.0000000000e+00 -0.0000000000e+00 -4.5593999997e+01 4.5594000000e+01 5.1100000000e-04 0.0000e+00 -1.0000e+00
       23  2    1    2    0    0 +0.0000000000e+00 +0.0000000000e+00 +3.5527136788e-15 9.1188000000e+01 9.1188000000e+01 2.5219e-14 0.0000e+00
 -9990012  2    3    3    0    0 +2.6701897077e+01 +3.6386958442e+00 +1.7043735514e+01 5.9301947638e+01 5.0000006585e+01 6.6986e-04 0.0000e+00
      -11  1    4    4    0    0 +2.4768852067e+01 +8.4050099255e+00 +7.2929965828e+00 2.7153784709e+01 5.1100000000e-04 0.0000e+00 -1.0000e+00
       11  1    4    4    0    0 +3.3980724068e+00 +1.0263082495e+01 -4.1918076096e+00 1.1595214947e+01 5.1100000000e-04 0.0000e+00 1.0000e+00
      -12  1    4    4    0    0 -1.4650273975e+00 -1.5029396576e+01 +1.3942546541e+01 2.0552947982e+01 0.0000000000e+00 0.0000e+00 1.0000e+00
       12  1    3    3    0    0 -2.6701897077e+01 -3.6386958442e+00 -1.7043735514e+01 3.1886052362e+01 0.0000000000e+00 0.0000e+00 -1.0000e+00
</event>
<event>
 8      3 +2.2883893e-04 9.11880000e+01 7.81616400e-03 1.18400000e-01
      -11 -1    0    0    0    0 +0.0000000000e+00 +0.0000000000e+00 +4.5593999997e+01 4.5594000000e+01 5.1100000000e-04 0.0000e+00 -1.0000e+00
       11 -1    0    0    0    0 -0.0000000000e+00 -0.0000000000e+00 -4.5593999997e+01 4.5594000000e+01 5.1100000000e-04 0.0000e+00 1.0000e+00
       23  2    1    2    0    0 +0.0000000000e+00 -3.5527136788e-15 +1.7763568394e-15 9.1188000000e+01 9.1188000000e+01 1.4840e-13 0.0000e+00
  9990012  2    3    3    0    0 +1.8196631236e+01 -2.3475580985e+01 +1.1597383250e+01 5.9301959337e+01 5.0000027921e+01 2.6750e-03 0.0000e+00
      -11  1    4    4    0    0 +4.6594098542e+00 -1.6119543137e+01 -5.7116154887e+00 1.7724906851e+01 5.1100000000e-04 0.0000e+00 1.0000e+00
       11  1    4    4    0    0 -6.3148162146e+00 -5.3328167982e+00 -6.4974893751e+00 1.0513477411e+01 5.1100000000e-04 0.0000e+00 -1.0000e+00
       12  1    4    4    0    0 +1.9852037596e+01 -2.0232210495e+00 +2.3806488114e+01 3.1063575075e+01 0.0000000000e+00 0.0000e+00 -1.0000e+00
      -12  1    3    3    0    0 -1.8196631236e+01 +2.3475580985e+01 -1.1597383250e+01 3.1886040663e+01 0.0000000000e+00 0.0000e+00 1.0000e+00
</event>
<event>
 8      4 +2.2883893e-04 9.11880000e+01 7.81616400e-03 1.18400000e-01
      -11 -1    0    0    0    0 +0.0000000000e+00 +0.0000000000e+00 +4.5593999997e+01 4.5594000000e+01 5.1100000000e-04 0.0000e+00 1.0000e+00
       11 -1    0    0    0    0 -0.0000000000e+00 -0.0000000000e+00 -4.5593999997e+01 4.5594000000e+01 5.1100000000e-04 0.0000e+00 -1.0000e+00
       23  2    1    2    0    0 +0.0000000000e+00 -3.5527136788e-15 +4.4408920985e-16 9.1188000000e+01 9.1188000000e+01 3.2550e-14 0.0000e+00
 -9990012  2    3    3    0    0 -1.5092812188e+01 +2.7995840455e+01 +2.2717600996e+00 5.9301937896e+01 4.9999988818e+01 1.7096e-03 0.0000e+00
      -11  1    4    4    0    0 -9.7677481958e-01 +1.4961233580e+01 +2.2166708273e+01 2.6761082848e+01 5.1100000000e-04 0.0000e+00 1.0000e+00
       11  1    4    4    0    0 -1.5010257550e+01 +3.2218961026e+00 -1.5280112387e+01 2.1660338894e+01 5.1100000000e-04 0.0000e+00 -1.0000e+00
      -12  1    4    4    0    0 +8.9422018104e-01 +9.8127107724e+00 -4.6148357869e+00 1.0880516154e+01 0.0000000000e+00 0.0000e+00 1.0000e+00
       12  1    3    3    0    0 +1.5092812188e+01 -2.7995840455e+01 -2.2717600996e+00 3.1886062104e+01 0.0000000000e+00 0.0000e+00 -1.0000e+00
</event>
<event>
 8      3 +2.2883893e-04 9.11880000e+01 7.81616400e-03 1.18400000e-01
      -11 -1    0    0    0    0 +0.0000000000e+00 +0.0000000000e+00 +4.5593999997e+01 4.5594000000e+01 5.1100000000e-04 0.0000e+00 1.0000e+00
       11 -1    0    0    0    0 -0.0000000000e+00 -0.0000000000e+00 -4.5593999997e+01 4.5594000000e+01 5.1100000000e-04 0.0000e+00 -1.0000e+00
       23  2    1    2    0    0 +8.8817841970e-16 +0.0000000000e+00 -3.5527136788e-15 9.1188000000e+01 9.1188000000e+01 7.0432e-14 0.0000e+00
  9990012  2    3    3    0    0 +4.6891087213e+00 -2.1674938370e+01 -2.2911363915e+01 5.9301932661e+01 4.9999979269e+01 7.5259e-04 0.0000e+00
      -11  1    4    4    0    0 -1.4398893531e+01 -1.4906718726e+01 -6.9941633370e+00 2.1873653539e+01 5.1100000000e-04 0.0000e+00 1.0000e+00
       11  1    4    4    0    0 +2.4833777088e+01 -5.0928037247e+00 -6.3344199948e+00 2.6130021262e+01 5.1100000000e-04 0.0000e+00 -1.0000e+00
       12  1    4    4    0    0 -5.7457748357e+00 -1.6754159188e+00 -9.5827805830e+00 1.1298257860e+01 0.0000000000e+00 0.0000e+00 -1.0000e+00
      -12  1    3    3    0    0 -4.6891087213e+00 +2.1674938370e+01 +2.2911363915e+01 3.1886067339e+01 0.0000000000e+00 0.0000e+00 1.0000e+00
</event>
<event>
 8      4 +2.2883893e-04 9.11880000e+01 7.81616400e-03 1.18400000e-01
      -11 -1    0    0    0    0 +0.0000000000e+00 +0.0000000000e+00 +4.5593999997e+01 4.5594000000e+01 5.1100000000e-04 0.0000e+00 -1.0000e+00
       11 -1    0    0    0    0 -0.0000000000e+00 -0.0000000000e+00 -4.5593999997e+01 4.5594000000e+01 5.1100000000e-04 0.0000e+00 1.0000e+00
       23  2    1    2    0    0 +0.0000000000e+00 +8.8817841970e-16 +0.0000000000e+00 9.1188000000e+01 9.1188000000e+01 1.7495e-14 0.0000e+00
 -9990012  2    3    3    0    0 -2.7138445284e+01 -6.8644280621e+00 +1.5267757397e+01 5.9301952879e+01 5.0000016143e+01 2.9303e-03 0.0000e+00
      -11  1    4    4    0    0 -1.4868530689e+01 -9.9047341401e+00 +1.2498361261e+01 2.1803348314e+01 5.1100000000e-04 0.0000e+00 1.0000e+00
       11  1    4    4    0    0 -8.1483192324e+00 -1.2061407916e+01 +1.2398126345e+01 1.9120308689e+01 5.1100000000e-04 0.0000e+00 -1.0000e+00
      -12  1    4    4    0    0 -4.1215953628e+00 +1.5101713994e+01 -9.6287302095e+00 1.8378295877e+01 0.0000000000e+00 0.0000e+00 1.0000e+00
       12  1    3    3    0    0 +2.7138445284e+01 +6.8644280621e+00 -1.5267757397e+01 3.1886047121e+01 0.0000000000e+00 0.0000e+00 -1.0000e+00
</event>
<event>
 8      4 +2.2883893e-04 9.11880000e+01 7.81616400e-03 1.18400000e-01
      -11 -1    0    0    0    0 +0.0000000000e+00 +0.0000000000e+00 +4.5593999997e+01 4.5594000000e+01 5.1100000000e-04 0.0000e+00 1.0000e+00
       11 -1    0    0    0    0 -0.0000000000e+00 -0.0000000000e+00 -4.5593999997e+01 4.5594000000e+01 5.1100000000e-04 0.0000e+00 -1.0000e+00
       23  2    1    2    0    0 +8.8817841970e-16 +3.5527136788e-15 +0.0000000000e+00 9.1188000000e+01 9.1188000000e+01 1.4757e-14 0.0000e+00
 -9990012  2    3    3    0    0 +2.1856886430e+00 +2.7441519059e+01 +1.6090569318e+01 5.9301943109e+01 4.9999998324e+01 6.3853e-05 0.0000e+00
      -11  1    4    4    0    0 +8.6514651596e-01 -4.0151335537e+00 -4.1198723354e+00 5.8174843591e+00 5.1100000000e-04 0.0000e+00 1.0000e+00
       11  1    4    4    0    0 -1.3358633311e+01 -1.0168323595e+00 +8.9454697271e+00 1.6109266305e+01 5.1100000000e-04 0.0000e+00 -1.0000e+00
      -12  1    4    4    0    0 +1.4679175438e+01 +3.2473484972e+01 +1.1264971926e+01 3.7375192445e+01 0.0000000000e+00 0.0000e+00 1.0000e+00
       12  1    3    3    0    0 -2.1856886430e+00 -2.7441519059e+01 -1.6090569318e+01 3.1886056891e+01 0.0000000000e+00 0.0000e+00 -1.0000e+00
</event>
<event>
 8      3 +2.2883893e-04 9.11880000e+01 7.81616400e-03 1.18400000e-01
      -11 -1    0    0    0    0 +0.0000000000e+00 +0.0000000000e+00 +4.5593999997e+01 4.5594000000e+01 5.1100000000e-04 0.0000e+00 -1.0000e+00
       11 -1    0    0    0    0 -0.0000000000e+00 -0.0000000000e+00 -4.5593999997e+01 4.5594000000e+01 5.1100000000e-04 0.0000e+00 1.0000e+00
       23  2    1    2    0    0 +1.9984014443e-15 -8.8817841970e-16 -3.5527136788e-15 9.1188000000e+01 9.1188000000e+01 1.7507e-13 0.0000e+00
  9990012  2    3    3    0    0 -8.2504826482e-01 +6.3929790616e+00 +3.1227708344e+01 5.9301942635e+01 4.9999997459e+01 4.1585e-04 0.0000e+00
      -11  1    4    4    0    0 +2.6854110312e+00 +1.2249550506e+01 -2.2853366376e+00 1.2746987245e+01 5.1100000000e-04 0.0000e+00 1.0000e+00
       11  1    4    4    0    0 +1.4060379798e+01 -3.2495841570e+00 +1.7032744450e+01 2.2324167645e+01 5.1100000000e-04 0.0000e+00 -1.0000e+00
       12  1    4    4    0    0 -1.7570839094e+01 -2.6069872874e+00 +1.6480300531e+01 2.4230787745e+01 0.0000000000e+00 0.0000e+00 -1.0000e+00
      -12  1    3    3    0    0 +8.2504826482e-01 -6.3929790616e+00 -3.1227708344e+01 3.1886057365e+01 0.0000000000e+00 0.0000e+00 1.0000e+00
</event>
<event>
 8      3 +2.2883893e-04 9.11880000e+01 7.81616400e-03 1.18400000e-01
      -11 -1    0    0    0    0 +0.0000000000e+00 +0.0000000000e+00 +4.5593999997e+01 4.5594000000e+01 5.1100000000e-04 0.0000e+00 1.0000e+00
       11 -1    0    0    0    0 -0.0000000000e+00 -0.0000000000e+00 -4.5593999997e+01 4.5594000000e+01 5.1100000000e-04 0.0000e+00 -1.0000e+00
       23  2    1    2    0    0 +0.0000000000e+00 +0.0000000000e+00 +3.5527136788e-15 9.1188000000e+01 9.1188000000e+01 1.0955e-13 0.0000e+00
  9990012  2    3    3    0    0 -2.4548166321e+00 +1.6169423910e+01 -2.7372332310e+01 5.9301937678e+01 4.9999988420e+01 3.8386e-03 0.0000e+00
      -11  1    4    4    0    0 -4.6134044030e+00 +1.5094395086e+01 +4.7754901369e+00 1.6490287126e+01 5.1100000000e-04 0.0000e+00 1.0000e+00
       11  1    4    4    0    0 +7.1196199663e+00 -2.5706279042e+00 +2.2266663735e+00 7.8901938941e+00 5.1100000000e-04 0.0000e+00 -1.0000e+00
       12  1    4    4    0    0 -4.9610321954e+00 +3.6456567282e+00 -3.4374488821e+01 3.4921456658e+01 0.0000000000e+00 0.0000e+00 -1.0000e+00
      -12  1    3    3    0    0 +2.4548166321e+00 -1.6169423910e+01 +2.7372332310e+01 3.1886062322e+01 0.0000000000e+00 0.0000e+00 1.0000e+00
</event>
<event>
 8      3 +2.2883893e-04 9.11880000e+01 7.81616400e-03 1.18400000e-01
      -11 -1    0    0    0    0 +0.0000000000e+00 +0.0000000000e+00 +4.5593999997e+01 4.5594000000e+01 5.1100000000e-04 0.0000e+00 -1.0000e+00
       11 -1    0    0    0    0 -0.0000000000e+00 -0.0000000000e+00 -4.5593999997e+01 4.5594000000e+01 5.1100000000e-04 0.0000e+00 1.0000e+00
       23  2    1    2    0    0 +0.0000000000e+00 -3.5527136788e-15 +0.0000000000e+00 9.1188000000e+01 9.1188000000e+01 1.5542e-13 0.0000e+00
  9990012  2    3    3    0    0 -2.4944334456e+01 -1.8326740585e+01 +7.6571153225e+00 5.9301942593e+01 4.9999997383e+01 1.8431e-03 0.0000e+00
      -11  1    4    4    0    0 +3.4956896456e+00 -2.8227712947e+00 +6.6181588804e+00 7.9992444085e+00 5.1100000000e-04 0.0000e+00 1.0000e+00
       11  1    4    4    0    0 -4.3135843514e+00 -2.4369360396e+01 -4.1133465188e+00 2.5087693315e+01 5.1100000000e-04 0.0000e+00 -1.0000e+00
       12  1    4    4    0    0 -2.4126439750e+01 +8.8653911053e+00 +5.1523029609e+00 2.6215004869e+01 0.0000000000e+00 0.0000e+00 -1.0000e+00
      -12  1    3    3    0    0 +2.4944334456e+01 +1.8326740585e+01 -7.6571153225e+00 3.1886057407e+01 0.0000000000e+00 0.0000e+00 1.0000e+00
</event>
<event>
 8      3 +2.2883893e-04 9.11880000e+01 7.81616400e-03 1.18400000e-01
      -11 -1    0    0    0    0 +0.0000000000e+00 +0.0000000000e+00 +4.5593999997e+01 4.5594000000e+01 5.1100000000e-04 0.0000e+00 1.0000e+00
       11 -1    0    0    0    0 -0.0000000000e+00 -0.0000000000e+00 -4.5593999997e+01 4.5594000000e+01 5.1100000000e-04 0.0000e+00 -1.0000e+00
       23  2    1    2    0    0 -1.7763568394e-15 -8.8817841970e-16 +0.0000000000e+00 9.1188000000e+01 9.1188000000e+01 1.2353e-13 0.0000e+00
  9990012  2    3    3    0    0 -1.4021053222e+01 +1.9456555871e+00 -2.8571741510e+01 5.9301954118e+01 5.0000018401e+01 5.8400e-03 0.0000e+00
      -11  1    4    4    0    0 -3.0782046809e+00 -1.2370352472e+01 -7.4981933049e-01 1.2769619948e+01 5.1100000000e-04 0.0000e+00 1.0000e+00
       11  1    4    4    0    0 -1.2027161239e+01 +2.1085272227e+01 -8.0003452330e+00 2.5558693950e+01 5.1100000000e-04 0.0000e+00 -1.0000e+00
       12  1    4    4    0    0 +1.0843126973e+00 -6.7692641683e+00 -1.9821576946e+01 2.0973640219e+01 0.0000000000e+00 0.0000e+00 -1.0000e+00
      -12  1    3    3    0    0 +1.4021053222e+01 -1.9456555871e+00 +2.8571741510e+01 3.1886045882e+01 0.0000000000e+00 0.0000e+00 1.0000e+00
</event>
<event>
 8      4 +2.2883893e-04 9.11880000e+01 7.81616400e-03 1.18400000e-01
      -11 -1    0    0    0    0 +0.0000000000e+00 +0.0000000000e+00 +4.5593999997e+01 4.5594000000e+01 5.1100000000e-04 0.0000e+00 1.0000e+00
       11 -1    0    0    0    0 -0.0000000000e+00 -0.0000000000e+00 -4.5593999997e+01 4.5594000000e+01 5.1100000000e-04 0.0000e+00 -1.0000e+00
       23  2    1    2    0    0 +0.0000000000e+00 +4.4408920985e-16 +0.0000000000e+00 9.1188000000e+01 9.1188000000e+01 3.0015e-15 0.0000e+00
 -9990012  2    3    3    0    0 -3.0246097826e+01 -2.7207296707e+00 +9.7206967401e+00 5.9301941154e+01 4.9999994758e+01 1.1514e-03 0.0000e+00
      -11  1    4    4    0    0 -3.0061433316e+01 -7.6650704483e-01 +1.9202748580e+01 3.5679445895e+01 5.1100000000e-04 0.0000e+00 1.0000e+00
       11  1    4    4    0    0 +1.0340612186e+01 +1.4109872860e+00 -3.2227533880e+00 1.0922695875e+01 5.1100000000e-04 0.0000e+00 -1.0000e+00
      -12  1    4    4    0    0 -1.0525276697e+01 -3.3652099118e+00 -6.2592984523e+00 1.2699799384e+01 0.0000000000e+00 0.0000e+00 1.0000e+00
       12  1    3    3    0    0 +3.0246097826e+01 +2.7207296707e+00 -9.7206967401e+00 3.1886058846e+01 0.0000000000e+00 0.0000e+00 -1.0000e+00
</event>
<event>
 8      3 +2.2883893e-04 9.11880000e+01 7.81616400e-03 1.18400000e-01
      -11 -1    0    0    0    0 +0.0000000000e+00 +0.0000000000e+00 +4.5593999997e+01 4.5594000000e+01 5.1100000000e-04 0.0000e+00 -1.0000e+00
       11 -1    0    0    0    0 -0.0000000000e+00 -0.0000000000e+00 -4.5593999997e+01 4.5594000000e+01 5.1100000000e-04 0.0000e+00 1.0000e+00
       23  2    1    2    0    0 -3.5527136788e-15 +3.5527136788e-15 +3.5527136788e-15 9.1188000000e+01 9.1188000000e+01 3.4437e-14 0.0000e+00
  9990012  2    3    3    0    0 -9.2973170910e+00 +1.5962222616e+01 +2.5990142439e+01 5.9301950387e+01 5.0000011597e+01 1.4931e-04 0.0000e+00
      -11  1    4    4    0    0 -1.3538020844e+01 +2.4297694799e+00 +2.9111859772e+00 1.4059046630e+01 5.1100000000e-04 0.0000e+00 1.0000e+00
       11  1    4    4    0    0 +1.4486574636e+00 +1.7462064309e+01 -3.8047970555e+00 1.7930387036e+01 5.1100000000e-04 0.0000e+00 -1.0000e+00
       12  1    4    4    0    0 +2.7920462892e+00 -3.9296111722e+00 +2.6883753517e+01 2.7312516721e+01 0.0000000000e+00 0.0000e+00 -1.0000e+00
      -12  1    3    3    0    0 +9.2973170910e+00 -1.5962222616e+01 -2.5990142439e+01 3.1886049613e+01 0.0000000000e+00 0.0000e+00 1.0000e+00
</event>
<event>
 8      3 +2.2883893e-04 9.11880000e+01 7.81616400e-03 1.18400000e-01
      -11 -1    0    0    0    0 +0.0000000000e+00 +0.0000000000e+00 +4.5593999997e+01 4.5594000000e+01 5.1100000000e-04 0.0000e+00 1.0000e+00
       11 -1    0    0    0    0 -0.0000000000e+00 -0.0000000000e+00 -4.5593999997e+01 4.5594000000e+01 5.1100000000e-04 0.0000e+00 -1.0000e+00
       23  2    1    2    0    0 +0.0000000000e+00 -2.6645352591e-15 +0.0000000000e+00 9.1188000000e+01 9.1188000000e+01 1.2203e-13 0.0000e+00
  9990012  2    3    3    0    0 -2.2743208423e+01 +6.8696757462e+00 -2.1266741449e+01 5.9301948722e+01 5.0000008561e+01 2.9316e-04 0.0000e+00
      -11  1    4    4    0    0 +1.6032366476e+00 -3.2663375475e+00 +2.4188543084e+00 4.3692316429e+00 5.1100000000e-04 0.0000e+00 1.0000e+00
       11  1    4    4    0    0 -2.5418571307e+01 +2.1926752055e+01 -6.7050014592e+00 3.4232196362e+01 5.1100000000e-04 0.0000e+00 -1.0000e+00
       12  1    4    4    0    0 +1.0721262360e+00 -1.1790738761e+01 -1.6980594299e+01 2.0700520716e+01 0.0000000000e+00 0.0000e+00 -1.0000e+00
      -12  1    3    3    0    0 +2.2743208423e+01 -6.8696757462e+00 +2.1266741449e+01 3.1886051278e+01 0.0000000000e+00 0.0000e+00 1.0000e+00
</event>
<event>
 8      4 +2.2883893e-04 9.11880000e+01 7.81616400e-03 1.18400000e-01
      -11 -1    0    0    0    0 +0.0000000000e+00 +0.0000000000e+00 +4.5593999997e+01 4.5594000000e+01 5.1100000000e-04 0.0000e+00 1.0000e+00
       11 -1    0    0    0    0 -0.0000000000e+00 -0.0000000000e+00 -4.5593999997e+01 4.5594000000e+01 5.1100000000e-04 0.0000e+00 -1.0000e+00
       23  2    1    2    0    0 -3.5527136788e-15 +1.7763568394e-15 +1.7763568394e-15 9.1188000000e+01 9.1188000000e+01 2.1416e-14 0.0000e+00
 -9990012  2    3    3    0    0 -2.7143822607e+01 +1.1288573281e+01 +1.2349169642e+01 5.9301937476e+01 4.9999988051e+01 2.0851e-04 0.0000e+00
      -11  1    4    4    0    0 +5.3669075046e+00 -3.3007486198e+00 +9.1103847855e+00 1.1076901589e+01 5.1100000000e-04 0.0000e+00 1.0000e+00
       11  1    4    4    0    0 -6.1720152246e+00 +1.5310140150e+01 -9.4062843437e+00 1.8999272322e+01 5.1100000000e-04 0.0000e+00 -1.0000e+00
      -12  1    4    4    0    0 -2.6338714887e+01 -7.2081824937e-01 +1.2645069201e+01 2.9225763565e+01 0.0000000000e+00 0.0000e+00 1.0000e+00
       12  1    3    3    0    0 +2.7143822607e+01 -1.1288573281e+01 -1.2349169642e+01 3.1886062524e+01 0.0000000000e+00 0.0000e+00 -1.0000e+00
</event>
<event>
 8      3 +2.2883893e-04 9.11880000e+01 7.81616400e-03 1.18400000e-01
      -11 -1    0    0    0    0 +0.0000000000e+00 +0.0000000000e+00 +4.5593999997e+01 4.5594000000e+01 5.1100000000e-04 0.0000e+00 1.0000e+00
       11 -1    0    0    0    0 -0.0000000000e+00 -0.0000000000e+00 -4.5593999997e+01 4.5594000000e+01 5.1100000000e-04 0.0000e+00 -1.0000e+00
       23  2    1    2    0    0 +0.0000000000e+00 -7.1054273576e-15 -1.7763568394e-15 9.1188000000e+01 9.1188000000e+01 1.9537e-13 0.0000e+00
  9990012  2    3    3    0    0 +6.1311215210e+00 -3.0927915408e+01 -4.7532555647e+00 5.9301952251e+01 5.0000014997e+01 2.2167e-03 0.0000e+00
      -11  1    4    4    0    0 +1.1611688479e+00 -2.6778834998e+01 -5.4291632128e+00 2.7348311290e+01 5.1100000000e-04 0.0000e+00 -1.0000e+00
       11  1    4    4    0    0 +1.4027201668e+01 -1.2596189273e+01 +3.6823050675e+00 1.9209001580e+01 5.1100000000e-04 0.0000e+00 1.0000e+00
       12  1    4    4    0    0 -9.0572489949e+00 +8.4471088632e+00 -3.0063974194e+00 1.2744639381e+01 0.0000000000e+00 0.0000e+00 -1.0000e+00
      -12  1    3    3    0    0 -6.1311215210e+00 +3.0927915408e+01 +4.7532555647e+00 3.1886047749e+01 0.0000000000e+00 0.0000e+00 1.0000e+00
</event>
<event>
 8      4 +2.2883893e-04 9.11880000e+01 7.81616400e-03 1.18400000e-01
      -11 -1    0    0    0    0 +0.0000000000e+00 +0.0000000000e+00 +4.5593999997e+01 4.5594000000e+01 5.1100000000e-04 0.0000e+00 -1.0000e+00
       11 -1    0    0    0    0 -0.0000000000e+00 -0.0000000000e+00 -4.5593999997e+01 4.5594000000e+01 5.1100000000e-04 0.0000e+00 1.0000e+00
       23  2    1    2    0    0 +1.7763568394e-15 -8.8817841970e-16 +0.0000000000e+00 9.1188000000e+01 9.1188000000e+01 5.8304e-14 0.0000e+00
 -9990012  2    3    3    0    0 -9.1855046665e+00 -7.7988717839e+00 -2.9521601447e+01 5.9301939580e+01 4.9999991889e+01 3.8550e-05 0.0000e+00
      -11  1    4    4    0    0 +1.0829102642e+01 -7.3006846030e+00 -3.1497207550e+01 3.4097559200e+01 5.1100000000e-04 0.0000e+00 1.0000e+00
       11  1    4    4    0    0 -1.0701207681e+01 +7.2796333537e+00 +2.2283751782e-01 1.2944441448e+01 5.1100000000e-04 0.0000e+00 -1.0000e+00
      -12  1    4    4    0    0 -9.3133996276e+00 -7.7778205346e+00 +1.7527685851e+00 1.2259938932e+01 0.0000000000e+00 0.0000e+00 1.0000e+00
       12  1    3    3    0    0 +9.1855046665e+00 +7.7988717839e+00 +2.9521601447e+01 3.1886060420e+01 0.0000000000e+00 0.0000e+00 -1.0000e+00
</event>
<event>
 7      4 +2.2883893e-04 5.93020000e+01 7.81616400e-03 1.26660500e-01
      -11 -1    0    0    0    0 +0.0000000000e+00 +0.0000000000e+00 +4.5593999997e+01 4.5594000000e+01 5.1100000000e-04 0.0000e+00 1.0000e+00
       11 -1    0    0    0    0 -0.0000000000e+00 -0.0000000000e+00 -4.5593999997e+01 4.5594000000e+01 5.1100000000e-04 0.0000e+00 -1.0000e+00
 -9990012  2    1    2    0    0 +2.1004859223e+01 +1.7906259025e+01 +1.5964926676e+01 5.9301998259e+01 5.0000098905e+01 2.3446e-03 0.0000e+00
      -11  1    3    3    0    0 -9.3313599776e-01 +2.1766239903e+01 +1.2015014978e+01 2.4879721209e+01 5.1100000000e-04 0.0000e+00 1.0000e+00
       11  1    3    3    0    0 +2.4088364530e+01 -1.2840480802e+00 -5.1998410170e+00 2.4676637374e+01 5.1100000000e-04 0.0000e+00 -1.0000e+00
      -12  1    3    3    0    0 -2.1503693093e+00 -2.5759327976e+00 +9.1497527154e+00 9.7456396761e+00 0.0000000000e+00 0.0000e+00 1.0000e+00
       12  1    1    2    0    0 -2.1004859223e+01 -1.7906259025e+01 -1.5964926676e+01 3.1886001741e+01 0.0000000000e+00 0.0000e+00 -1.0000e+00
</event>
<event>
 8      4 +2.2883893e-04 9.11880000e+01 7.81616400e-03 1.18400000e-01
      -11 -1    0    0    0    0 +0.0000000000e+00 +0.0000000000e+00 +4.5593999997e+01 4.5594000000e+01 5.1100000000e-04 0.0000e+00 1.0000e+00
       11 -1    0    0    0    0 -0.0000000000e+00 -0.0000000000e+00 -4.5593999997e+01 4.5594000000e+01 5.1100000000e-04 0.0000e+00 -1.0000e+00
       23  2    1    2    0    0 +3.5527136788e-15 +0.0000000000e+00 +0.0000000000e+00 9.1188000000e+01 9.1188000000e+01 5.5942e-14 0.0000e+00
 -9990012  2    3    3    0    0 +1.4103378334e+01 +5.7654480257e-01 +2.8591667091e+01 5.9301935467e+01 4.9999984388e+01 2.4513e-03 0.0000e+00
      -11  1    4    4    0    0 +6.2732096117e+00 +1.3272752864e-01 -1.0918007420e+00 6.3688935107e+00 5.1100000000e-04 0.0000e+00 1.0000e+00
       11  1    4    4    0    0 -1.1984563270e+01 +3.4433666538e+00 -4.5428726272e+00 1.3271180153e+01 5.1100000000e-04 0.0000e+00 -1.0000e+00
      -12  1    4    4    0    0 +1.9814731993e+01 -2.9995493799e+00 +3.4226340460e+01 3.9661861803e+01 0.0000000000e+00 0.0000e+00 1.0000e+00
       12  1    3    3    0    0 -1.4103378334e+01 -5.7654480257e-01 -2.8591667091e+01 3.1886064533e+01 0.0000000000e+00 0.0000e+00 -1.0000e+00
</event>
<event>
 8      4 +2.2883893e-04 9.11880000e+01 7.81616400e-03 1.18400000e-01
      -11 -1    0    0    0    0 +0.0000000000e+00 +0.0000000000e+00 +4.5593999997e+01 4.5594000000e+01 5.1100000000e-04 0.0000e+00 -1.0000e+00
       11 -1    0    0    0    0 -0.0000000000e+00 -0.0000000000e+00 -4.5593999997e+01 4.5594000000e+01 5.1100000000e-04 0.0000e+00 1.0000e+00
       23  2    1    2    0    0 +0.0000000000e+00 +0.0000000000e+00 +0.0000000000e+00 9.1188000000e+01 9.1188000000e+01 4.0180e-14 0.0000e+00
 -9990012  2    3    3    0    0 +2.1208787257e+01 +8.2157674039e+00 +2.2347454671e+01 5.9301949426e+01 5.0000009844e+01 1.9371e-03 0.0000e+00
      -11  1    4    4    0    0 +1.2392396548e+01 -1.5255601826e+01 +2.9977475820e+00 1.9881935773e+01 5.1100000000e-04 0.0000e+00 1.0000e+00
       11  1    4    4    0    0 +1.6547383018e+00 -6.3565349223e-01 +1.3479639042e+01 1.3595693552e+01 5.1100000000e-04 0.0000e+00 -1.0000e+00
      -12  1    4    4    0    0 +7.1616524078e+00 +2.4107022722e+01 +5.8700680470e+00 2.5824320100e+01 0.0000000000e+00 0.0000e+00 1.0000e+00
       12  1    3    3    0    0 -2.1208787257e+01 -8.2157674039e+00 -2.2347454671e+01 3.1886050574e+01 0.0000000000e+00 0.0000e+00 -1.0000e+00
</event>
<event>
 8      3 +2.2883893e-04 9.11880000e+01 7.81616400e-03 1.18400000e-01
      -11 -1    0    0    0    0 +0.0000000000e+00 +0.0000000000e+00 +4.5593999997e+01 4.5594000000e+01 5.1100000000e-04 0.0000e+00 -1.0000e+00
       11 -1    0    0    0    0 -0.0000000000e+00 -0.0000000000e+00 -4.5593999997e+01 4.5594000000e+01 5.1100000000e-04 0.0000e+00 1.0000e+00
       23  2    1    2    0    0 +0.0000000000e+00 -2.2204460493e-15 +0.0000000000e+00 9.1188000000e+01 9.1188000000e+01 2.6393e-14 0.0000e+00
  9990012  2    3    3    0    0 +2.9782332848e+01 -3.0348412046e+00 +1.0978279315e+01 5.9301949324e+01 5.0000009658e+01 3.0132e-03 0.0000e+00
      -11  1    4    4    0    0 +1.8509579691e+00 -1.1919417735e+01 -1.0995973321e-01 1.2062779777e+01 5.1100000000e-04 0.0000e+00 1.0000e+00
       11  1    4    4    0    0 -5.4158571701e+00 -7.0984642879e+00 +1.7463772837e+00 9.0977765422e+00 5.1100000000e-04 0.0000e+00 -1.0000e+00
       12  1    4    4    0    0 +3.3347232049e+01 +1.5983040818e+01 +9.3418617642e+00 3.8141393005e+01 0.0000000000e+00 0.0000e+00 -1.0000e+00
      -12  1    3    3    0    0 -2.9782332848e+01 +3.0348412046e+00 -1.0978279315e+01 3.1886050676e+01 0.0000000000e+00 0.0000e+00 1.0000e+00
</event>
<event>
 8      3 +2.2883893e-04 9.11880000e+01 7.81616400e-03 1.18400000e-01
      -11 -1    0    0    0    0 +0.0000000000e+00 +0.0000000000e+00 +4.5593999997e+01 4.5594000000e+01 5.1100000000e-04 0.0000e+00 1.0000e+00
       11 -1    0    0    0    0 -0.0000000000e+00 -0.0000000000e+00 -4.5593999997e+01 4.5594000000e+01 5.1100000000e-04 0.0000e+00 -1.0000e+00
       23  2    1    2    0    0 -7.1054273576e-15 +0.0000000000e+00 -7.1054273576e-15 9.1188000000e+01 9.1188000000e+01 8.8578e-14 0.0000e+00
  9990012  2    3    3    0    0 -1.7956497610e+01 -8.7617550548e+00 -2.4849875581e+01 5.9301945455e+01 5.0000002603e+01 4.2145e-03 0.0000e+00
      -11  1    4    4    0    0 +8.8274981562e+00 +7.1733741588e+00 +1.6340809034e+00 1.1491398574e+01 5.1100000000e-04 0.0000e+00 1.0000e+00
       11  1    4    4    0    0 +2.7395675471e+00 +2.4880236488e+00 +5.5301977968e-01 3.7418341973e+00 5.1100000000e-04 0.0000e+00 -1.0000e+00
       12  1    4    4    0    0 -2.9523563314e+01 -1.8423152862e+01 -2.7036976264e+01 4.4068712684e+01 0.0000000000e+00 0.0000e+00 -1.0000e+00
      -12  1    3    3    0    0 +1.7956497610e+01 +8.7617550548e+00 +2.4849875581e+01 3.1886054545e+01 0.0000000000e+00 0.0000e+00 1.0000e+00
</event>
<event>
 8      4 +2.2883893e-04 9.11880000e+01 7.81616400e-03 1.18400000e-01
      -11 -1    0    0    0    0 +0.0000000000e+00 +0.0000000000e+00 +4.5593999997e+01 4.5594000000e+01 5.1100000000e-04 0.0000e+00 1.0000e+00
       11 -1    0    0    0    0 -0.0000000000e+00 -0.0000000000e+00 -4.5593999997e+01 4.5594000000e+01 5.1100000000e-04 0.0000e+00 -1.0000e+00
       23  2    1    2    0    0 +0.0000000000e+00 +3.5527136788e-15 +0.0000000000e+00 9.1188000000e+01 9.1188000000e+01 6.2342e-15 0.0000e+00
 -9990012  2    3    3    0    0 +2.5922904593e+01 -1.6709258794e+01 -8.0947212263e+00 5.9301939978e+01 4.9999992614e+01 7.5631e-04 0.0000e+00
      -11  1    4    4    0    0 +1.2579144781e+01 +5.4428369804e+00 -1.1100672905e+01 1.7637581950e+01 5.1100000000e-04 0.0000e+00 1.0000e+00
       11  1    4    4    0    0 +1.6336848151e+01 -1.6438530811e+01 -1.1438749190e+01 2.5844977965e+01 5.1100000000e-04 0.0000e+00 -1.0000e+00
      -12  1    4    4    0    0 -2.9930883385e+00 -5.7135649631e+00 +1.4444700869e+01 1.5819380063e+01 0.0000000000e+00 0.0000e+00 1.0000e+00
       12  1    3    3    0    0 -2.5922904593e+01 +1.6709258794e+01 +8.0947212263e+00 3.1886060022e+01 0.0000000000e+00 0.0000e+00 -1.0000e+00
</event>
<event>
 8      3 +2.2883893e-04 9.11880000e+01 7.81616400e-03 1.18400000e-01
      -11 -1    0    0    0    0 +0.0000000000e+00 +0.0000000000e+00 +4.5593999997e+01 4.5594000000e+01 5.1100000000e-04 0.0000e+00 -1.0000e+00
       11 -1    0    0    0    0 -0.0000000000e+00 -0.0000000000e+00 -4.5593999997e+01 4.5594000000e+01 5.1100000000e-04 0.0000e+00 1.0000e+00
       23  2    1    2    0    0 +0.0000000000e+00 -8.8817841970e-16 +3.5527136788e-15 9.1188000000e+01 9.1188000000e+01 4.7386e-14 0.0000e+00
  9990012  2    3    3    0    0 +2.6636802307e+01 -5.4820207882e+00 -1.6647808003e+01 5.9301932503e+01 4.9999978982e+01 2.6772e-04 0.0000e+00
      -11  1    4    4    0    0 +8.7225693822e+00 +1.0804572655e+01 -1.8699030923e+01 2.3291109132e+01 5.1100000000e-04 0.0000e+00 1.0000e+00
       11  1    4    4    0    0 +8.9204533868e+00 +5.6386887233e+00 +5.7621641485e+00 1.2023802854e+01 5.1100000000e-04 0.0000e+00 -1.0000e+00
       12  1    4    4    0    0 +8.9937795385e+00 -2.1925282167e+01 -3.7109412291e+00 2.3987020517e+01 0.0000000000e+00 0.0000e+00 -1.0000e+00
      -12  1    3    3    0    0 -2.6636802307e+01 +5.4820207882e+00 +1.6647808003e+01 3.1886067497e+01 0.0000000000e+00 0.0000e+00 1.0000e+00
</event>
<event>
 8      3 +2.2883893e-04 9.11880000e+01 7.81616400e-03 1.18400000e-01
      -11 -1    0    0    0    0 +0.0000000000e+00 +0.0000000000e+00 +4.5593999997e+01 4.5594000000e+01 5.1100000000e-04 0.0000e+00 1.0000e+00
       11 -1    0    0    0    0 -0.0000000000e+00 -0.0000000000e+00 -4.5593999997e+01 4.5594000000e+01 5.1100000000e-04 0.0000e+00 -1.0000e+00
       23  2    1    2    0    0 -3.5527136788e-15 -4.2188474936e-15 -1.7763568394e-15 9.1188000000e+01 9.1188000000e+01 1.6067e-13 0.0000e+00
  9990012  2    3    3    0    0 -2.7964462609e+01 -5.7269336471e-01 -1.5309676960e+01 5.9301868919e+01 4.9999863019e+01 1.9287e-03 0.0000e+00
      -11  1    4    4    0    0 +4.4514249984e-01 +3.2367078603e+00 +4.4253614322e+00 5.5007502838e+00 5.1100000000e-04 0.0000e+00 1.0000e+00
       11  1    4    4    0    0 +2.8549105785e+00 -1.6169000222e+01 -7.0502025244e+00 1.7868755930e+01 5.1100000000e-04 0.0000e+00 -1.0000e+00
       12  1    4    4    0    0 -3.1264515688e+01 +1.2359598997e+01 -1.2684835868e+01 3.5932362705e+01 0.0000000000e+00 0.0000e+00 -1.0000e+00
      -12  1    3    3    0    0 +2.7964462609e+01 +5.7269336471e-01 +1.5309676960e+01 3.1886131081e+01 0.0000000000e+00 0.0000e+00 1.0000e+00
</event>
<event>
 8      3 +2.2883893e-04 9.11880000e+01 7.81616400e-03 1.18400000e-01
      -11 -1    0    0    0    0 +0.0000000000e+00 +0.0000000000e+00 +4.5593999997e+01 4.5594000000e+01 5.1100000000e-04 0.0000e+00 -1.0000e+00
       11 -1    0    0    0    0 -0.0000000000e+00 -0.0000000000e+00 -4.5593999997e+01 4.5594000000e+01 5.1100000000e-04 0.0000e+00 1.0000e+00
       23  2    1    2    0    0 +0.0000000000e+00 +0.0000000000e+00 +3.5527136788e-15 9.1188000000e+01 9.1188000000e+01 1.0892e-13 0.0000e+00
  9990012  2    3    3    0    0 +1.8391064866e+01 +1.7595186361e+01 +1.9206772243e+01 5.9301922317e+01 4.9999960405e+01 1.6172e-03 0.0000e+00
      -11  1    4    4    0    0 +3.4086307955e+00 +8.7778804081e+00 +1.1867774260e+01 1.5149719948e+01 5.1100000000e-04 0.0000e+00 1.0000e+00
       11  1    4    4    0    0 +1.4938648952e+01 +6.9855638762e+00 -1.4667070814e+01 2.2069986445e+01 5.1100000000e-04 0.0000e+00 -1.0000e+00
       12  1    4    4    0    0 +4.3785118553e-02 +1.8317420769e+00 +2.2006068797e+01 2.2082215923e+01 0.0000000000e+00 0.0000e+00 -1.0000e+00
      -12  1    3    3    0    0 -1.8391064866e+01 -1.7595186361e+01 -1.9206772243e+01 3.1886077683e+01 0.0000000000e+00 0.0000e+00 1.0000e+00
</event>
<event>
 8      4 +2.2883893e-04 9.11880000e+01 7.81616400e-03 1.18400000e-01
      -11 -1    0    0    0    0 +0.0000000000e+00 +0.0000000000e+00 +4.5593999997e+01 4.5594000000e+01 5.1100000000e-04 0.0000e+00 1.0000e+00
       11 -1    0    0    0    0 -0.0000000000e+00 -0.0000000000e+00 -4.5593999997e+01 4.5594000000e+01 5.1100000000e-04 0.0000e+00 -1.0000e+00
       23  2    1    2    0    0 -3.1086244690e-15 -3.5527136788e-15 +0.0000000000e+00 9.1188000000e+01 9.1188000000e+01 2.9665e-13 0.0000e+00
 -9990012  2    3    3    0    0 -1.0241078929e+00 -1.5108916927e+01 +2.8060517380e+01 5.9301940298e+01 4.9999993198e+01 3.6044e-04 0.0000e+00
      -11  1    4    4    0    0 +2.0689259557e+01 +1.1178772283e+00 +1.2421830602e+01 2.4157752095e+01 5.1100000000e-04 0.0000e+00 1.0000e+00
       11  1    4    4    0    0 -1.8825817668e+00 +3.1989515697e+00 +1.7499848913e+00 4.1036389504e+00 5.1100000000e-04 0.0000e+00 -1.0000e+00
      -12  1    4    4    0    0 -1.9830785684e+01 -1.9425745725e+01 +1.3888701887e+01 3.1040549253e+01 0.0000000000e+00 0.0000e+00 1.0000e+00
       12  1    3    3    0    0 +1.0241078929e+00 +1.5108916927e+01 -2.8060517380e+01 3.1886059702e+01 0.0000000000e+00 0.0000e+00 -1.0000e+00
</event>
<event>
 8      3 +2.2883893e-04 9.11880000e+01 7.81616400e-03 1.18400000e-01
      -11 -1    0    0    0    0 +0.0000000000e+00 +0.0000000000e+00 +4.5593999997e+01 4.5594000000e+01 5.1100000000e-04 0.0000e+00 1.0000e+00
       11 -1    0    0    0    0 -0.0000000000e+00 -0.0000000000e+00 -4.5593999997e+01 4.5594000000e+01 5.1100000000e-04 0.0000e+00 -1.0000e+00
       23  2    1    2    0    0 +0.0000000000e+00 -3.5527136788e-15 -1.7763568394e-15 9.1188000000e+01 9.1188000000e+01 6.4004e-14 0.0000e+00
  9990012  2    3    3    0    0 +1.9780016053e+01 -2.2467695972e+01 -1.0985232838e+01 5.9301925644e+01 4.9999966472e+01 7.9981e-04 0.0000e+00
      -11  1    4    4    0    0 +2.7569219225e+00 +1.0910105417e+01 +7.1848710739e+00 1.3351156928e+01 5.1100000000e-04 0.0000e+00 1.0000e+00
       11  1    4    4    0    0 -3.5793388446e+00 -6.5329815631e+00 -7.2451812900e+00 1.0391543045e+01 5.1100000000e-04 0.0000e+00 -1.0000e+00
       12  1    4    4    0    0 +2.0602432975e+01 -2.6844819827e+01 -1.0924922622e+01 3.5559225671e+01 0.0000000000e+00 0.0000e+00 -1.0000e+00
      -12  1    3    3    0    0 -1.9780016053e+01 +2.2467695972e+01 +1.0985232838e+01 3.1886074356e+01 0.0000000000e+00 0.0000e+00 1.0000e+00
</event>
<event>
 8      3 +2.2883893e-04 9.11880000e+01 7.81616400e-03 1.18400000e-01
      -11 -1    0    0    0    0 +0.0000000000e+00 +0.0000000000e+00 +4.5593999997e+01 4.5594000000e+01 5.1100000000e-04 0.0000e+00 1.0000e+00
       11 -1    0    0    0    0 -0.0000000000e+00 -0.0000000000e+00 -4.5593999997e+01 4.5594000000e+01 5.1100000000e-04 0.0000e+00 -1.0000e+00
       23  2    1    2    0    0 +0.0000000000e+00 -1.7763568394e-15 -3.5527136788e-15 9.1188000000e+01 9.1188000000e+01 3.6883e-15 0.0000e+00
  9990012  2    3    3    0    0 -9.4204532418e+00 -1.3481616399e+01 -2.7317066286e+01 5.9301936736e+01 4.9999986701e+01 2.8278e-03 0.0000e+00
      -11  1    4    4    0    0 +1.8994726065e+00 -1.4620964977e+01 -3.4282203530e+01 3.7318227345e+01 5.1100000000e-04 0.0000e+00 1.0000e+00
       11  1    4    4    0    0 -4.6401334661e+00 -5.1002469568e+00 +1.0178962582e+01 1.2294496212e+01 5.1100000000e-04 0.0000e+00 -1.0000e+00
       12  1    4    4    0    0 -6.6797923823e+00 +6.2395955354e+00 -3.2138253382e+00 9.6892131786e+00 0.0000000000e+00 0.0000e+00 -1.0000e+00
      -12  1    3    3    0    0 +9.4204532418e+00 +1.3481616399e+01 +2.7317066286e+01 3.1886063264e+01 0.0000000000e+00 0.0000e+00 1.0000e+00
</event>
<event>
 8      4 +2.2883893e-04 9.11880000e+01 7.81616400e-03 1.18400000e-01
      -11 -1    0    0    0    0 +0.0000000000e+00 +0.0000000000e+00 +4.5593999997e+01 4.5594000000e+01 5.1100000000e-04 0.0000e+00 -1.0000e+00
       11 -1    0    0    0    0 -0.0000000000e+00 -0.0000000000e+00 -4.5593999997e+01 4.5594000000e+01 5.1100000000e-04 0.0000e+00 1.0000e+00
       23  2    1    2    0    0 -3.5527136788e-15 -7.1054273576e-15 -1.7763568394e-15 9.1188000000e+01 9.1188000000e+01 1.9162e-13 0.0000e+00
 -9990012  2    3    3    0    0 +1.7120268959e+01 +2.6833524026e+01 +1.8917723060e+00 5.9301946257e+01 5.0000004065e+01 2.7621e-03 0.0000e+00
      -11  1    4    4    0    0 +8.4567579957e+00 +1.7475165180e+01 +1.3191827033e+01 2.3471737357e+01 5.1100000000e-04 0.0000e+00 -1.0000e+00
       11  1    4    4    0    0 +1.5325701399e+01 +1.3645287422e+01 +1.7171813424e+00 2.0591738737e+01 5.1100000000e-04 0.0000e+00 1.0000e+00
      -12  1    4    4    0    0 -6.6621904360e+00 -4.2869285753e+00 -1.3017236069e+01 1.5238470162e+01 0.0000000000e+00 0.0000e+00 1.0000e+00
       12  1    3    3    0    0 -1.7120268959e+01 -2.6833524026e+01 -1.8917723060e+00 3.1886053743e+01 0.0000000000e+00 0.0000e+00 -1.0000e+00
</event>
<event>
 8      4 +2.2883893e-04 9.11880000e+01 7.81616400e-03 1.18400000e-01
      -11 -1    0    0    0    0 +0.0000000000e+00 +0.0000000000e+00 +4.5593999997e+01 4.5594000000e+01 5.1100000000e-04 0.0000e+00 1.0000e+00
       11 -1    0    0    0    0 -0.0000000000e+00 -0.0000000000e+00 -4.5593999997e+01 4.5594000000e+01 5.1100000000e-04 0.0000e+00 -1.0000e+00
       23  2    1    2    0    0 +0.0000000000e+00 +0.0000000000e+00 +8.8817841970e-16 9.1188000000e+01 9.1188000000e+01 8.1384e-14 0.0000e+00
 -9990012  2    3    3    0    0 +2.7876106332e+01 -1.5150751883e+01 +3.1778076293e+00 5.9301936458e+01 4.9999986195e+01 8.6346e-04 0.0000e+00
      -11  1    4    4    0    0 +2.8479045596e+00 +1.3913568233e-01 +1.8095329415e+01 1.8318593450e+01 5.1100000000e-04 0.0000e+00 1.0000e+00
       11  1    4    4    0    0 +5.2670824638e+00 +7.3177359012e-01 -1.4603301159e+01 1.5541365940e+01 5.1100000000e-04 0.0000e+00 -1.0000e+00
      -12  1    4    4    0    0 +1.9761119309e+01 -1.6021661155e+01 -3.1422062610e-01 2.5441977068e+01 0.0000000000e+00 0.0000e+00 1.0000e+00
       12  1    3    3    0    0 -2.7876106332e+01 +1.5150751883e+01 -3.1778076293e+00 3.1886063542e+01 0.0000000000e+00 0.0000e+00 -1.0000e+00
</event>
<event>
 8      3 +2.2883893e-04 9.11880000e+01 7.81616400e-03 1.18400000e-01
      -11 -1    0    0    0    0 +0.0000000000e+00 +0.0000000000e+00 +4.5593999997e+01 4.5594000000e+01 5.1100000000e-04 0.0000e+00 -1.0000e+00
       11 -1    0    0    0    0 -0.0000000000e+00 -0.0000000000e+00 -4.5593999997e+01 4.5594000000e+01 5.1100000000e-04 0.0000e+00 1.0000e+00
       23  2    1    2    0    0 +0.0000000000e+00 -1.7763568394e-15 -3.5527136788e-15 9.1188000000e+01 9.1188000000e+01 1.0736e-13 0.0000e+00
  9990012  2    3    3    0    0 +2.4073723713e+01 +1.2571783999e+01 +1.6707078173e+01 5.9301946820e+01 5.0000005093e+01 1.7768e-03 0.0000e+00
      -11  1    4    4    0    0 -3.5972373529e+00 -1.8805472040e+00 -2.3002133767e+00 4.6655713690e+00 5.1100000000e-04 0.0000e+00 1.0000e+00
       11  1    4    4    0    0 +7.6382947928e+00 -9.4914685396e+00 -6.9586008361e+00 1.4030454313e+01 5.1100000000e-04 0.0000e+00 -1.0000e+00
       12  1    4    4    0    0 +2.0032666273e+01 +2.3943799742e+01 +2.5965892386e+01 4.0605921138e+01 0.0000000000e+00 0.0000e+00 -1.0000e+00
      -12  1    3    3    0    0 -2.4073723713e+01 -1.2571783999e+01 -1.6707078173e+01 3.1886053180e+01 0.0000000000e+00 0.0000e+00 1.0000e+00
</event>
<event>
 8      3 +2.2883893e-04 9.11880000e+01 7.81616400e-03 1.18400000e-01
      -11 -1    0    0    0    0 +0.0000000000e+00 +0.0000000000e+00 +4.5593999997e+01 4.5594000000e+01 5.1100000000e-04 0.0000e+00 -1.0000e+00
       11 -1    0    0    0    0 -0.0000000000e+00 -0.0000000000e+00 -4.5593999997e+01 4.5594000000e+01 5.1100000000e-04 0.0000e+00 1.0000e+00
       23  2    1    2    0    0 +0.0000000000e+00 +0.0000000000e+00 -1.7763568394e-15 9.1188000000e+01 9.1188000000e+01 3.8283e-14 0.0000e+00
  9990012  2    3    3    0    0 +2.6827787617e+01 +1.1856797614e+01 +1.2506278614e+01 5.9301939679e+01 4.9999992068e+01 4.1898e-03 0.0000e+00
      -11  1    4    4    0    0 +6.5744817516e+00 +2.0524725411e+01 +6.9102136098e+00 2.2632702355e+01 5.1100000000e-04 0.0000e+00 1.0000e+00
       11  1    4    4    0    0 +2.5748304376e+01 -1.2578885348e+01 +1.3276544015e+00 2.8687387496e+01 5.1100000000e-04 0.0000e+00 -1.0000e+00
       12  1    4    4    0    0 -5.4949985113e+00 +3.9109575510e+00 +4.2684106025e+00 7.9818498280e+00 0.0000000000e+00 0.0000e+00 -1.0000e+00
      -12  1    3    3    0    0 -2.6827787617e+01 -1.1856797614e+01 -1.2506278614e+01 3.1886060321e+01 0.0000000000e+00 0.0000e+00 1.0000e+00
</event>
<event>
 8      3 +2.2883893e-04 9.11880000e+01 7.81616400e-03 1.18400000e-01
      -11 -1    0    0    0    0 +0.0000000000e+00 +0.0000000000e+00 +4.5593999997e+01 4.5594000000e+01 5.1100000000e-04 0.0000e+00 1.0000e+00
       11 -1    0    0    0    0 -0.0000000000e+00 -0.0000000000e+00 -4.5593999997e+01 4.5594000000e+01 5.1100000000e-04 0.0000e+00 -1.0000e+00
       23  2    1    2    0    0 +0.0000000000e+00 +0.0000000000e+00 +0.0000000000e+00 9.1188000000e+01 9.1188000000e+01 6.7368e-14 0.0000e+00
  9990012  2    3    3    0    0 +1.2289552878e+01 -1.7209312295e+01 -2.3864769673e+01 5.9301940803e+01 4.9999994119e+01 5.5515e-04 0.0000e+00
      -11  1    4    4    0    0 -7.2622629038e+00 -1.7278671145e+01 -2.7327662635e+01 3.3137502687e+01 5.1100000000e-04 0.0000e+00 -1.0000e+00
       11  1    4    4    0    0 +1.3329764685e+01 +3.9553699603e+00 -5.1711988789e+00 1.4834718608e+01 5.1100000000e-04 0.0000e+00 1.0000e+00
       12  1    4    4    0    0 +6.2220510974e+00 -3.8860111105e+00 +8.6340918409e+00 1.1329719508e+01 0.0000000000e+00 0.0000e+00 -1.0000e+00
      -12  1    3    3    0    0 -1.2289552878e+01 +1.7209312295e+01 +2.3864769673e+01 3.1886059197e+01 0.0000000000e+00 0.0000e+00 1.0000e+00
</event>
<event>
 8      3 +2.2883893e-04 9.11880000e+01 7.81616400e-03 1.18400000e-01
      -11 -1    0    0    0    0 +0.0000000000e+00 +0.0000000000e+00 +4.5593999997e+01 4.5594000000e+01 5.1100000000e-04 0.0000e+00 1.0000e+00
       11 -1    0    0    0    0 -0.0000000000e+00 -0.0000000000e+00 -4.5593999997e+01 4.5594000000e+01 5.1100000000e-04 0.0000e+00 -1.0000e+00
       23  2    1    2    0    0 +1.7763568394e-15 +0.0000000000e+00 +1.7763568394e-15 9.1188000000e+01 9.1188000000e+01 4.2572e-14 0.0000e+00
  9990012  2    3    3    0    0 +7.3928072434e+00 +2.7251984143e+01 -1.4811619299e+01 5.9302136284e+01 5.0000350628e+01 6.7227e-03 0.0000e+00
      -11  1    4    4    0    0 +1.3766106745e+01 +2.5951245726e+01 -7.2779248711e+00 3.0264517844e+01 5.1100000000e-04 0.0000e+00 -1.0000e+00
       11  1    4    4    0    0 -1.6191736332e+01 +4.9640697209e+00 -1.6410053304e+00 1.7014911472e+01 5.1100000000e-04 0.0000e+00 1.0000e+00
       12  1    4    4    0    0 +9.8184368305e+00 -3.6633313045e+00 -5.8926890977e+00 1.2022706968e+01 0.0000000000e+00 0.0000e+00 -1.0000e+00
      -12  1    3    3    0    0 -7.3928072434e+00 -2.7251984143e+01 +1.4811619299e+01 3.1885863716e+01 0.0000000000e+00 0.0000e+00 1.0000e+00
</event>
<event>
 8      3 +2.2883893e-04 9.11880000e+01 7.81616400e-03 1.18400000e-01
      -11 -1    0    0    0    0 +0.0000000000e+00 +0.0000000000e+00 +4.5593999997e+01 4.5594000000e+01 5.1100000000e-04 0.0000e+00 -1.0000e+00
       11 -1    0    0    0    0 -0.0000000000e+00 -0.0000000000e+00 -4.5593999997e+01 4.5594000000e+01 5.1100000000e-04 0.0000e+00 1.0000e+00
       23  2    1    2    0    0 -1.7763568394e-15 +0.0000000000e+00 +0.0000000000e+00 9.1188000000e+01 9.1188000000e+01 5.4822e-14 0.0000e+00
  9990012  2    3    3    0    0 +1.3234670181e+01 -1.9064198155e+01 +2.1866051762e+01 5.9301884436e+01 4.9999891319e+01 6.3062e-03 0.0000e+00
      -11  1    4    4    0    0 +9.0477993385e-01 +9.3573582976e+00 -7.8333829725e-01 9.4335783342e+00 5.1100000000e-04 0.0000e+00 1.0000e+00
       11  1    4    4    0    0 +2.1318378039e+01 -2.8122159509e+01 +1.9630036211e+01 4.0381523245e+01 5.1100000000e-04 0.0000e+00 -1.0000e+00
       12  1    4    4    0    0 -8.9884877916e+00 -2.9939694336e-01 +3.0193538483e+00 9.4867828567e+00 0.0000000000e+00 0.0000e+00 -1.0000e+00
      -12  1    3    3    0    0 -1.3234670181e+01 +1.9064198155e+01 -2.1866051762e+01 3.1886115564e+01 0.0000000000e+00 0.0000e+00 1.0000e+00
</event>
<event>
 8      3 +2.2883893e-04 9.11880000e+01 7.81616400e-03 1.18400000e-01
      -11 -1    0    0    0    0 +0.0000000000e+00 +0.0000000000e+00 +4.5593999997e+01 4.5594000000e+01 5.1100000000e-04 0.0000e+00 -1.0000e+00
       11 -1    0    0    0    0 -0.0000000000e+00 -0.0000000000e+00 -4.5593999997e+01 4.5594000000e+01 5.1100000000e-04 0.0000e+00 1.0000e+00
       23  2    1    2    0    0 +0.0000000000e+00 -1.7763568394e-15 -3.5527136788e-15 9.1188000000e+01 9.1188000000e+01 1.7809e-14 0.0000e+00
  9990012  2    3    3    0    0 +2.1786551194e+01 +1.4461602741e+01 +1.8246314664e+01 5.9301956571e+01 5.0000022875e+01 3.8519e-03 0.0000e+00
      -11  1    4    4    0    0 -2.7253379162e+00 +1.4404381513e+01 +1.0623350547e+01 1.8104398655e+01 5.1100000000e-04 0.0000e+00 1.0000e+00
       11  1    4    4    0    0 -4.2797796819e+00 -2.4698599693e+00 -7.1869262653e+00 8.7217333024e+00 5.1100000000e-04 0.0000e+00 -1.0000e+00
       12  1    4    4    0    0 +2.8791668792e+01 +2.5270811969e+00 +1.4809890382e+01 3.2475824614e+01 0.0000000000e+00 0.0000e+00 -1.0000e+00
      -12  1    3    3    0    0 -2.1786551194e+01 -1.4461602741e+01 -1.8246314664e+01 3.1886043429e+01 0.0000000000e+00 0.0000e+00 1.0000e+00
</event>
<event>
 8      3 +2.2883893e-04 9.11880000e+01 7.81616400e-03 1.18400000e-01
      -11 -1    0    0    0    0 +0.0000000000e+00 +0.0000000000e+00 +4.5593999997e+01 4.5594000000e+01 5.1100000000e-04 0.0000e+00 -1.0000e+00
       11 -1    0    0    0    0 -0.0000000000e+00 -0.0000000000e+00 -4.5593999997e+01 4.5594000000e+01 5.1100000000e-04 0.0000e+00 1.0000e+00
       23  2    1    2    0    0 +0.0000000000e+00 +0.0000000000e+00 +1.7763568394e-15 9.1188000000e+01 9.1188000000e+01 1.3383e-13 0.0000e+00
  9990012  2    3    3    0    0 -1.7398321525e+01 +2.4009064855e+01 +1.1729748559e+01 5.9301893490e+01 4.9999907832e+01 9.1805e-04 0.0000e+00
      -11  1    4    4    0    0 -1.6386717958e+01 +2.3538146320e+00 -9.0617663181e+00 1.8872746960e+01 5.1100000000e-04 0.0000e+00 1.0000e+00
       11  1    4    4    0    0 -1.3822950070e+01 +8.2136635324e+00 +8.8831738165e+00 1.8369784827e+01 5.1100000000e-04 0.0000e+00 -1.0000e+00
       12  1    4    4    0    0 +1.2811346503e+01 +1.3441586690e+01 +1.1908341060e+01 2.2059361704e+01 0.0000000000e+00 0.0000e+00 -1.0000e+00
      -12  1    3    3    0    0 +1.7398321525e+01 -2.4009064855e+01 -1.1729748559e+01 3.1886106510e+01 0.0000000000e+00 0.0000e+00 1.0000e+00
</event>
<event>
 8      3 +2.2883893e-04 9.11880000e+01 7.81616400e-03 1.18400000e-01
      -11 -1    0    0    0    0 +0.0000000000e+00 +0.0000000000e+00 +4.5593999997e+01 4.5594000000e+01 5.1100000000e-04 0.0000e+00 -1.0000e+00
       11 -1    0    0    0    0 -0.0000000000e+00 -0.0000000000e+00 -4.5593999997e+01 4.5594000000e+01 5.1100000000e-04 0.0000e+00 1.0000e+00
       23  2    1    2    0    0 -1.7763568394e-15 +3.5527136788e-15 -1.7763568394e-15 9.1188000000e+01 9.1188000000e+01 4.4444e-14 0.0000e+00
  9990012  2    3    3    0    0 -1.1254503617e+01 +2.9207727283e+01 -6.0797945318e+00 5.9301967223e+01 5.0000042303e+01 3.6778e-03 0.0000e+00
      -11  1    4    4    0    0 -8.8645534366e-01 +5.2004300544e+00 -9.7212921445e+00 1.1060460978e+01 5.1100000000e-04 0.0000e+00 1.0000e+00
       11  1    4    4    0    0 -7.0144511813e-01 +1.5499664618e+01 -1.7561971434e+01 2.3434045093e+01 5.1100000000e-04 0.0000e+00 -1.0000e+00
       12  1    4    4    0    0 -9.6666031554e+00 +8.5076326107e+00 +2.1203469046e+01 2.4807461152e+01 0.0000000000e+00 0.0000e+00 -1.0000e+00
      -12  1    3    3    0    0 +1.1254503617e+01 -2.9207727283e+01 +6.0797945318e+00 3.1886032777e+01 0.0000000000e+00 0.0000e+00 1.0000e+00
</event>
<event>
 8      3 +2.2883893e-04 9.11880000e+01 7.81616400e-03 1.18400000e-01
      -11 -1    0    0    0    0 +0.0000000000e+00 +0.0000000000e+00 +4.5593999997e+01 4.5594000000e+01 5.1100000000e-04 0.0000e+00 -1.0000e+00
       11 -1    0    0    0    0 -0.0000000000e+00 -0.0000000000e+00 -4.5593999997e+01 4.5594000000e+01 5.1100000000e-04 0.0000e+00 1.0000e+00
       23  2    1    2    0    0 +3.5527136788e-15 +0.0000000000e+00 +2.6645352591e-15 9.1188000000e+01 9.1188000000e+01 7.6780e-14 0.0000e+00
  9990012  2    3    3    0    0 +1.6718979794e+01 +2.7002135526e+01 -2.8429061658e+00 5.9301925865e+01 4.9999966875e+01 4.3697e-03 0.0000e+00
      -11  1    4    4    0    0 -6.9561689602e+00 -6.6923442685e+00 -8.1896291642e-02 9.6531065297e+00 5.1100000000e-04 0.0000e+00 1.0000e+00
       11  1    4    4    0    0 +8.2682329127e+00 +9.1488885296e+00 +1.1929735197e+01 1.7157634422e+01 5.1100000000e-04 0.0000e+00 -1.0000e+00
       12  1    4    4    0    0 +1.5406915841e+01 +2.4545591265e+01 -1.4690745071e+01 3.2491184913e+01 0.0000000000e+00 0.0000e+00 -1.0000e+00
      -12  1    3    3    0    0 -1.6718979794e+01 -2.7002135526e+01 +2.8429061658e+00 3.1886074135e+01 0.0000000000e+00 0.0000e+00 1.0000e+00
</event>
<event>
 8      4 +2.2883893e-04 9.11880000e+01 7.81616400e-03 1.18400000e-01
      -11 -1    0    0    0    0 +0.0000000000e+00 +0.0000000000e+00 +4.5593999997e+01 4.5594000000e+01 5.1100000000e-04 0.0000e+00 1.0000e+00
       11 -1    0    0    0    0 -0.0000000000e+00 -0.0000000000e+00 -4.5593999997e+01 4.5594000000e+01 5.1100000000e-04 0.0000e+00 -1.0000e+00
       23  2    1    2    0    0 -3.5527136788e-15 +0.0000000000e+00 +3.5527136788e-15 9.1188000000e+01 9.1188000000e+01 6.3550e-14 0.0000e+00
 -9990012  2    3    3    0    0 -1.9856176391e+01 -1.1527313653e+01 +2.2126300044e+01 5.9301955175e+01 5.0000020330e+01 1.2427e-03 0.0000e+00
      -11  1    4    4    0    0 -5.6248242451e+00 +2.3643858524e+00 -3.2641912792e+00 6.9198203167e+00 5.1100000000e-04 0.0000e+00 1.0000e+00
       11  1    4    4    0    0 -9.6529175900e+00 +1.0329325290e+01 -3.3394835252e+00 1.4526731546e+01 5.1100000000e-04 0.0000e+00 -1.0000e+00
      -12  1    4    4    0    0 -4.5784345563e+00 -2.4221024796e+01 +2.8729974848e+01 3.7855403312e+01 0.0000000000e+00 0.0000e+00 1.0000e+00
       12  1    3    3    0    0 +1.9856176391e+01 +1.1527313653e+01 -2.2126300044e+01 3.1886044825e+01 0.0000000000e+00 0.0000e+00 -1.0000e+00
</event>
<event>
 8      3 +2.2883893e-04 9.11880000e+01 7.81616400e-03 1.18400000e-01
      -11 -1    0    0    0    0 +0.0000000000e+00 +0.0000000000e+00 +4.5593999997e+01 4.5594000000e+01 5.1100000000e-04 0.0000e+00 1.0000e+00
       11 -1    0    0    0    0 -0.0000000000e+00 -0.0000000000e+00 -4.5593999997e+01 4.5594000000e+01 5.1100000000e-04 0.0000e+00 -1.0000e+00
       23  2    1    2    0    0 -1.7763568394e-15 +0.0000000000e+00 +0.0000000000e+00 9.1188000000e+01 9.1188000000e+01 1.9276e-13 0.0000e+00
  9990012  2    3    3    0    0 -1.0676883345e+01 -1.3607805436e+01 -2.6787219482e+01 5.9301900610e+01 4.9999920816e+01 2.1819e-03 0.0000e+00
      -11  1    4    4    0    0 -3.0134239483e+00 +7.1152183430e+00 -1.2068157486e+00 7.8207071594e+00 5.1100000000e-04 0.0000e+00 1.0000e+00
       11  1    4    4    0    0 -2.2041815477e+01 -1.9185605740e+01 -1.1826637881e+01 3.1524569164e+01 5.1100000000e-04 0.0000e+00 -1.0000e+00
       12  1    4    4    0    0 +1.4378356080e+01 -1.5374180383e+00 -1.3753765853e+01 1.9956624287e+01 0.0000000000e+00 0.0000e+00 -1.0000e+00
      -12  1    3    3    0    0 +1.0676883345e+01 +1.3607805436e+01 +2.6787219482e+01 3.1886099390e+01 0.0000000000e+00 0.0000e+00 1.0000e+00
</event>
<event>
 8      3 +2.2883893e-04 9.11880000e+01 7.81616400e-03 1.18400000e-01
      -11 -1    0    0    0    0 +0.0000000000e+00 +0.0000000000e+00 +4.5593999997e+01 4.5594000000e+01 5.1100000000e-04 0.0000e+00 1.0000e+00
       11 -1    0    0    0    0 -0.0000000000e+00 -0.0000000000e+00 -4.5593999997e+01 4.5594000000e+01 5.1100000000e-04 0.0000e+00 -1.0000e+00
       23  2    1    2    0    0 +0.0000000000e+00 +0.0000000000e+00 +3.5527136788e-15 9.1188000000e+01 9.1188000000e+01 6.0253e-14 0.0000e+00
  9990012  2    3    3    0    0 +2.3484284650e+01 +1.4292400573e+01 -1.6153506408e+01 5.9301951186e+01 5.0000013055e+01 1.9757e-04 0.0000e+00
      -11  1    4    4    0    0 -7.1987956790e+00 +1.4978354480e+01 -1.9853125245e+00 1.6736643279e+01 5.1100000000e-04 0.0000e+00 1.0000e+00
       11  1    4    4    0    0 -2.8926896351e+00 +4.9381315568e+00 -8.4642079346e-02 5.7236318138e+00 5.1100000000e-04 0.0000e+00 -1.0000e+00
       12  1    4    4    0    0 +3.3575769964e+01 -5.6240854634e+00 -1.4083551805e+01 3.6841676094e+01 0.0000000000e+00 0.0000e+00 -1.0000e+00
      -12  1    3    3    0    0 -2.3484284650e+01 -1.4292400573e+01 +1.6153506408e+01 3.1886048814e+01 0.0000000000e+00 0.0000e+00 1.0000e+00
</event>
<event>
 8      4 +2.2883893e-04 9.11880000e+01 7.81616400e-03 1.18400000e-01
      -11 -1    0    0    0    0 +0.0000000000e+00 +0.0000000000e+00 +4.5593999997e+01 4.5594000000e+01 5.1100000000e-04 0.0000e+00 1.0000e+00
       11 -1    0    0    0    0 -0.0000000000e+00 -0.0000000000e+00 -4.5593999997e+01 4.5594000000e+01 5.1100000000e-04 0.0000e+00 -1.0000e+00
       23  2    1    2    0    0 +0.0000000000e+00 -3.5527136788e-15 +1.7763568394e-15 9.1188000000e+01 9.1188000000e+01 5.8521e-14 0.0000e+00
 -9990012  2    3    3    0    0 +1.8647031187e+01 +2.0393486512e+01 -1.5909526982e+01 5.9301966804e+01 5.0000041538e+01 2.8055e-03 0.0000e+00
      -11  1    4    4    0    0 -2.8033008678e+00 +5.0555223265e+00 -9.1727409446e+00 1.0842323480e+01 5.1100000000e-04 0.0000e+00 1.0000e+00
       11  1    4    4    0    0 -1.0752456466e+01 +6.1979626920e-01 -7.3641858687e+00 1.3047248800e+01 5.1100000000e-04 0.0000e+00 -1.0000e+00
      -12  1    4    4    0    0 +3.2202788521e+01 +1.4718167916e+01 +6.2739983122e-01 3.5412394524e+01 0.0000000000e+00 0.0000e+00 1.0000e+00
       12  1    3    3    0    0 -1.8647031187e+01 -2.0393486512e+01 +1.5909526982e+01 3.1886033196e+01 0.0000000000e+00 0.0000e+00 -1.0000e+00
</event>
<event>
 8      4 +2.2883893e-04 9.11880000e+01 7.81616400e-03 1.18400000e-01
      -11 -1    0    0    0    0 +0.0000000000e+00 +0.0000000000e+00 +4.5593999997e+01 4.5594000000e+01 5.1100000000e-04 0.0000e+00 -1.0000e+00
       11 -1    0    0    0    0 -0.0000000000e+00 -0.0000000000e+00 -4.5593999997e+01 4.5594000000e+01 5.1100000000e-04 0.0000e+00 1.0000e+00
       23  2    1    2    0    0 +0.0000000000e+00 +7.1054273576e-15 +0.0000000000e+00 9.1188000000e+01 9.1188000000e+01 2.6440e-14 0.0000e+00
 -9990012  2    3    3    0    0 -2.2683137315e+01 -1.8014099470e+01 -1.3329882606e+01 5.9301980047e+01 5.0000065690e+01 1.2540e-03 0.0000e+00
      -11  1    4    4    0    0 +2.0560508874e+00 +4.3201886425e+00 +2.4914797884e+00 5.3943347093e+00 5.1100000000e-04 0.0000e+00 -1.0000e+00
       11  1    4    4    0    0 -1.8400295870e+01 -3.3696457816e+01 -1.3461585769e+01 4.0684597198e+01 5.1100000000e-04 0.0000e+00 1.0000e+00
      -12  1    4    4    0    0 -6.3388923320e+00 +1.1362169704e+01 -2.3597766261e+00 1.3223048139e+01 0.0000000000e+00 0.0000e+00 1.0000e+00
       12  1    3    3    0    0 +2.2683137315e+01 +1.8014099470e+01 +1.3329882606e+01 3.1886019953e+01 0.0000000000e+00 0.0000e+00 -1.0000e+00
</event>
<event>
 8      4 +2.2883893e-04 9.11880000e+01 7.81616400e-03 1.18400000e-01
      -11 -1    0    0    0    0 +0.0000000000e+00 +0.0000000000e+00 +4.5593999997e+01 4.5594000000e+01 5.1100000000e-04 0.0000e+00 1.0000e+00
       11 -1    0    0    0    0 -0.0000000000e+00 -0.0000000000e+00 -4.5593999997e+01 4.5594000000e+01 5.1100000000e-04 0.0000e+00 -1.0000e+00
       23  2    1    2    0    0 +0.0000000000e+00 +3.5527136788e-15 +0.0000000000e+00 9.1188000000e+01 9.1188000000e+01 1.2251e-14 0.0000e+00
 -9990012  2    3    3    0    0 +2.2114095308e+01 +1.9008596990e+01 +1.2897877037e+01 5.9302028118e+01 5.0000153360e+01 2.4323e-04 0.0000e+00
      -11  1    4    4    0    0 +3.1422447883e+01 -1.3506318226e+00 +1.4130088212e+01 3.4479759722e+01 5.1100000000e-04 0.0000e+00 1.0000e+00
       11  1    4    4    0    0 -8.4747884286e+00 +1.7859193728e+01 +2.8407852763e+00 1.9971051569e+01 5.1100000000e-04 0.0000e+00 -1.0000e+00
      -12  1    4    4    0    0 -8.3356414689e-01 +2.5000350848e+00 -4.0729964518e+00 4.8512168277e+00 0.0000000000e+00 0.0000e+00 1.0000e+00
       12  1    3    3    0    0 -2.2114095308e+01 -1.9008596990e+01 -1.2897877037e+01 3.1885971882e+01 0.0000000000e+00 0.0000e+00 -1.0000e+00
</event>
<event>
 8      4 +2.2883893e-04 9.11880000e+01 7.81616400e-03 1.18400000e-01
      -11 -1    0    0    0    0 +0.0000000000e+00 +0.0000000000e+00 +4.5593999997e+01 4.5594000000e+01 5.1100000000e-04 0.0000e+00 1.0000e+00
       11 -1    0    0    0    0 -0.0000000000e+00 -0.0000000000e+00 -4.5593999997e+01 4.5594000000e+01 5.1100000000e-04 0.0000e+00 -1.0000e+00
       23  2    1    2    0    0 -3.5527136788e-15 +0.0000000000e+00 +0.0000000000e+00 9.1188000000e+01 9.1188000000e+01 8.2309e-14 0.0000e+00
 -9990012  2    3    3    0    0 -2.1085421161e+01 +7.2594572923e+00 +2.2790914072e+01 5.9301945525e+01 5.0000002731e+01 2.8229e-03 0.0000e+00
      -11  1    4    4    0    0 -7.6224355234e+00 +7.5141149262e+00 +8.4348243849e+00 1.3627534960e+01 5.1100000000e-04 0.0000e+00 1.0000e+00
       11  1    4    4    0    0 +9.5317850030e+00 +1.3300347245e+01 +2.8592798515e+00 1.6611130115e+01 5.1100000000e-04 0.0000e+00 -1.0000e+00
      -12  1    4    4    0    0 -2.2994770641e+01 -1.3555004879e+01 +1.1496809835e+01 2.9063280450e+01 0.0000000000e+00 0.0000e+00 1.0000e+00
       12  1    3    3    0    0 +2.1085421161e+01 -7.2594572923e+00 -2.2790914072e+01 3.1886054475e+01 0.0000000000e+00 0.0000e+00 -1.0000e+00
</event>
<event>
 8      4 +2.2883893e-04 9.11880000e+01 7.81616400e-03 1.18400000e-01
      -11 -1    0    0    0    0 +0.0000000000e+00 +0.0000000000e+00 +4.5593999997e+01 4.5594000000e+01 5.1100000000e-04 0.0000e+00 1.0000e+00
       11 -1    0    0    0    0 -0.0000000000e+00 -0.0000000000e+00 -4.5593999997e+01 4.5594000000e+01 5.1100000000e-04 0.0000e+00 -1.0000e+00
       23  2    1    2    0    0 +0.0000000000e+00 +0.0000000000e+00 -4.9960036108e-16 9.1188000000e+01 9.1188000000e+01 7.7287e-15 0.0000e+00
 -9990012  2    3    3    0    0 -1.1105585798e+01 +2.9889394613e+01 +1.0569902712e-01 5.9301935355e+01 4.9999984183e+01 1.9018e-03 0.0000e+00
      -11  1    4    4    0    0 -6.3900510386e+00 +8.6562725016e+00 +1.3262094256e+01 1.7077674028e+01 5.1100000000e-04 0.0000e+00 1.0000e+00
       11  1    4    4    0    0 +1.2315952878e+01 +2.4431446866e+00 -1.1137731944e+01 1.6783942456e+01 5.1100000000e-04 0.0000e+00 -1.0000e+00
      -12  1    4    4    0    0 -1.7031487637e+01 +1.8789977425e+01 -2.0186632848e+00 2.5440318870e+01 0.0000000000e+00 0.0000e+00 1.0000e+00
       12  1    3    3    0    0 +1.1105585798e+01 -2.9889394613e+01 -1.0569902712e-01 3.1886064645e+01 0.0000000000e+00 0.0000e+00 -1.0000e+00
</event>
<event>
 8      4 +2.2883893e-04 9.11880000e+01 7.81616400e-03 1.18400000e-01
      -11 -1    0    0    0    0 +0.0000000000e+00 +0.0000000000e+00 +4.5593999997e+01 4.5594000000e+01 5.1100000000e-04 0.0000e+00 1.0000e+00
       11 -1    0    0    0    0 -0.0000000000e+00 -0.0000000000e+00 -4.5593999997e+01 4.5594000000e+01 5.1100000000e-04 0.0000e+00 -1.0000e+00
       23  2    1    2    0    0 +0.0000000000e+00 -1.7763568394e-15 +0.0000000000e+00 9.1188000000e+01 9.1188000000e+01 6.6433e-15 0.0000e+00
 -9990012  2    3    3    0    0 +2.9101220245e+01 +1.2278383786e+01 -4.3681852656e+00 5.9301940810e+01 4.9999994131e+01 4.2245e-03 0.0000e+00
      -11  1    4    4    0    0 +4.7818936070e+00 -1.4223064377e+01 +1.8056240402e+00 1.5113647646e+01 5.1100000000e-04 0.0000e+00 1.0000e+00
       11  1    4    4    0    0 -2.0821802724e+00 +1.0624716854e+01 -7.7903531174e+00 1.3338278932e+01 5.1100000000e-04 0.0000e+00 -1.0000e+00
      -12  1    4    4    0    0 +2.6401506911e+01 +1.5876731309e+01 +1.6165438115e+00 3.0850014232e+01 0.0000000000e+00 0.0000e+00 1.0000e+00
       12  1    3    3    0    0 -2.9101220245e+01 -1.2278383786e+01 +4.3681852656e+00 3.1886059190e+01 0.0000000000e+00 0.0000e+00 -1.0000e+00
</event>
<event>
 8      4 +2.2883893e-04 9.11880000e+01 7.81616400e-03 1.18400000e-01
      -11 -1    0    0    0    0 +0.0000000000e+00 +0.0000000000e+00 +4.5593999997e+01 4.5594000000e+01 5.1100000000e-04 0.0000e+00 1.0000e+00
       11 -1    0    0    0    0 -0.0000000000e+00 -0.0000000000e+00 -4.5593999997e+01 4.5594000000e+01 5.1100000000e-04 0.0000e+00 -1.0000e+00
       23  2    1    2    0    0 -3.5527136788e-15 -3.5527136788e-15 -2.8865798640e-15 9.1188000000e+01 9.1188000000e+01 9.1286e-15 0.0000e+00
 -9990012  2    3    3    0    0 -3.0540569520e+01 +9.0727631497e+00 -1.2955263819e+00 5.9301955931e+01 5.0000021708e+01 5.0454e-03 0.0000e+00
      -11  1    4    4    0    0 -2.0613237541e+01 -1.5674939413e+01 +8.2027619082e+00 2.7164215261e+01 5.1100000000e-04 0.0000e+00 1.0000e+00
       11  1    4    4    0    0 -7.5477027357e-01 -1.8946875456e+00 -2.2630895220e+00 3.0464887177e+00 5.1100000000e-04 0.0000e+00 -1.0000e+00
      -12  1    4    4    0    0 -9.1725617049e+00 +2.6642390109e+01 -7.2351987681e+00 2.9091251952e+01 0.0000000000e+00 0.0000e+00 1.0000e+00
       12  1    3    3    0    0 +3.0540569520e+01 -9.0727631497e+00 +1.2955263819e+00 3.1886044069e+01 0.0000000000e+00 0.0000e+00 -1.0000e+00
</event>
<event>
 8      3 +2.2883893e-04 9.11880000e+01 7.81616400e-03 1.18400000e-01
      -11 -1    0    0    0    0 +0.0000000000e+00 +0.0000000000e+00 +4.5593999997e+01 4.5594000000e+01 5.1100000000e-04 0.0000e+00 -1.0000e+00
       11 -1    0    0    0    0 -0.0000000000e+00 -0.0000000000e+00 -4.5593999997e+01 4.5594000000e+01 5.1100000000e-04 0.0000e+00 1.0000e+00
       23  2    1    2    0    0 -3.8857805862e-16 -3.5527136788e-15 +4.4408920985e-15 9.1188000000e+01 9.1188000000e+01 6.7275e-14 0.0000e+00
  9990012  2    3    3    0    0 -4.5048221155e-01 -3.1745036261e+01 +2.9612599960e+00 5.9301963523e+01 5.0000035555e+01 3.4403e-04 0.0000e+00
      -11  1    4    4    0    0 -1.1816179912e+01 +1.8603293578e+00 -8.8411835624e+00 1.4874456631e+01 5.1100000000e-04 0.0000e+00 1.0000e+00
       11  1    4    4    0    0 +3.3751109205e+00 -1.3188789947e+01 -7.2120898818e+00 1.5406160934e+01 5.1100000000e-04 0.0000e+00 -1.0000e+00
       12  1    4    4    0    0 +7.9905867800e+00 -2.0416575672e+01 +1.9014533440e+01 2.9021345958e+01 0.0000000000e+00 0.0000e+00 -1.0000e+00
      -12  1    3    3    0    0 +4.5048221155e-01 +3.1745036261e+01 -2.9612599960e+00 3.1886036477e+01 0.0000000000e+00 0.0000e+00 1.0000e+00
</event>
<event>
 8      3 +2.2883893e-04 9.11880000e+01 7.81616400e-03 1.18400000e-01
      -11 -1    0    0    0    0 +0.0000000000e+00 +0.0000000000e+00 +4.5593999997e+01 4.5594000000e+01 5.1100000000e-04 0.0000e+00 -1.0000e+00
       11 -1    0    0    0    0 -0.0000000000e+00 -0.0000000000e+00 -4.5593999997e+01 4.5594000000e+01 5.1100000000e-04 0.0000e+00 1.0000e+00
       23  2    1    2    0    0 +3.5527136788e-15 +0.0000000000e+00 +0.0000000000e+00 9.1188000000e+01 9.1188000000e+01 8.8229e-14 0.0000e+00
  9990012  2    3    3    0    0 -2.4352037518e+01 -1.8249624665e+01 -9.5207605830e+00 5.9302024811e+01 5.0000147329e+01 3.3030e-03 0.0000e+00
      -11  1    4    4    0    0 -1.5741033026e+01 -4.9206873918e-01 -1.1747554283e+01 1.9647577058e+01 5.1100000000e-04 0.0000e+00 1.0000e+00
       11  1    4    4    0    0 +3.1949578677e+00 -1.0138065586e+01 -1.4391847439e+01 1.7891713237e+01 5.1100000000e-04 0.0000e+00 -1.0000e+00
       12  1    4    4    0    0 -1.1805962360e+01 -7.6194903398e+00 +1.6618641139e+01 2.1762734515e+01 0.0000000000e+00 0.0000e+00 -1.0000e+00
      -12  1    3    3    0    0 +2.4352037518e+01 +1.8249624665e+01 +9.5207605830e+00 3.1885975189e+01 0.0000000000e+00 0.0000e+00 1.0000e+00
</event>
<event>
 8      4 +2.2883893e-04 9.11880000e+01 7.81616400e-03 1.18400000e-01
      -11 -1    0    0    0    0 +0.0000000000e+00 +0.0000000000e+00 +4.5593999997e+01 4.5594000000e+01 5.1100000000e-04 0.0000e+00 -1.0000e+00
       11 -1    0    0    0    0 -0.0000000000e+00 -0.0000000000e+00 -4.5593999997e+01 4.5594000000e+01 5.1100000000e-04 0.0000e+00 1.0000e+00
       23  2    1    2    0    0 +0.0000000000e+00 +0.0000000000e+00 -3.5527136788e-15 9.1188000000e+01 9.1188000000e+01 1.4203e-13 0.0000e+00
 -9990012  2    3    3    0    0 -2.3820507761e+01 +5.8012277120e+00 -2.0387503163e+01 5.9301935361e+01 4.9999984194e+01 3.3556e-03 0.0000e+00
      -11  1    4    4    0    0 +5.2660377659e-02 -6.1553843296e+00 +8.9765613070e+00 1.0884400880e+01 5.1100000000e-04 0.0000e+00 -1.0000e+00
       11  1    4    4    0    0 -1.3369453953e+01 +4.2958865686e+00 -3.2184400923e+01 3.5114563979e+01 5.1100000000e-04 0.0000e+00 1.0000e+00
      -12  1    4    4    0    0 -1.0503714186e+01 +7.6607254729e+00 +2.8203364529e+00 1.3302970502e+01 0.0000000000e+00 0.0000e+00 1.0000e+00
       12  1    3    3    0    0 +2.3820507761e+01 -5.8012277120e+00 +2.0387503163e+01 3.1886064639e+01 0.0000000000e+00 0.0000e+00 -1.0000e+00
</event>
<event>
 8      4 +2.2883893e-04 9.11880000e+01 7.81616400e-03 1.18400000e-01
      -11 -1    0    0    0    0 +0.0000000000e+00 +0.0000000000e+00 +4.5593999997e+01 4.5594000000e+01 5.1100000000e-04 0.0000e+00 -1.0000e+00
       11 -1    0    0    0    0 -0.0000000000e+00 -0.0000000000e+00 -4.5593999997e+01 4.5594000000e+01 5.1100000000e-04 0.0000e+00 1.0000e+00
       23  2    1    2    0    0 +1.7763568394e-15 -3.5527136788e-15 +0.0000000000e+00 9.1188000000e+01 9.1188000000e+01 2.0389e-13 0.0000e+00
 -9990012  2    3    3    0    0 +1.0821690827e+01 -2.9449543433e+01 -5.6868405361e+00 5.9301878316e+01 4.9999880157e+01 4.2159e-04 0.0000e+00
      -11  1    4    4    0    0 +4.0797119511e+00 -9.8023029434e-01 +4.4917656051e+00 6.1466136649e+00 5.1100000000e-04 0.0000e+00 1.0000e+00
       11  1    4    4    0    0 +1.7269019855e+01 +3.0891960912e+00 +2.1541619572e+00 1.7674914236e+01 5.1100000000e-04 0.0000e+00 -1.0000e+00
      -12  1    4    4    0    0 -1.0527040979e+01 -3.1558509230e+01 -1.2332768098e+01 3.5480350415e+01 0.0000000000e+00 0.0000e+00 1.0000e+00
       12  1    3    3    0    0 -1.0821690827e+01 +2.9449543433e+01 +5.6868405361e+00 3.1886121684e+01 0.0000000000e+00 0.0000e+00 -1.0000e+00
</event>
<event>
 8      3 +2.2883893e-04 9.11880000e+01 7.81616400e-03 1.18400000e-01
      -11 -1    0    0    0    0 +0.0000000000e+00 +0.0000000000e+00 +4.5593999997e+01 4.5594000000e+01 5.1100000000e-04 0.0000e+00 1.0000e+00
       11 -1    0    0    0    0 -0.0000000000e+00 -0.0000000000e+00 -4.5593999997e+01 4.5594000000e+01 5.1100000000e-04 0.0000e+00 -1.0000e+00
       23  2    1    2    0    0 -3.5527136788e-15 +0.0000000000e+00 +0.0000000000e+00 9.1188000000e+01 9.1188000000e+01 1.5030e-13 0.0000e+00
  9990012  2    3    3    0    0 -2.2020131015e+01 -2.0310106503e+01 -1.0924076322e+01 5.9301920913e+01 4.9999957843e+01 1.0801e-03 0.0000e+00
      -11  1    4    4    0    0 -5.1308379227e-01 +8.1138048520e+00 -2.6244725303e+00 8.5431224080e+00 5.1100000000e-04 0.0000e+00 1.0000e+00
       11  1    4    4    0    0 -1.0952353937e+01 -3.5623006228e+01 -5.4004933451e+00 3.7657906980e+01 5.1100000000e-04 0.0000e+00 -1.0000e+00
       12  1    4    4    0    0 -1.0554693286e+01 +7.1990948734e+00 -2.8991104467e+00 1.3100891525e+01 0.0000000000e+00 0.0000e+00 -1.0000e+00
      -12  1    3    3    0    0 +2.2020131015e+01 +2.0310106503e+01 +1.0924076322e+01 3.1886079087e+01 0.0000000000e+00 0.0000e+00 1.0000e+00
</event>
<event>
 8      4 +2.2883893e-04 9.11880000e+01 7.81616400e-03 1.18400000e-01
      -11 -1    0    0    0    0 +0.0000000000e+00 +0.0000000000e+00 +4.5593999997e+01 4.5594000000e+01 5.1100000000e-04 0.0000e+00 -1.0000e+00
       11 -1    0    0    0    0 -0.0000000000e+00 -0.0000000000e+00 -4.5593999997e+01 4.5594000000e+01 5.1100000000e-04 0.0000e+00 1.0000e+00
       23  2    1    2    0    0 +0.0000000000e+00 +3.5527136788e-15 +0.0000000000e+00 9.1188000000e+01 9.1188000000e+01 4.7277e-14 0.0000e+00
 -9990012  2    3    3    0    0 -1.2903923987e+01 -2.8775143114e+01 +4.7117202263e+00 5.9301946262e+01 5.0000004075e+01 2.4192e-04 0.0000e+00
      -11  1    4    4    0    0 +8.6979297408e+00 -5.5909252916e+00 -1.7116505437e+01 1.9997179452e+01 5.1100000000e-04 0.0000e+00 1.0000e+00
       11  1    4    4    0    0 -1.4650216030e+01 -1.9372410342e+01 +1.3423761896e+01 2.7750972882e+01 5.1100000000e-04 0.0000e+00 -1.0000e+00
      -12  1    4    4    0    0 -6.9516376972e+00 -3.8118074799e+00 +8.4044637671e+00 1.1553793929e+01 0.0000000000e+00 0.0000e+00 1.0000e+00
       12  1    3    3    0    0 +1.2903923987e+01 +2.8775143114e+01 -4.7117202263e+00 3.1886053738e+01 0.0000000000e+00 0.0000e+00 -1.0000e+00
</event>
<event>
 8      4 +2.2883893e-04 9.11880000e+01 7.81616400e-03 1.18400000e-01
      -11 -1    0    0    0    0 +0.0000000000e+00 +0.0000000000e+00 +4.5593999997e+01 4.5594000000e+01 5.1100000000e-04 0.0000e+00 -1.0000e+00
       11 -1    0    0    0    0 -0.0000000000e+00 -0.0000000000e+00 -4.5593999997e+01 4.5594000000e+01 5.1100000000e-04 0.0000e+00 1.0000e+00
       23  2    1    2    0    0 -3.5527136788e-15 +1.7763568394e-15 -3.5527136788e-15 9.1188000000e+01 9.1188000000e+01 1.8153e-13 0.0000e+00
 -9990012  2    3    3    0    0 -1.6879834854e+01 -8.2765566462e+00 -2.5754456872e+01 5.9301917403e+01 4.9999951443e+01 1.0570e-03 0.0000e+00
      -11  1    4    4    0    0 -1.1233391787e+01 -4.2430113136e-01 +8.3260714961e+00 1.3989016739e+01 5.1100000000e-04 0.0000e+00 -1.0000e+00
       11  1    4    4    0    0 -1.0486313140e+01 -5.0587372952e+00 -9.1364710627e-01 1.1678541758e+01 5.1100000000e-04 0.0000e+00 1.0000e+00
      -12  1    4    4    0    0 +4.8398700740e+00 -2.7935182196e+00 -3.3166881262e+01 3.3634358906e+01 0.0000000000e+00 0.0000e+00 1.0000e+00
       12  1    3    3    0    0 +1.6879834854e+01 +8.2765566462e+00 +2.5754456872e+01 3.1886082597e+01 0.0000000000e+00 0.0000e+00 -1.0000e+00
</event>
<event>
 8      4 +2.2883893e-04 9.11880000e+01 7.81616400e-03 1.18400000e-01
      -11 -1    0    0    0    0 +0.0000000000e+00 +0.0000000000e+00 +4.5593999997e+01 4.5594000000e+01 5.1100000000e-04 0.0000e+00 1.0000e+00
       11 -1    0    0    0    0 -0.0000000000e+00 -0.0000000000e+00 -4.5593999997e+01 4.5594000000e+01 5.1100000000e-04 0.0000e+00 -1.0000e+00
       23  2    1    2    0    0 +0.0000000000e+00 +0.0000000000e+00 -1.7763568394e-15 9.1188000000e+01 9.1188000000e+01 2.7117e-14 0.0000e+00
 -9990012  2    3    3    0    0 -2.1531848100e+01 +1.9221801256e+01 +1.3550732597e+01 5.9301945367e+01 5.0000002443e+01 3.3042e-03 0.0000e+00
      -11  1    4    4    0    0 -1.0048796336e+01 +7.8798936273e+00 -3.5136126875e+00 1.3244489638e+01 5.1100000000e-04 0.0000e+00 1.0000e+00
       11  1    4    4    0    0 +8.3501426730e+00 +1.8977614053e+01 +1.2846329884e+01 2.4390631594e+01 5.1100000000e-04 0.0000e+00 -1.0000e+00
      -12  1    4    4    0    0 -1.9833194437e+01 -7.6357064247e+00 +4.2180154003e+00 2.1666824135e+01 0.0000000000e+00 0.0000e+00 1.0000e+00
       12  1    3    3    0    0 +2.1531848100e+01 -1.9221801256e+01 -1.3550732597e+01 3.1886054633e+01 0.0000000000e+00 0.0000e+00 -1.0000e+00
</event>
<event>
 8      3 +2.2883893e-04 9.11880000e+01 7.81616400e-03 1.18400000e-01
      -11 -1    0    0    0    0 +0.0000000000e+00 +0.0000000000e+00 +4.5593999997e+01 4.5594000000e+01 5.1100000000e-04 0.0000e+00 1.0000e+00
       11 -1    0    0    0    0 -0.0000000000e+00 -0.0000000000e+00 -4.5593999997e+01 4.5594000000e+01 5.1100000000e-04 0.0000e+00 -1.0000e+00
       23  2    1    2    0    0 +1.7763568394e-15 -3.5527136788e-15 -3.5527136788e-15 9.1188000000e+01 9.1188000000e+01 9.5786e-14 0.0000e+00
  9990012  2    3    3    0    0 +1.3915332097e+01 +1.6294491492e+01 -2.3612751699e+01 5.9302125962e+01 5.0000331803e+01 2.6511e-03 0.0000e+00
      -11  1    4    4    0    0 +5.6684862699e+00 +1.2921155208e+01 -1.3560410436e+00 1.4174866351e+01 5.1100000000e-04 0.0000e+00 1.0000e+00
       11  1    4    4    0    0 +1.6494570065e+01 -1.2144268457e+01 -6.4055616208e+00 2.1461251546e+01 5.1100000000e-04 0.0000e+00 -1.0000e+00
       12  1    4    4    0    0 -8.2477242380e+00 +1.5517604740e+01 -1.5851149035e+01 2.3666008064e+01 0.0000000000e+00 0.0000e+00 -1.0000e+00
      -12  1    3    3    0    0 -1.3915332097e+01 -1.6294491492e+01 +2.3612751699e+01 3.1885874038e+01 0.0000000000e+00 0.0000e+00 1.0000e+00
</event>
<event>
 8      4 +2.2883893e-04 9.11880000e+01 7.81616400e-03 1.18400000e-01
      -11 -1    0    0    0    0 +0.0000000000e+00 +0.0000000000e+00 +4.5593999997e+01 4.5594000000e+01 5.1100000000e-04 0.0000e+00 -1.0000e+00
       11 -1    0    0    0    0 -0.0000000000e+00 -0.0000000000e+00 -4.5593999997e+01 4.5594000000e+01 5.1100000000e-04 0.0000e+00 1.0000e+00
       23  2    1    2    0    0 -3.5527136788e-15 +0.0000000000e+00 +0.0000000000e+00 9.1188000000e+01 9.1188000000e+01 4.4254e-14 0.0000e+00
 -9990012  2    3    3    0    0 -1.6126626498e+01 -2.0640740905e+01 -1.8182761800e+01 5.9301935740e+01 4.9999984886e+01 1.6330e-03 0.0000e+00
      -11  1    4    4    0    0 -1.1200657320e+01 -5.0107123467e+00 -9.9168258971e+00 1.5776735998e+01 5.1100000000e-04 0.0000e+00 1.0000e+00
       11  1    4    4    0    0 -9.0145881205e+00 +1.1685477563e+01 -5.5681618017e+00 1.5773953562e+01 5.1100000000e-04 0.0000e+00 -1.0000e+00
      -12  1    4    4    0    0 +4.0886189424e+00 -2.7315506121e+01 -2.6977741008e+00 2.7751246181e+01 0.0000000000e+00 0.0000e+00 1.0000e+00
       12  1    3    3    0    0 +1.6126626498e+01 +2.0640740905e+01 +1.8182761800e+01 3.1886064260e+01 0.0000000000e+00 0.0000e+00 -1.0000e+00
</event>
<event>
 8      3 +2.2883893e-04 9.11880000e+01 7.81616400e-03 1.18400000e-01
      -11 -1    0    0    0    0 +0.0000000000e+00 +0.0000000000e+00 +4.5593999997e+01 4.5594000000e+01 5.1100000000e-04 0.0000e+00 1.0000e+00
       11 -1    0    0    0    0 -0.0000000000e+00 -0.0000000000e+00 -4.5593999997e+01 4.5594000000e+01 5.1100000000e-04 0.0000e+00 -1.0000e+00
       23  2    1    2    0    0 +1.7763568394e-15 +0.0000000000e+00 +3.5527136788e-15 9.1188000000e+01 9.1188000000e+01 2.7573e-14 0.0000e+00
  9990012  2    3    3    0    0 -1.5651597345e+01 +2.0775234825e+01 -1.8442771381e+01 5.9301973316e+01 5.0000053414e+01 6.8738e-03 0.0000e+00
      -11  1    4    4    0    0 -1.3270639342e+01 -6.9243579324e+00 +2.5881594700e+00 1.5190627736e+01 5.1100000000e-04 0.0000e+00 1.0000e+00
       11  1    4    4    0    0 -5.4607237115e+00 +2.1790863644e+01 -4.3980835081e-01 2.2468971348e+01 5.1100000000e-04 0.0000e+00 -1.0000e+00
       12  1    4    4    0    0 +3.0797657078e+00 +5.9087291130e+00 -2.0591122501e+01 2.1642374232e+01 0.0000000000e+00 0.0000e+00 -1.0000e+00
      -12  1    3    3    0    0 +1.5651597345e+01 -2.0775234825e+01 +1.8442771381e+01 3.1886026684e+01 0.0000000000e+00 0.0000e+00 1.0000e+00
</event>
<event>
 8      3 +2.2883893e-04 9.11880000e+01 7.81616400e-03 1.18400000e-01
      -11 -1    0    0    0    0 +0.0000000000e+00 +0.0000000000e+00 +4.5593999997e+01 4.5594000000e+01 5.1100000000e-04 0.0000e+00 1.0000e+00
       11 -1    0    0    0    0 -0.0000000000e+00 -0.0000000000e+00 -4.5593999997e+01 4.5594000000e+01 5.1100000000e-04 0.0000e+00 -1.0000e+00
       23  2    1    2    0    0 -2.6645352591e-15 +1.7763568394e-15 -1.0658141036e-14 9.1188000000e+01 9.1188000000e+01 8.0605e-14 0.0000e+00
  9990012  2    3    3    0    0 -3.5426334989e+00 +1.2230517506e+01 -2.9233273443e+01 5.9301951534e+01 5.0000013689e+01 1.7573e-03 0.0000e+00
      -11  1    4    4    0    0 +6.8605835310e+00 +1.0209111611e+01 -4.3054190556e+00 1.3031891643e+01 5.1100000000e-04 0.0000e+00 1.0000e+00
       11  1    4    4    0    0 +9.0145022897e+00 +1.1032462397e+01 -1.1764946817e+00 1.4295475441e+01 5.1100000000e-04 0.0000e+00 -1.0000e+00
       12  1    4    4    0    0 -1.9417719320e+01 -9.0110565023e+00 -2.3751359706e+01 3.1974584450e+01 0.0000000000e+00 0.0000e+00 -1.0000e+00
      -12  1    3    3    0    0 +3.5426334989e+00 -1.2230517506e+01 +2.9233273443e+01 3.1886048466e+01 0.0000000000e+00 0.0000e+00 1.0000e+00
</event>
<event>
 8      4 +2.2883893e-04 9.11880000e+01 7.81616400e-03 1.18400000e-01
      -11 -1    0    0    0    0 +0.0000000000e+00 +0.0000000000e+00 +4.5593999997e+01 4.5594000000e+01 5.1100000000e-04 0.0000e+00 1.0000e+00
       11 -1    0    0    0    0 -0.0000000000e+00 -0.0000000000e+00 -4.5593999997e+01 4.5594000000e+01 5.1100000000e-04 0.0000e+00 -1.0000e+00
       23  2    1    2    0    0 +3.5527136788e-15 +3.5527136788e-15 -4.4408920985e-16 9.1188000000e+01 9.1188000000e+01 5.6913e-14 0.0000e+00
 -9990012  2    3    3    0    0 -2.5368813848e+01 -1.9123798337e+01 -2.7249098321e+00 5.9301929178e+01 4.9999972918e+01 2.6781e-03 0.0000e+00
      -11  1    4    4    0    0 -4.9013620138e+00 -2.6237232879e+01 +7.4055653815e+00 2.7699424861e+01 5.1100000000e-04 0.0000e+00 1.0000e+00
       11  1    4    4    0    0 +3.6009283993e+00 -4.7610989725e-01 -4.4324120599e+00 5.7305883556e+00 5.1100000000e-04 0.0000e+00 -1.0000e+00
      -12  1    4    4    0    0 -2.4068380233e+01 +7.5895444393e+00 -5.6980631536e+00 2.5871915962e+01 0.0000000000e+00 0.0000e+00 1.0000e+00
       12  1    3    3    0    0 +2.5368813848e+01 +1.9123798337e+01 +2.7249098321e+00 3.1886070822e+01 0.0000000000e+00 0.0000e+00 -1.0000e+00
</event>
<event>
 8      4 +2.2883893e-04 9.11880000e+01 7.81616400e-03 1.18400000e-01
      -11 -1    0    0    0    0 +0.0000000000e+00 +0.0000000000e+00 +4.5593999997e+01 4.5594000000e+01 5.1100000000e-04 0.0000e+00 1.0000e+00
       11 -1    0    0    0    0 -0.0000000000e+00 -0.0000000000e+00 -4.5593999997e+01 4.5594000000e+01 5.1100000000e-04 0.0000e+00 -1.0000e+00
       23  2    1    2    0    0 +1.7763568394e-15 +8.8817841970e-16 +0.0000000000e+00 9.1188000000e+01 9.1188000000e+01 6.2063e-15 0.0000e+00
 -9990012  2    3    3    0    0 -1.4848445859e+01 -7.2197645330e+00 +2.7278533287e+01 5.9301957244e+01 5.0000024104e+01 8.4759e-04 0.0000e+00
      -11  1    4    4    0    0 +9.8193098182e-01 -1.1677499099e+01 +3.3215629267e+01 3.5222240155e+01 5.1100000000e-04 0.0000e+00 1.0000e+00
       11  1    4    4    0    0 -1.2627434115e+01 -4.7671502501e+00 -2.4968384268e+00 1.3726325664e+01 5.1100000000e-04 0.0000e+00 -1.0000e+00
      -12  1    4    4    0    0 -3.2029427258e+00 +9.2248848166e+00 -3.4402575529e+00 1.0353391426e+01 0.0000000000e+00 0.0000e+00 1.0000e+00
       12  1    3    3    0    0 +1.4848445859e+01 +7.2197645330e+00 -2.7278533287e+01 3.1886042756e+01 0.0000000000e+00 0.0000e+00 -1.0000e+00
</event>
<event>
 8      3 +2.2883893e-04 9.11880000e+01 7.81616400e-03 1.18400000e-01
      -11 -1    0    0    0    0 +0.0000000000e+00 +0.0000000000e+00 +4.5593999997e+01 4.5594000000e+01 5.1100000000e-04 0.0000e+00 1.0000e+00
       11 -1    0    0    0    0 -0.0000000000e+00 -0.0000000000e+00 -4.5593999997e+01 4.5594000000e+01 5.1100000000e-04 0.0000e+00 -1.0000e+00
       23  2    1    2    0    0 +1.7763568394e-15 +0.0000000000e+00 +1.7763568394e-15 9.1188000000e+01 9.1188000000e+01 9.2677e-14 0.0000e+00
  9990012  2    3    3    0    0 -1.5444796318e+01 -2.7240285696e+01 -6.0121189354e+00 5.9301945491e+01 5.0000002668e+01 2.5732e-03 0.0000e+00
      -11  1    4    4    0    0 -7.5507451070e+00 -2.8840827183e+01 +3.0359993149e+00 2.9967054516e+01 5.1100000000e-04 0.0000e+00 1.0000e+00
       11  1    4    4    0    0 -7.0620755330e+00 -1.0325202603e+01 -1.1657024052e+01 1.7098799069e+01 5.1100000000e-04 0.0000e+00 -1.0000e+00
       12  1    4    4    0    0 -8.3197567787e-01 +1.1925744090e+01 +2.6089058012e+00 1.2236091905e+01 0.0000000000e+00 0.0000e+00 -1.0000e+00
      -12  1    3    3    0    0 +1.5444796318e+01 +2.7240285696e+01 +6.0121189354e+00 3.1886054509e+01 0.0000000000e+00 0.0000e+00 1.0000e+00
</event>
<event>
 8      4 +2.2883893e-04 9.11880000e+01 7.81616400e-03 1.18400000e-01
      -11 -1    0    0    0    0 +0.0000000000e+00 +0.0000000000e+00 +4.5593999997e+01 4.5594000000e+01 5.1100000000e-04 0.0000e+00 1.0000e+00
       11 -1    0    0    0    0 -0.0000000000e+00 -0.0000000000e+00 -4.5593999997e+01 4.5594000000e+01 5.1100000000e-04 0.0000e+00 -1.0000e+00
       23  2    1    2    0    0 +6.6613381478e-16 +3.5527136788e-15 +3.5527136788e-15 9.1188000000e+01 9.1188000000e+01 1.6991e-14 0.0000e+00
 -9990012  2    3    3    0    0 +5.6139185358e-01 +1.7708036404e+01 +2.6510932426e+01 5.9301964622e+01 5.0000037558e+01 6.5720e-04 0.0000e+00
      -11  1    4    4    0    0 -3.5204409286e+00 +3.4147297461e+00 +3.2234097101e+00 5.8689227283e+00 5.1100000000e-04 0.0000e+00 1.0000e+00
       11  1    4    4    0    0 -2.0438962458e+01 +1.6616787404e+00 +1.0164465287e+01 2.2887304722e+01 5.1100000000e-04 0.0000e+00 -1.0000e+00
      -12  1    4    4    0    0 +2.4520795240e+01 +1.2631627917e+01 +1.3123057429e+01 3.0545737171e+01 0.0000000000e+00 0.0000e+00 1.0000e+00
       12  1    3    3    0    0 -5.6139185358e-01 -1.7708036404e+01 -2.6510932426e+01 3.1886035378e+01 0.0000000000e+00 0.0000e+00 -1.0000e+00
</event>
<event>
 8      3 +2.2883893e-04 9.11880000e+01 7.81616400e-03 1.18400000e-01
      -11 -1    0    0    0    0 +0.0000000000e+00 +0.0000000000e+00 +4.5593999997e+01 4.5594000000e+01 5.1100000000e-04 0.0000e+00 1.0000e+00
       11 -1    0    0    0    0 -0.0000000000e+00 -0.0000000000e+00 -4.5593999997e+01 4.5594000000e+01 5.1100000000e-04 0.0000e+00 -1.0000e+00
       23  2    1    2    0    0 +1.7763568394e-15 +3.5527136788e-15 -3.5527136788e-15 9.1188000000e+01 9.1188000000e+01 1.1071e-13 0.0000e+00
  9990012  2    3    3    0    0 +1.5540738359e+01 +1.9869914457e+01 -1.9503743727e+01 5.9301889095e+01 4.9999899815e+01 4.2266e-03 0.0000e+00
      -11  1    4    4    0    0 +6.2533370881e+00 +2.3461794392e+00 -1.3682268482e+01 1.5225414733e+01 5.1100000000e-04 0.0000e+00 1.0000e+00
       11  1    4    4    0    0 +2.3431415082e+01 +5.1034632118e+00 -7.6329577015e+00 2.5166219284e+01 5.1100000000e-04 0.0000e+00 -1.0000e+00
       12  1    4    4    0    0 -1.4144013811e+01 +1.2420271807e+01 +1.8114824571e+00 1.8910255078e+01 0.0000000000e+00 0.0000e+00 -1.0000e+00
      -12  1    3    3    0    0 -1.5540738359e+01 -1.9869914457e+01 +1.9503743727e+01 3.1886110905e+01 0.0000000000e+00 0.0000e+00 1.0000e+00
</event>
<event>
 8      4 +2.2883893e-04 9.11880000e+01 7.81616400e-03 1.18400000e-01
      -11 -1    0    0    0    0 +0.0000000000e+00 +0.0000000000e+00 +4.5593999997e+01 4.5594000000e+01 5.1100000000e-04 0.0000e+00 1.0000e+00
       11 -1    0    0    0    0 -0.0000000000e+00 -0.0000000000e+00 -4.5593999997e+01 4.5594000000e+01 5.1100000000e-04 0.0000e+00 -1.0000e+00
       23  2    1    2    0    0 +3.5527136788e-15 +4.4408920985e-16 +3.5527136788e-15 9.1188000000e+01 9.1188000000e+01 2.2708e-14 0.0000e+00
 -9990012  2    3    3    0    0 -2.7193014927e+01 +2.4556949423e+00 -1.6469018992e+01 5.9301967243e+01 5.0000042339e+01 1.0022e-03 0.0000e+00
      -11  1    4    4    0    0 -4.9133627036e+00 +1.4800869239e+00 +1.2464715329e+01 1.3479648321e+01 5.1100000000e-04 0.0000e+00 1.0000e+00
       11  1    4    4    0    0 -3.6638254596e+00 +1.1914453317e+01 -4.5913986465e+00 1.3283777950e+01 5.1100000000e-04 0.0000e+00 -1.0000e+00
      -12  1    4    4    0    0 -1.8615826763e+01 -1.0938845298e+01 -2.4342335674e+01 3.2538540972e+01 0.0000000000e+00 0.0000e+00 1.0000e+00
       12  1    3    3    0    0 +2.7193014927e+01 -2.4556949423e+00 +1.6469018992e+01 3.1886032757e+01 0.0000000000e+00 0.0000e+00 -1.0000e+00
</event>
<event>
 8      3 +2.2883893e-04 9.11880000e+01 7.81616400e-03 1.18400000e-01
      -11 -1    0    0    0    0 +0.0000000000e+00 +0.0000000000e+00 +4.5593999997e+01 4.5594000000e+01 5.1100000000e-04 0.0000e+00 -1.0000e+00
       11 -1    0    0    0    0 -0.0000000000e+00 -0.0000000000e+00 -4.5593999997e+01 4.5594000000e+01 5.1100000000e-04 0.0000e+00 1.0000e+00
       23  2    1    2    0    0 +0.0000000000e+00 +0.0000000000e+00 -3.5527136788e-15 9.1188000000e+01 9.1188000000e+01 4.3436e-14 0.0000e+00
  9990012  2    3    3    0    0 -1.2396950715e+01 +6.6746428316e+00 +2.8609208800e+01 5.9301920402e+01 4.9999956912e+01 5.3308e-03 0.0000e+00
      -11  1    4    4    0    0 +4.1400996390e+00 +1.3520893260e+01 -3.2347556102e+00 1.4505813445e+01 5.1100000000e-04 0.0000e+00 1.0000e+00
       11  1    4    4    0    0 +3.9341739174e+00 -4.6931067205e+00 -8.2883761991e-01 6.1798015472e+00 5.1100000000e-04 0.0000e+00 -1.0000e+00
       12  1    4    4    0    0 -2.0471224271e+01 -2.1531437082e+00 +3.2672802030e+01 3.8616305410e+01 0.0000000000e+00 0.0000e+00 -1.0000e+00
      -12  1    3    3    0    0 +1.2396950715e+01 -6.6746428316e+00 -2.8609208800e+01 3.1886079598e+01 0.0000000000e+00 0.0000e+00 1.0000e+00
</event>
<event>
 8      4 +2.2883893e-04 9.11880000e+01 7.81616400e-03 1.18400000e-01
      -11 -1    0    0    0    0 +0.0000000000e+00 +0.0000000000e+00 +4.5593999997e+01 4.5594000000e+01 5.1100000000e-04 0.0000e+00 1.0000e+00
       11 -1    0    0    0    0 -0.0000000000e+00 -0.0000000000e+00 -4.5593999997e+01 4.5594000000e+01 5.1100000000e-04 0.0000e+00 -1.0000e+00
       23  2    1    2    0    0 +1.7763568394e-15 +1.7763568394e-15 +3.5527136788e-15 9.1188000000e+01 9.1188000000e+01 8.7444e-14 0.0000e+00
 -9990012  2    3    3    0    0 +8.5091572097e+00 -8.8055724814e+00 +2.9441086456e+01 5.9301930395e+01 4.9999975137e+01 1.1125e-04 0.0000e+00
      -11  1    4    4    0    0 -4.9667822456e+00 +5.3099557254e+00 +1.3455972376e+01 1.5294696745e+01 5.1100000000e-04 0.0000e+00 1.0000e+00
       11  1    4    4    0    0 +1.7700993077e+01 +6.8383080613e+00 +1.1427523544e+01 2.2151205558e+01 5.1100000000e-04 0.0000e+00 -1.0000e+00
      -12  1    4    4    0    0 -4.2250536217e+00 -2.0953836268e+01 +4.5575905357e+00 2.1856028092e+01 0.0000000000e+00 0.0000e+00 1.0000e+00
       12  1    3    3    0    0 -8.5091572097e+00 +8.8055724814e+00 -2.9441086456e+01 3.1886069605e+01 0.0000000000e+00 0.0000e+00 -1.0000e+00
</event>
<event>
 8      3 +2.2883893e-04 9.11880000e+01 7.81616400e-03 1.18400000e-01
      -11 -1    0    0    0    0 +0.0000000000e+00 +0.0000000000e+00 +4.5593999997e+01 4.5594000000e+01 5.1100000000e-04 0.0000e+00 1.0000e+00
       11 -1    0    0    0    0 -0.0000000000e+00 -0.0000000000e+00 -4.5593999997e+01 4.5594000000e+01 5.1100000000e-04 0.0000e+00 -1.0000e+00
       23  2    1    2    0    0 +0.0000000000e+00 +8.8817841970e-16 -3.5527136788e-15 9.1188000000e+01 9.1188000000e+01 1.0133e-14 0.0000e+00
  9990012  2    3    3    0    0 -2.6302532815e+01 +7.5289885754e+00 -1.6377295075e+01 5.9301879267e+01 4.9999881892e+01 1.5925e-03 0.0000e+00
      -11  1    4    4    0    0 -1.6197844167e+01 +2.6560362962e+01 -3.8153268834e+00 3.1342937893e+01 5.1100000000e-04 0.0000e+00 1.0000e+00
       11  1    4    4    0    0 -5.2671041308e+00 -7.6794682556e+00 -1.2539685244e+01 1.5619229331e+01 5.1100000000e-04 0.0000e+00 -1.0000e+00
       12  1    4    4    0    0 -4.8375845171e+00 -1.1351906131e+01 -2.2282947557e-02 1.2339712042e+01 0.0000000000e+00 0.0000e+00 -1.0000e+00
      -12  1    3    3    0    0 +2.6302532815e+01 -7.5289885754e+00 +1.6377295075e+01 3.1886120733e+01 0.0000000000e+00 0.0000e+00 1.0000e+00
</event>
<event>
 8      4 +2.2883893e-04 9.11880000e+01 7.81616400e-03 1.18400000e-01
      -11 -1    0    0    0    0 +0.0000000000e+00 +0.0000000000e+00 +4.5593999997e+01 4.5594000000e+01 5.1100000000e-04 0.0000e+00 1.0000e+00
       11 -1    0    0    0    0 -0.0000000000e+00 -0.0000000000e+00 -4.5593999997e+01 4.5594000000e+01 5.1100000000e-04 0.0000e+00 -1.0000e+00
       23  2    1    2    0    0 +0.0000000000e+00 +8.8817841970e-16 +3.5527136788e-15 9.1188000000e+01 9.1188000000e+01 9.6234e-14 0.0000e+00
 -9990012  2    3    3    0    0 +8.8727597341e+00 +4.9498140249e+00 +3.0224082937e+01 5.9301926025e+01 4.9999967167e+01 1.3652e-03 0.0000e+00
      -11  1    4    4    0    0 +1.6588534294e+01 -7.4964103538e-01 +2.7419051419e+01 3.2055355444e+01 5.1100000000e-04 0.0000e+00 1.0000e+00
       11  1    4    4    0    0 -9.2644211325e+00 -6.5219100493e+00 -5.2919214953e+00 1.2504768810e+01 5.1100000000e-04 0.0000e+00 -1.0000e+00
      -12  1    4    4    0    0 +1.5486465727e+00 +1.2221365110e+01 +8.0969530135e+00 1.4741801771e+01 0.0000000000e+00 0.0000e+00 1.0000e+00
       12  1    3    3    0    0 -8.8727597341e+00 -4.9498140249e+00 -3.0224082937e+01 3.1886073975e+01 0.0000000000e+00 0.0000e+00 -1.0000e+00
</event>
<event>
 8      3 +2.2883893e-04 9.11880000e+01 7.81616400e-03 1.18400000e-01
      -11 -1    0    0    0    0 +0.0000000000e+00 +0.0000000000e+00 +4.5593999997e+01 4.5594000000e+01 5.1100000000e-04 0.0000e+00 -1.0000e+00
       11 -1    0    0    0    0 -0.0000000000e+00 -0.0000000000e+00 -4.5593999997e+01 4.5594000000e+01 5.1100000000e-04 0.0000e+00 1.0000e+00
       23  2    1    2    0    0 +0.0000000000e+00 +0.0000000000e+00 -1.7763568394e-15 9.1188000000e+01 9.1188000000e+01 1.4135e-15 0.0000e+00
  9990012  2    3    3    0    0 +1.5371098178e+01 +2.5099224644e+01 +1.2266934181e+01 5.9301962129e+01 5.0000033012e+01 5.6606e-03 0.0000e+00
      -11  1    4    4    0    0 -3.6231693748e+00 -1.2588131514e+01 +8.1283744618e+00 1.5416188990e+01 5.1100000000e-04 0.0000e+00 -1.0000e+00
       11  1    4    4    0    0 +5.7021184634e+00 +1.2738672413e+01 +6.7376480092e+00 1.5497865362e+01 5.1100000000e-04 0.0000e+00 1.0000e+00
       12  1    4    4    0    0 +1.3292149090e+01 +2.4948683744e+01 -2.5990882898e+00 2.8387907777e+01 0.0000000000e+00 0.0000e+00 -1.0000e+00
      -12  1    3    3    0    0 -1.5371098178e+01 -2.5099224644e+01 -1.2266934181e+01 3.1886037871e+01 0.0000000000e+00 0.0000e+00 1.0000e+00
</event>
<event>
 8      4 +2.2883893e-04 9.11880000e+01 7.81616400e-03 1.18400000e-01
      -11 -1    0    0    0    0 +0.0000000000e+00 +0.0000000000e+00 +4.5593999997e+01 4.5594000000e+01 5.1100000000e-04 0.0000e+00 1.0000e+00
       11 -1    0    0    0    0 -0.0000000000e+00 -0.0000000000e+00 -4.5593999997e+01 4.5594000000e+01 5.1100000000e-04 0.0000e+00 -1.0000e+00
       23  2    1    2    0    0 +0.0000000000e+00 +0.0000000000e+00 -3.5527136788e-15 9.1188000000e+01 9.1188000000e+01 1.2654e-14 0.0000e+00
 -9990012  2    3    3    0    0 +1.8501468818e+00 -9.7673623478e+00 +3.0296894698e+01 5.9301855061e+01 4.9999837746e+01 3.6578e-03 0.0000e+00
      -11  1    4    4    0    0 +5.6356965532e+00 +4.8262204610e-03 +3.3292980556e+01 3.3766605596e+01 5.1100000000e-04 0.0000e+00 1.0000e+00
       11  1    4    4    0    0 -9.9073771081e+00 +3.6444283943e+00 -2.0811732026e+00 1.0759612523e+01 5.1100000000e-04 0.0000e+00 -1.0000e+00
      -12  1    4    4    0    0 +6.1218274367e+00 -1.3416616963e+01 -9.1491265499e-01 1.4775636942e+01 0.0000000000e+00 0.0000e+00 1.0000e+00
       12  1    3    3    0    0 -1.8501468818e+00 +9.7673623478e+00 -3.0296894698e+01 3.1886144939e+01 0.0000000000e+00 0.0000e+00 -1.0000e+00
</event>
<event>
 8      4 +2.2883893e-04 9.11880000e+01 7.81616400e-03 1.18400000e-01
      -11 -1    0    0    0    0 +0.0000000000e+00 +0.0000000000e+00 +4.5593999997e+01 4.5594000000e+01 5.1100000000e-04 0.0000e+00 1.0000e+00
       11 -1    0    0    0    0 -0.0000000000e+00 -0.0000000000e+00 -4.5593999997e+01 4.5594000000e+01 5.1100000000e-04 0.0000e+00 -1.0000e+00
       23  2    1    2    0    0 +3.5527136788e-15 +0.0000000000e+00 +1.7763568394e-15 9.1188000000e+01 9.1188000000e+01 3.2968e-14 0.0000e+00
 -9990012  2    3    3    0    0 -2.5387805409e+01 -1.7004790848e+01 -9.1104236269e+00 5.9302213293e+01 5.0000491072e+01 2.6565e-04 0.0000e+00
      -11  1    4    4    0    0 -6.2783939226e+00 +1.0386608094e+00 -1.1504239247e+00 6.4668788446e+00 5.1100000000e-04 0.0000e+00 1.0000e+00
       11  1    4    4    0    0 +1.3452599902e+01 +1.1218052802e+00 -6.6025838132e+00 1.5027474987e+01 5.1100000000e-04 0.0000e+00 -1.0000e+00
      -12  1    4    4    0    0 -3.2562011388e+01 -1.9165256938e+01 -1.3574158891e+00 3.7807859461e+01 0.0000000000e+00 0.0000e+00 1.0000e+00
       12  1    3    3    0    0 +2.5387805409e+01 +1.7004790848e+01 +9.1104236269e+00 3.1885786707e+01 0.0000000000e+00 0.0000e+00 -1.0000e+00
</event>
<event>
 8      4 +2.2883893e-04 9.11880000e+01 7.81616400e-03 1.18400000e-01
      -11 -1    0    0    0    0 +0.0000000000e+00 +0.0000000000e+00 +4.5593999997e+01 4.5594000000e+01 5.1100000000e-04 0.0000e+00 1.0000e+00
       11 -1    0    0    0    0 -0.0000000000e+00 -0.0000000000e+00 -4.5593999997e+01 4.5594000000e+01 5.1100000000e-04 0.0000e+00 -1.0000e+00
       23  2    1    2    0    0 +0.0000000000e+00 -1.1102230246e-16 +0.0000000000e+00 9.1188000000e+01 9.1188000000e+01 2.2217e-13 0.0000e+00
 -9990012  2    3    3    0    0 +1.1138994661e+01 -4.2386364267e-01 +2.9874151849e+01 5.9301924494e+01 4.9999964376e+01 6.1272e-04 0.0000e+00
      -11  1    4    4    0    0 -2.8099321178e+00 -8.3651294135e-01 -2.3357840508e+00 3.7485143458e+00 5.1100000000e-04 0.0000e+00 1.0000e+00
       11  1    4    4    0    0 +3.0225366984e+00 +1.9263553573e+01 +3.9941576276e+00 1.9904108113e+01 5.1100000000e-04 0.0000e+00 -1.0000e+00
      -12  1    4    4    0    0 +1.0926390081e+01 -1.8850904274e+01 +2.8215778272e+01 3.5649302036e+01 0.0000000000e+00 0.0000e+00 1.0000e+00
       12  1    3    3    0    0 -1.1138994661e+01 +4.2386364267e-01 -2.9874151849e+01 3.1886075506e+01 0.0000000000e+00 0.0000e+00 -1.0000e+00
</event>
<event>
 8      3 +2.2883893e-04 9.11880000e+01 7.81616400e-03 1.18400000e-01
      -11 -1    0    0    0    0 +0.0000000000e+00 +0.0000000000e+00 +4.5593999997e+01 4.5594000000e+01 5.1100000000e-04 0.0000e+00 -1.0000e+00
       11 -1    0    0    0    0 -0.0000000000e+00 -0.0000000000e+00 -4.5593999997e+01 4.5594000000e+01 5.1100000000e-04 0.0000e+00 1.0000e+00
       23  2    1    2    0    0 -3.5527136788e-15 -8.8817841970e-16 +0.0000000000e+00 9.1188000000e+01 9.1188000000e+01 8.6740e-14 0.0000e+00
  9990012  2    3    3    0    0 +2.1702581577e+01 +4.2138905748e+00 +2.2977380805e+01 5.9301969367e+01 5.0000046213e+01 1.6760e-04 0.0000e+00
      -11  1    4    4    0    0 +1.2521012475e+01 +1.4638983574e+01 +1.1471244240e+01 2.2420192643e+01 5.1100000000e-04 0.0000e+00 1.0000e+00
       11  1    4    4    0    0 +7.4096371887e+00 +1.0547260682e+01 -1.0567410017e-02 1.2889823238e+01 5.1100000000e-04 0.0000e+00 -1.0000e+00
       12  1    4    4    0    0 +1.7719319133e+00 -2.0972353681e+01 +1.1516703975e+01 2.3991953486e+01 0.0000000000e+00 0.0000e+00 -1.0000e+00
      -12  1    3    3    0    0 -2.1702581577e+01 -4.2138905748e+00 -2.2977380805e+01 3.1886030633e+01 0.0000000000e+00 0.0000e+00 1.0000e+00
</event>
<event>
 8      3 +2.2883893e-04 9.11880000e+01 7.81616400e-03 1.18400000e-01
      -11 -1    0    0    0    0 +0.0000000000e+00 +0.0000000000e+00 +4.5593999997e+01 4.5594000000e+01 5.1100000000e-04 0.0000e+00 -1.0000e+00
       11 -1    0    0    0    0 -0.0000000000e+00 -0.0000000000e+00 -4.5593999997e+01 4.5594000000e+01 5.1100000000e-04 0.0000e+00 1.0000e+00
       23  2    1    2    0    0 +0.0000000000e+00 -3.5527136788e-15 -8.8817841970e-16 9.1188000000e+01 9.1188000000e+01 4.3661e-14 0.0000e+00
  9990012  2    3    3    0    0 +2.4104042796e+01 -1.9585486808e+01 +7.2196069248e+00 5.9301970194e+01 5.0000047721e+01 1.2020e-03 0.0000e+00
      -11  1    4    4    0    0 +1.4979383581e+01 +6.2191717657e+00 -7.8178471669e+00 1.8004964996e+01 5.1100000000e-04 0.0000e+00 1.0000e+00
       11  1    4    4    0    0 +5.4569168314e+00 +4.3799429163e+00 +6.8847388891e+00 9.8163878839e+00 5.1100000000e-04 0.0000e+00 -1.0000e+00
       12  1    4    4    0    0 +3.6677423842e+00 -3.0184601490e+01 +8.1527152026e+00 3.1480617314e+01 0.0000000000e+00 0.0000e+00 -1.0000e+00
      -12  1    3    3    0    0 -2.4104042796e+01 +1.9585486808e+01 -7.2196069248e+00 3.1886029806e+01 0.0000000000e+00 0.0000e+00 1.0000e+00
</event>
<event>
 8      3 +2.2883893e-04 9.11880000e+01 7.81616400e-03 1.18400000e-01
      -11 -1    0    0    0    0 +0.0000000000e+00 +0.0000000000e+00 +4.5593999997e+01 4.5594000000e+01 5.1100000000e-04 0.0000e+00 1.0000e+00
       11 -1    0    0    0    0 -0.0000000000e+00 -0.0000000000e+00 -4.5593999997e+01 4.5594000000e+01 5.1100000000e-04 0.0000e+00 -1.0000e+00
       23  2    1    2    0    0 -3.5527136788e-15 +0.0000000000e+00 +0.0000000000e+00 9.1188000000e+01 9.1188000000e+01 1.2274e-14 0.0000e+00
  9990012  2    3    3    0    0 -1.6291650963e+01 -1.6547968910e+01 -2.1850989738e+01 5.9301969851e+01 5.0000047095e+01 6.3748e-04 0.0000e+00
      -11  1    4    4    0    0 +8.5339904026e+00 -8.1342460673e+00 -4.6510435961e+00 1.2673876994e+01 5.1100000000e-04 0.0000e+00 1.0000e+00
       11  1    4    4    0    0 +5.8118755083e+00 -8.1502807988e-01 -1.3656424957e+01 1.4864054311e+01 5.1100000000e-04 0.0000e+00 -1.0000e+00
       12  1    4    4    0    0 -3.0637516874e+01 -7.5986947628e+00 -3.5435211853e+00 3.1764038545e+01 0.0000000000e+00 0.0000e+00 -1.0000e+00
      -12  1    3    3    0    0 +1.6291650963e+01 +1.6547968910e+01 +2.1850989738e+01 3.1886030149e+01 0.0000000000e+00 0.0000e+00 1.0000e+00
</event>
<event>
 8      4 +2.2883893e-04 9.11880000e+01 7.81616400e-03 1.18400000e-01
      -11 -1    0    0    0    0 +0.0000000000e+00 +0.0000000000e+00 +4.5593999997e+01 4.5594000000e+01 5.1100000000e-04 0.0000e+00 -1.0000e+00
       11 -1    0    0    0    0 -0.0000000000e+00 -0.0000000000e+00 -4.5593999997e+01 4.5594000000e+01 5.1100000000e-04 0.0000e+00 1.0000e+00
       23  2    1    2    0    0 +3.5527136788e-15 -8.7430063189e-16 -7.1054273576e-15 9.1188000000e+01 9.1188000000e+01 7.0606e-14 0.0000e+00
 -9990012  2    3    3    0    0 +1.2709489308e+01 +1.0646401813e-01 -2.9243339915e+01 5.9302025303e+01 5.0000148226e+01 9.9989e-04 0.0000e+00
      -11  1    4    4    0    0 +2.0870210742e+00 +5.4785124055e+00 +5.3710030845e+00 7.9509389090e+00 5.1100000000e-04 0.0000e+00 1.0000e+00
       11  1    4    4    0    0 -1.2474670037e+01 -7.4352289830e+00 -1.0688785349e+01 1.8031920448e+01 5.1100000000e-04 0.0000e+00 -1.0000e+00
      -12  1    4    4    0    0 +2.3097138270e+01 +2.0631805957e+00 -2.3925557650e+01 3.3319165946e+01 0.0000000000e+00 0.0000e+00 1.0000e+00
       12  1    3    3    0    0 -1.2709489308e+01 -1.0646401813e-01 +2.9243339915e+01 3.1885974697e+01 0.0000000000e+00 0.0000e+00 -1.0000e+00
</event>
<event>
 8      3 +2.2883893e-04 9.11880000e+01 7.81616400e-03 1.18400000e-01
      -11 -1    0    0    0    0 +0.0000000000e+00 +0.0000000000e+00 +4.5593999997e+01 4.5594000000e+01 5.1100000000e-04 0.0000e+00 -1.0000e+00
       11 -1    0    0    0    0 -0.0000000000e+00 -0.0000000000e+00 -4.5593999997e+01 4.5594000000e+01 5.1100000000e-04 0.0000e+00 1.0000e+00
       23  2    1    2    0    0 -3.5527136788e-15 +9.9920072216e-16 +0.0000000000e+00 9.1188000000e+01 9.1188000000e+01 4.4162e-14 0.0000e+00
  9990012  2    3    3    0    0 -2.8511982591e+01 +9.2538073526e-01 -1.4245263776e+01 5.9301999611e+01 5.0000101370e+01 2.2398e-03 0.0000e+00
      -11  1    4    4    0    0 +7.7561446991e+00 -7.8603229222e+00 -3.8788001376e+00 1.1704167967e+01 5.1100000000e-04 0.0000e+00 1.0000e+00
       11  1    4    4    0    0 -3.6773467901e+01 +1.5358491660e+01 -8.5285165061e+00 4.0754224340e+01 5.1100000000e-04 0.0000e+00 -1.0000e+00
       12  1    4    4    0    0 +5.0534061106e-01 -6.5727880025e+00 -1.8379471326e+00 6.8436073033e+00 0.0000000000e+00 0.0000e+00 -1.0000e+00
      -12  1    3    3    0    0 +2.8511982591e+01 -9.2538073526e-01 +1.4245263776e+01 3.1886000389e+01 0.0000000000e+00 0.0000e+00 1.0000e+00
</event>
<event>
 8      3 +2.2883893e-04 9.11880000e+01 7.81616400e-03 1.18400000e-01
      -11 -1    0    0    0    0 +0.0000000000e+00 +0.0000000000e+00 +4.5593999997e+01 4.5594000000e+01 5.1100000000e-04 0.0000e+00 1.0000e+00
       11 -1    0    0    0    0 -0.0000000000e+00 -0.0000000000e+00 -4.5593999997e+01 4.5594000000e+01 5.1100000000e-04 0.0000e+00 -1.0000e+00
       23  2    1    2    0    0 +3.5527136788e-15 -3.5527136788e-15 -1.7763568394e-15 9.1188000000e+01 9.1188000000e+01 7.2214e-14 0.0000e+00
  9990012  2    3    3    0    0 -2.1782365245e+01 +1.9282439749e+01 -1.3055392962e+01 5.9301839934e+01 4.9999810158e+01 7.9661e-04 0.0000e+00
      -11  1    4    4    0    0 -3.3643731696e+00 +2.9152960021e+00 +1.3887241648e+01 1.4583327414e+01 5.1100000000e-04 0.0000e+00 1.0000e+00
       11  1    4    4    0    0 -3.1717217386e+00 +5.6202176305e+00 +4.7024198868e+00 7.9849494710e+00 5.1100000000e-04 0.0000e+00 -1.0000e+00
       12  1    4    4    0    0 -1.5246270337e+01 +1.0746926117e+01 -3.1645054497e+01 3.6733563049e+01 0.0000000000e+00 0.0000e+00 -1.0000e+00
      -12  1    3    3    0    0 +2.1782365245e+01 -1.9282439749e+01 +1.3055392962e+01 3.1886160066e+01 0.0000000000e+00 0.0000e+00 1.0000e+00
</event>
<event>
 8      4 +2.2883893e-04 9.11880000e+01 7.81616400e-03 1.18400000e-01
      -11 -1    0    0    0    0 +0.0000000000e+00 +0.0000000000e+00 +4.5593999997e+01 4.5594000000e+01 5.1100000000e-04 0.0000e+00 1.0000e+00
       11 -1    0    0    0    0 -0.0000000000e+00 -0.0000000000e+00 -4.5593999997e+01 4.5594000000e+01 5.1100000000e-04 0.0000e+00 -1.0000e+00
       23  2    1    2    0    0 +0.0000000000e+00 -3.5527136788e-15 +0.0000000000e+00 9.1188000000e+01 9.1188000000e+01 6.8337e-14 0.0000e+00
 -9990012  2    3    3    0    0 +9.7301657392e+00 +1.9378866252e+01 -2.3377414755e+01 5.9301951277e+01 5.0000013221e+01 1.1751e-03 0.0000e+00
      -11  1    4    4    0    0 -4.7561796487e+00 +4.3681207318e+00 -1.2179439661e+01 1.3785516831e+01 5.1100000000e-04 0.0000e+00 1.0000e+00
       11  1    4    4    0    0 +3.4630996394e+00 -1.5916345482e+00 -2.2354752732e+01 2.2677330742e+01 5.1100000000e-04 0.0000e+00 -1.0000e+00
      -12  1    4    4    0    0 +1.1023245748e+01 +1.6602380068e+01 +1.1156777637e+01 2.2839103704e+01 0.0000000000e+00 0.0000e+00 1.0000e+00
       12  1    3    3    0    0 -9.7301657392e+00 -1.9378866252e+01 +2.3377414755e+01 3.1886048723e+01 0.0000000000e+00 0.0000e+00 -1.0000e+00
</event>
<event>
 8      4 +2.2883893e-04 9.11880000e+01 7.81616400e-03 1.18400000e-01
      -11 -1    0    0    0    0 +0.0000000000e+00 +0.0000000000e+00 +4.5593999997e+01 4.5594000000e+01 5.1100000000e-04 0.0000e+00 1.0000e+00
       11 -1    0    0    0    0 -0.0000000000e+00 -0.0000000000e+00 -4.5593999997e+01 4.5594000000e+01 5.1100000000e-04 0.0000e+00 -1.0000e+00
       23  2    1    2    0    0 +2.6645352591e-15 +3.5527136788e-15 +0.0000000000e+00 9.1188000000e+01 9.1188000000e+01 5.2285e-15 0.0000e+00
 -9990012  2    3    3    0    0 +4.1446548794e+00 -2.2903504184e+01 +2.1793859835e+01 5.9301937301e+01 4.9999987731e+01 3.3302e-04 0.0000e+00
      -11  1    4    4    0    0 +1.5542117834e+01 -1.5372789169e+01 -5.1121228342e-01 2.1866444884e+01 5.1100000000e-04 0.0000e+00 1.0000e+00
       11  1    4    4    0    0 -1.4731480377e+01 +1.4047792846e+00 +1.9105142519e+00 1.4921125423e+01 5.1100000000e-04 0.0000e+00 -1.0000e+00
      -12  1    4    4    0    0 +3.3340174227e+00 -8.9354942993e+00 +2.0394557866e+01 2.2514366993e+01 0.0000000000e+00 0.0000e+00 1.0000e+00
       12  1    3    3    0    0 -4.1446548794e+00 +2.2903504184e+01 -2.1793859835e+01 3.1886062699e+01 0.0000000000e+00 0.0000e+00 -1.0000e+00
</event>
<event>
 8      3 +2.2883893e-04 9.11880000e+01 7.81616400e-03 1.18400000e-01
      -11 -1    0    0    0    0 +0.0000000000e+00 +0.0000000000e+00 +4.5593999997e+01 4.5594000000e+01 5.1100000000e-04 0.0000e+00 1.0000e+00
       11 -1    0    0    0    0 -0.0000000000e+00 -0.0000000000e+00 -4.5593999997e+01 4.5594000000e+01 5.1100000000e-04 0.0000e+00 -1.0000e+00
       23  2    1    2    0    0 +1.7763568394e-15 -3.5527136788e-15 +0.0000000000e+00 9.1188000000e+01 9.1188000000e+01 3.9692e-14 0.0000e+00
  9990012  2    3    3    0    0 -7.6655992681e+00 +1.0534942598e+01 -2.9102760848e+01 5.9301998108e+01 5.0000098630e+01 1.0222e-03 0.0000e+00
      -11  1    4    4    0    0 -6.5271485114e+00 +7.6390812822e+00 +4.3598621667e+00 1.0952973519e+01 5.1100000000e-04 0.0000e+00 1.0000e+00
       11  1    4    4    0    0 -2.4555446968e+00 -1.5779072282e+01 -1.2793410771e+01 2.0461675915e+01 5.1100000000e-04 0.0000e+00 -1.0000e+00
       12  1    4    4    0    0 +1.3170939401e+00 +1.8674933598e+01 -2.0669212244e+01 2.7887348675e+01 0.0000000000e+00 0.0000e+00 -1.0000e+00
      -12  1    3    3    0    0 +7.6655992681e+00 -1.0534942598e+01 +2.9102760848e+01 3.1886001892e+01 0.0000000000e+00 0.0000e+00 1.0000e+00
</event>
<event>
 8      3 +2.2883893e-04 9.11880000e+01 7.81616400e-03 1.18400000e-01
      -11 -1    0    0    0    0 +0.0000000000e+00 +0.0000000000e+00 +4.5593999997e+01 4.5594000000e+01 5.1100000000e-04 0.0000e+00 1.0000e+00
       11 -1    0    0    0    0 -0.0000000000e+00 -0.0000000000e+00 -4.5593999997e+01 4.5594000000e+01 5.1100000000e-04 0.0000e+00 -1.0000e+00
       23  2    1    2    0    0 -3.5527136788e-15 +3.5527136788e-15 +0.0000000000e+00 9.1188000000e+01 9.1188000000e+01 7.9783e-14 0.0000e+00
  9990012  2    3    3    0    0 +9.1632156344e+00 -2.0711025078e+01 -2.2445702177e+01 5.9301943067e+01 4.9999998248e+01 5.6920e-04 0.0000e+00
      -11  1    4    4    0    0 +2.1193052488e+01 -1.3257742628e+01 +4.2479984813e+00 2.5356630390e+01 5.1100000000e-04 0.0000e+00 1.0000e+00
       11  1    4    4    0    0 +1.4991839278e+00 +3.3335816833e+00 -4.2354383859e+00 5.5945739668e+00 5.1100000000e-04 0.0000e+00 -1.0000e+00
       12  1    4    4    0    0 -1.3529020782e+01 -1.0786864133e+01 -2.2458262272e+01 2.8350738710e+01 0.0000000000e+00 0.0000e+00 -1.0000e+00
      -12  1    3    3    0    0 -9.1632156344e+00 +2.0711025078e+01 +2.2445702177e+01 3.1886056933e+01 0.0000000000e+00 0.0000e+00 1.0000e+00
</event>
<event>
 8      3 +2.2883893e-04 9.11880000e+01 7.81616400e-03 1.18400000e-01
      -11 -1    0    0    0    0 +0.0000000000e+00 +0.0000000000e+00 +4.5593999997e+01 4.5594000000e+01 5.1100000000e-04 0.0000e+00 1.0000e+00
       11 -1    0    0    0    0 -0.0000000000e+00 -0.0000000000e+00 -4.5593999997e+01 4.5594000000e+01 5.1100000000e-04 0.0000e+00 -1.0000e+00
       23  2    1    2    0    0 +0.0000000000e+00 +0.0000000000e+00 +0.0000000000e+00 9.1188000000e+01 9.1188000000e+01 2.8697e-14 0.0000e+00
  9990012  2    3    3    0    0 -1.7118944796e+01 -1.2021829679e+01 -2.4065297233e+01 5.9301934224e+01 4.9999982121e+01 9.0365e-04 0.0000e+00
      -11  1    4    4    0    0 -2.9331246244e+00 -8.6392868115e+00 +1.3539661569e+01 1.6326755107e+01 5.1100000000e-04 0.0000e+00 1.0000e+00
       11  1    4    4    0    0 -9.3392679431e+00 -8.3136563783e+00 -3.0943122146e+01 3.3373876258e+01 5.1100000000e-04 0.0000e+00 -1.0000e+00
       12  1    4    4    0    0 -4.8465522285e+00 +4.9311135108e+00 -6.6618366555e+00 9.6013028587e+00 0.0000000000e+00 0.0000e+00 -1.0000e+00
      -12  1    3    3    0    0 +1.7118944796e+01 +1.2021829679e+01 +2.4065297233e+01 3.1886065776e+01 0.0000000000e+00 0.0000e+00 1.0000e+00
</event>
<event>
 8      3 +2.2883893e-04 9.11880000e+01 7.81616400e-03 1.18400000e-01
      -11 -1    0    0    0    0 +0.0000000000e+00 +0.0000000000e+00 +4.5593999997e+01 4.5594000000e+01 5.1100000000e-04 0.0000e+00 1.0000e+00
       11 -1    0    0    0    0 -0.0000000000e+00 -0.0000000000e+00 -4.5593999997e+01 4.5594000000e+01 5.1100000000e-04 0.0000e+00 -1.0000e+00
       23  2    1    2    0    0 -1.7763568394e-15 -1.7763568394e-15 +0.0000000000e+00 9.1188000000e+01 9.1188000000e+01 1.1561e-14 0.0000e+00
  9990012  2    3    3    0    0 -1.0077170302e+01 -1.4898686517e+01 -2.6328700839e+01 5.9301941776e+01 4.9999995893e+01 3.3118e-04 0.0000e+00
      -11  1    4    4    0    0 -3.8315840972e+00 -7.2680367521e+00 -1.4679391742e-01 8.2174779366e+00 5.1100000000e-04 0.0000e+00 1.0000e+00
       11  1    4    4    0    0 -2.7858208720e+00 +1.2505167675e+01 -2.7779193935e+01 3.0591234568e+01 5.1100000000e-04 0.0000e+00 -1.0000e+00
       12  1    4    4    0    0 -3.4597653324e+00 -2.0135817440e+01 +1.5972870131e+00 2.0493229271e+01 0.0000000000e+00 0.0000e+00 -1.0000e+00
      -12  1    3    3    0    0 +1.0077170302e+01 +1.4898686517e+01 +2.6328700839e+01 3.1886058224e+01 0.0000000000e+00 0.0000e+00 1.0000e+00
</event>
<event>
 8      3 +2.2883893e-04 9.11880000e+01 7.81616400e-03 1.18400000e-01
      -11 -1    0    0    0    0 +0.0000000000e+00 +0.0000000000e+00 +4.5593999997e+01 4.5594000000e+01 5.1100000000e-04 0.0000e+00 1.0000e+00
       11 -1    0    0    0    0 -0.0000000000e+00 -0.0000000000e+00 -4.5593999997e+01 4.5594000000e+01 5.1100000000e-04 0.0000e+00 -1.0000e+00
       23  2    1    2    0    0 -3.5527136788e-15 +0.0000000000e+00 -3.5527136788e-15 9.1188000000e+01 9.1188000000e+01 9.3728e-14 0.0000e+00
  9990012  2    3    3    0    0 +1.7340311773e+01 +1.7648994275e+01 -2.0113235611e+01 5.9302020980e+01 5.0000140342e+01 1.2070e-03 0.0000e+00
      -11  1    4    4    0    0 -1.1927714022e+00 -8.3014615190e+00 -1.4454922683e+01 1.6711725136e+01 5.1100000000e-04 0.0000e+00 1.0000e+00
       11  1    4    4    0    0 +1.0272340373e+01 +1.6204141777e+01 +1.0594806180e+01 2.1916776809e+01 5.1100000000e-04 0.0000e+00 -1.0000e+00
       12  1    4    4    0    0 +8.2607428022e+00 +9.7463140168e+00 -1.6253119108e+01 2.0673519035e+01 0.0000000000e+00 0.0000e+00 -1.0000e+00
      -12  1    3    3    0    0 -1.7340311773e+01 -1.7648994275e+01 +2.0113235611e+01 3.1885979020e+01 0.0000000000e+00 0.0000e+00 1.0000e+00
</event>
<event>
 8      3 +2.2883893e-04 9.11880000e+01 7.81616400e-03 1.18400000e-01
      -11 -1    0    0    0    0 +0.0000000000e+00 +0.0000000000e+00 +4.5593999997e+01 4.5594000000e+01 5.1100000000e-04 0.0000e+00 1.0000e+00
       11 -1    0    0    0    0 -0.0000000000e+00 -0.0000000000e+00 -4.5593999997e+01 4.5594000000e+01 5.1100000000e-04 0.0000e+00 -1.0000e+00
       23  2    1    2    0    0 +2.1094237468e-15 +1.7763568394e-15 +0.0000000000e+00 9.1188000000e+01 9.1188000000e+01 5.5398e-14 0.0000e+00
  9990012  2    3    3    0    0 -1.7869269262e-01 +1.5800283675e+01 -2.7695527417e+01 5.9301903748e+01 4.9999926539e+01 8.5393e-03 0.0000e+00
      -11  1    4    4    0    0 -1.1334616063e+01 -6.5388611854e+00 -6.7409370022e+00 1.4719730257e+01 5.1100000000e-04 0.0000e+00 1.0000e+00
       11  1    4    4    0    0 -8.4111704941e+00 +1.6916674714e+01 -1.2070147468e+01 2.2418968144e+01 5.1100000000e-04 0.0000e+00 -1.0000e+00
       12  1    4    4    0    0 +1.9567093865e+01 +5.4224701464e+00 -8.8844429467e+00 2.2163205347e+01 0.0000000000e+00 0.0000e+00 -1.0000e+00
      -12  1    3    3    0    0 +1.7869269262e-01 -1.5800283675e+01 +2.7695527417e+01 3.1886096252e+01 0.0000000000e+00 0.0000e+00 1.0000e+00
</event>
<event>
 8      3 +2.2883893e-04 9.11880000e+01 7.81616400e-03 1.18400000e-01
      -11 -1    0    0    0    0 +0.0000000000e+00 +0.0000000000e+00 +4.5593999997e+01 4.5594000000e+01 5.1100000000e-04 0.0000e+00 1.0000e+00
       11 -1    0    0    0    0 -0.0000000000e+00 -0.0000000000e+00 -4.5593999997e+01 4.5594000000e+01 5.1100000000e-04 0.0000e+00 -1.0000e+00
       23  2    1    2    0    0 +3.5527136788e-15 -8.8817841970e-16 +0.0000000000e+00 9.1188000000e+01 9.1188000000e+01 6.2946e-14 0.0000e+00
  9990012  2    3    3    0    0 +2.1171383738e+01 -7.4314372857e+00 -2.2655400195e+01 5.9301938665e+01 4.9999990219e+01 2.4097e-04 0.0000e+00
      -11  1    4    4    0    0 +5.5206572346e+00 +1.2826970280e+01 +1.6072941004e+00 1.4056749889e+01 5.1100000000e-04 0.0000e+00 1.0000e+00
       11  1    4    4    0    0 +1.8289591074e+01 -1.6394227551e+00 -6.7972647490e+00 1.9580593887e+01 5.1100000000e-04 0.0000e+00 -1.0000e+00
       12  1    4    4    0    0 -2.6388645709e+00 -1.8618984810e+01 -1.7465429546e+01 2.5664594889e+01 0.0000000000e+00 0.0000e+00 -1.0000e+00
      -12  1    3    3    0    0 -2.1171383738e+01 +7.4314372857e+00 +2.2655400195e+01 3.1886061335e+01 0.0000000000e+00 0.0000e+00 1.0000e+00
</event>
<event>
 8      4 +2.2883893e-04 9.11880000e+01 7.81616400e-03 1.18400000e-01
      -11 -1    0    0    0    0 +0.0000000000e+00 +0.0000000000e+00 +4.5593999997e+01 4.5594000000e+01 5.1100000000e-04 0.0000e+00 1.0000e+00
       11 -1    0    0    0    0 -0.0000000000e+00 -0.0000000000e+00 -4.5593999997e+01 4.5594000000e+01 5.1100000000e-04 0.0000e+00 -1.0000e+00
       23  2    1    2    0    0 +0.0000000000e+00 -9.1940344227e-16 +0.0000000000e+00 9.1188000000e+01 9.1188000000e+01 3.4957e-14 0.0000e+00
 -9990012  2    3    3    0    0 +1.4343192031e+01 +2.6365014475e-02 +2.8477866081e+01 5.9302004496e+01 5.0000110280e+01 6.8409e-06 0.0000e+00
      -11  1    4    4    0    0 -9.3651082933e+00 -1.1891044206e+01 +1.9848672591e+01 2.4961410007e+01 5.1100000000e-04 0.0000e+00 1.0000e+00
       11  1    4    4    0    0 +8.5497445366e+00 +1.5390902387e+00 -6.2484116476e+00 1.0700914857e+01 5.1100000000e-04 0.0000e+00 -1.0000e+00
      -12  1    4    4    0    0 +1.5158555788e+01 +1.0378318982e+01 +1.4877605138e+01 2.3639679632e+01 0.0000000000e+00 0.0000e+00 1.0000e+00
       12  1    3    3    0    0 -1.4343192031e+01 -2.6365014475e-02 -2.8477866081e+01 3.1885995504e+01 0.0000000000e+00 0.0000e+00 -1.0000e+00
</event>
<event>
 8      4 +2.2883893e-04 9.11880000e+01 7.81616400e-03 1.18400000e-01
      -11 -1    0    0    0    0 +0.0000000000e+00 +0.0000000000e+00 +4.5593999997e+01 4.5594000000e+01 5.1100000000e-04 0.0000e+00 -1.0000e+00
       11 -1    0    0    0    0 -0.0000000000e+00 -0.0000000000e+00 -4.5593999997e+01 4.5594000000e+01 5.1100000000e-04 0.0000e+00 1.0000e+00
       23  2    1    2    0    0 +0.0000000000e+00 +0.0000000000e+00 +1.7763568394e-15 9.1188000000e+01 9.1188000000e+01 1.3201e-14 0.0000e+00
 -9990012  2    3    3    0    0 +2.5495586224e+01 -1.3355426986e+01 -1.3724001760e+01 5.9301630323e+01 4.9999427874e+01 9.8443e-05 0.0000e+00
      -11  1    4    4    0    0 +1.9882053613e+00 -2.5713174034e+00 -2.7568018870e+00 4.2619937416e+00 5.1100000000e-04 0.0000e+00 1.0000e+00
       11  1    4    4    0    0 +1.8670547799e+01 -2.8638342687e+01 -1.2680082358e+01 3.6462700336e+01 5.1100000000e-04 0.0000e+00 -1.0000e+00
      -12  1    4    4    0    0 +4.8368330643e+00 +1.7854233104e+01 +1.7128824855e+00 1.8576936245e+01 0.0000000000e+00 0.0000e+00 1.0000e+00
       12  1    3    3    0    0 -2.5495586224e+01 +1.3355426986e+01 +1.3724001760e+01 3.1886369677e+01 0.0000000000e+00 0.0000e+00 -1.0000e+00
</event>
<event>
 8      4 +2.2883893e-04 9.11880000e+01 7.81616400e-03 1.18400000e-01
      -11 -1    0    0    0    0 +0.0000000000e+00 +0.0000000000e+00 +4.5593999997e+01 4.5594000000e+01 5.1100000000e-04 0.0000e+00 1.0000e+00
       11 -1    0    0    0    0 -0.0000000000e+00 -0.0000000000e+00 -4.5593999997e+01 4.5594000000e+01 5.1100000000e-04 0.0000e+00 -1.0000e+00
       23  2    1    2    0    0 +1.7763568394e-15 +7.1054273576e-15 +0.0000000000e+00 9.1188000000e+01 9.1188000000e+01 3.9142e-14 0.0000e+00
 -9990012  2    3    3    0    0 +1.4505653257e+01 +2.0615923645e+01 +1.9526737207e+01 5.9301894090e+01 4.9999908926e+01 5.1507e-03 0.0000e+00
      -11  1    4    4    0    0 -6.4490977827e+00 -2.2732957162e-01 +1.6758811043e+00 6.6671672156e+00 5.1100000000e-04 0.0000e+00 1.0000e+00
       11  1    4    4    0    0 +1.3723550514e+01 -5.3487344918e+00 -6.5452729841e+00 1.6117859600e+01 5.1100000000e-04 0.0000e+00 -1.0000e+00
      -12  1    4    4    0    0 +7.2312005249e+00 +2.6191987708e+01 +2.4396129087e+01 3.6516867275e+01 0.0000000000e+00 0.0000e+00 1.0000e+00
       12  1    3    3    0    0 -1.4505653257e+01 -2.0615923645e+01 -1.9526737207e+01 3.1886105910e+01 0.0000000000e+00 0.0000e+00 -1.0000e+00
</event>
<event>
 8      4 +2.2883893e-04 9.11880000e+01 7.81616400e-03 1.18400000e-01
      -11 -1    0    0    0    0 +0.0000000000e+00 +0.0000000000e+00 +4.5593999997e+01 4.5594000000e+01 5.1100000000e-04 0.0000e+00 1.0000e+00
       11 -1    0    0    0    0 -0.0000000000e+00 -0.0000000000e+00 -4.5593999997e+01 4.5594000000e+01 5.1100000000e-04 0.0000e+00 -1.0000e+00
       23  2    1    2    0    0 +3.5527136788e-15 -1.7763568394e-15 +0.0000000000e+00 9.1188000000e+01 9.1188000000e+01 6.0487e-14 0.0000e+00
 -9990012  2    3    3    0    0 +2.3619063390e+01 -1.0746105973e+01 +1.8530550049e+01 5.9301949223e+01 5.0000009476e+01 1.1938e-04 0.0000e+00
      -11  1    4    4    0    0 +3.0267657433e+01 +2.1464107074e+00 +2.0217895367e-01 3.0344341186e+01 5.1100000000e-04 0.0000e+00 1.0000e+00
       11  1    4    4    0    0 -8.7135540503e-01 +3.9716085719e+00 +6.1348785811e+00 7.3600047797e+00 5.1100000000e-04 0.0000e+00 -1.0000e+00
      -12  1    4    4    0    0 -5.7772386377e+00 -1.6864125252e+01 +1.2193492514e+01 2.1597603258e+01 0.0000000000e+00 0.0000e+00 1.0000e+00
       12  1    3    3    0    0 -2.3619063390e+01 +1.0746105973e+01 -1.8530550049e+01 3.1886050777e+01 0.0000000000e+00 0.0000e+00 -1.0000e+00
</event>
<event>
 8      4 +2.2883893e-04 9.11880000e+01 7.81616400e-03 1.18400000e-01
      -11 -1    0    0    0    0 +0.0000000000e+00 +0.0000000000e+00 +4.5593999997e+01 4.5594000000e+01 5.1100000000e-04 0.0000e+00 1.0000e+00
       11 -1    0    0    0    0 -0.0000000000e+00 -0.0000000000e+00 -4.5593999997e+01 4.5594000000e+01 5.1100000000e-04 0.0000e+00 -1.0000e+00
       23  2    1    2    0    0 +0.0000000000e+00 +3.5527136788e-15 +0.0000000000e+00 9.1188000000e+01 9.1188000000e+01 1.2397e-13 0.0000e+00
 -9990012  2    3    3    0    0 -8.2753598509e+00 -1.5185030399e+01 +2.6789050110e+01 5.9301953919e+01 5.0000018040e+01 6.9519e-04 0.0000e+00
      -11  1    4    4    0    0 +8.9143226196e+00 +1.1174988687e+01 +2.3034216554e+01 2.7109419995e+01 5.1100000000e-04 0.0000e+00 1.0000e+00
       11  1    4    4    0    0 -2.1974453910e+00 -2.6854717983e+00 -1.3234498098e+00 3.7137642206e+00 5.1100000000e-04 0.0000e+00 -1.0000e+00
      -12  1    4    4    0    0 -1.4992237080e+01 -2.3674547288e+01 +5.0782833652e+00 2.8478769704e+01 0.0000000000e+00 0.0000e+00 1.0000e+00
       12  1    3    3    0    0 +8.2753598509e+00 +1.5185030399e+01 -2.6789050110e+01 3.1886046081e+01 0.0000000000e+00 0.0000e+00 -1.0000e+00
</event>
<event>
 8      3 +2.2883893e-04 9.11880000e+01 7.81616400e-03 1.18400000e-01
      -11 -1    0    0    0    0 +0.0000000000e+00 +0.0000000000e+00 +4.5593999997e+01 4.5594000000e+01 5.1100000000e-04 0.0000e+00 -1.0000e+00
       11 -1    0    0    0    0 -0.0000000000e+00 -0.0000000000e+00 -4.5593999997e+01 4.5594000000e+01 5.1100000000e-04 0.0000e+00 1.0000e+00
       23  2    1    2    0    0 +0.0000000000e+00 -3.5527136788e-15 +8.8817841970e-16 9.1188000000e+01 9.1188000000e+01 6.8123e-15 0.0000e+00
  9990012  2    3    3    0    0 +2.4148095468e+01 +2.0042095861e+01 +5.6485143575e+00 5.9301924110e+01 4.9999963675e+01 3.7811e-04 0.0000e+00
      -11  1    4    4    0    0 -6.3584457437e+00 +4.7388051559e-03 -7.5675966703e+00 9.8842488009e+00 5.1100000000e-04 0.0000e+00 1.0000e+00
       11  1    4    4    0    0 +7.6072224170e-01 -6.3793600066e+00 -2.1438327751e+00 6.7728097309e+00 5.1100000000e-04 0.0000e+00 -1.0000e+00
       12  1    4    4    0    0 +2.9745818970e+01 +2.6416717063e+01 +1.5359943803e+01 4.2644865578e+01 0.0000000000e+00 0.0000e+00 -1.0000e+00
      -12  1    3    3    0    0 -2.4148095468e+01 -2.0042095861e+01 -5.6485143575e+00 3.1886075890e+01 0.0000000000e+00 0.0000e+00 1.0000e+00
</event>
<event>
 8      4 +2.2883893e-04 9.11880000e+01 7.81616400e-03 1.18400000e-01
      -11 -1    0    0    0    0 +0.0000000000e+00 +0.0000000000e+00 +4.5593999997e+01 4.5594000000e+01 5.1100000000e-04 0.0000e+00 -1.0000e+00
       11 -1    0    0    0    0 -0.0000000000e+00 -0.0000000000e+00 -4.5593999997e+01 4.5594000000e+01 5.1100000000e-04 0.0000e+00 1.0000e+00
       23  2    1    2    0    0 +0.0000000000e+00 +0.0000000000e+00 +1.7763568394e-15 9.1188000000e+01 9.1188000000e+01 2.4916e-14 0.0000e+00
 -9990012  2    3    3    0    0 +2.2540016889e+01 -1.9876400233e+01 -1.0658216350e+01 5.9301933712e+01 4.9999981187e+01 1.4126e-04 0.0000e+00
      -11  1    4    4    0    0 +2.2410007526e+01 -3.3488611239e+01 -1.6283795193e+01 4.3460988325e+01 5.1100000000e-04 0.0000e+00 1.0000e+00
       11  1    4    4    0    0 +1.4950730664e+00 +1.2094372655e+01 +3.0645058451e+00 1.2565838202e+01 5.1100000000e-04 0.0000e+00 -1.0000e+00
      -12  1    4    4    0    0 -1.3650637034e+00 +1.5178383508e+00 +2.5610729975e+00 3.2751071848e+00 0.0000000000e+00 0.0000e+00 1.0000e+00
       12  1    3    3    0    0 -2.2540016889e+01 +1.9876400233e+01 +1.0658216350e+01 3.1886066288e+01 0.0000000000e+00 0.0000e+00 -1.0000e+00
</event>
<event>
 8      4 +2.2883893e-04 9.11880000e+01 7.81616400e-03 1.18400000e-01
      -11 -1    0    0    0    0 +0.0000000000e+00 +0.0000000000e+00 +4.5593999997e+01 4.5594000000e+01 5.1100000000e-04 0.0000e+00 1.0000e+00
       11 -1    0    0    0    0 -0.0000000000e+00 -0.0000000000e+00 -4.5593999997e+01 4.5594000000e+01 5.1100000000e-04 0.0000e+00 -1.0000e+00
       23  2    1    2    0    0 +0.0000000000e+00 +8.8817841970e-16 +3.5527136788e-15 9.1188000000e+01 9.1188000000e+01 7.0016e-14 0.0000e+00
 -9990012  2    3    3    0    0 -2.1254726404e+01 -1.0978994530e+00 +2.3743510324e+01 5.9301904908e+01 4.9999928655e+01 3.6800e-04 0.0000e+00
      -11  1    4    4    0    0 -1.4517968046e+01 -3.0780240878e+00 +2.2910725732e+01 2.7297380502e+01 5.1100000000e-04 0.0000e+00 1.0000e+00
       11  1    4    4    0    0 +1.1788647160e+01 +4.7510598215e+00 +3.2466617708e+00 1.3118139510e+01 5.1100000000e-04 0.0000e+00 -1.0000e+00
      -12  1    4    4    0    0 -1.8525405518e+01 -2.7709351867e+00 -2.4138771791e+00 1.8886384896e+01 0.0000000000e+00 0.0000e+00 1.0000e+00
       12  1    3    3    0    0 +2.1254726404e+01 +1.0978994530e+00 -2.3743510324e+01 3.1886095092e+01 0.0000000000e+00 0.0000e+00 -1.0000e+00
</event>
<event>
 8      4 +2.2883893e-04 9.11880000e+01 7.81616400e-03 1.18400000e-01
      -11 -1    0    0    0    0 +0.0000000000e+00 +0.0000000000e+00 +4.5593999997e+01 4.5594000000e+01 5.1100000000e-04 0.0000e+00 -1.0000e+00
       11 -1    0    0    0    0 -0.0000000000e+00 -0.0000000000e+00 -4.5593999997e+01 4.5594000000e+01 5.1100000000e-04 0.0000e+00 1.0000e+00
       23  2    1    2    0    0 -1.7763568394e-15 +3.5527136788e-15 +3.5527136788e-15 9.1188000000e+01 9.1188000000e+01 3.0247e-13 0.0000e+00
 -9990012  2    3    3    0    0 +1.4960089942e+01 -2.2716361718e+01 -1.6639827582e+01 5.9301933407e+01 4.9999980631e+01 8.4772e-05 0.0000e+00
      -11  1    4    4    0    0 -4.9280922110e+00 -2.9412984234e+01 -1.4150681888e+01 3.3009870229e+01 5.1100000000e-04 0.0000e+00 1.0000e+00
       11  1    4    4    0    0 +1.3212663682e+01 -3.1699477498e+00 +1.6351777698e+00 1.3685644191e+01 5.1100000000e-04 0.0000e+00 -1.0000e+00
      -12  1    4    4    0    0 +6.6755184711e+00 +9.8665702654e+00 -4.1243234636e+00 1.2606418988e+01 0.0000000000e+00 0.0000e+00 1.0000e+00
       12  1    3    3    0    0 -1.4960089942e+01 +2.2716361718e+01 +1.6639827582e+01 3.1886066593e+01 0.0000000000e+00 0.0000e+00 -1.0000e+00
</event>
<event>
 8      4 +2.2883893e-04 9.11880000e+01 7.81616400e-03 1.18400000e-01
      -11 -1    0    0    0    0 +0.0000000000e+00 +0.0000000000e+00 +4.5593999997e+01 4.5594000000e+01 5.1100000000e-04 0.0000e+00 1.0000e+00
       11 -1    0    0    0    0 -0.0000000000e+00 -0.0000000000e+00 -4.5593999997e+01 4.5594000000e+01 5.1100000000e-04 0.0000e+00 -1.0000e+00
       23  2    1    2    0    0 +0.0000000000e+00 -3.5527136788e-15 -2.2204460493e-16 9.1188000000e+01 9.1188000000e+01 4.0573e-14 0.0000e+00
 -9990012  2    3    3    0    0 +8.1451990728e+00 -3.0792524793e+01 +1.4819943053e+00 5.9301950414e+01 5.0000011647e+01 1.7623e-03 0.0000e+00
      -11  1    4    4    0    0 -3.4073783400e+00 -1.7483797777e+00 +6.2112016191e+00 7.2969914905e+00 5.1100000000e-04 0.0000e+00 1.0000e+00
       11  1    4    4    0    0 -1.5160485389e+01 -5.5850500519e+00 -2.8313240367e+00 1.6402728351e+01 5.1100000000e-04 0.0000e+00 -1.0000e+00
      -12  1    4    4    0    0 +2.6713062802e+01 -2.3459094964e+01 -1.8978832770e+00 3.5602230572e+01 0.0000000000e+00 0.0000e+00 1.0000e+00
       12  1    3    3    0    0 -8.1451990728e+00 +3.0792524793e+01 -1.4819943053e+00 3.1886049586e+01 0.0000000000e+00 0.0000e+00 -1.0000e+00
</event>
<event>
 8      4 +2.2883893e-04 9.11880000e+01 7.81616400e-03 1.18400000e-01
      -11 -1    0    0    0    0 +0.0000000000e+00 +0.0000000000e+00 +4.5593999997e+01 4.5594000000e+01 5.1100000000e-04 0.0000e+00 1.0000e+00
       11 -1    0    0    0    0 -0.0000000000e+00 -0.0000000000e+00 -4.5593999997e+01 4.5594000000e+01 5.1100000000e-04 0.0000e+00 -1.0000e+00
       23  2    1    2    0    0 -1.7763568394e-15 +0.0000000000e+00 +0.0000000000e+00 9.1188000000e+01 9.1188000000e+01 1.4063e-14 0.0000e+00
 -9990012  2    3    3    0    0 +1.1560802736e+01 +2.4049477833e+01 +1.7455427705e+01 5.9301929369e+01 4.9999973266e+01 1.4167e-04 0.0000e+00
      -11  1    4    4    0    0 -1.3459037658e+01 +3.6316759655e+00 +6.2654828904e+00 1.5283685455e+01 5.1100000000e-04 0.0000e+00 1.0000e+00
       11  1    4    4    0    0 +1.1332860821e+01 +1.2420980696e+01 -8.4183516964e+00 1.8803806566e+01 5.1100000000e-04 0.0000e+00 -1.0000e+00
      -12  1    4    4    0    0 +1.3686979572e+01 +7.9968211721e+00 +1.9608296511e+01 2.5214437347e+01 0.0000000000e+00 0.0000e+00 1.0000e+00
       12  1    3    3    0    0 -1.1560802736e+01 -2.4049477833e+01 -1.7455427705e+01 3.1886070631e+01 0.0000000000e+00 0.0000e+00 -1.0000e+00
</event>
<event>
 8      3 +2.2883893e-04 9.11880000e+01 7.81616400e-03 1.18400000e-01
      -11 -1    0    0    0    0 +0.0000000000e+00 +0.0000000000e+00 +4.5593999997e+01 4.5594000000e+01 5.1100000000e-04 0.0000e+00 -1.0000e+00
       11 -1    0    0    0    0 -0.0000000000e+00 -0.0000000000e+00 -4.5593999997e+01 4.5594000000e+01 5.1100000000e-04 0.0000e+00 1.0000e+00
       23  2    1    2    0    0 +0.0000000000e+00 +3.5527136788e-15 +0.0000000000e+00 9.1188000000e+01 9.1188000000e+01 7.2088e-14 0.0000e+00
  9990012  2    3    3    0    0 +3.7983085558e+00 -2.2730168826e+01 +2.2037029316e+01 5.9301978238e+01 5.0000062391e+01 3.4552e-05 0.0000e+00
      -11  1    4    4    0    0 -6.3350827179e+00 -1.9956053562e+01 +1.1284295516e+00 2.0967849206e+01 5.1100000000e-04 0.0000e+00 1.0000e+00
       11  1    4    4    0    0 +1.4421963139e+01 -1.3976297570e+01 +1.4135413326e+01 2.4558905202e+01 5.1100000000e-04 0.0000e+00 -1.0000e+00
       12  1    4    4    0    0 -4.2885718653e+00 +1.1202182305e+01 +6.7731864384e+00 1.3775223830e+01 0.0000000000e+00 0.0000e+00 -1.0000e+00
      -12  1    3    3    0    0 -3.7983085558e+00 +2.2730168826e+01 -2.2037029316e+01 3.1886021762e+01 0.0000000000e+00 0.0000e+00 1.0000e+00
</event>
<event>
 8      3 +2.2883893e-04 9.11880000e+01 7.81616400e-03 1.18400000e-01
      -11 -1    0    0    0    0 +0.0000000000e+00 +0.0000000000e+00 +4.5593999997e+01 4.5594000000e+01 5.1100000000e-04 0.0000e+00 1.0000e+00
       11 -1    0    0    0    0 -0.0000000000e+00 -0.0000000000e+00 -4.5593999997e+01 4.5594000000e+01 5.1100000000e-04 0.0000e+00 -1.0000e+00
       23  2    1    2    0    0 -3.5527136788e-15 +3.5527136788e-15 -8.8817841970e-16 9.1188000000e+01 9.1188000000e+01 5.1777e-14 0.0000e+00
  9990012  2    3    3    0    0 -1.9033537581e+01 +2.5088859656e+01 +4.9993603382e+00 5.9301952338e+01 5.0000015157e+01 2.3918e-04 0.0000e+00
      -11  1    4    4    0    0 +1.0066138666e+01 -7.7973631413e+00 +5.8139244678e+00 1.3997418961e+01 5.1100000000e-04 0.0000e+00 1.0000e+00
       11  1    4    4    0    0 -8.0975895358e+00 +8.4188485161e+00 -5.1563199519e+00 1.2768539554e+01 5.1100000000e-04 0.0000e+00 -1.0000e+00
       12  1    4    4    0    0 -2.1002086711e+01 +2.4467374281e+01 +4.3417558223e+00 3.2535993823e+01 0.0000000000e+00 0.0000e+00 -1.0000e+00
      -12  1    3    3    0    0 +1.9033537581e+01 -2.5088859656e+01 -4.9993603382e+00 3.1886047662e+01 0.0000000000e+00 0.0000e+00 1.0000e+00
</event>
<event>
 8      4 +2.2883893e-04 9.11880000e+01 7.81616400e-03 1.18400000e-01
      -11 -1    0    0    0    0 +0.0000000000e+00 +0.0000000000e+00 +4.5593999997e+01 4.5594000000e+01 5.1100000000e-04 0.0000e+00 1.0000e+00
       11 -1    0    0    0    0 -0.0000000000e+00 -0.0000000000e+00 -4.5593999997e+01 4.5594000000e+01 5.1100000000e-04 0.0000e+00 -1.0000e+00
       23  2    1    2    0    0 +0.0000000000e+00 +0.0000000000e+00 +1.7763568394e-15 9.1188000000e+01 9.1188000000e+01 1.3825e-14 0.0000e+00
 -9990012  2    3    3    0    0 -2.1232815465e+01 +2.1670349542e+01 -9.8124979901e+00 5.9301927513e+01 4.9999969882e+01 1.4571e-03 0.0000e+00
      -11  1    4    4    0    0 -2.5922235832e+00 +1.5673864184e+00 +1.8718882146e+00 3.5609393478e+00 5.1100000000e-04 0.0000e+00 1.0000e+00
       11  1    4    4    0    0 -5.9617037478e+00 +1.8911938599e+00 +1.7784046565e+01 1.8851812600e+01 5.1100000000e-04 0.0000e+00 -1.0000e+00
      -12  1    4    4    0    0 -1.2678888134e+01 +1.8211769263e+01 -2.9468432770e+01 3.6889175566e+01 0.0000000000e+00 0.0000e+00 1.0000e+00
       12  1    3    3    0    0 +2.1232815465e+01 -2.1670349542e+01 +9.8124979901e+00 3.1886072487e+01 0.0000000000e+00 0.0000e+00 -1.0000e+00
</event>
<event>
 8      4 +2.2883893e-04 9.11880000e+01 7.81616400e-03 1.18400000e-01
      -11 -1    0    0    0    0 +0.0000000000e+00 +0.0000000000e+00 +4.5593999997e+01 4.5594000000e+01 5.1100000000e-04 0.0000e+00 -1.0000e+00
       11 -1    0    0    0    0 -0.0000000000e+00 -0.0000000000e+00 -4.5593999997e+01 4.5594000000e+01 5.1100000000e-04 0.0000e+00 1.0000e+00
       23  2    1    2    0    0 +0.0000000000e+00 +0.0000000000e+00 +1.7763568394e-15 9.1188000000e+01 9.1188000000e+01 7.7946e-14 0.0000e+00
 -9990012  2    3    3    0    0 -9.5578214098e+00 +2.7534202822e+01 -1.2931998395e+01 5.9301939446e+01 4.9999991644e+01 3.3831e-04 0.0000e+00
      -11  1    4    4    0    0 +7.0635272057e+00 +6.1331533443e+00 +6.3150583970e-01 9.3759152309e+00 5.1100000000e-04 0.0000e+00 1.0000e+00
       11  1    4    4    0    0 -7.9493120076e+00 +5.5581252081e+00 +1.3964062348e+01 1.7002333803e+01 5.1100000000e-04 0.0000e+00 -1.0000e+00
      -12  1    4    4    0    0 -8.6720366079e+00 +1.5842924270e+01 -2.7527566583e+01 3.2923690412e+01 0.0000000000e+00 0.0000e+00 1.0000e+00
       12  1    3    3    0    0 +9.5578214098e+00 -2.7534202822e+01 +1.2931998395e+01 3.1886060554e+01 0.0000000000e+00 0.0000e+00 -1.0000e+00
</event>
<event>
 8      3 +2.2883893e-04 9.11880000e+01 7.81616400e-03 1.18400000e-01
      -11 -1    0    0    0    0 +0.0000000000e+00 +0.0000000000e+00 +4.5593999997e+01 4.5594000000e+01 5.1100000000e-04 0.0000e+00 -1.0000e+00
       11 -1    0    0    0    0 -0.0000000000e+00 -0.0000000000e+00 -4.5593999997e+01 4.5594000000e+01 5.1100000000e-04 0.0000e+00 1.0000e+00
       23  2    1    2    0    0 +1.0658141036e-14 +0.0000000000e+00 +0.0000000000e+00 9.1188000000e+01 9.1188000000e+01 4.2795e-16 0.0000e+00
  9990012  2    3    3    0    0 +1.9952087026e+01 -1.7793373116e+01 +1.7378992128e+01 5.9301964327e+01 5.0000037020e+01 7.9380e-05 0.0000e+00
      -11  1    4    4    0    0 +2.5249578693e+01 +3.5899940743e-01 +1.2730129833e+01 2.8279432642e+01 5.1100000000e-04 0.0000e+00 1.0000e+00
       11  1    4    4    0    0 +7.1949905156e+00 -3.5148267116e+00 -5.0559530559e+00 9.4701930760e+00 5.1100000000e-04 0.0000e+00 -1.0000e+00
       12  1    4    4    0    0 -1.2492482182e+01 -1.4637545812e+01 +9.7048153518e+00 2.1552338608e+01 0.0000000000e+00 0.0000e+00 -1.0000e+00
      -12  1    3    3    0    0 -1.9952087026e+01 +1.7793373116e+01 -1.7378992128e+01 3.1886035673e+01 0.0000000000e+00 0.0000e+00 1.0000e+00
</event>
<event>
 8      3 +2.2883893e-04 9.11880000e+01 7.81616400e-03 1.18400000e-01
      -11 -1    0    0    0    0 +0.0000000000e+00 +0.0000000000e+00 +4.5593999997e+01 4.5594000000e+01 5.1100000000e-04 0.0000e+00 -1.0000e+00
       11 -1    0    0    0    0 -0.0000000000e+00 -0.0000000000e+00 -4.5593999997e+01 4.5594000000e+01 5.1100000000e-04 0.0000e+00 1.0000e+00
       23  2    1    2    0    0 +0.0000000000e+00 +1.7763568394e-15 +0.0000000000e+00 9.1188000000e+01 9.1188000000e+01 3.4419e-13 0.0000e+00
  9990012  2    3    3    0    0 -8.0878681643e+00 +1.0682733069e+01 +2.8934173225e+01 5.9301940704e+01 4.9999993938e+01 7.1002e-04 0.0000e+00
      -11  1    4    4    0    0 +1.0994592263e+01 +1.0660744295e+00 -2.1456666089e+00 1.1252620102e+01 5.1100000000e-04 0.0000e+00 1.0000e+00
       11  1    4    4    0    0 -2.1410326304e+00 -1.0041153111e+01 +5.6636000743e+00 1.1725405860e+01 5.1100000000e-04 0.0000e+00 -1.0000e+00
       12  1    4    4    0    0 -1.6941427797e+01 +1.9657811750e+01 +2.5416239759e+01 3.6323914741e+01 0.0000000000e+00 0.0000e+00 -1.0000e+00
      -12  1    3    3    0    0 +8.0878681643e+00 -1.0682733069e+01 -2.8934173225e+01 3.1886059296e+01 0.0000000000e+00 0.0000e+00 1.0000e+00
</event>
<event>
 8      3 +2.2883893e-04 9.11880000e+01 7.81616400e-03 1.18400000e-01
      -11 -1    0    0    0    0 +0.0000000000e+00 +0.0000000000e+00 +4.5593999997e+01 4.5594000000e+01 5.1100000000e-04 0.0000e+00 -1.0000e+00
       11 -1    0    0    0    0 -0.0000000000e+00 -0.0000000000e+00 -4.5593999997e+01 4.5594000000e+01 5.1100000000e-04 0.0000e+00 1.0000e+00
       23  2    1    2    0    0 +0.0000000000e+00 -1.7763568394e-15 +0.0000000000e+00 9.1188000000e+01 9.1188000000e+01 1.9185e-13 0.0000e+00
  9990012  2    3    3    0    0 -3.0619775241e+01 +8.4045811866e+00 -2.9176018803e+00 5.9301952558e+01 5.0000015558e+01 4.3248e-03 0.0000e+00
      -11  1    4    4    0    0 -1.1421277753e+01 +3.7598397159e+00 -2.5435244613e+00 1.2290300938e+01 5.1100000000e-04 0.0000e+00 1.0000e+00
       11  1    4    4    0    0 -1.5589301569e+01 +1.8315953214e+01 +1.3178625071e+01 2.7425838630e+01 5.1100000000e-04 0.0000e+00 -1.0000e+00
       12  1    4    4    0    0 -3.6091959189e+00 -1.3671211743e+01 -1.3552702490e+01 1.9585812990e+01 0.0000000000e+00 0.0000e+00 -1.0000e+00
      -12  1    3    3    0    0 +3.0619775241e+01 -8.4045811866e+00 +2.9176018803e+00 3.1886047442e+01 0.0000000000e+00 0.0000e+00 1.0000e+00
</event>
<event>
 8      4 +2.2883893e-04 9.11880000e+01 7.81616400e-03 1.18400000e-01
      -11 -1    0    0    0    0 +0.0000000000e+00 +0.0000000000e+00 +4.5593999997e+01 4.5594000000e+01 5.1100000000e-04 0.0000e+00 1.0000e+00
       11 -1    0    0    0    0 -0.0000000000e+00 -0.0000000000e+00 -4.5593999997e+01 4.5594000000e+01 5.1100000000e-04 0.0000e+00 -1.0000e+00
       23  2    1    2    0    0 +0.0000000000e+00 -3.5527136788e-15 -1.7763568394e-15 9.1188000000e+01 9.1188000000e+01 5.0260e-14 0.0000e+00
 -9990012  2    3    3    0    0 +1.9549447672e+01 -2.2909395360e+01 -1.0473733750e+01 5.9301946642e+01 5.0000004768e+01 2.1257e-03 0.0000e+00
      -11  1    4    4    0    0 +1.8155391149e+00 +3.4260689180e+00 +3.7983082748e+00 5.4278242898e+00 5.1100000000e-04 0.0000e+00 1.0000e+00
       11  1    4    4    0    0 +3.1023992628e+01 -1.5286763834e+01 -1.0923607150e+01 3.6269800944e+01 5.1100000000e-04 0.0000e+00 -1.0000e+00
      -12  1    4    4    0    0 -1.3290084071e+01 -1.1048700445e+01 -3.3484348752e+00 1.7604321408e+01 0.0000000000e+00 0.0000e+00 1.0000e+00
       12  1    3    3    0    0 -1.9549447672e+01 +2.2909395360e+01 +1.0473733750e+01 3.1886053358e+01 0.0000000000e+00 0.0000e+00 -1.0000e+00
</event>
<event>
 8      4 +2.2883893e-04 9.11880000e+01 7.81616400e-03 1.18400000e-01
      -11 -1    0    0    0    0 +0.0000000000e+00 +0.0000000000e+00 +4.5593999997e+01 4.5594000000e+01 5.1100000000e-04 0.0000e+00 -1.0000e+00
       11 -1    0    0    0    0 -0.0000000000e+00 -0.0000000000e+00 -4.5593999997e+01 4.5594000000e+01 5.1100000000e-04 0.0000e+00 1.0000e+00
       23  2    1    2    0    0 -3.5527136788e-15 +0.0000000000e+00 +1.7763568394e-15 9.1188000000e+01 9.1188000000e+01 8.0450e-14 0.0000e+00
 -9990012  2    3    3    0    0 -1.2337825665e+01 +2.7843836619e+01 -9.4457559529e+00 5.9301898241e+01 4.9999916497e+01 1.0945e-04 0.0000e+00
      -11  1    4    4    0    0 +1.0501596795e+01 +1.2169643267e+01 -3.7579953302e+00 1.6507764284e+01 5.1100000000e-04 0.0000e+00 1.0000e+00
       11  1    4    4    0    0 -2.7727951709e+01 +1.8666101002e+01 -1.0786698685e+01 3.5122862944e+01 5.1100000000e-04 0.0000e+00 -1.0000e+00
      -12  1    4    4    0    0 +4.8885292487e+00 -2.9919076495e+00 +5.0989380621e+00 7.6712710133e+00 0.0000000000e+00 0.0000e+00 1.0000e+00
       12  1    3    3    0    0 +1.2337825665e+01 -2.7843836619e+01 +9.4457559529e+00 3.1886101759e+01 0.0000000000e+00 0.0000e+00 -1.0000e+00
</event>
<event>
 8      3 +2.2883893e-04 9.11880000e+01 7.81616400e-03 1.18400000e-01
      -11 -1    0    0    0    0 +0.0000000000e+00 +0.0000000000e+00 +4.5593999997e+01 4.5594000000e+01 5.1100000000e-04 0.0000e+00 1.0000e+00
       11 -1    0    0    0    0 -0.0000000000e+00 -0.0000000000e+00 -4.5593999997e+01 4.5594000000e+01 5.1100000000e-04 0.0000e+00 -1.0000e+00
       23  2    1    2    0    0 -1.3322676296e-15 +3.5527136788e-15 +5.3290705182e-15 9.1188000000e+01 9.1188000000e+01 9.6551e-15 0.0000e+00
  9990012  2    3    3    0    0 -3.8777078050e+00 +2.8147910243e+01 -1.4470179248e+01 5.9301834405e+01 4.9999800075e+01 3.3471e-03 0.0000e+00
      -11  1    4    4    0    0 +1.3843537404e+01 +9.0068711764e+00 +1.1609761865e+00 1.6556422385e+01 5.1100000000e-04 0.0000e+00 1.0000e+00
       11  1    4    4    0    0 -1.4897473745e+01 -1.6755670136e-01 +3.6219051561e+00 1.5332351302e+01 5.1100000000e-04 0.0000e+00 -1.0000e+00
       12  1    4    4    0    0 -2.8237714637e+00 +1.9308595768e+01 -1.9253060591e+01 2.7413060718e+01 0.0000000000e+00 0.0000e+00 -1.0000e+00
      -12  1    3    3    0    0 +3.8777078050e+00 -2.8147910243e+01 +1.4470179248e+01 3.1886165595e+01 0.0000000000e+00 0.0000e+00 1.0000e+00
</event>
<event>
 8      4 +2.2883893e-04 9.11880000e+01 7.81616400e-03 1.18400000e-01
      -11 -1    0    0    0    0 +0.0000000000e+00 +0.0000000000e+00 +4.5593999997e+01 4.5594000000e+01 5.1100000000e-04 0.0000e+00 -1.0000e+00
       11 -1    0    0    0    0 -0.0000000000e+00 -0.0000000000e+00 -4.5593999997e+01 4.5594000000e+01 5.1100000000e-04 0.0000e+00 1.0000e+00
       23  2    1    2    0    0 +0.0000000000e+00 -3.5527136788e-15 +0.0000000000e+00 9.1188000000e+01 9.1188000000e+01 5.5484e-15 0.0000e+00
 -9990012  2    3    3    0    0 +2.2770621220e+01 -9.4102345286e+00 +2.0240231082e+01 5.9301942563e+01 4.9999997328e+01 1.5546e-03 0.0000e+00
      -11  1    4    4    0    0 +7.9143187878e+00 +1.4945813569e+01 +1.5247792508e+01 2.2770791856e+01 5.1100000000e-04 0.0000e+00 1.0000e+00
       11  1    4    4    0    0 -2.4599318223e+00 +2.9272910677e+00 +1.1264788241e+00 3.9861325076e+00 5.1100000000e-04 0.0000e+00 -1.0000e+00
      -12  1    4    4    0    0 +1.7316234255e+01 -2.7283339166e+01 +3.8659597499e+00 3.2545018199e+01 0.0000000000e+00 0.0000e+00 1.0000e+00
       12  1    3    3    0    0 -2.2770621220e+01 +9.4102345286e+00 -2.0240231082e+01 3.1886057437e+01 0.0000000000e+00 0.0000e+00 -1.0000e+00
</event>
<event>
 8      4 +2.2883893e-04 9.11880000e+01 7.81616400e-03 1.18400000e-01
      -11 -1    0    0    0    0 +0.0000000000e+00 +0.0000000000e+00 +4.5593999997e+01 4.5594000000e+01 5.1100000000e-04 0.0000e+00 -1.0000e+00
       11 -1    0    0    0    0 -0.0000000000e+00 -0.0000000000e+00 -4.5593999997e+01 4.5594000000e+01 5.1100000000e-04 0.0000e+00 1.0000e+00
       23  2    1    2    0    0 -3.5527136788e-15 +3.5527136788e-15 +3.5527136788e-15 9.1188000000e+01 9.1188000000e+01 2.5832e-13 0.0000e+00
 -9990012  2    3    3    0    0 -1.4477213150e+01 -8.1987748626e+00 -2.7201357134e+01 5.9301898956e+01 4.9999917800e+01 6.9155e-04 0.0000e+00
      -11  1    4    4    0    0 -2.6229358825e+00 +1.2891323602e+01 -1.0149068837e+01 1.6615342770e+01 5.1100000000e-04 0.0000e+00 1.0000e+00
       11  1    4    4    0    0 -1.8829912629e+01 -2.3422894391e+01 -1.8357318207e+01 3.5216313312e+01 5.1100000000e-04 0.0000e+00 -1.0000e+00
      -12  1    4    4    0    0 +6.9756353612e+00 +2.3327959264e+00 +1.3050299105e+00 7.4702428738e+00 0.0000000000e+00 0.0000e+00 1.0000e+00
       12  1    3    3    0    0 +1.4477213150e+01 +8.1987748626e+00 +2.7201357134e+01 3.1886101044e+01 0.0000000000e+00 0.0000e+00 -1.0000e+00
</event>
<event>
 8      4 +2.2883893e-04 9.11880000e+01 7.81616400e-03 1.18400000e-01
      -11 -1    0    0    0    0 +0.0000000000e+00 +0.0000000000e+00 +4.5593999997e+01 4.5594000000e+01 5.1100000000e-04 0.0000e+00 1.0000e+00
       11 -1    0    0    0    0 -0.0000000000e+00 -0.0000000000e+00 -4.5593999997e+01 4.5594000000e+01 5.1100000000e-04 0.0000e+00 -1.0000e+00
       23  2    1    2    0    0 -8.8817841970e-16 +0.0000000000e+00 +3.5527136788e-15 9.1188000000e+01 9.1188000000e+01 9.0434e-14 0.0000e+00
 -9990012  2    3    3    0    0 +6.9035145545e+00 +6.8165076869e+00 +3.0374285337e+01 5.9301945055e+01 5.0000001873e+01 7.8508e-04 0.0000e+00
      -11  1    4    4    0    0 -9.3827072757e+00 +6.7110107803e+00 +1.3178311636e+01 1.7514016083e+01 5.1100000000e-04 0.0000e+00 1.0000e+00
       11  1    4    4    0    0 +2.6607926470e+00 +2.1978842631e+00 -1.0390649541e+01 1.0948794951e+01 5.1100000000e-04 0.0000e+00 -1.0000e+00
      -12  1    4    4    0    0 +1.3625429183e+01 -2.0923873564e+00 +2.7586623241e+01 3.0839134021e+01 0.0000000000e+00 0.0000e+00 1.0000e+00
       12  1    3    3    0    0 -6.9035145545e+00 -6.8165076869e+00 -3.0374285337e+01 3.1886054945e+01 0.0000000000e+00 0.0000e+00 -1.0000e+00
</event>
<event>
 8      3 +2.2883893e-04 9.11880000e+01 7.81616400e-03 1.18400000e-01
      -11 -1    0    0    0    0 +0.0000000000e+00 +0.0000000000e+00 +4.5593999997e+01 4.5594000000e+01 5.1100000000e-04 0.0000e+00 -1.0000e+00
       11 -1    0    0    0    0 -0.0000000000e+00 -0.0000000000e+00 -4.5593999997e+01 4.5594000000e+01 5.1100000000e-04 0.0000e+00 1.0000e+00
       23  2    1    2    0    0 -1.7763568394e-15 +4.4408920985e-16 +0.0000000000e+00 9.1188000000e+01 9.1188000000e+01 7.9006e-14 0.0000e+00
  9990012  2    3    3    0    0 +1.5673684332e+01 +3.9188128857e+00 +2.7489963661e+01 5.9301959527e+01 5.0000028267e+01 7.8115e-04 0.0000e+00
      -11  1    4    4    0    0 -9.0463852143e+00 -2.0828564049e+00 +8.0661410296e+00 1.2297886307e+01 5.1100000000e-04 0.0000e+00 1.0000e+00
       11  1    4    4    0    0 +5.2527914400e+00 +2.2759616625e+00 +2.5608828031e+01 2.6240882088e+01 5.1100000000e-04 0.0000e+00 -1.0000e+00
       12  1    4    4    0    0 +1.9467278106e+01 +3.7257076281e+00 -6.1850053994e+00 2.0763191132e+01 0.0000000000e+00 0.0000e+00 -1.0000e+00
      -12  1    3    3    0    0 -1.5673684332e+01 -3.9188128857e+00 -2.7489963661e+01 3.1886040473e+01 0.0000000000e+00 0.0000e+00 1.0000e+00
</event>
<event>
 8      3 +2.2883893e-04 9.11880000e+01 7.81616400e-03 1.18400000e-01
      -11 -1    0    0    0    0 +0.0000000000e+00 +0.0000000000e+00 +4.5593999997e+01 4.5594000000e+01 5.1100000000e-04 0.0000e+00 1.0000e+00
       11 -1    0    0    0    0 -0.0000000000e+00 -0.0000000000e+00 -4.5593999997e+01 4.5594000000e+01 5.1100000000e-04 0.0000e+00 -1.0000e+00
       23  2    1    2    0    0 +1.7763568394e-15 -3.5527136788e-15 -3.5527136788e-15 9.1188000000e+01 9.1188000000e+01 1.2703e-14 0.0000e+00
  9990012  2    3    3    0    0 +1.3981873552e+01 -1.9783372324e+01 -2.0732692557e+01 5.9301966236e+01 5.0000040503e+01 1.1928e-03 0.0000e+00
      -11  1    4    4    0    0 -1.3036654377e+01 -1.1400667717e+01 -1.3837105850e+01 2.2167432876e+01 5.1100000000e-04 0.0000e+00 1.0000e+00
       11  1    4    4    0    0 -2.8778197268e+00 -5.6124259687e+00 -2.5240736300e+00 6.7935351316e+00 5.1100000000e-04 0.0000e+00 -1.0000e+00
       12  1    4    4    0    0 +2.9896347656e+01 -2.7702786386e+00 -4.3715130765e+00 3.0340998228e+01 0.0000000000e+00 0.0000e+00 -1.0000e+00
      -12  1    3    3    0    0 -1.3981873552e+01 +1.9783372324e+01 +2.0732692557e+01 3.1886033764e+01 0.0000000000e+00 0.0000e+00 1.0000e+00
</event>
<event>
 8      3 +2.2883893e-04 9.11880000e+01 7.81616400e-03 1.18400000e-01
      -11 -1    0    0    0    0 +0.0000000000e+00 +0.0000000000e+00 +4.5593999997e+01 4.5594000000e+01 5.1100000000e-04 0.0000e+00 1.0000e+00
       11 -1    0    0    0    0 -0.0000000000e+00 -0.0000000000e+00 -4.5593999997e+01 4.5594000000e+01 5.1100000000e-04 0.0000e+00 -1.0000e+00
       23  2    1    2    0    0 -3.5527136788e-15 +3.5527136788e-15 +4.4408920985e-16 9.1188000000e+01 9.1188000000e+01 3.6978e-14 0.0000e+00
  9990012  2    3    3    0    0 -2.4381294599e+01 +2.0546436872e+01 -3.1672729230e-01 5.9302205191e+01 5.0000476296e+01 6.4968e-04 0.0000e+00
      -11  1    4    4    0    0 -1.6873531100e+01 -2.3478983628e+00 +1.9466511107e+01 2.5868392556e+01 5.1100000000e-04 0.0000e+00 1.0000e+00
       11  1    4    4    0    0 -2.2221690766e+00 +5.4394085174e+00 +8.0363394133e-01 5.9305166889e+00 5.1100000000e-04 0.0000e+00 -1.0000e+00
       12  1    4    4    0    0 -5.2855944221e+00 +1.7454926717e+01 -2.0586872340e+01 2.7503295945e+01 0.0000000000e+00 0.0000e+00 -1.0000e+00
      -12  1    3    3    0    0 +2.4381294599e+01 -2.0546436872e+01 +3.1672729230e-01 3.1885794809e+01 0.0000000000e+00 0.0000e+00 1.0000e+00
</event>
<event>
 8      4 +2.2883893e-04 9.11880000e+01 7.81616400e-03 1.18400000e-01
      -11 -1    0    0    0    0 +0.0000000000e+00 +0.0000000000e+00 +4.5593999997e+01 4.5594000000e+01 5.1100000000e-04 0.0000e+00 1.0000e+00
       11 -1    0    0    0    0 -0.0000000000e+00 -0.0000000000e+00 -4.5593999997e+01 4.5594000000e+01 5.1100000000e-04 0.0000e+00 -1.0000e+00
       23  2    1    2    0    0 -2.6645352591e-15 +0.0000000000e+00 +0.0000000000e+00 9.1188000000e+01 9.1188000000e+01 4.3247e-14 0.0000e+00
 -9990012  2    3    3    0    0 -5.6919585546e+00 -1.4850357384e+01 +2.7636757248e+01 5.9301923763e+01 4.9999963041e+01 3.5279e-04 0.0000e+00
      -11  1    4    4    0    0 +1.1383691847e+01 +4.9873617059e+00 -1.1690516307e+00 1.2483144589e+01 5.1100000000e-04 0.0000e+00 1.0000e+00
       11  1    4    4    0    0 -2.2163759547e+01 -1.2826233872e+01 +1.2821970968e+01 2.8638216641e+01 5.1100000000e-04 0.0000e+00 -1.0000e+00
      -12  1    4    4    0    0 +5.0881091457e+00 -7.0114852182e+00 +1.5983837911e+01 1.8180562533e+01 0.0000000000e+00 0.0000e+00 1.0000e+00
       12  1    3    3    0    0 +5.6919585546e+00 +1.4850357384e+01 -2.7636757248e+01 3.1886076237e+01 0.0000000000e+00 0.0000e+00 -1.0000e+00
</event>
<event>
 8      3 +2.2883893e-04 9.11880000e+01 7.81616400e-03 1.18400000e-01
      -11 -1    0    0    0    0 +0.0000000000e+00 +0.0000000000e+00 +4.5593999997e+01 4.5594000000e+01 5.1100000000e-04 0.0000e+00 -1.0000e+00
       11 -1    0    0    0    0 -0.0000000000e+00 -0.0000000000e+00 -4.5593999997e+01 4.5594000000e+01 5.1100000000e-04 0.0000e+00 1.0000e+00
       23  2    1    2    0    0 +0.0000000000e+00 -1.7763568394e-15 +3.5527136788e-15 9.1188000000e+01 9.1188000000e+01 1.8310e-14 0.0000e+00
  9990012  2    3    3    0    0 +1.0425524411e+01 +8.7741449752e+00 +2.8828002698e+01 5.9301781679e+01 4.9999703914e+01 1.9281e-03 0.0000e+00
      -11  1    4    4    0    0 +9.2640280118e+00 +3.0470771667e+00 -6.8587083999e+00 1.1922616132e+01 5.1100000000e-04 0.0000e+00 1.0000e+00
       11  1    4    4    0    0 +1.5253119206e+01 -1.4547282374e+00 +1.8532995850e+01 2.4046742299e+01 5.1100000000e-04 0.0000e+00 -1.0000e+00
       12  1    4    4    0    0 -1.4091622808e+01 +7.1817960459e+00 +1.7153715248e+01 2.3332423247e+01 0.0000000000e+00 0.0000e+00 -1.0000e+00
      -12  1    3    3    0    0 -1.0425524411e+01 -8.7741449752e+00 -2.8828002698e+01 3.1886218321e+01 0.0000000000e+00 0.0000e+00 1.0000e+00
</event>
<event>
 8      3 +2.2883893e-04 9.11880000e+01 7.81616400e-03 1.18400000e-01
      -11 -1    0    0    0    0 +0.0000000000e+00 +0.0000000000e+00 +4.5593999997e+01 4.5594000000e+01 5.1100000000e-04 0.0000e+00 -1.0000e+00
       11 -1    0    0    0    0 -0.0000000000e+00 -0.0000000000e+00 -4.5593999997e+01 4.5594000000e+01 5.1100000000e-04 0.0000e+00 1.0000e+00
       23  2    1    2    0    0 -1.3322676296e-15 +0.0000000000e+00 +3.5527136788e-15 9.1188000000e+01 9.1188000000e+01 3.8603e-14 0.0000e+00
  9990012  2    3    3    0    0 -3.4649569863e+00 +1.0415089497e+01 +2.9937297790e+01 5.9301924432e+01 4.9999964263e+01 7.2038e-04 0.0000e+00
      -11  1    4    4    0    0 -1.3782728748e+00 +1.2443348296e+01 -3.1386900885e+00 1.2906894617e+01 5.1100000000e-04 0.0000e+00 1.0000e+00
       11  1    4    4    0    0 -1.5165659969e+01 -7.4850197387e+00 +1.1044221182e+01 2.0198950086e+01 5.1100000000e-04 0.0000e+00 -1.0000e+00
       12  1    4    4    0    0 +1.3078975857e+01 +5.4567609398e+00 +2.2031766696e+01 2.6196079729e+01 0.0000000000e+00 0.0000e+00 -1.0000e+00
      -12  1    3    3    0    0 +3.4649569863e+00 -1.0415089497e+01 -2.9937297790e+01 3.1886075568e+01 0.0000000000e+00 0.0000e+00 1.0000e+00
</event>
<event>
 8      4 +2.2883893e-04 9.11880000e+01 7.81616400e-03 1.18400000e-01
      -11 -1    0    0    0    0 +0.0000000000e+00 +0.0000000000e+00 +4.5593999997e+01 4.5594000000e+01 5.1100000000e-04 0.0000e+00 -1.0000e+00
       11 -1    0    0    0    0 -0.0000000000e+00 -0.0000000000e+00 -4.5593999997e+01 4.5594000000e+01 5.1100000000e-04 0.0000e+00 1.0000e+00
       23  2    1    2    0    0 -3.5527136788e-15 -1.7763568394e-15 +3.5527136788e-15 9.1188000000e+01 9.1188000000e+01 4.3872e-14 0.0000e+00
 -9990012  2    3    3    0    0 +2.1093507289e+01 -1.2047078890e+01 -2.0655561760e+01 5.9301946761e+01 5.0000004986e+01 2.2317e-03 0.0000e+00
      -11  1    4    4    0    0 +2.2098753383e+00 +9.2490951248e+00 -2.8757466496e+00 9.9347485470e+00 5.1100000000e-04 0.0000e+00 1.0000e+00
       11  1    4    4    0    0 +4.5590616989e+00 -2.8842021648e+01 -1.5370220460e+01 3.2998347437e+01 5.1100000000e-04 0.0000e+00 -1.0000e+00
      -12  1    4    4    0    0 +1.4324570251e+01 +7.5458476333e+00 -2.4095946501e+00 1.6368850777e+01 0.0000000000e+00 0.0000e+00 1.0000e+00
       12  1    3    3    0    0 -2.1093507289e+01 +1.2047078890e+01 +2.0655561760e+01 3.1886053239e+01 0.0000000000e+00 0.0000e+00 -1.0000e+00
</event>
<event>
 8      3 +2.2883893e-04 9.11880000e+01 7.81616400e-03 1.18400000e-01
      -11 -1    0    0    0    0 +0.0000000000e+00 +0.0000000000e+00 +4.5593999997e+01 4.5594000000e+01 5.1100000000e-04 0.0000e+00 1.0000e+00
       11 -1    0    0    0    0 -0.0000000000e+00 -0.0000000000e+00 -4.5593999997e+01 4.5594000000e+01 5.1100000000e-04 0.0000e+00 -1.0000e+00
       23  2    1    2    0    0 +1.7763568394e-15 +0.0000000000e+00 +0.0000000000e+00 9.1188000000e+01 9.1188000000e+01 9.3345e-14 0.0000e+00
  9990012  2    3    3    0    0 -9.4661706020e+00 +2.3069086722e+01 -1.9872837131e+01 5.9301940292e+01 4.9999993188e+01 1.5432e-03 0.0000e+00
      -11  1    4    4    0    0 -8.5021325965e-01 -6.0093215286e+00 +5.0908431162e+00 7.9215839146e+00 5.1100000000e-04 0.0000e+00 1.0000e+00
       11  1    4    4    0    0 -1.0498824263e+01 +1.1927463297e+01 +5.1247309569e+00 1.6695884500e+01 5.1100000000e-04 0.0000e+00 -1.0000e+00
       12  1    4    4    0    0 +1.8828669205e+00 +1.7150944953e+01 -3.0088411204e+01 3.4684471877e+01 0.0000000000e+00 0.0000e+00 -1.0000e+00
      -12  1    3    3    0    0 +9.4661706020e+00 -2.3069086722e+01 +1.9872837131e+01 3.1886059708e+01 0.0000000000e+00 0.0000e+00 1.0000e+00
</event>
<event>
 8      3 +2.2883893e-04 9.11880000e+01 7.81616400e-03 1.18400000e-01
      -11 -1    0    0    0    0 +0.0000000000e+00 +0.0000000000e+00 +4.5593999997e+01 4.5594000000e+01 5.1100000000e-04 0.0000e+00 1.0000e+00
       11 -1    0    0    0    0 -0.0000000000e+00 -0.0000000000e+00 -4.5593999997e+01 4.5594000000e+01 5.1100000000e-04 0.0000e+00 -1.0000e+00
       23  2    1    2    0    0 +6.6613381478e-16 +3.5527136788e-15 +0.0000000000e+00 9.1188000000e+01 9.1188000000e+01 4.5355e-14 0.0000e+00
  9990012  2    3    3    0    0 +1.8080422365e+00 +2.5879625267e+01 -1.8539070403e+01 5.9301934829e+01 4.9999983224e+01 2.2819e-03 0.0000e+00
      -11  1    4    4    0    0 +3.7990035514e+00 +3.8077233959e-02 +1.1995799732e+01 1.2583047697e+01 5.1100000000e-04 0.0000e+00 1.0000e+00
       11  1    4    4    0    0 -1.8037640552e+00 -2.6329648963e+00 -1.2756080223e+01 1.3149283320e+01 5.1100000000e-04 0.0000e+00 -1.0000e+00
       12  1    4    4    0    0 -1.8719725980e-01 +2.8474512929e+01 -1.7778789912e+01 3.3569603812e+01 0.0000000000e+00 0.0000e+00 -1.0000e+00
      -12  1    3    3    0    0 -1.8080422365e+00 -2.5879625267e+01 +1.8539070403e+01 3.1886065171e+01 0.0000000000e+00 0.0000e+00 1.0000e+00
</event>
<event>
 8      4 +2.2883893e-04 9.11880000e+01 7.81616400e-03 1.18400000e-01
      -11 -1    0    0    0    0 +0.0000000000e+00 +0.0000000000e+00 +4.5593999997e+01 4.5594000000e+01 5.1100000000e-04 0.0000e+00 1.0000e+00
       11 -1    0    0    0    0 -0.0000000000e+00 -0.0000000000e+00 -4.5593999997e+01 4.5594000000e+01 5.1100000000e-04 0.0000e+00 -1.0000e+00
       23  2    1    2    0    0 +8.8817841970e-16 +0.0000000000e+00 +1.7763568394e-15 9.1188000000e+01 9.1188000000e+01 3.1438e-14 0.0000e+00
 -9990012  2    3    3    0    0 -6.9465941086e+00 +2.8541412311e+01 -1.2403654263e+01 5.9301983857e+01 5.0000072639e+01 2.0452e-03 0.0000e+00
      -11  1    4    4    0    0 -2.6719146935e+01 +1.2835492284e+01 -4.8894649318e-01 2.9646277069e+01 5.1100000000e-04 0.0000e+00 1.0000e+00
       11  1    4    4    0    0 +5.6032063030e+00 +9.8254918662e+00 -7.9042931602e+00 1.3799060182e+01 5.1100000000e-04 0.0000e+00 -1.0000e+00
      -12  1    4    4    0    0 +1.4169346523e+01 +5.8804281600e+00 -4.0104146098e+00 1.5856646606e+01 0.0000000000e+00 0.0000e+00 1.0000e+00
       12  1    3    3    0    0 +6.9465941086e+00 -2.8541412311e+01 +1.2403654263e+01 3.1886016143e+01 0.0000000000e+00 0.0000e+00 -1.0000e+00
</event>
<event>
 8      3 +2.2883893e-04 9.11880000e+01 7.81616400e-03 1.18400000e-01
      -11 -1    0    0    0    0 +0.0000000000e+00 +0.0000000000e+00 +4.5593999997e+01 4.5594000000e+01 5.1100000000e-04 0.0000e+00 1.0000e+00
       11 -1    0    0    0    0 -0.0000000000e+00 -0.0000000000e+00 -4.5593999997e+01 4.5594000000e+01 5.1100000000e-04 0.0000e+00 -1.0000e+00
       23  2    1    2    0    0 -1.7763568394e-15 -2.4424906542e-15 +0.0000000000e+00 9.1188000000e+01 9.1188000000e+01 4.1269e-14 0.0000e+00
  9990012  2    3    3    0    0 +3.7812337609e+00 -1.1569442821e+00 -3.1639818642e+01 5.9302041138e+01 5.0000177106e+01 1.1833e-03 0.0000e+00
      -11  1    4    4    0    0 -1.0432440947e+00 +1.1276132031e+01 -2.2694691551e+00 1.1549458962e+01 5.1100000000e-04 0.0000e+00 1.0000e+00
       11  1    4    4    0    0 -1.1367869042e+01 +6.1778775888e+00 -1.1225935506e+01 1.7129397138e+01 5.1100000000e-04 0.0000e+00 -1.0000e+00
       12  1    4    4    0    0 +1.6192346897e+01 -1.8610953902e+01 -1.8144413981e+01 3.0623185038e+01 0.0000000000e+00 0.0000e+00 -1.0000e+00
      -12  1    3    3    0    0 -3.7812337609e+00 +1.1569442821e+00 +3.1639818642e+01 3.1885958862e+01 0.0000000000e+00 0.0000e+00 1.0000e+00
</event>
<event>
 8      3 +2.2883893e-04 9.11880000e+01 7.81616400e-03 1.18400000e-01
      -11 -1    0    0    0    0 +0.0000000000e+00 +0.0000000000e+00 +4.5593999997e+01 4.5594000000e+01 5.1100000000e-04 0.0000e+00 1.0000e+00
       11 -1    0    0    0    0 -0.0000000000e+00 -0.0000000000e+00 -4.5593999997e+01 4.5594000000e+01 5.1100000000e-04 0.0000e+00 -1.0000e+00
       23  2    1    2    0    0 +0.0000000000e+00 +0.0000000000e+00 +1.7763568394e-15 9.1188000000e+01 9.1188000000e+01 4.7481e-15 0.0000e+00
  9990012  2    3    3    0    0 -6.3318880109e+00 -3.0704777805e+01 -5.8177949314e+00 5.9301907048e+01 4.9999932558e+01 1.9906e-03 0.0000e+00
      -11  1    4    4    0    0 +4.0870632042e-01 +1.7424162719e-01 -8.8905565611e+00 8.9016513765e+00 5.1100000000e-04 0.0000e+00 1.0000e+00
       11  1    4    4    0    0 -1.6984141386e+00 -3.1729583837e+01 +1.6663580679e+01 3.5879325835e+01 5.1100000000e-04 0.0000e+00 -1.0000e+00
       12  1    4    4    0    0 -5.0421801927e+00 +8.5056440433e-01 -1.3590819049e+01 1.4520929837e+01 0.0000000000e+00 0.0000e+00 -1.0000e+00
      -12  1    3    3    0    0 +6.3318880109e+00 +3.0704777805e+01 +5.8177949314e+00 3.1886092952e+01 0.0000000000e+00 0.0000e+00 1.0000e+00
</event>
<event>
 8      4 +2.2883893e-04 9.11880000e+01 7.81616400e-03 1.18400000e-01
      -11 -1    0    0    0    0 +0.0000000000e+00 +0.0000000000e+00 +4.5593999997e+01 4.5594000000e+01 5.1100000000e-04 0.0000e+00 1.0000e+00
       11 -1    0    0    0    0 -0.0000000000e+00 -0.0000000000e+00 -4.5593999997e+01 4.5594000000e+01 5.1100000000e-04 0.0000e+00 -1.0000e+00
       23  2    1    2    0    0 +0.0000000000e+00 +0.0000000000e+00 -1.7763568394e-15 9.1188000000e+01 9.1188000000e+01 2.1018e-13 0.0000e+00
 -9990012  2    3    3    0    0 -2.2694361515e+01 -1.6563850809e+01 +1.5077340697e+01 5.9301930931e+01 4.9999976114e+01 8.7135e-03 0.0000e+00
      -11  1    4    4    0    0 -2.2102216796e+01 -2.7979853692e+01 +2.0300579155e+01 4.1030399879e+01 5.1100000000e-04 0.0000e+00 1.0000e+00
       11  1    4    4    0    0 -1.6043047511e+00 +4.9759590528e+00 -9.2383809132e+00 1.0615161063e+01 5.1100000000e-04 0.0000e+00 -1.0000e+00
      -12  1    4    4    0    0 +1.0121600316e+00 +6.4400438308e+00 +4.0151424550e+00 7.6563699889e+00 0.0000000000e+00 0.0000e+00 1.0000e+00
       12  1    3    3    0    0 +2.2694361515e+01 +1.6563850809e+01 -1.5077340697e+01 3.1886069069e+01 0.0000000000e+00 0.0000e+00 -1.0000e+00
</event>
<event>
 8      3 +2.2883893e-04 9.11880000e+01 7.81616400e-03 1.18400000e-01
      -11 -1    0    0    0    0 +0.0000000000e+00 +0.0000000000e+00 +4.5593999997e+01 4.5594000000e+01 5.1100000000e-04 0.0000e+00 1.0000e+00
       11 -1    0    0    0    0 -0.0000000000e+00 -0.0000000000e+00 -4.5593999997e+01 4.5594000000e+01 5.1100000000e-04 0.0000e+00 -1.0000e+00
       23  2    1    2    0    0 -3.5527136788e-15 +0.0000000000e+00 +0.0000000000e+00 9.1188000000e+01 9.1188000000e+01 3.6489e-14 0.0000e+00
  9990012  2    3    3    0    0 +1.4287858275e+01 -2.1128512863e+01 -1.9135399570e+01 5.9301945578e+01 5.0000002828e+01 4.6175e-04 0.0000e+00
      -11  1    4    4    0    0 -3.2624755478e+00 -3.4700715701e+00 +5.8476150930e+00 7.5418662106e+00 5.1100000000e-04 0.0000e+00 1.0000e+00
       11  1    4    4    0    0 -8.8268443669e+00 -1.6741389810e+01 -1.1037585048e+01 2.1909258276e+01 5.1100000000e-04 0.0000e+00 -1.0000e+00
       12  1    4    4    0    0 +2.6377178190e+01 -9.1705148288e-01 -1.3945429615e+01 2.9850821091e+01 0.0000000000e+00 0.0000e+00 -1.0000e+00
      -12  1    3    3    0    0 -1.4287858275e+01 +2.1128512863e+01 +1.9135399570e+01 3.1886054422e+01 0.0000000000e+00 0.0000e+00 1.0000e+00
</event>
<event>
 8      3 +2.2883893e-04 9.11880000e+01 7.81616400e-03 1.18400000e-01
      -11 -1    0    0    0    0 +0.0000000000e+00 +0.0000000000e+00 +4.5593999997e+01 4.5594000000e+01 5.1100000000e-04 0.0000e+00 -1.0000e+00
       11 -1    0    0    0    0 -0.0000000000e+00 -0.0000000000e+00 -4.5593999997e+01 4.5594000000e+01 5.1100000000e-04 0.0000e+00 1.0000e+00
       23  2    1    2    0    0 -1.7763568394e-15 +3.5527136788e-15 +0.0000000000e+00 9.1188000000e+01 9.1188000000e+01 4.3953e-14 0.0000e+00
  9990012  2    3    3    0    0 +7.6430044339e+00 -2.3416857449e+01 +2.0247366040e+01 5.9301944096e+01 5.0000000125e+01 5.3212e-03 0.0000e+00
      -11  1    4    4    0    0 +2.8888560622e+00 -3.1266082364e+01 -1.5593079813e+00 3.1437952182e+01 5.1100000000e-04 0.0000e+00 1.0000e+00
       11  1    4    4    0    0 +1.0024476886e+01 +5.0678368369e+00 +1.2425728254e+01 1.6750278504e+01 5.1100000000e-04 0.0000e+00 -1.0000e+00
       12  1    4    4    0    0 -5.2703285148e+00 +2.7813880784e+00 +9.3809457669e+00 1.1113713411e+01 0.0000000000e+00 0.0000e+00 -1.0000e+00
      -12  1    3    3    0    0 -7.6430044339e+00 +2.3416857449e+01 -2.0247366040e+01 3.1886055904e+01 0.0000000000e+00 0.0000e+00 1.0000e+00
</event>
<event>
 8      3 +2.2883893e-04 9.11880000e+01 7.81616400e-03 1.18400000e-01
      -11 -1    0    0    0    0 +0.0000000000e+00 +0.0000000000e+00 +4.5593999997e+01 4.5594000000e+01 5.1100000000e-04 0.0000e+00 1.0000e+00
       11 -1    0    0    0    0 -0.0000000000e+00 -0.0000000000e+00 -4.5593999997e+01 4.5594000000e+01 5.1100000000e-04 0.0000e+00 -1.0000e+00
       23  2    1    2    0    0 +1.7763568394e-15 +0.0000000000e+00 +0.0000000000e+00 9.1188000000e+01 9.1188000000e+01 3.1187e-14 0.0000e+00
  9990012  2    3    3    0    0 -5.4972860622e+00 +5.3508966150e+00 -3.0949451757e+01 5.9301940151e+01 4.9999992931e+01 8.5366e-04 0.0000e+00
      -11  1    4    4    0    0 -1.5983934039e+01 -4.3033537868e+00 -3.0363733364e+00 1.6829277004e+01 5.1100000000e-04 0.0000e+00 1.0000e+00
       11  1    4    4    0    0 +1.8555163216e+01 +1.3387735850e+01 -1.7669715934e+01 2.8909244449e+01 5.1100000000e-04 0.0000e+00 -1.0000e+00
       12  1    4    4    0    0 -8.0685152390e+00 -3.7334854479e+00 -1.0243362487e+01 1.3563418698e+01 0.0000000000e+00 0.0000e+00 -1.0000e+00
      -12  1    3    3    0    0 +5.4972860622e+00 -5.3508966150e+00 +3.0949451757e+01 3.1886059849e+01 0.0000000000e+00 0.0000e+00 1.0000e+00
</event>
<event>
 8      3 +2.2883893e-04 9.11880000e+01 7.81616400e-03 1.18400000e-01
      -11 -1    0    0    0    0 +0.0000000000e+00 +0.0000000000e+00 +4.5593999997e+01 4.5594000000e+01 5.1100000000e-04 0.0000e+00 1.0000e+00
       11 -1    0    0    0    0 -0.0000000000e+00 -0.0000000000e+00 -4.5593999997e+01 4.5594000000e+01 5.1100000000e-04 0.0000e+00 -1.0000e+00
       23  2    1    2    0    0 -8.8817841970e-16 -4.4408920985e-16 +3.5527136788e-15 9.1188000000e+01 9.1188000000e+01 2.5107e-14 0.0000e+00
  9990012  2    3    3    0    0 -4.9037817258e+00 +3.3110359942e+00 -3.1332260223e+01 5.9301944031e+01 5.0000000007e+01 7.5310e-04 0.0000e+00
      -11  1    4    4    0    0 -6.0435969072e+00 -1.4661525294e+01 -2.9277504231e+01 3.3296510955e+01 5.1100000000e-04 0.0000e+00 -1.0000e+00
       11  1    4    4    0    0 +1.1180162727e-01 +6.6358005724e+00 -1.0086353650e+01 1.2073975280e+01 5.1100000000e-04 0.0000e+00 1.0000e+00
       12  1    4    4    0    0 +1.0280135541e+00 +1.1336760716e+01 +8.0315976582e+00 1.3931457797e+01 0.0000000000e+00 0.0000e+00 -1.0000e+00
      -12  1    3    3    0    0 +4.9037817258e+00 -3.3110359942e+00 +3.1332260223e+01 3.1886055969e+01 0.0000000000e+00 0.0000e+00 1.0000e+00
</event>
<event>
 8      3 +2.2883893e-04 9.11880000e+01 7.81616400e-03 1.18400000e-01
      -11 -1    0    0    0    0 +0.0000000000e+00 +0.0000000000e+00 +4.5593999997e+01 4.5594000000e+01 5.1100000000e-04 0.0000e+00 -1.0000e+00
       11 -1    0    0    0    0 -0.0000000000e+00 -0.0000000000e+00 -4.5593999997e+01 4.5594000000e+01 5.1100000000e-04 0.0000e+00 1.0000e+00
       23  2    1    2    0    0 -3.5527136788e-15 +0.0000000000e+00 +7.1054273576e-15 9.1188000000e+01 9.1188000000e+01 1.1288e-13 0.0000e+00
  9990012  2    3    3    0    0 -1.6277771304e+01 +1.1446883067e+01 +2.4914320053e+01 5.9301947966e+01 5.0000007183e+01 4.5007e-03 0.0000e+00
      -11  1    4    4    0    0 +9.3070464529e+00 -3.2996785016e-01 -7.1737368984e+00 1.1755530350e+01 5.1100000000e-04 0.0000e+00 1.0000e+00
       11  1    4    4    0    0 -2.8833969070e+00 -4.6600092750e+00 +7.9528340530e-01 5.5373405279e+00 5.1100000000e-04 0.0000e+00 -1.0000e+00
       12  1    4    4    0    0 -2.2701420850e+01 +1.6436860192e+01 +3.1292773546e+01 4.2009077088e+01 0.0000000000e+00 0.0000e+00 -1.0000e+00
      -12  1    3    3    0    0 +1.6277771304e+01 -1.1446883067e+01 -2.4914320053e+01 3.1886052034e+01 0.0000000000e+00 0.0000e+00 1.0000e+00
</event>
<event>
 8      4 +2.2883893e-04 9.11880000e+01 7.81616400e-03 1.18400000e-01
      -11 -1    0    0    0    0 +0.0000000000e+00 +0.0000000000e+00 +4.5593999997e+01 4.5594000000e+01 5.1100000000e-04 0.0000e+00 1.0000e+00
       11 -1    0    0    0    0 -0.0000000000e+00 -0.0000000000e+00 -4.5593999997e+01 4.5594000000e+01 5.1100000000e-04 0.0000e+00 -1.0000e+00
       23  2    1    2    0    0 +0.0000000000e+00 +4.4408920985e-15 -1.7763568394e-15 9.1188000000e+01 9.1188000000e+01 8.0263e-14 0.0000e+00
 -9990012  2    3    3    0    0 -2.7198147147e+01 -7.8955080359e+00 +1.4650677857e+01 5.9301943219e+01 4.9999998525e+01 7.5619e-04 0.0000e+00
      -11  1    4    4    0    0 -1.0611295172e+01 +1.9597522481e+01 +1.4138314885e+00 2.2330727537e+01 5.1100000000e-04 0.0000e+00 1.0000e+00
       11  1    4    4    0    0 -7.0358263242e-01 -4.9322447748e+00 -2.0969999066e+00 5.4055042234e+00 5.1100000000e-04 0.0000e+00 -1.0000e+00
      -12  1    4    4    0    0 -1.5883269343e+01 -2.2560785742e+01 +1.5333846275e+01 3.1565711458e+01 0.0000000000e+00 0.0000e+00 1.0000e+00
       12  1    3    3    0    0 +2.7198147147e+01 +7.8955080359e+00 -1.4650677857e+01 3.1886056781e+01 0.0000000000e+00 0.0000e+00 -1.0000e+00
</event>
<event>
 8      3 +2.2883893e-04 9.11880000e+01 7.81616400e-03 1.18400000e-01
      -11 -1    0    0    0    0 +0.0000000000e+00 +0.0000000000e+00 +4.5593999997e+01 4.5594000000e+01 5.1100000000e-04 0.0000e+00 1.0000e+00
       11 -1    0    0    0    0 -0.0000000000e+00 -0.0000000000e+00 -4.5593999997e+01 4.5594000000e+01 5.1100000000e-04 0.0000e+00 -1.0000e+00
       23  2    1    2    0    0 -1.7763568394e-15 -3.5527136788e-15 +1.7763568394e-15 9.1188000000e+01 9.1188000000e+01 1.2560e-14 0.0000e+00
  9990012  2    3    3    0    0 +1.1544873360e+01 +2.9646223504e+01 +2.1301394711e+00 5.9301950337e+01 5.0000011507e+01 1.3196e-02 0.0000e+00
      -11  1    4    4    0    0 -4.5886593263e+00 -6.9200356977e+00 -9.9500099166e-01 8.3625782929e+00 5.1100000000e-04 0.0000e+00 1.0000e+00
       11  1    4    4    0    0 +1.9844048775e+01 +3.1561763156e+01 -8.0536889483e+00 3.8141749714e+01 5.1100000000e-04 0.0000e+00 -1.0000e+00
       12  1    4    4    0    0 -3.7105160882e+00 +5.0044960449e+00 +1.1178829411e+01 1.2797622330e+01 0.0000000000e+00 0.0000e+00 -1.0000e+00
      -12  1    3    3    0    0 -1.1544873360e+01 -2.9646223504e+01 -2.1301394711e+00 3.1886049663e+01 0.0000000000e+00 0.0000e+00 1.0000e+00
</event>
<event>
 8      3 +2.2883893e-04 9.11880000e+01 7.81616400e-03 1.18400000e-01
      -11 -1    0    0    0    0 +0.0000000000e+00 +0.0000000000e+00 +4.5593999997e+01 4.5594000000e+01 5.1100000000e-04 0.0000e+00 1.0000e+00
       11 -1    0    0    0    0 -0.0000000000e+00 -0.0000000000e+00 -4.5593999997e+01 4.5594000000e+01 5.1100000000e-04 0.0000e+00 -1.0000e+00
       23  2    1    2    0    0 +0.0000000000e+00 +1.7763568394e-15 -3.5527136788e-15 9.1188000000e+01 9.1188000000e+01 3.7011e-14 0.0000e+00
  9990012  2    3    3    0    0 +1.8510253270e+01 +1.5942738241e+01 -2.0492032496e+01 5.9301893706e+01 4.9999908225e+01 1.9753e-03 0.0000e+00
      -11  1    4    4    0    0 +2.9137773996e+00 -7.5840174658e+00 +8.4022518508e+00 1.1687825122e+01 5.1100000000e-04 0.0000e+00 1.0000e+00
       11  1    4    4    0    0 +4.4915576998e+00 +2.4406492587e+01 -1.2482726215e+01 2.7778938514e+01 5.1100000000e-04 0.0000e+00 -1.0000e+00
       12  1    4    4    0    0 +1.1104918171e+01 -8.7973687960e-01 -1.6411558132e+01 1.9835130070e+01 0.0000000000e+00 0.0000e+00 -1.0000e+00
      -12  1    3    3    0    0 -1.8510253270e+01 -1.5942738241e+01 +2.0492032496e+01 3.1886106294e+01 0.0000000000e+00 0.0000e+00 1.0000e+00
</event>
<event>
 8      4 +2.2883893e-04 9.11880000e+01 7.81616400e-03 1.18400000e-01
      -11 -1    0    0    0    0 +0.0000000000e+00 +0.0000000000e+00 +4.5593999997e+01 4.5594000000e+01 5.1100000000e-04 0.0000e+00 1.0000e+00
       11 -1    0    0    0    0 -0.0000000000e+00 -0.0000000000e+00 -4.5593999997e+01 4.5594000000e+01 5.1100000000e-04 0.0000e+00 -1.0000e+00
       23  2    1    2    0    0 +5.5511151231e-16 +1.1102230246e-15 -3.5527136788e-15 9.1188000000e+01 9.1188000000e+01 2.7233e-13 0.0000e+00
 -9990012  2    3    3    0    0 -3.1504425345e-01 -1.7134992342e+00 +3.1838393443e+01 5.9301974385e+01 5.0000055364e+01 4.5952e-03 0.0000e+00
      -11  1    4    4    0    0 +5.5630021315e+00 -1.1594128386e+01 +4.1099757772e+00 1.3500470618e+01 5.1100000000e-04 0.0000e+00 1.0000e+00
       11  1    4    4    0    0 +2.1219463393e+00 -1.1234198762e+01 +2.0630520934e+00 1.1617489501e+01 5.1100000000e-04 0.0000e+00 -1.0000e+00
      -12  1    4    4    0    0 -7.9999927243e+00 +2.1114827914e+01 +2.5665365572e+01 3.4184014267e+01 0.0000000000e+00 0.0000e+00 1.0000e+00
       12  1    3    3    0    0 +3.1504425345e-01 +1.7134992342e+00 -3.1838393443e+01 3.1886025615e+01 0.0000000000e+00 0.0000e+00 -1.0000e+00
</event>
<event>
 8      3 +2.2883893e-04 9.11880000e+01 7.81616400e-03 1.18400000e-01
      -11 -1    0    0    0    0 +0.0000000000e+00 +0.0000000000e+00 +4.5593999997e+01 4.5594000000e+01 5.1100000000e-04 0.0000e+00 1.0000e+00
       11 -1    0    0    0    0 -0.0000000000e+00 -0.0000000000e+00 -4.5593999997e+01 4.5594000000e+01 5.1100000000e-04 0.0000e+00 -1.0000e+00
       23  2    1    2    0    0 -3.5527136788e-15 +8.8817841970e-16 +0.0000000000e+00 9.1188000000e+01 9.1188000000e+01 1.4757e-14 0.0000e+00
  9990012  2    3    3    0    0 -3.0451442560e+01 -5.2623370331e+00 -7.8574160719e+00 5.9301928866e+01 4.9999972348e+01 1.2541e-03 0.0000e+00
      -11  1    4    4    0    0 +3.3439460710e+00 +9.0926760277e+00 +9.1430772321e+00 1.3321208436e+01 5.1100000000e-04 0.0000e+00 1.0000e+00
       11  1    4    4    0    0 -1.0868766422e+00 -6.1225483350e+00 -9.6188599330e+00 1.1453792630e+01 5.1100000000e-04 0.0000e+00 -1.0000e+00
       12  1    4    4    0    0 -3.2708511989e+01 -8.2324647257e+00 -7.3816333709e+00 3.4526927799e+01 0.0000000000e+00 0.0000e+00 -1.0000e+00
      -12  1    3    3    0    0 +3.0451442560e+01 +5.2623370331e+00 +7.8574160719e+00 3.1886071134e+01 0.0000000000e+00 0.0000e+00 1.0000e+00
</event>
<event>
 8      4 +2.2883893e-04 9.11880000e+01 7.81616400e-03 1.18400000e-01
      -11 -1    0    0    0    0 +0.0000000000e+00 +0.0000000000e+00 +4.5593999997e+01 4.5594000000e+01 5.1100000000e-04 0.0000e+00 -1.0000e+00
       11 -1    0    0    0    0 -0.0000000000e+00 -0.0000000000e+00 -4.5593999997e+01 4.5594000000e+01 5.1100000000e-04 0.0000e+00 1.0000e+00
       23  2    1    2    0    0 +0.0000000000e+00 -1.7763568394e-15 +0.0000000000e+00 9.1188000000e+01 9.1188000000e+01 1.8691e-15 0.0000e+00
 -9990012  2    3    3    0    0 +2.8975926609e+01 -9.4144191644e+00 -9.4065319519e+00 5.9301977131e+01 5.0000060373e+01 9.4205e-04 0.0000e+00
      -11  1    4    4    0    0 +3.9103426123e+00 -1.8578150300e+01 -1.2807902778e+01 2.2901546274e+01 5.1100000000e-04 0.0000e+00 1.0000e+00
       11  1    4    4    0    0 +2.8952194469e+01 +1.1965527875e+01 +3.9604120876e+00 3.1576704801e+01 5.1100000000e-04 0.0000e+00 -1.0000e+00
      -12  1    4    4    0    0 -3.8866104725e+00 -2.8017967396e+00 -5.5904126183e-01 4.8237260564e+00 0.0000000000e+00 0.0000e+00 1.0000e+00
       12  1    3    3    0    0 -2.8975926609e+01 +9.4144191644e+00 +9.4065319519e+00 3.1886022869e+01 0.0000000000e+00 0.0000e+00 -1.0000e+00
</event>
<event>
 8      4 +2.2883893e-04 9.11880000e+01 7.81616400e-03 1.18400000e-01
      -11 -1    0    0    0    0 +0.0000000000e+00 +0.0000000000e+00 +4.5593999997e+01 4.5594000000e+01 5.1100000000e-04 0.0000e+00 1.0000e+00
       11 -1    0    0    0    0 -0.0000000000e+00 -0.0000000000e+00 -4.5593999997e+01 4.5594000000e+01 5.1100000000e-04 0.0000e+00 -1.0000e+00
       23  2    1    2    0    0 -8.8817841970e-16 +1.7763568394e-15 +0.0000000000e+00 9.1188000000e+01 9.1188000000e+01 3.1379e-15 0.0000e+00
 -9990012  2    3    3    0    0 +4.8764667054e+00 -5.2393737911e-01 +3.1506731856e+01 5.9301818194e+01 4.9999770509e+01 1.9991e-03 0.0000e+00
      -11  1    4    4    0    0 -8.5320511662e+00 -1.3905375283e+01 +1.2788909327e+01 2.0729485303e+01 5.1100000000e-04 0.0000e+00 1.0000e+00
       11  1    4    4    0    0 +1.1401836564e+01 +2.9719809052e+00 -4.8407652873e+00 1.2738428332e+01 5.1100000000e-04 0.0000e+00 -1.0000e+00
      -12  1    4    4    0    0 +2.0066813074e+00 +1.0409456999e+01 +2.3558587816e+01 2.5833904559e+01 0.0000000000e+00 0.0000e+00 1.0000e+00
       12  1    3    3    0    0 -4.8764667054e+00 +5.2393737911e-01 -3.1506731856e+01 3.1886181806e+01 0.0000000000e+00 0.0000e+00 -1.0000e+00
</event>
<event>
 8      3 +2.2883893e-04 9.11880000e+01 7.81616400e-03 1.18400000e-01
      -11 -1    0    0    0    0 +0.0000000000e+00 +0.0000000000e+00 +4.5593999997e+01 4.5594000000e+01 5.1100000000e-04 0.0000e+00 1.0000e+00
       11 -1    0    0    0    0 -0.0000000000e+00 -0.0000000000e+00 -4.5593999997e+01 4.5594000000e+01 5.1100000000e-04 0.0000e+00 -1.0000e+00
       23  2    1    2    0    0 +1.7763568394e-15 +0.0000000000e+00 +1.7763568394e-15 9.1188000000e+01 9.1188000000e+01 5.0096e-15 0.0000e+00
  9990012  2    3    3    0    0 +1.1162417309e+01 +2.8091603482e+01 +1.0148078154e+01 5.9301933504e+01 4.9999980807e+01 1.0418e-02 0.0000e+00
      -11  1    4    4    0    0 +1.3579665025e+01 +3.6593160848e+00 -6.0291578520e+00 1.5301916254e+01 5.1100000000e-04 0.0000e+00 -1.0000e+00
       11  1    4    4    0    0 -1.2411753972e+01 +1.6015915547e+01 -3.3169222619e+00 2.0532003337e+01 5.1100000000e-04 0.0000e+00 1.0000e+00
       12  1    4    4    0    0 +9.9945062567e+00 +8.4163718509e+00 +1.9494158268e+01 2.3468013913e+01 0.0000000000e+00 0.0000e+00 -1.0000e+00
      -12  1    3    3    0    0 -1.1162417309e+01 -2.8091603482e+01 -1.0148078154e+01 3.1886066496e+01 0.0000000000e+00 0.0000e+00 1.0000e+00
</event>
<event>
 8      4 +2.2883893e-04 9.11880000e+01 7.81616400e-03 1.18400000e-01
      -11 -1    0    0    0    0 +0.0000000000e+00 +0.0000000000e+00 +4.5593999997e+01 4.5594000000e+01 5.1100000000e-04 0.0000e+00 1.0000e+00
       11 -1    0    0    0    0 -0.0000000000e+00 -0.0000000000e+00 -4.5593999997e+01 4.5594000000e+01 5.1100000000e-04 0.0000e+00 -1.0000e+00
       23  2    1    2    0    0 +3.5527136788e-15 +0.0000000000e+00 +0.0000000000e+00 9.1188000000e+01 9.1188000000e+01 3.0993e-14 0.0000e+00
 -9990012  2    3    3    0    0 -2.6922496098e+01 -9.5077177725e+00 -1.4195256554e+01 5.9301908957e+01 4.9999936039e+01 5.7930e-03 0.0000e+00
      -11  1    4    4    0    0 -8.4104914952e-01 -6.4502257037e+00 -1.2209759740e+01 1.3834413919e+01 5.1100000000e-04 0.0000e+00 1.0000e+00
       11  1    4    4    0    0 -1.9274153977e+00 -1.3537754774e+01 -1.1092132140e+01 1.7607416906e+01 5.1100000000e-04 0.0000e+00 -1.0000e+00
      -12  1    4    4    0    0 -2.4154031551e+01 +1.0480262705e+01 +9.1066353263e+00 2.7860078132e+01 0.0000000000e+00 0.0000e+00 1.0000e+00
       12  1    3    3    0    0 +2.6922496098e+01 +9.5077177725e+00 +1.4195256554e+01 3.1886091043e+01 0.0000000000e+00 0.0000e+00 -1.0000e+00
</event>
<event>
 8      4 +2.2883893e-04 9.11880000e+01 7.81616400e-03 1.18400000e-01
      -11 -1    0    0    0    0 +0.0000000000e+00 +0.0000000000e+00 +4.5593999997e+01 4.5594000000e+01 5.1100000000e-04 0.0000e+00 -1.0000e+00
       11 -1    0    0    0    0 -0.0000000000e+00 -0.0000000000e+00 -4.5593999997e+01 4.5594000000e+01 5.1100000000e-04 0.0000e+00 1.0000e+00
       23  2    1    2    0    0 +0.0000000000e+00 -3.5527136788e-15 +0.0000000000e+00 9.1188000000e+01 9.1188000000e+01 1.0492e-13 0.0000e+00
 -9990012  2    3    3    0    0 -1.2035945813e+01 +1.3019399816e+01 -2.6501942604e+01 5.9301925846e+01 4.9999966841e+01 2.6924e-03 0.0000e+00
      -11  1    4    4    0    0 -9.0977264428e+00 +2.2600164756e+01 -1.5169662566e+01 2.8699385639e+01 5.1100000000e-04 0.0000e+00 1.0000e+00
       11  1    4    4    0    0 +5.2807843367e+00 +7.5157911786e+00 -1.7522534677e+00 9.3511599669e+00 5.1100000000e-04 0.0000e+00 -1.0000e+00
      -12  1    4    4    0    0 -8.2190037065e+00 -1.7096556118e+01 -9.5800265700e+00 2.1251380240e+01 0.0000000000e+00 0.0000e+00 1.0000e+00
       12  1    3    3    0    0 +1.2035945813e+01 -1.3019399816e+01 +2.6501942604e+01 3.1886074154e+01 0.0000000000e+00 0.0000e+00 -1.0000e+00
</event>
<event>
 8      3 +2.2883893e-04 9.11880000e+01 7.81616400e-03 1.18400000e-01
      -11 -1    0    0    0    0 +0.0000000000e+00 +0.0000000000e+00 +4.5593999997e+01 4.5594000000e+01 5.1100000000e-04 0.0000e+00 1.0000e+00
       11 -1    0    0    0    0 -0.0000000000e+00 -0.0000000000e+00 -4.5593999997e+01 4.5594000000e+01 5.1100000000e-04 0.0000e+00 -1.0000e+00
       23  2    1    2    0    0 +4.4408920985e-16 +3.5527136788e-15 +0.0000000000e+00 9.1188000000e+01 9.1188000000e+01 1.6364e-13 0.0000e+00
  9990012  2    3    3    0    0 -2.5978263284e+00 +3.1671689790e+01 +2.6221425764e+00 5.9301948701e+01 5.0000008523e+01 5.5895e-04 0.0000e+00
      -11  1    4    4    0    0 +2.5539455639e+00 +8.9859277986e+00 +1.4274220376e+01 1.7059393423e+01 5.1100000000e-04 0.0000e+00 1.0000e+00
       11  1    4    4    0    0 +7.5930359202e+00 +1.3090970358e+01 -1.9320848412e+01 2.4542267276e+01 5.1100000000e-04 0.0000e+00 -1.0000e+00
       12  1    4    4    0    0 -1.2744807813e+01 +9.5947916328e+00 +7.6687706130e+00 1.7700288002e+01 0.0000000000e+00 0.0000e+00 -1.0000e+00
      -12  1    3    3    0    0 +2.5978263284e+00 -3.1671689790e+01 -2.6221425764e+00 3.1886051299e+01 0.0000000000e+00 0.0000e+00 1.0000e+00
</event>
<event>
 8      4 +2.2883893e-04 9.11880000e+01 7.81616400e-03 1.18400000e-01
      -11 -1    0    0    0    0 +0.0000000000e+00 +0.0000000000e+00 +4.5593999997e+01 4.5594000000e+01 5.1100000000e-04 0.0000e+00 1.0000e+00
       11 -1    0    0    0    0 -0.0000000000e+00 -0.0000000000e+00 -4.5593999997e+01 4.5594000000e+01 5.1100000000e-04 0.0000e+00 -1.0000e+00
       23  2    1    2    0    0 -1.7208456882e-15 +1.7763568394e-15 +0.0000000000e+00 9.1188000000e+01 9.1188000000e+01 3.3030e-14 0.0000e+00
 -9990012  2    3    3    0    0 +1.5694697443e-01 +1.4026173157e+01 +2.8634955483e+01 5.9301971064e+01 5.0000049308e+01 1.7680e-03 0.0000e+00
      -11  1    4    4    0    0 +1.6904698045e+01 +2.3118495138e+00 +1.6615470254e+01 2.3815694745e+01 5.1100000000e-04 0.0000e+00 1.0000e+00
       11  1    4    4    0    0 +5.7585194047e+00 -2.8871674027e+00 +3.5392132852e+00 7.3499872302e+00 5.1100000000e-04 0.0000e+00 -1.0000e+00
      -12  1    4    4    0    0 -2.2506270475e+01 +1.4601491046e+01 +8.4802719439e+00 2.8136289089e+01 0.0000000000e+00 0.0000e+00 1.0000e+00
       12  1    3    3    0    0 -1.5694697443e-01 -1.4026173157e+01 -2.8634955483e+01 3.1886028936e+01 0.0000000000e+00 0.0000e+00 -1.0000e+00
</event>
<event>
 8      4 +2.2883893e-04 9.11880000e+01 7.81616400e-03 1.18400000e-01
      -11 -1    0    0    0    0 +0.0000000000e+00 +0.0000000000e+00 +4.5593999997e+01 4.5594000000e+01 5.1100000000e-04 0.0000e+00 -1.0000e+00
       11 -1    0    0    0    0 -0.0000000000e+00 -0.0000000000e+00 -4.5593999997e+01 4.5594000000e+01 5.1100000000e-04 0.0000e+00 1.0000e+00
       23  2    1    2    0    0 +1.3322676296e-15 +0.0000000000e+00 +0.0000000000e+00 9.1188000000e+01 9.1188000000e+01 1.0111e-13 0.0000e+00
 -9990012  2    3    3    0    0 -1.8124516134e+00 +9.0687968289e+00 -3.0515474311e+01 5.9301917939e+01 4.9999952420e+01 1.6194e-03 0.0000e+00
      -11  1    4    4    0    0 -1.3828204259e+01 -5.9999984163e+00 -1.1061304000e+01 1.8696835574e+01 5.1100000000e-04 0.0000e+00 1.0000e+00
       11  1    4    4    0    0 +2.0178658487e+00 +1.0641741098e+01 +6.3670768636e+00 1.2564159512e+01 5.1100000000e-04 0.0000e+00 -1.0000e+00
      -12  1    4    4    0    0 +9.9978867973e+00 +4.4270541470e+00 -2.5821247174e+01 2.8040922853e+01 0.0000000000e+00 0.0000e+00 1.0000e+00
       12  1    3    3    0    0 +1.8124516134e+00 -9.0687968289e+00 +3.0515474311e+01 3.1886082061e+01 0.0000000000e+00 0.0000e+00 -1.0000e+00
</event>
<event>
 8      4 +2.2883893e-04 9.11880000e+01 7.81616400e-03 1.18400000e-01
      -11 -1    0    0    0    0 +0.0000000000e+00 +0.0000000000e+00 +4.5593999997e+01 4.5594000000e+01 5.1100000000e-04 0.0000e+00 1.0000e+00
       11 -1    0    0    0    0 -0.0000000000e+00 -0.0000000000e+00 -4.5593999997e+01 4.5594000000e+01 5.1100000000e-04 0.0000e+00 -1.0000e+00
       23  2    1    2    0    0 +0.0000000000e+00 +3.5527136788e-15 -1.7763568394e-15 9.1188000000e+01 9.1188000000e+01 2.6856e-13 0.0000e+00
 -9990012  2    3    3    0    0 +2.2197985720e+01 -2.0990923143e+01 +9.1295845711e+00 5.9301972671e+01 5.0000052238e+01 2.2926e-03 0.0000e+00
      -11  1    4    4    0    0 +1.6517469719e+01 -9.2475401325e+00 -6.2610696111e+00 1.9938525456e+01 5.1100000000e-04 0.0000e+00 1.0000e+00
       11  1    4    4    0    0 -1.0892425931e+01 -6.2072034728e+00 -4.0970267295e+00 1.3189387624e+01 5.1100000000e-04 0.0000e+00 -1.0000e+00
      -12  1    4    4    0    0 +1.6572941931e+01 -5.5361795376e+00 +1.9487680912e+01 2.6174059591e+01 0.0000000000e+00 0.0000e+00 1.0000e+00
       12  1    3    3    0    0 -2.2197985720e+01 +2.0990923143e+01 -9.1295845711e+00 3.1886027329e+01 0.0000000000e+00 0.0000e+00 -1.0000e+00
</event>
<event>
 8      3 +2.2883893e-04 9.11880000e+01 7.81616400e-03 1.18400000e-01
      -11 -1    0    0    0    0 +0.0000000000e+00 +0.0000000000e+00 +4.5593999997e+01 4.5594000000e+01 5.1100000000e-04 0.0000e+00 1.0000e+00
       11 -1    0    0    0    0 -0.0000000000e+00 -0.0000000000e+00 -4.5593999997e+01 4.5594000000e+01 5.1100000000e-04 0.0000e+00 -1.0000e+00
       23  2    1    2    0    0 -1.7763568394e-15 -1.7763568394e-15 +0.0000000000e+00 9.1188000000e+01 9.1188000000e+01 3.4835e-13 0.0000e+00
  9990012  2    3    3    0    0 +1.1937934453e+01 +8.1108644819e+00 -2.8432733782e+01 5.9301941103e+01 4.9999994666e+01 4.4641e-04 0.0000e+00
      -11  1    4    4    0    0 +6.9569141125e-01 -8.2121254570e+00 +7.0867450539e+00 1.0869450160e+01 5.1100000000e-04 0.0000e+00 1.0000e+00
       11  1    4    4    0    0 -6.7705597665e+00 +8.8204566576e+00 -4.9619205753e+00 1.2176271648e+01 5.1100000000e-04 0.0000e+00 -1.0000e+00
       12  1    4    4    0    0 +1.8012802808e+01 +7.5025332813e+00 -3.0557558261e+01 3.6256219294e+01 0.0000000000e+00 0.0000e+00 -1.0000e+00
      -12  1    3    3    0    0 -1.1937934453e+01 -8.1108644819e+00 +2.8432733782e+01 3.1886058897e+01 0.0000000000e+00 0.0000e+00 1.0000e+00
</event>
<event>
 8      4 +2.2883893e-04 9.11880000e+01 7.81616400e-03 1.18400000e-01
      -11 -1    0    0    0    0 +0.0000000000e+00 +0.0000000000e+00 +4.5593999997e+01 4.5594000000e+01 5.1100000000e-04 0.0000e+00 1.0000e+00
       11 -1    0    0    0    0 -0.0000000000e+00 -0.0000000000e+00 -4.5593999997e+01 4.5594000000e+01 5.1100000000e-04 0.0000e+00 -1.0000e+00
       23  2    1    2    0    0 +8.8817841970e-16 +0.0000000000e+00 +0.0000000000e+00 9.1188000000e+01 9.1188000000e+01 9.6332e-15 0.0000e+00
 -9990012  2    3    3    0    0 -4.4802474741e+00 +1.7657811996e+01 +2.6169636869e+01 5.9301939789e+01 4.9999992270e+01 2.1202e-03 0.0000e+00
      -11  1    4    4    0    0 -2.7544656510e+00 +2.2170223138e+01 +1.9836902266e+01 2.9876555470e+01 5.1100000000e-04 0.0000e+00 1.0000e+00
       11  1    4    4    0    0 +7.3321192078e+00 +6.8078186562e+00 -4.8469319315e+00 1.1117513946e+01 5.1100000000e-04 0.0000e+00 -1.0000e+00
      -12  1    4    4    0    0 -9.0579010310e+00 -1.1320229798e+01 +1.1179666534e+01 1.8307870373e+01 0.0000000000e+00 0.0000e+00 1.0000e+00
       12  1    3    3    0    0 +4.4802474741e+00 -1.7657811996e+01 -2.6169636869e+01 3.1886060211e+01 0.0000000000e+00 0.0000e+00 -1.0000e+00
</event>
<event>
 8      4 +2.2883893e-04 9.11880000e+01 7.81616400e-03 1.18400000e-01
      -11 -1    0    0    0    0 +0.0000000000e+00 +0.0000000000e+00 +4.5593999997e+01 4.5594000000e+01 5.1100000000e-04 0.0000e+00 1.0000e+00
       11 -1    0    0    0    0 -0.0000000000e+00 -0.0000000000e+00 -4.5593999997e+01 4.5594000000e+01 5.1100000000e-04 0.0000e+00 -1.0000e+00
       23  2    1    2    0    0 +0.0000000000e+00 -3.5527136788e-15 +0.0000000000e+00 9.1188000000e+01 9.1188000000e+01 2.2408e-14 0.0000e+00
 -9990012  2    3    3    0    0 +8.9738795152e+00 -2.6145172900e+01 +1.5893508355e+01 5.9302200851e+01 5.0000468382e+01 1.0017e-03 0.0000e+00
      -11  1    4    4    0    0 -1.0853522617e+01 -3.0549455070e+01 +1.4949927945e+01 3.5701099481e+01 5.1100000000e-04 0.0000e+00 1.0000e+00
       11  1    4    4    0    0 +4.7618482266e+00 +6.0395125035e+00 -2.4499364235e+00 8.0717469332e+00 5.1100000000e-04 0.0000e+00 -1.0000e+00
      -12  1    4    4    0    0 +1.5065553906e+01 -1.6352303332e+00 +3.3935168341e+00 1.5529354437e+01 0.0000000000e+00 0.0000e+00 1.0000e+00
       12  1    3    3    0    0 -8.9738795152e+00 +2.6145172900e+01 -1.5893508355e+01 3.1885799149e+01 0.0000000000e+00 0.0000e+00 -1.0000e+00
</event>
<event>
 8      3 +2.2883893e-04 9.11880000e+01 7.81616400e-03 1.18400000e-01
      -11 -1    0    0    0    0 +0.0000000000e+00 +0.0000000000e+00 +4.5593999997e+01 4.5594000000e+01 5.1100000000e-04 0.0000e+00 -1.0000e+00
       11 -1    0    0    0    0 -0.0000000000e+00 -0.0000000000e+00 -4.5593999997e+01 4.5594000000e+01 5.1100000000e-04 0.0000e+00 1.0000e+00
       23  2    1    2    0    0 +0.0000000000e+00 -3.4416913763e-15 +0.0000000000e+00 9.1188000000e+01 9.1188000000e+01 3.8017e-14 0.0000e+00
  9990012  2    3    3    0    0 +1.1145915701e+01 -8.4560458448e-01 +2.9862513673e+01 5.9302012376e+01 5.0000124650e+01 1.8415e-03 0.0000e+00
      -11  1    4    4    0    0 +6.0600057298e+00 -1.7322431992e+01 +4.7392812427e+00 1.8953920611e+01 5.1100000000e-04 0.0000e+00 1.0000e+00
       11  1    4    4    0    0 +1.0928288112e+01 +1.8311478825e+01 +2.6556866100e+01 3.4058844301e+01 5.1100000000e-04 0.0000e+00 -1.0000e+00
       12  1    4    4    0    0 -5.8423781409e+00 -1.8346514174e+00 -1.4336336699e+00 6.2892474640e+00 0.0000000000e+00 0.0000e+00 -1.0000e+00
      -12  1    3    3    0    0 -1.1145915701e+01 +8.4560458448e-01 -2.9862513673e+01 3.1885987624e+01 0.0000000000e+00 0.0000e+00 1.0000e+00
</event>
<event>
 8      3 +2.2883893e-04 9.11880000e+01 7.81616400e-03 1.18400000e-01
      -11 -1    0    0    0    0 +0.0000000000e+00 +0.0000000000e+00 +4.5593999997e+01 4.5594000000e+01 5.1100000000e-04 0.0000e+00 -1.0000e+00
       11 -1    0    0    0    0 -0.0000000000e+00 -0.0000000000e+00 -4.5593999997e+01 4.5594000000e+01 5.1100000000e-04 0.0000e+00 1.0000e+00
       23  2    1    2    0    0 -1.7763568394e-15 -3.5527136788e-15 +2.2204460493e-16 9.1188000000e+01 9.1188000000e+01 3.4430e-14 0.0000e+00
  9990012  2    3    3    0    0 +6.9537164273e+00 -3.1087290289e+01 -1.3957779152e+00 5.9301921758e+01 4.9999959386e+01 8.9167e-04 0.0000e+00
      -11  1    4    4    0    0 -8.4876200927e+00 +2.9390983640e+00 +2.2878231007e+00 9.2688795889e+00 5.1100000000e-04 0.0000e+00 1.0000e+00
       11  1    4    4    0    0 -5.3034793579e+00 +3.7011674548e+00 -2.5834843261e+00 6.9641887792e+00 5.1100000000e-04 0.0000e+00 -1.0000e+00
       12  1    4    4    0    0 +2.0744815878e+01 -3.7727556107e+01 -1.1001166899e+00 4.3068853390e+01 0.0000000000e+00 0.0000e+00 -1.0000e+00
      -12  1    3    3    0    0 -6.9537164273e+00 +3.1087290289e+01 +1.3957779152e+00 3.1886078242e+01 0.0000000000e+00 0.0000e+00 1.0000e+00
</event>
<event>
 8      3 +2.2883893e-04 9.11880000e+01 7.81616400e-03 1.18400000e-01
      -11 -1    0    0    0    0 +0.0000000000e+00 +0.0000000000e+00 +4.5593999997e+01 4.5594000000e+01 5.1100000000e-04 0.0000e+00 -1.0000e+00
       11 -1    0    0    0    0 -0.0000000000e+00 -0.0000000000e+00 -4.5593999997e+01 4.5594000000e+01 5.1100000000e-04 0.0000e+00 1.0000e+00
       23  2    1    2    0    0 +0.0000000000e+00 +3.5527136788e-15 +0.0000000000e+00 9.1188000000e+01 9.1188000000e+01 2.2187e-14 0.0000e+00
  9990012  2    3    3    0    0 -2.0853471177e+01 -2.2615191361e+01 +8.3908851692e+00 5.9301935735e+01 4.9999984875e+01 2.2710e-03 0.0000e+00
      -11  1    4    4    0    0 +7.2905738556e+00 -2.0822471047e+01 +7.1495025003e+00 2.3191445706e+01 5.1100000000e-04 0.0000e+00 1.0000e+00
       11  1    4    4    0    0 -1.7341540269e+01 -1.0730942267e+01 -4.6261952788e+00 2.0911332426e+01 5.1100000000e-04 0.0000e+00 -1.0000e+00
       12  1    4    4    0    0 -1.0802504764e+01 +8.9382219531e+00 +5.8675779478e+00 1.5199157602e+01 0.0000000000e+00 0.0000e+00 -1.0000e+00
      -12  1    3    3    0    0 +2.0853471177e+01 +2.2615191361e+01 -8.3908851692e+00 3.1886064265e+01 0.0000000000e+00 0.0000e+00 1.0000e+00
</event>
<event>
 8      4 +2.2883893e-04 9.11880000e+01 7.81616400e-03 1.18400000e-01
      -11 -1    0    0    0    0 +0.0000000000e+00 +0.0000000000e+00 +4.5593999997e+01 4.5594000000e+01 5.1100000000e-04 0.0000e+00 1.0000e+00
       11 -1    0    0    0    0 -0.0000000000e+00 -0.0000000000e+00 -4.5593999997e+01 4.5594000000e+01 5.1100000000e-04 0.0000e+00 -1.0000e+00
       23  2    1    2    0    0 +0.0000000000e+00 +3.3306690739e-16 -3.5527136788e-15 9.1188000000e+01 9.1188000000e+01 7.6948e-14 0.0000e+00
 -9990012  2    3    3    0    0 +2.2321896605e+01 +8.3350214113e-01 -2.2754322653e+01 5.9301937319e+01 4.9999987766e+01 2.4392e-03 0.0000e+00
      -11  1    4    4    0    0 +1.5642898792e+01 -2.1314169305e+01 -1.0227290387e+00 2.6458270365e+01 5.1100000000e-04 0.0000e+00 1.0000e+00
       11  1    4    4    0    0 +1.8420395579e-01 +7.7445582591e+00 -1.2012955528e+01 1.4294167149e+01 5.1100000000e-04 0.0000e+00 -1.0000e+00
      -12  1    4    4    0    0 +6.4947938580e+00 +1.4403113187e+01 -9.7186380864e+00 1.8549499805e+01 0.0000000000e+00 0.0000e+00 1.0000e+00
       12  1    3    3    0    0 -2.2321896605e+01 -8.3350214113e-01 +2.2754322653e+01 3.1886062681e+01 0.0000000000e+00 0.0000e+00 -1.0000e+00
</event>
<event>
 8      3 +2.2883893e-04 9.11880000e+01 7.81616400e-03 1.18400000e-01
      -11 -1    0    0    0    0 +0.0000000000e+00 +0.0000000000e+00 +4.5593999997e+01 4.5594000000e+01 5.1100000000e-04 0.0000e+00 -1.0000e+00
       11 -1    0    0    0    0 -0.0000000000e+00 -0.0000000000e+00 -4.5593999997e+01 4.5594000000e+01 5.1100000000e-04 0.0000e+00 1.0000e+00
       23  2    1    2    0    0 -1.7763568394e-15 -1.3322676296e-15 +0.0000000000e+00 9.1188000000e+01 9.1188000000e+01 1.1217e-13 0.0000e+00
  9990012  2    3    3    0    0 +1.2402395821e+01 -3.7885647582e+00 +2.9129863919e+01 5.9301927540e+01 4.9999969930e+01 2.5488e-03 0.0000e+00
      -11  1    4    4    0    0 -8.1886720595e+00 +1.3760530523e+01 +1.0686493078e+00 1.6048319600e+01 5.1100000000e-04 0.0000e+00 1.0000e+00
       11  1    4    4    0    0 +1.5040407919e+01 -1.9498355860e+01 +2.8109594127e+01 3.7370429939e+01 5.1100000000e-04 0.0000e+00 -1.0000e+00
       12  1    4    4    0    0 +5.5506599613e+00 +1.9492605780e+00 -4.8379515815e-02 5.8831780004e+00 0.0000000000e+00 0.0000e+00 -1.0000e+00
      -12  1    3    3    0    0 -1.2402395821e+01 +3.7885647582e+00 -2.9129863919e+01 3.1886072460e+01 0.0000000000e+00 0.0000e+00 1.0000e+00
</event>
<event>
 8      3 +2.2883893e-04 9.11880000e+01 7.81616400e-03 1.18400000e-01
      -11 -1    0    0    0    0 +0.0000000000e+00 +0.0000000000e+00 +4.5593999997e+01 4.5594000000e+01 5.1100000000e-04 0.0000e+00 1.0000e+00
       11 -1    0    0    0    0 -0.0000000000e+00 -0.0000000000e+00 -4.5593999997e+01 4.5594000000e+01 5.1100000000e-04 0.0000e+00 -1.0000e+00
       23  2    1    2    0    0 +0.0000000000e+00 -1.7763568394e-15 +0.0000000000e+00 9.1188000000e+01 9.1188000000e+01 7.7681e-15 0.0000e+00
  9990012  2    3    3    0    0 -2.2954055604e+01 +1.1391211197e+01 -1.8975575258e+01 5.9301940074e+01 4.9999992790e+01 3.4102e-04 0.0000e+00
      -11  1    4    4    0    0 -1.1942815291e+00 +1.6599790130e+01 -7.3107457164e+00 1.8177633067e+01 5.1100000000e-04 0.0000e+00 1.0000e+00
       11  1    4    4    0    0 -1.4045801301e+01 +1.2763314419e+01 -1.0114286431e+01 2.1505476498e+01 5.1100000000e-04 0.0000e+00 -1.0000e+00
       12  1    4    4    0    0 -7.7139727736e+00 -1.7971893352e+01 -1.5505431110e+00 1.9618830509e+01 0.0000000000e+00 0.0000e+00 -1.0000e+00
      -12  1    3    3    0    0 +2.2954055604e+01 -1.1391211197e+01 +1.8975575258e+01 3.1886059926e+01 0.0000000000e+00 0.0000e+00 1.0000e+00
</event>
<event>
 8      4 +2.2883893e-04 9.11880000e+01 7.81616400e-03 1.18400000e-01
      -11 -1    0    0    0    0 +0.0000000000e+00 +0.0000000000e+00 +4.5593999997e+01 4.5594000000e+01 5.1100000000e-04 0.0000e+00 1.0000e+00
       11 -1    0    0    0    0 -0.0000000000e+00 -0.0000000000e+00 -4.5593999997e+01 4.5594000000e+01 5.1100000000e-04 0.0000e+00 -1.0000e+00
       23  2    1    2    0    0 +0.0000000000e+00 -6.5919492087e-17 +4.4408920985e-16 9.1188000000e+01 9.1188000000e+01 7.5117e-14 0.0000e+00
 -9990012  2    3    3    0    0 -3.1787868594e+01 -2.3288099426e-02 -2.5006419371e+00 5.9301916167e+01 4.9999949190e+01 1.6328e-03 0.0000e+00
      -11  1    4    4    0    0 -4.2673666607e+00 -6.3530368435e+00 -2.0171672483e+00 7.9145725924e+00 5.1100000000e-04 0.0000e+00 1.0000e+00
       11  1    4    4    0    0 -9.6408492884e+00 +7.9641535998e+00 -2.0802953476e+01 2.4272136106e+01 5.1100000000e-04 0.0000e+00 -1.0000e+00
      -12  1    4    4    0    0 -1.7879652645e+01 -1.6344048557e+00 +2.0319478787e+01 2.7115207469e+01 0.0000000000e+00 0.0000e+00 1.0000e+00
       12  1    3    3    0    0 +3.1787868594e+01 +2.3288099426e-02 +2.5006419371e+00 3.1886083833e+01 0.0000000000e+00 0.0000e+00 -1.0000e+00
</event>
<event>
 8      4 +2.2883893e-04 9.11880000e+01 7.81616400e-03 1.18400000e-01
      -11 -1    0    0    0    0 +0.0000000000e+00 +0.0000000000e+00 +4.5593999997e+01 4.5594000000e+01 5.1100000000e-04 0.0000e+00 1.0000e+00
       11 -1    0    0    0    0 -0.0000000000e+00 -0.0000000000e+00 -4.5593999997e+01 4.5594000000e+01 5.1100000000e-04 0.0000e+00 -1.0000e+00
       23  2    1    2    0    0 +0.0000000000e+00 -8.8817841970e-16 -3.5527136788e-15 9.1188000000e+01 9.1188000000e+01 2.6987e-14 0.0000e+00
 -9990012  2    3    3    0    0 -7.0264898490e+00 +1.7976449593e+00 +3.1050268900e+01 5.9301917053e+01 4.9999950804e+01 2.2760e-04 0.0000e+00
      -11  1    4    4    0    0 +4.7441485776e+00 -9.9163807785e+00 +6.4134120595e+00 1.2726877385e+01 5.1100000000e-04 0.0000e+00 1.0000e+00
       11  1    4    4    0    0 -1.0664337051e+01 -7.3920853410e+00 -2.6521127395e+00 1.3244044423e+01 5.1100000000e-04 0.0000e+00 -1.0000e+00
      -12  1    4    4    0    0 -1.1063013755e+00 +1.9106111079e+01 +2.7288969579e+01 3.3330995245e+01 0.0000000000e+00 0.0000e+00 1.0000e+00
       12  1    3    3    0    0 +7.0264898490e+00 -1.7976449593e+00 -3.1050268900e+01 3.1886082947e+01 0.0000000000e+00 0.0000e+00 -1.0000e+00
</event>
<event>
 8      3 +2.2883893e-04 9.11880000e+01 7.81616400e-03 1.18400000e-01
      -11 -1    0    0    0    0 +0.0000000000e+00 +0.0000000000e+00 +4.5593999997e+01 4.5594000000e+01 5.1100000000e-04 0.0000e+00 -1.0000e+00
       11 -1    0    0    0    0 -0.0000000000e+00 -0.0000000000e+00 -4.5593999997e+01 4.5594000000e+01 5.1100000000e-04 0.0000e+00 1.0000e+00
       23  2    1    2    0    0 -3.5527136788e-15 -2.6645352591e-15 +0.0000000000e+00 9.1188000000e+01 9.1188000000e+01 9.9979e-14 0.0000e+00
  9990012  2    3    3    0    0 +2.6561029160e+01 +7.0320721202e+00 +1.6179739224e+01 5.9301917304e+01 4.9999951262e+01 1.5581e-03 0.0000e+00
      -11  1    4    4    0    0 +3.3786262992e+00 +1.7604004224e+01 -5.5228751142e+00 1.8756818231e+01 5.1100000000e-04 0.0000e+00 1.0000e+00
       11  1    4    4    0    0 +2.9629803808e+00 -5.4384380118e+00 -4.0526194862e+00 7.4013232402e+00 5.1100000000e-04 0.0000e+00 -1.0000e+00
       12  1    4    4    0    0 +2.0219422480e+01 -5.1334940917e+00 +2.5755233825e+01 3.3143775832e+01 0.0000000000e+00 0.0000e+00 -1.0000e+00
      -12  1    3    3    0    0 -2.6561029160e+01 -7.0320721202e+00 -1.6179739224e+01 3.1886082696e+01 0.0000000000e+00 0.0000e+00 1.0000e+00
</event>
<event>
 8      3 +2.2883893e-04 9.11880000e+01 7.81616400e-03 1.18400000e-01
      -11 -1    0    0    0    0 +0.0000000000e+00 +0.0000000000e+00 +4.5593999997e+01 4.5594000000e+01 5.1100000000e-04 0.0000e+00 -1.0000e+00
       11 -1    0    0    0    0 -0.0000000000e+00 -0.0000000000e+00 -4.5593999997e+01 4.5594000000e+01 5.1100000000e-04 0.0000e+00 1.0000e+00
       23  2    1    2    0    0 +1.7763568394e-15 +0.0000000000e+00 -1.7763568394e-15 9.1188000000e+01 9.1188000000e+01 2.0554e-13 0.0000e+00
  9990012  2    3    3    0    0 +4.9088684723e+00 -2.8882965995e+01 +1.2585725675e+01 5.9301902636e+01 4.9999924512e+01 2.2036e-03 0.0000e+00
      -11  1    4    4    0    0 -8.3219580378e+00 -1.3886221503e+01 +2.3198367291e+00 1.6354319794e+01 5.1100000000e-04 0.0000e+00 1.0000e+00
       11  1    4    4    0    0 -6.6850289046e+00 -1.5983604023e+01 -4.7743924893e+00 1.7971088807e+01 5.1100000000e-04 0.0000e+00 -1.0000e+00
       12  1    4    4    0    0 +1.9915855415e+01 +9.8685953082e-01 +1.5040281435e+01 2.4976494035e+01 0.0000000000e+00 0.0000e+00 -1.0000e+00
      -12  1    3    3    0    0 -4.9088684723e+00 +2.8882965995e+01 -1.2585725675e+01 3.1886097364e+01 0.0000000000e+00 0.0000e+00 1.0000e+00
</event>
<event>
 8      3 +2.2883893e-04 9.11880000e+01 7.81616400e-03 1.18400000e-01
      -11 -1    0    0    0    0 +0.0000000000e+00 +0.0000000000e+00 +4.5593999997e+01 4.5594000000e+01 5.1100000000e-04 0.0000e+00 -1.0000e+00
       11 -1    0    0    0    0 -0.0000000000e+00 -0.0000000000e+00 -4.5593999997e+01 4.5594000000e+01 5.1100000000e-04 0.0000e+00 1.0000e+00
       23  2    1    2    0    0 -3.5527136788e-15 +5.5511151231e-16 -1.0658141036e-14 9.1188000000e+01 9.1188000000e+01 3.6765e-13 0.0000e+00
  9990012  2    3    3    0    0 +1.4076756130e+01 -9.2995835171e-01 +2.8595460770e+01 5.9301948781e+01 5.0000008669e+01 9.3898e-04 0.0000e+00
      -11  1    4    4    0    0 -8.3069374069e+00 -1.7031622874e+01 +6.6740469293e-01 1.8961192370e+01 5.1100000000e-04 0.0000e+00 1.0000e+00
       11  1    4    4    0    0 +1.5972523158e+00 +4.0208201725e+00 +8.0757029280e+00 9.1616149156e+00 5.1100000000e-04 0.0000e+00 -1.0000e+00
       12  1    4    4    0    0 +2.0786441221e+01 +1.2080844350e+01 +1.9852353149e+01 3.1179141496e+01 0.0000000000e+00 0.0000e+00 -1.0000e+00
      -12  1    3    3    0    0 -1.4076756130e+01 +9.2995835171e-01 -2.8595460770e+01 3.1886051219e+01 0.0000000000e+00 0.0000e+00 1.0000e+00
</event>
<event>
 8      4 +2.2883893e-04 9.11880000e+01 7.81616400e-03 1.18400000e-01
      -11 -1    0    0    0    0 +0.0000000000e+00 +0.0000000000e+00 +4.5593999997e+01 4.5594000000e+01 5.1100000000e-04 0.0000e+00 1.0000e+00
       11 -1    0    0    0    0 -0.0000000000e+00 -0.0000000000e+00 -4.5593999997e+01 4.5594000000e+01 5.1100000000e-04 0.0000e+00 -1.0000e+00
       23  2    1    2    0    0 +3.5527136788e-15 +3.5527136788e-15 +4.4408920985e-16 9.1188000000e+01 9.1188000000e+01 2.4902e-15 0.0000e+00
 -9990012  2    3    3    0    0 -2.5513091289e+01 -1.8765501017e+01 +3.6958750528e+00 5.9301931758e+01 4.9999977622e+01 3.7159e-03 0.0000e+00
      -11  1    4    4    0    0 -6.4387489587e-01 -1.6079545486e+01 +9.5079132275e+00 1.8691355545e+01 5.1100000000e-04 0.0000e+00 1.0000e+00
       11  1    4    4    0    0 +1.9071215215e+00 -1.0349775453e+01 -7.1562985263e+00 1.2726648156e+01 5.1100000000e-04 0.0000e+00 -1.0000e+00
      -12  1    4    4    0    0 -2.6776337915e+01 +7.6638199226e+00 +1.3442603515e+00 2.7883928056e+01 0.0000000000e+00 0.0000e+00 1.0000e+00
       12  1    3    3    0    0 +2.5513091289e+01 +1.8765501017e+01 -3.6958750528e+00 3.1886068242e+01 0.0000000000e+00 0.0000e+00 -1.0000e+00
</event>
<event>
 8      4 +2.2883893e-04 9.11880000e+01 7.81616400e-03 1.18400000e-01
      -11 -1    0    0    0    0 +0.0000000000e+00 +0.0000000000e+00 +4.5593999997e+01 4.5594000000e+01 5.1100000000e-04 0.0000e+00 -1.0000e+00
       11 -1    0    0    0    0 -0.0000000000e+00 -0.0000000000e+00 -4.5593999997e+01 4.5594000000e+01 5.1100000000e-04 0.0000e+00 1.0000e+00
       23  2    1    2    0    0 +7.1054273576e-15 -3.5527136788e-15 +3.5527136788e-15 9.1188000000e+01 9.1188000000e+01 1.8891e-13 0.0000e+00
 -9990012  2    3    3    0    0 +1.7399625066e+01 -2.3753218673e+01 +1.2237551228e+01 5.9301952741e+01 5.0000015891e+01 3.6631e-03 0.0000e+00
      -11  1    4    4    0    0 +9.1267125018e+00 -2.0227673766e+01 -1.5951982486e+00 2.2248602760e+01 5.1100000000e-04 0.0000e+00 1.0000e+00
       11  1    4    4    0    0 +1.9100057191e+01 -7.9269449000e+00 +1.4640992207e+01 2.5337862838e+01 5.1100000000e-04 0.0000e+00 -1.0000e+00
      -12  1    4    4    0    0 -1.0827144627e+01 +4.4013999930e+00 -8.0824273036e-01 1.1715487142e+01 0.0000000000e+00 0.0000e+00 1.0000e+00
       12  1    3    3    0    0 -1.7399625066e+01 +2.3753218673e+01 -1.2237551228e+01 3.1886047259e+01 0.0000000000e+00 0.0000e+00 -1.0000e+00
</event>
<event>
 8      4 +2.2883893e-04 9.11880000e+01 7.81616400e-03 1.18400000e-01
      -11 -1    0    0    0    0 +0.0000000000e+00 +0.0000000000e+00 +4.5593999997e+01 4.5594000000e+01 5.1100000000e-04 0.0000e+00 -1.0000e+00
       11 -1    0    0    0    0 -0.0000000000e+00 -0.0000000000e+00 -4.5593999997e+01 4.5594000000e+01 5.1100000000e-04 0.0000e+00 1.0000e+00
       23  2    1    2    0    0 +2.6645352591e-15 -7.1054273576e-15 +0.0000000000e+00 9.1188000000e+01 9.1188000000e+01 2.4579e-13 0.0000e+00
 -9990012  2    3    3    0    0 +6.4639839068e+00 -3.1056257552e+01 +3.2321139235e+00 5.9301940641e+01 4.9999993823e+01 2.2809e-03 0.0000e+00
      -11  1    4    4    0    0 -7.2432040098e+00 +2.4757249936e+00 -3.9494996211e+00 8.6134642328e+00 5.1100000000e-04 0.0000e+00 1.0000e+00
       11  1    4    4    0    0 +2.4742784188e+00 -3.3518825475e+01 -5.1561041037e+00 3.4003222269e+01 5.1100000000e-04 0.0000e+00 -1.0000e+00
      -12  1    4    4    0    0 +1.1232909498e+01 -1.3157070160e-02 +1.2337717648e+01 1.6685254138e+01 0.0000000000e+00 0.0000e+00 1.0000e+00
       12  1    3    3    0    0 -6.4639839068e+00 +3.1056257552e+01 -3.2321139235e+00 3.1886059359e+01 0.0000000000e+00 0.0000e+00 -1.0000e+00
</event>
<event>
 8      4 +2.2883893e-04 9.11880000e+01 7.81616400e-03 1.18400000e-01
      -11 -1    0    0    0    0 +0.0000000000e+00 +0.0000000000e+00 +4.5593999997e+01 4.5594000000e+01 5.1100000000e-04 0.0000e+00 1.0000e+00
       11 -1    0    0    0    0 -0.0000000000e+00 -0.0000000000e+00 -4.5593999997e+01 4.5594000000e+01 5.1100000000e-04 0.0000e+00 -1.0000e+00
       23  2    1    2    0    0 +3.5527136788e-15 +3.5527136788e-15 +4.4408920985e-16 9.1188000000e+01 9.1188000000e+01 1.8113e-14 0.0000e+00
 -9990012  2    3    3    0    0 +1.9845010662e+01 -2.4933593506e+01 -1.1007410917e+00 5.9301950319e+01 5.0000011475e+01 1.8310e-04 0.0000e+00
      -11  1    4    4    0    0 -1.0076269250e+01 -1.3411757430e+01 +4.5793629854e+00 1.7388990913e+01 5.1100000000e-04 0.0000e+00 1.0000e+00
       11  1    4    4    0    0 +1.8362582412e+01 -2.8004618761e+00 -1.5686160809e+01 2.4312191607e+01 5.1100000000e-04 0.0000e+00 -1.0000e+00
      -12  1    4    4    0    0 +1.1558697499e+01 -8.7213741995e+00 +1.0006056732e+01 1.7600767800e+01 0.0000000000e+00 0.0000e+00 1.0000e+00
       12  1    3    3    0    0 -1.9845010662e+01 +2.4933593506e+01 +1.1007410917e+00 3.1886049681e+01 0.0000000000e+00 0.0000e+00 -1.0000e+00
</event>
<event>
 8      4 +2.2883893e-04 9.11880000e+01 7.81616400e-03 1.18400000e-01
      -11 -1    0    0    0    0 +0.0000000000e+00 +0.0000000000e+00 +4.5593999997e+01 4.5594000000e+01 5.1100000000e-04 0.0000e+00 1.0000e+00
       11 -1    0    0    0    0 -0.0000000000e+00 -0.0000000000e+00 -4.5593999997e+01 4.5594000000e+01 5.1100000000e-04 0.0000e+00 -1.0000e+00
       23  2    1    2    0    0 -1.7763568394e-15 +0.0000000000e+00 +0.0000000000e+00 9.1188000000e+01 9.1188000000e+01 5.9425e-15 0.0000e+00
 -9990012  2    3    3    0    0 +8.0735853508e+00 -2.3511117251e+01 +1.9969085461e+01 5.9301956205e+01 5.0000022208e+01 3.0963e-04 0.0000e+00
      -11  1    4    4    0    0 +1.4521518082e+01 -2.1369924643e+01 +1.1339416706e+01 2.8215785266e+01 5.1100000000e-04 0.0000e+00 1.0000e+00
       11  1    4    4    0    0 +1.0983471639e+01 +8.2300804470e-01 -8.0727866632e-01 1.1043807794e+01 5.1100000000e-04 0.0000e+00 -1.0000e+00
      -12  1    4    4    0    0 -1.7431404370e+01 -2.9642006522e+00 +9.4369474206e+00 2.0042363145e+01 0.0000000000e+00 0.0000e+00 1.0000e+00
       12  1    3    3    0    0 -8.0735853508e+00 +2.3511117251e+01 -1.9969085461e+01 3.1886043795e+01 0.0000000000e+00 0.0000e+00 -1.0000e+00
</event>
<event>
 8      4 +2.2883893e-04 9.11880000e+01 7.81616400e-03 1.18400000e-01
      -11 -1    0    0    0    0 +0.0000000000e+00 +0.0000000000e+00 +4.5593999997e+01 4.5594000000e+01 5.1100000000e-04 0.0000e+00 1.0000e+00
       11 -1    0    0    0    0 -0.0000000000e+00 -0.0000000000e+00 -4.5593999997e+01 4.5594000000e+01 5.1100000000e-04 0.0000e+00 -1.0000e+00
       23  2    1    2    0    0 +3.5527136788e-15 +8.8817841970e-16 +0.0000000000e+00 9.1188000000e+01 9.1188000000e+01 8.5976e-14 0.0000e+00
 -9990012  2    3    3    0    0 -2.3497254121e+01 +2.2567388808e+00 -2.1436114680e+01 5.9301939814e+01 4.9999992315e+01 1.4242e-04 0.0000e+00
      -11  1    4    4    0    0 -1.6032270993e+01 -1.3667474620e+01 -2.4507532846e+01 3.2317994092e+01 5.1100000000e-04 0.0000e+00 1.0000e+00
       11  1    4    4    0    0 +1.0269072432e+00 -1.9551079071e+00 -5.1095846219e+00 5.5664028496e+00 5.1100000000e-04 0.0000e+00 -1.0000e+00
      -12  1    4    4    0    0 -8.4918903711e+00 +1.7879321407e+01 +8.1810027881e+00 2.1417542872e+01 0.0000000000e+00 0.0000e+00 1.0000e+00
       12  1    3    3    0    0 +2.3497254121e+01 -2.2567388808e+00 +2.1436114680e+01 3.1886060186e+01 0.0000000000e+00 0.0000e+00 -1.0000e+00
</event>
<event>
 8      3 +2.2883893e-04 9.11880000e+01 7.81616400e-03 1.18400000e-01
      -11 -1    0    0    0    0 +0.0000000000e+00 +0.0000000000e+00 +4.5593999997e+01 4.5594000000e+01 5.1100000000e-04 0.0000e+00 -1.0000e+00
       11 -1    0    0    0    0 -0.0000000000e+00 -0.0000000000e+00 -4.5593999997e+01 4.5594000000e+01 5.1100000000e-04 0.0000e+00 1.0000e+00
       23  2    1    2    0    0 +0.0000000000e+00 -1.7763568394e-15 +0.0000000000e+00 9.1188000000e+01 9.1188000000e+01 1.4480e-15 0.0000e+00
  9990012  2    3    3    0    0 +2.1409211685e+01 -1.5718879203e+01 +1.7643205830e+01 5.9301949440e+01 5.0000009870e+01 4.9920e-04 0.0000e+00
      -11  1    4    4    0    0 +2.0474056271e+01 -2.6327919072e+01 +4.6131513433e+00 3.3669384735e+01 5.1100000000e-04 0.0000e+00 -1.0000e+00
       11  1    4    4    0    0 -7.0499804531e+00 +5.6703006216e+00 -6.1622540469e-01 9.0683111735e+00 5.1100000000e-04 0.0000e+00 1.0000e+00
       12  1    4    4    0    0 +7.9851358673e+00 +4.9387392474e+00 +1.3646279892e+01 1.6564253531e+01 0.0000000000e+00 0.0000e+00 -1.0000e+00
      -12  1    3    3    0    0 -2.1409211685e+01 +1.5718879203e+01 -1.7643205830e+01 3.1886050560e+01 0.0000000000e+00 0.0000e+00 1.0000e+00
</event>
<event>
 8      4 +2.2883893e-04 9.11880000e+01 7.81616400e-03 1.18400000e-01
      -11 -1    0    0    0    0 +0.0000000000e+00 +0.0000000000e+00 +4.5593999997e+01 4.5594000000e+01 5.1100000000e-04 0.0000e+00 1.0000e+00
       11 -1    0    0    0    0 -0.0000000000e+00 -0.0000000000e+00 -4.5593999997e+01 4.5594000000e+01 5.1100000000e-04 0.0000e+00 -1.0000e+00
       23  2    1    2    0    0 -3.5527136788e-15 +3.5527136788e-15 -4.4408920985e-16 9.1188000000e+01 9.1188000000e+01 1.9594e-14 0.0000e+00
 -9990012  2    3    3    0    0 -2.5003253211e+01 +1.9454756439e+01 +3.6152589600e+00 5.9301947930e+01 5.0000007117e+01 7.6718e-04 0.0000e+00
      -11  1    4    4    0    0 -2.4316298044e+01 +1.1350908149e+01 -1.0559444931e+00 2.6855920863e+01 5.1100000000e-04 0.0000e+00 1.0000e+00
       11  1    4    4    0    0 -8.7236470344e+00 -8.2889297633e+00 +7.1873287843e+00 1.4016635456e+01 5.1100000000e-04 0.0000e+00 -1.0000e+00
      -12  1    4    4    0    0 +8.0366918665e+00 +1.6392778054e+01 -2.5161253312e+00 1.8429391611e+01 0.0000000000e+00 0.0000e+00 1.0000e+00
       12  1    3    3    0    0 +2.5003253211e+01 -1.9454756439e+01 -3.6152589600e+00 3.1886052070e+01 0.0000000000e+00 0.0000e+00 -1.0000e+00
</event>
<event>
 8      4 +2.2883893e-04 9.11880000e+01 7.81616400e-03 1.18400000e-01
      -11 -1    0    0    0    0 +0.0000000000e+00 +0.0000000000e+00 +4.5593999997e+01 4.5594000000e+01 5.1100000000e-04 0.0000e+00 1.0000e+00
       11 -1    0    0    0    0 -0.0000000000e+00 -0.0000000000e+00 -4.5593999997e+01 4.5594000000e+01 5.1100000000e-04 0.0000e+00 -1.0000e+00
       23  2    1    2    0    0 +3.5527136788e-15 +0.0000000000e+00 +8.8817841970e-16 9.1188000000e+01 9.1188000000e+01 3.5141e-13 0.0000e+00
 -9990012  2    3    3    0    0 +2.5970214644e+00 -3.1688295096e+01 +2.4128484203e+00 5.9302040644e+01 5.0000176204e+01 3.6659e-03 0.0000e+00
      -11  1    4    4    0    0 -1.5673346539e+01 -3.2538528010e+01 +9.9444311530e+00 3.7460663476e+01 5.1100000000e-04 0.0000e+00 1.0000e+00
       11  1    4    4    0    0 +2.7234022697e+00 -3.3754034599e+00 -2.2551943828e+00 4.8883709357e+00 5.1100000000e-04 0.0000e+00 -1.0000e+00
      -12  1    4    4    0    0 +1.5546965734e+01 +4.2256363744e+00 -5.2763883498e+00 1.6953006232e+01 0.0000000000e+00 0.0000e+00 1.0000e+00
       12  1    3    3    0    0 -2.5970214644e+00 +3.1688295096e+01 -2.4128484203e+00 3.1885959356e+01 0.0000000000e+00 0.0000e+00 -1.0000e+00
</event>
<event>
 8      4 +2.2883893e-04 9.11880000e+01 7.81616400e-03 1.18400000e-01
      -11 -1    0    0    0    0 +0.0000000000e+00 +0.0000000000e+00 +4.5593999997e+01 4.5594000000e+01 5.1100000000e-04 0.0000e+00 1.0000e+00
       11 -1    0    0    0    0 -0.0000000000e+00 -0.0000000000e+00 -4.5593999997e+01 4.5594000000e+01 5.1100000000e-04 0.0000e+00 -1.0000e+00
       23  2    1    2    0    0 +0.0000000000e+00 +0.0000000000e+00 +0.0000000000e+00 9.1188000000e+01 9.1188000000e+01 7.3039e-15 0.0000e+00
 -9990012  2    3    3    0    0 +2.9256478406e+01 +1.0854652397e+01 -6.5538844445e+00 5.9301977848e+01 5.0000061680e+01 5.3753e-04 0.0000e+00
      -11  1    4    4    0    0 -1.3238375560e+00 +6.6288742801e+00 -3.1655691912e+00 7.4642714756e+00 5.1100000000e-04 0.0000e+00 1.0000e+00
       11  1    4    4    0    0 +2.0810663816e+01 -1.3516431941e+01 -1.4494951572e+01 2.8738150292e+01 5.1100000000e-04 0.0000e+00 -1.0000e+00
      -12  1    4    4    0    0 +9.7696521461e+00 +1.7742210058e+01 +1.1106636319e+01 2.3099556080e+01 0.0000000000e+00 0.0000e+00 1.0000e+00
       12  1    3    3    0    0 -2.9256478406e+01 -1.0854652397e+01 +6.5538844445e+00 3.1886022152e+01 0.0000000000e+00 0.0000e+00 -1.0000e+00
</event>
<event>
 8      3 +2.2883893e-04 9.11880000e+01 7.81616400e-03 1.18400000e-01
      -11 -1    0    0    0    0 +0.0000000000e+00 +0.0000000000e+00 +4.5593999997e+01 4.5594000000e+01 5.1100000000e-04 0.0000e+00 1.0000e+00
       11 -1    0    0    0    0 -0.0000000000e+00 -0.0000000000e+00 -4.5593999997e+01 4.5594000000e+01 5.1100000000e-04 0.0000e+00 -1.0000e+00
       23  2    1    2    0    0 +0.0000000000e+00 +0.0000000000e+00 +0.0000000000e+00 9.1188000000e+01 9.1188000000e+01 2.1057e-13 0.0000e+00
  9990012  2    3    3    0    0 -1.8298798806e+01 +3.7573194282e+00 -2.5840972340e+01 5.9301963267e+01 5.0000035088e+01 1.2718e-03 0.0000e+00
      -11  1    4    4    0    0 -2.2772335907e+01 -9.7254366245e+00 -6.4953046715e+00 2.5599851235e+01 5.1100000000e-04 0.0000e+00 1.0000e+00
       11  1    4    4    0    0 +8.4426201026e-01 +1.6973805698e+01 -2.2165295483e+01 2.7930685318e+01 5.1100000000e-04 0.0000e+00 -1.0000e+00
       12  1    4    4    0    0 +3.6292750911e+00 -3.4910496453e+00 +2.8196278140e+00 5.7714267147e+00 0.0000000000e+00 0.0000e+00 -1.0000e+00
      -12  1    3    3    0    0 +1.8298798806e+01 -3.7573194282e+00 +2.5840972340e+01 3.1886036733e+01 0.0000000000e+00 0.0000e+00 1.0000e+00
</event>
<event>
 8      4 +2.2883893e-04 9.11880000e+01 7.81616400e-03 1.18400000e-01
      -11 -1    0    0    0    0 +0.0000000000e+00 +0.0000000000e+00 +4.5593999997e+01 4.5594000000e+01 5.1100000000e-04 0.0000e+00 1.0000e+00
       11 -1    0    0    0    0 -0.0000000000e+00 -0.0000000000e+00 -4.5593999997e+01 4.5594000000e+01 5.1100000000e-04 0.0000e+00 -1.0000e+00
       23  2    1    2    0    0 +1.7763568394e-15 +0.0000000000e+00 +1.7763568394e-15 9.1188000000e+01 9.1188000000e+01 8.8341e-14 0.0000e+00
 -9990012  2    3    3    0    0 +1.2329093517e+01 +2.8251081640e+01 +8.1602915550e+00 5.9301944756e+01 5.0000001328e+01 3.7454e-03 0.0000e+00
      -11  1    4    4    0    0 +2.3074601575e+01 +3.2451468728e+00 -1.0778645751e+01 2.5673866490e+01 5.1100000000e-04 0.0000e+00 1.0000e+00
       11  1    4    4    0    0 -7.8879984736e+00 +2.2582131204e+01 +1.5237639102e+01 2.8361220271e+01 5.1100000000e-04 0.0000e+00 -1.0000e+00
      -12  1    4    4    0    0 -2.8575095843e+00 +2.4238035630e+00 +3.7012982046e+00 5.2668579946e+00 0.0000000000e+00 0.0000e+00 1.0000e+00
       12  1    3    3    0    0 -1.2329093517e+01 -2.8251081640e+01 -8.1602915550e+00 3.1886055244e+01 0.0000000000e+00 0.0000e+00 -1.0000e+00
</event>
<event>
 8      4 +2.2883893e-04 9.11880000e+01 7.81616400e-03 1.18400000e-01
      -11 -1    0    0    0    0 +0.0000000000e+00 +0.0000000000e+00 +4.5593999997e+01 4.5594000000e+01 5.1100000000e-04 0.0000e+00 1.0000e+00
       11 -1    0    0    0    0 -0.0000000000e+00 -0.0000000000e+00 -4.5593999997e+01 4.5594000000e+01 5.1100000000e-04 0.0000e+00 -1.0000e+00
       23  2    1    2    0    0 -1.7763568394e-15 +8.8817841970e-16 +0.0000000000e+00 9.1188000000e+01 9.1188000000e+01 3.2315e-15 0.0000e+00
 -9990012  2    3    3    0    0 +1.3600347356e+01 +5.0649655839e+00 +2.8391860285e+01 5.9301936352e+01 4.9999986001e+01 7.6774e-04 0.0000e+00
      -11  1    4    4    0    0 +5.6727883145e+00 +9.4230734318e+00 -2.9445184619e+00 1.1386177119e+01 5.1100000000e-04 0.0000e+00 1.0000e+00
       11  1    4    4    0    0 +1.7271697822e+01 -5.4399135781e+00 +3.3820872714e+00 1.8421257285e+01 5.1100000000e-04 0.0000e+00 -1.0000e+00
      -12  1    4    4    0    0 -9.3441387813e+00 +1.0818057302e+00 +2.7954291475e+01 2.9494501947e+01 0.0000000000e+00 0.0000e+00 1.0000e+00
       12  1    3    3    0    0 -1.3600347356e+01 -5.0649655839e+00 -2.8391860285e+01 3.1886063648e+01 0.0000000000e+00 0.0000e+00 -1.0000e+00
</event>
<event>
 8      4 +2.2883893e-04 9.11880000e+01 7.81616400e-03 1.18400000e-01
      -11 -1    0    0    0    0 +0.0000000000e+00 +0.0000000000e+00 +4.5593999997e+01 4.5594000000e+01 5.1100000000e-04 0.0000e+00 1.0000e+00
       11 -1    0    0    0    0 -0.0000000000e+00 -0.0000000000e+00 -4.5593999997e+01 4.5594000000e+01 5.1100000000e-04 0.0000e+00 -1.0000e+00
       23  2    1    2    0    0 +0.0000000000e+00 +1.7763568394e-15 +3.5527136788e-15 9.1188000000e+01 9.1188000000e+01 2.8612e-14 0.0000e+00
 -9990012  2    3    3    0    0 +9.4769496730e+00 -9.4260636049e+00 +2.8949225596e+01 5.9301938581e+01 4.9999990067e+01 1.2403e-03 0.0000e+00
      -11  1    4    4    0    0 +1.8815316198e+01 -2.1228287470e+01 +2.9311035494e+01 4.0789620181e+01 5.1100000000e-04 0.0000e+00 1.0000e+00
       11  1    4    4    0    0 -7.9098666629e+00 +7.8028269226e+00 -5.0343738807e+00 1.2198156387e+01 5.1100000000e-04 0.0000e+00 -1.0000e+00
      -12  1    4    4    0    0 -1.4284998616e+00 +3.9993969421e+00 +4.6725639825e+00 6.3141620129e+00 0.0000000000e+00 0.0000e+00 1.0000e+00
       12  1    3    3    0    0 -9.4769496730e+00 +9.4260636049e+00 -2.8949225596e+01 3.1886061419e+01 0.0000000000e+00 0.0000e+00 -1.0000e+00
</event>
<event>
 8      3 +2.2883893e-04 9.11880000e+01 7.81616400e-03 1.18400000e-01
      -11 -1    0    0    0    0 +0.0000000000e+00 +0.0000000000e+00 +4.5593999997e+01 4.5594000000e+01 5.1100000000e-04 0.0000e+00 1.0000e+00
       11 -1    0    0    0    0 -0.0000000000e+00 -0.0000000000e+00 -4.5593999997e+01 4.5594000000e+01 5.1100000000e-04 0.0000e+00 -1.0000e+00
       23  2    1    2    0    0 +0.0000000000e+00 +0.0000000000e+00 -1.7763568394e-15 9.1188000000e+01 9.1188000000e+01 3.5804e-14 0.0000e+00
  9990012  2    3    3    0    0 +1.2317261633e+01 -2.6587553806e+01 -1.2574343495e+01 5.9301842096e+01 4.9999814101e+01 1.3296e-03 0.0000e+00
      -11  1    4    4    0    0 +1.2272145266e+01 -3.4402561128e+01 -1.0227856694e+01 3.7930868886e+01 5.1100000000e-04 0.0000e+00 1.0000e+00
       11  1    4    4    0    0 -7.9483497500e+00 +3.5067037726e+00 -7.0098501345e+00 1.1162940216e+01 5.1100000000e-04 0.0000e+00 -1.0000e+00
       12  1    4    4    0    0 +7.9934661169e+00 +4.3083035493e+00 +4.6633633337e+00 1.0208032995e+01 0.0000000000e+00 0.0000e+00 -1.0000e+00
      -12  1    3    3    0    0 -1.2317261633e+01 +2.6587553806e+01 +1.2574343495e+01 3.1886157904e+01 0.0000000000e+00 0.0000e+00 1.0000e+00
</event>
<event>
 8      4 +2.2883893e-04 9.11880000e+01 7.81616400e-03 1.18400000e-01
      -11 -1    0    0    0    0 +0.0000000000e+00 +0.0000000000e+00 +4.5593999997e+01 4.5594000000e+01 5.1100000000e-04 0.0000e+00 1.0000e+00
       11 -1    0    0    0    0 -0.0000000000e+00 -0.0000000000e+00 -4.5593999997e+01 4.5594000000e+01 5.1100000000e-04 0.0000e+00 -1.0000e+00
       23  2    1    2    0    0 +0.0000000000e+00 +0.0000000000e+00 -1.7763568394e-15 9.1188000000e+01 9.1188000000e+01 3.9908e-14 0.0000e+00
 -9990012  2    3    3    0    0 -1.2091817809e+01 -2.6997327890e+01 -1.1901790947e+01 5.9301946640e+01 5.0000004765e+01 1.8947e-04 0.0000e+00
      -11  1    4    4    0    0 -7.6131810072e+00 -7.3230862326e+00 -1.8059568254e+01 2.0922144317e+01 5.1100000000e-04 0.0000e+00 1.0000e+00
       11  1    4    4    0    0 +2.1659844714e+00 -2.6823638917e+01 +8.7204534146e+00 2.8288609041e+01 5.1100000000e-04 0.0000e+00 -1.0000e+00
      -12  1    4    4    0    0 -6.6446212729e+00 +7.1493972596e+00 -2.5626761080e+00 1.0091193283e+01 0.0000000000e+00 0.0000e+00 1.0000e+00
       12  1    3    3    0    0 +1.2091817809e+01 +2.6997327890e+01 +1.1901790947e+01 3.1886053360e+01 0.0000000000e+00 0.0000e+00 -1.0000e+00
</event>
<event>
 8      3 +2.2883893e-04 9.11880000e+01 7.81616400e-03 1.18400000e-01
      -11 -1    0    0    0    0 +0.0000000000e+00 +0.0000000000e+00 +4.5593999997e+01 4.5594000000e+01 5.1100000000e-04 0.0000e+00 1.0000e+00
       11 -1    0    0    0    0 -0.0000000000e+00 -0.0000000000e+00 -4.5593999997e+01 4.5594000000e+01 5.1100000000e-04 0.0000e+00 -1.0000e+00
       23  2    1    2    0    0 +0.0000000000e+00 +0.0000000000e+00 +0.0000000000e+00 9.1188000000e+01 9.1188000000e+01 1.9804e-14 0.0000e+00
  9990012  2    3    3    0    0 +8.7246630785e+00 +2.4888544442e+01 -1.7921020276e+01 5.9301915919e+01 4.9999948737e+01 1.7466e-03 0.0000e+00
      -11  1    4    4    0    0 -2.1064120483e+00 -7.6446321191e+00 +4.9895163337e+00 9.3687056448e+00 5.1100000000e-04 0.0000e+00 1.0000e+00
       11  1    4    4    0    0 +7.7901216378e+00 -2.3807782805e+00 -1.5458754493e-01 8.1472693538e+00 5.1100000000e-04 0.0000e+00 -1.0000e+00
       12  1    4    4    0    0 +3.0409534890e+00 +3.4913954841e+01 -2.2755949065e+01 4.1785940921e+01 0.0000000000e+00 0.0000e+00 -1.0000e+00
      -12  1    3    3    0    0 -8.7246630785e+00 -2.4888544442e+01 +1.7921020276e+01 3.1886084081e+01 0.0000000000e+00 0.0000e+00 1.0000e+00
</event>
<event>
 8      4 +2.2883893e-04 9.11880000e+01 7.81616400e-03 1.18400000e-01
      -11 -1    0    0    0    0 +0.0000000000e+00 +0.0000000000e+00 +4.5593999997e+01 4.5594000000e+01 5.1100000000e-04 0.0000e+00 -1.0000e+00
       11 -1    0    0    0    0 -0.0000000000e+00 -0.0000000000e+00 -4.5593999997e+01 4.5594000000e+01 5.1100000000e-04 0.0000e+00 1.0000e+00
       23  2    1    2    0    0 +0.0000000000e+00 +1.7763568394e-15 +0.0000000000e+00 9.1188000000e+01 9.1188000000e+01 1.2065e-13 0.0000e+00
 -9990012  2    3    3    0    0 +1.3861012494e+01 -1.3044832599e+01 -2.5581754459e+01 5.9301929592e+01 4.9999973672e+01 1.6625e-03 0.0000e+00
      -11  1    4    4    0    0 +9.0639847331e+00 -6.1053651784e-01 -6.8165125244e+00 1.1357526902e+01 5.1100000000e-04 0.0000e+00 1.0000e+00
       11  1    4    4    0    0 +3.3349607503e+00 -6.0504107397e+00 +1.3423046413e+01 1.5096609175e+01 5.1100000000e-04 0.0000e+00 -1.0000e+00
      -12  1    4    4    0    0 +1.4620670102e+00 -6.3838853416e+00 -3.2188288348e+01 3.2847793514e+01 0.0000000000e+00 0.0000e+00 1.0000e+00
       12  1    3    3    0    0 -1.3861012494e+01 +1.3044832599e+01 +2.5581754459e+01 3.1886070408e+01 0.0000000000e+00 0.0000e+00 -1.0000e+00
</event>
<event>
 8      3 +2.2883893e-04 9.11880000e+01 7.81616400e-03 1.18400000e-01
      -11 -1    0    0    0    0 +0.0000000000e+00 +0.0000000000e+00 +4.5593999997e+01 4.5594000000e+01 5.1100000000e-04 0.0000e+00 1.0000e+00
       11 -1    0    0    0    0 -0.0000000000e+00 -0.0000000000e+00 -4.5593999997e+01 4.5594000000e+01 5.1100000000e-04 0.0000e+00 -1.0000e+00
       23  2    1    2    0    0 -1.0658141036e-14 +0.0000000000e+00 +0.0000000000e+00 9.1188000000e+01 9.1188000000e+01 3.0590e-14 0.0000e+00
  9990012  2    3    3    0    0 -1.7130922334e+01 -2.0083566013e+01 -1.7885818233e+01 5.9301943209e+01 4.9999998507e+01 1.9411e-04 0.0000e+00
      -11  1    4    4    0    0 -2.8466906685e+01 -1.1394761029e+01 -9.0372105051e+00 3.1966803548e+01 5.1100000000e-04 0.0000e+00 1.0000e+00
       11  1    4    4    0    0 -3.5415051539e+00 -9.6422638670e+00 -5.8195341524e-01 1.0288546121e+01 5.1100000000e-04 0.0000e+00 -1.0000e+00
       12  1    4    4    0    0 +1.4877489505e+01 +9.5345888298e-01 -8.2666543130e+00 1.7046593540e+01 0.0000000000e+00 0.0000e+00 -1.0000e+00
      -12  1    3    3    0    0 +1.7130922334e+01 +2.0083566013e+01 +1.7885818233e+01 3.1886056791e+01 0.0000000000e+00 0.0000e+00 1.0000e+00
</event>
<event>
 8      3 +2.2883893e-04 9.11880000e+01 7.81616400e-03 1.18400000e-01
      -11 -1    0    0    0    0 +0.0000000000e+00 +0.0000000000e+00 +4.5593999997e+01 4.5594000000e+01 5.1100000000e-04 0.0000e+00 -1.0000e+00
       11 -1    0    0    0    0 -0.0000000000e+00 -0.0000000000e+00 -4.5593999997e+01 4.5594000000e+01 5.1100000000e-04 0.0000e+00 1.0000e+00
       23  2    1    2    0    0 +0.0000000000e+00 +4.4408920985e-16 +3.5527136788e-15 9.1188000000e+01 9.1188000000e+01 7.2631e-14 0.0000e+00
  9990012  2    3    3    0    0 +1.8344442749e+01 +1.5951831907e+00 +2.6031850542e+01 5.9301946123e+01 5.0000003821e+01 2.9790e-03 0.0000e+00
      -11  1    4    4    0    0 -4.8575892251e-01 -1.2176553890e+01 +1.9254312106e+00 1.2337411072e+01 5.1100000000e-04 0.0000e+00 1.0000e+00
       11  1    4    4    0    0 +1.1830245476e+01 +1.0481456537e+01 -5.2122137747e+00 1.6642800601e+01 5.1100000000e-04 0.0000e+00 -1.0000e+00
       12  1    4    4    0    0 +6.9999561961e+00 +3.2902805438e+00 +2.9318633106e+01 3.0321734450e+01 0.0000000000e+00 0.0000e+00 -1.0000e+00
      -12  1    3    3    0    0 -1.8344442749e+01 -1.5951831907e+00 -2.6031850542e+01 3.1886053877e+01 0.0000000000e+00 0.0000e+00 1.0000e+00
</event>
<event>
 8      3 +2.2883893e-04 9.11880000e+01 7.81616400e-03 1.18400000e-01
      -11 -1    0    0    0    0 +0.0000000000e+00 +0.0000000000e+00 +4.5593999997e+01 4.5594000000e+01 5.1100000000e-04 0.0000e+00 -1.0000e+00
       11 -1    0    0    0    0 -0.0000000000e+00 -0.0000000000e+00 -4.5593999997e+01 4.5594000000e+01 5.1100000000e-04 0.0000e+00 1.0000e+00
       23  2    1    2    0    0 -1.3322676296e-15 -1.7763568394e-15 +0.0000000000e+00 9.1188000000e+01 9.1188000000e+01 1.9422e-16 0.0000e+00
  9990012  2    3    3    0    0 -3.5369706973e+00 -9.5650410233e+00 +3.0211242803e+01 5.9301962881e+01 5.0000034383e+01 4.8034e-04 0.0000e+00
      -11  1    4    4    0    0 +1.9000768965e+01 -2.1502689326e+00 +4.8317908428e+00 1.9723059619e+01 5.1100000000e-04 0.0000e+00 -1.0000e+00
       11  1    4    4    0    0 -2.1763549990e+01 -1.2465286232e+01 +2.2607714625e+01 3.3766021825e+01 5.1100000000e-04 0.0000e+00 1.0000e+00
       12  1    4    4    0    0 -7.7418967145e-01 +5.0505141418e+00 +2.7717373348e+00 5.8128814367e+00 0.0000000000e+00 0.0000e+00 -1.0000e+00
      -12  1    3    3    0    0 +3.5369706973e+00 +9.5650410233e+00 -3.0211242803e+01 3.1886037119e+01 0.0000000000e+00 0.0000e+00 1.0000e+00
</event>
<event>
 8      3 +2.2883893e-04 9.11880000e+01 7.81616400e-03 1.18400000e-01
      -11 -1    0    0    0    0 +0.0000000000e+00 +0.0000000000e+00 +4.5593999997e+01 4.5594000000e+01 5.1100000000e-04 0.0000e+00 -1.0000e+00
       11 -1    0    0    0    0 -0.0000000000e+00 -0.0000000000e+00 -4.5593999997e+01 4.5594000000e+01 5.1100000000e-04 0.0000e+00 1.0000e+00
       23  2    1    2    0    0 -1.7763568394e-15 +3.5527136788e-15 +0.0000000000e+00 9.1188000000e+01 9.1188000000e+01 3.1914e-14 0.0000e+00
  9990012  2    3    3    0    0 +8.9548457606e+00 -2.8944553849e+01 +9.9369879040e+00 5.9301949936e+01 5.0000010774e+01 9.4487e-04 0.0000e+00
      -11  1    4    4    0    0 -1.3424348658e+00 +2.9779234199e+00 +7.3409992936e+00 8.0349505383e+00 5.1100000000e-04 0.0000e+00 1.0000e+00
       11  1    4    4    0    0 -4.0174286164e+00 +6.7565782658e+00 +5.9925692387e+00 9.8844306306e+00 5.1100000000e-04 0.0000e+00 -1.0000e+00
       12  1    4    4    0    0 +1.4314709243e+01 -3.8679055535e+01 -3.3965806283e+00 4.1382568767e+01 0.0000000000e+00 0.0000e+00 -1.0000e+00
      -12  1    3    3    0    0 -8.9548457606e+00 +2.8944553849e+01 -9.9369879040e+00 3.1886050064e+01 0.0000000000e+00 0.0000e+00 1.0000e+00
</event>
<event>
 8      4 +2.2883893e-04 9.11880000e+01 7.81616400e-03 1.18400000e-01
      -11 -1    0    0    0    0 +0.0000000000e+00 +0.0000000000e+00 +4.5593999997e+01 4.5594000000e+01 5.1100000000e-04 0.0000e+00 -1.0000e+00
       11 -1    0    0    0    0 -0.0000000000e+00 -0.0000000000e+00 -4.5593999997e+01 4.5594000000e+01 5.1100000000e-04 0.0000e+00 1.0000e+00
       23  2    1    2    0    0 +1.7763568394e-15 +1.7763568394e-15 -3.5527136788e-15 9.1188000000e+01 9.1188000000e+01 3.8134e-14 0.0000e+00
 -9990012  2    3    3    0    0 +1.9732069587e+00 +1.0214171842e+01 -3.0141318613e+01 5.9301922476e+01 4.9999960695e+01 2.0317e-04 0.0000e+00
      -11  1    4    4    0    0 +4.2040820854e+00 +1.4818018569e+01 -5.9990659173e+00 1.6529875155e+01 5.1100000000e-04 0.0000e+00 -1.0000e+00
       11  1    4    4    0    0 +8.8863295825e+00 -2.5311316888e+00 +5.7016528812e+00 1.0857362797e+01 5.1100000000e-04 0.0000e+00 1.0000e+00
      -12  1    4    4    0    0 -1.1117204709e+01 -2.0727150377e+00 -2.9843905577e+01 3.1914684524e+01 0.0000000000e+00 0.0000e+00 1.0000e+00
       12  1    3    3    0    0 -1.9732069587e+00 -1.0214171842e+01 +3.0141318613e+01 3.1886077524e+01 0.0000000000e+00 0.0000e+00 -1.0000e+00
</event>
<event>
 8      4 +2.2883893e-04 9.11880000e+01 7.81616400e-03 1.18400000e-01
      -11 -1    0    0    0    0 +0.0000000000e+00 +0.0000000000e+00 +4.5593999997e+01 4.5594000000e+01 5.1100000000e-04 0.0000e+00 -1.0000e+00
       11 -1    0    0    0    0 -0.0000000000e+00 -0.0000000000e+00 -4.5593999997e+01 4.5594000000e+01 5.1100000000e-04 0.0000e+00 1.0000e+00
       23  2    1    2    0    0 +5.5511151231e-16 -3.5527136788e-15 +7.1054273576e-15 9.1188000000e+01 9.1188000000e+01 4.5470e-14 0.0000e+00
 -9990012  2    3    3    0    0 +4.2824994119e-01 +2.6687056255e+01 -1.7445294689e+01 5.9301942289e+01 4.9999996828e+01 3.3790e-04 0.0000e+00
      -11  1    4    4    0    0 +1.7239198664e+00 +2.0511115152e+00 +8.4698124510e-01 2.8100419293e+00 5.1100000000e-04 0.0000e+00 1.0000e+00
       11  1    4    4    0    0 +8.1103454154e+00 -1.1701696841e+01 +1.0309082658e+00 1.4274809414e+01 5.1100000000e-04 0.0000e+00 -1.0000e+00
      -12  1    4    4    0    0 -9.4060153406e+00 +3.6337641581e+01 -1.9323184200e+01 4.2217090945e+01 0.0000000000e+00 0.0000e+00 1.0000e+00
       12  1    3    3    0    0 -4.2824994119e-01 -2.6687056255e+01 +1.7445294689e+01 3.1886057711e+01 0.0000000000e+00 0.0000e+00 -1.0000e+00
</event>
<event>
 8      4 +2.2883893e-04 9.11880000e+01 7.81616400e-03 1.18400000e-01
      -11 -1    0    0    0    0 +0.0000000000e+00 +0.0000000000e+00 +4.5593999997e+01 4.5594000000e+01 5.1100000000e-04 0.0000e+00 1.0000e+00
       11 -1    0    0    0    0 -0.0000000000e+00 -0.0000000000e+00 -4.5593999997e+01 4.5594000000e+01 5.1100000000e-04 0.0000e+00 -1.0000e+00
       23  2    1    2    0    0 -8.8817841970e-16 +0.0000000000e+00 +0.0000000000e+00 9.1188000000e+01 9.1188000000e+01 8.8493e-14 0.0000e+00
 -9990012  2    3    3    0    0 +5.0708129557e+00 +2.1410949905e+01 +2.3077678258e+01 5.9301934805e+01 4.9999983179e+01 1.3708e-04 0.0000e+00
      -11  1    4    4    0    0 +7.3475520372e+00 +2.5603359141e+01 +2.8132431039e+01 3.8742124318e+01 5.1100000000e-04 0.0000e+00 1.0000e+00
       11  1    4    4    0    0 -3.3627569172e+00 -5.2262329188e+00 +6.4505651086e+00 8.9572001812e+00 5.1100000000e-04 0.0000e+00 -1.0000e+00
      -12  1    4    4    0    0 +1.0860178357e+00 +1.0338236831e+00 -1.1505317890e+01 1.1602610305e+01 0.0000000000e+00 0.0000e+00 1.0000e+00
       12  1    3    3    0    0 -5.0708129557e+00 -2.1410949905e+01 -2.3077678258e+01 3.1886065195e+01 0.0000000000e+00 0.0000e+00 -1.0000e+00
</event>
<event>
 8      3 +2.2883893e-04 9.11880000e+01 7.81616400e-03 1.18400000e-01
      -11 -1    0    0    0    0 +0.0000000000e+00 +0.0000000000e+00 +4.5593999997e+01 4.5594000000e+01 5.1100000000e-04 0.0000e+00 1.0000e+00
       11 -1    0    0    0    0 -0.0000000000e+00 -0.0000000000e+00 -4.5593999997e+01 4.5594000000e+01 5.1100000000e-04 0.0000e+00 -1.0000e+00
       23  2    1    2    0    0 -3.5527136788e-15 +0.0000000000e+00 +0.0000000000e+00 9.1188000000e+01 9.1188000000e+01 6.7246e-14 0.0000e+00
  9990012  2    3    3    0    0 -2.3583386406e+01 -1.7106037885e+01 -1.2958643208e+01 5.9301967316e+01 5.0000042473e+01 2.8992e-03 0.0000e+00
      -11  1    4    4    0    0 +2.2480241656e+00 +1.0150103625e+01 +1.1827552964e+00 1.0463131778e+01 5.1100000000e-04 0.0000e+00 1.0000e+00
       11  1    4    4    0    0 -1.3346158016e+01 -1.6393016242e+00 +5.1791239341e+00 1.4409391680e+01 5.1100000000e-04 0.0000e+00 -1.0000e+00
       12  1    4    4    0    0 -1.2485252555e+01 -2.5616839886e+01 -1.9320522438e+01 3.4429443858e+01 0.0000000000e+00 0.0000e+00 -1.0000e+00
      -12  1    3    3    0    0 +2.3583386406e+01 +1.7106037885e+01 +1.2958643208e+01 3.1886032684e+01 0.0000000000e+00 0.0000e+00 1.0000e+00
</event>
<event>
 8      3 +2.2883893e-04 9.11880000e+01 7.81616400e-03 1.18400000e-01
      -11 -1    0    0    0    0 +0.0000000000e+00 +0.0000000000e+00 +4.5593999997e+01 4.5594000000e+01 5.1100000000e-04 0.0000e+00 1.0000e+00
       11 -1    0    0    0    0 -0.0000000000e+00 -0.0000000000e+00 -4.5593999997e+01 4.5594000000e+01 5.1100000000e-04 0.0000e+00 -1.0000e+00
       23  2    1    2    0    0 -8.8817841970e-16 +0.0000000000e+00 +8.8817841970e-16 9.1188000000e+01 9.1188000000e+01 4.5561e-14 0.0000e+00
  9990012  2    3    3    0    0 +1.1854611317e+00 -3.1475541390e+01 -4.9601298012e+00 5.9301985644e+01 5.0000075898e+01 3.5573e-04 0.0000e+00
      -11  1    4    4    0    0 -6.9355546421e+00 +5.0376241778e+00 +7.5191475334e+00 1.1402506542e+01 5.1100000000e-04 0.0000e+00 1.0000e+00
       11  1    4    4    0    0 +1.3018101122e+01 -1.2455797921e+01 -1.4693615393e+01 2.3249090138e+01 5.1100000000e-04 0.0000e+00 -1.0000e+00
       12  1    4    4    0    0 -4.8970853484e+00 -2.4057367647e+01 +2.2143380584e+00 2.4650388964e+01 0.0000000000e+00 0.0000e+00 -1.0000e+00
      -12  1    3    3    0    0 -1.1854611317e+00 +3.1475541390e+01 +4.9601298012e+00 3.1886014356e+01 0.0000000000e+00 0.0000e+00 1.0000e+00
</event>
<event>
 8      3 +2.2883893e-04 9.11880000e+01 7.81616400e-03 1.18400000e-01
      -11 -1    0    0    0    0 +0.0000000000e+00 +0.0000000000e+00 +4.5593999997e+01 4.5594000000e+01 5.1100000000e-04 0.0000e+00 -1.0000e+00
       11 -1    0    0    0    0 -0.0000000000e+00 -0.0000000000e+00 -4.5593999997e+01 4.5594000000e+01 5.1100000000e-04 0.0000e+00 1.0000e+00
       23  2    1    2    0    0 -3.5527136788e-15 +0.0000000000e+00 -1.7763568394e-15 9.1188000000e+01 9.1188000000e+01 1.1568e-13 0.0000e+00
  9990012  2    3    3    0    0 -2.5767452639e+01 +1.2127626116e+01 +1.4342045881e+01 5.9301714378e+01 4.9999581173e+01 1.5263e-04 0.0000e+00
      -11  1    4    4    0    0 -1.2688041160e+01 +1.3553928728e+01 -7.7461871754e+00 2.0117126745e+01 5.1100000000e-04 0.0000e+00 1.0000e+00
       11  1    4    4    0    0 +2.5142923636e+00 -1.0949517872e+01 +1.6714205422e+01 2.0138973928e+01 5.1100000000e-04 0.0000e+00 -1.0000e+00
       12  1    4    4    0    0 -1.5593703842e+01 +9.5232152599e+00 +5.3740276341e+00 1.9045613705e+01 0.0000000000e+00 0.0000e+00 -1.0000e+00
      -12  1    3    3    0    0 +2.5767452639e+01 -1.2127626116e+01 -1.4342045881e+01 3.1886285622e+01 0.0000000000e+00 0.0000e+00 1.0000e+00
</event>
<event>
 8      3 +2.2883893e-04 9.11880000e+01 7.81616400e-03 1.18400000e-01
      -11 -1    0    0    0    0 +0.0000000000e+00 +0.0000000000e+00 +4.5593999997e+01 4.5594000000e+01 5.1100000000e-04 0.0000e+00 -1.0000e+00
       11 -1    0    0    0    0 -0.0000000000e+00 -0.0000000000e+00 -4.5593999997e+01 4.5594000000e+01 5.1100000000e-04 0.0000e+00 1.0000e+00
       23  2    1    2    0    0 +3.5527136788e-15 -1.7763568394e-15 +0.0000000000e+00 9.1188000000e+01 9.1188000000e+01 3.6532e-14 0.0000e+00
  9990012  2    3    3    0    0 -2.3290465247e+01 -7.7478889692e+00 +2.0352966845e+01 5.9301971487e+01 5.0000050080e+01 5.2940e-04 0.0000e+00
      -11  1    4    4    0    0 +1.0040763489e+01 -9.6487412527e+00 +1.7116001405e+01 2.2065190766e+01 5.1100000000e-04 0.0000e+00 1.0000e+00
       11  1    4    4    0    0 -3.1344735356e+01 +1.6721289617e+00 +7.7228610127e+00 3.2325392995e+01 5.1100000000e-04 0.0000e+00 -1.0000e+00
       12  1    4    4    0    0 -1.9864933800e+00 +2.2872332175e-01 -4.4858955724e+00 4.9113877258e+00 0.0000000000e+00 0.0000e+00 -1.0000e+00
      -12  1    3    3    0    0 +2.3290465247e+01 +7.7478889692e+00 -2.0352966845e+01 3.1886028513e+01 0.0000000000e+00 0.0000e+00 1.0000e+00
</event>
<event>
 8      3 +2.2883893e-04 9.11880000e+01 7.81616400e-03 1.18400000e-01
      -11 -1    0    0    0    0 +0.0000000000e+00 +0.0000000000e+00 +4.5593999997e+01 4.5594000000e+01 5.1100000000e-04 0.0000e+00 -1.0000e+00
       11 -1    0    0    0    0 -0.0000000000e+00 -0.0000000000e+00 -4.5593999997e+01 4.5594000000e+01 5.1100000000e-04 0.0000e+00 1.0000e+00
       23  2    1    2    0    0 +0.0000000000e+00 -3.5527136788e-15 -1.7763568394e-15 9.1188000000e+01 9.1188000000e+01 1.6465e-13 0.0000e+00
  9990012  2    3    3    0    0 -1.2291320584e+01 +2.8247177068e+01 -8.2305018322e+00 5.9301941378e+01 4.9999995168e+01 6.4307e-04 0.0000e+00
      -11  1    4    4    0    0 -1.7180094803e+00 +1.1564217944e+00 -4.5137881663e+00 4.9662009436e+00 5.1100000000e-04 0.0000e+00 1.0000e+00
       11  1    4    4    0    0 -1.7973267867e+01 +3.4083101307e+01 +7.4275862863e+00 3.9241116075e+01 5.1100000000e-04 0.0000e+00 -1.0000e+00
       12  1    4    4    0    0 +7.3999567633e+00 -6.9923460326e+00 -1.1144299952e+01 1.5094624360e+01 0.0000000000e+00 0.0000e+00 -1.0000e+00
      -12  1    3    3    0    0 +1.2291320584e+01 -2.8247177068e+01 +8.2305018322e+00 3.1886058622e+01 0.0000000000e+00 0.0000e+00 1.0000e+00
</event>
<event>
 8      3 +2.2883893e-04 9.11880000e+01 7.81616400e-03 1.18400000e-01
      -11 -1    0    0    0    0 +0.0000000000e+00 +0.0000000000e+00 +4.5593999997e+01 4.5594000000e+01 5.1100000000e-04 0.0000e+00 -1.0000e+00
       11 -1    0    0    0    0 -0.0000000000e+00 -0.0000000000e+00 -4.5593999997e+01 4.5594000000e+01 5.1100000000e-04 0.0000e+00 1.0000e+00
       23  2    1    2    0    0 +0.0000000000e+00 +0.0000000000e+00 +3.3306690739e-16 9.1188000000e+01 9.1188000000e+01 4.7546e-14 0.0000e+00
  9990012  2    3    3    0    0 -2.0643289391e+01 +2.4297845486e+01 +4.3430080228e-01 5.9301963725e+01 5.0000035924e+01 2.6071e-04 0.0000e+00
      -11  1    4    4    0    0 -2.6003472002e+01 -8.2209655342e-01 -6.5606169178e-01 2.6024734698e+01 5.1100000000e-04 0.0000e+00 1.0000e+00
       11  1    4    4    0    0 +8.3985190441e+00 +6.6872413100e+00 -7.1085722821e+00 1.2875795844e+01 5.1100000000e-04 0.0000e+00 -1.0000e+00
       12  1    4    4    0    0 -3.0383364330e+00 +1.8432700729e+01 +8.1989347762e+00 2.0401433183e+01 0.0000000000e+00 0.0000e+00 -1.0000e+00
      -12  1    3    3    0    0 +2.0643289391e+01 -2.4297845486e+01 -4.3430080228e-01 3.1886036275e+01 0.0000000000e+00 0.0000e+00 1.0000e+00
</event>
<event>
 8      3 +2.2883893e-04 9.11880000e+01 7.81616400e-03 1.18400000e-01
      -11 -1    0    0    0    0 +0.0000000000e+00 +0.0000000000e+00 +4.5593999997e+01 4.5594000000e+01 5.1100000000e-04 0.0000e+00 1.0000e+00
       11 -1    0    0    0    0 -0.0000000000e+00 -0.0000000000e+00 -4.5593999997e+01 4.5594000000e+01 5.1100000000e-04 0.0000e+00 -1.0000e+00
       23  2    1    2    0    0 +0.0000000000e+00 -8.8817841970e-16 +1.7763568394e-15 9.1188000000e+01 9.1188000000e+01 3.9181e-13 0.0000e+00
  9990012  2    3    3    0    0 -2.7806826805e+01 -1.8940682003e+00 -1.5489100408e+01 5.9301963200e+01 5.0000034966e+01 1.2813e-03 0.0000e+00
      -11  1    4    4    0    0 -1.4709682878e+01 +6.2556234228e+00 +1.1305035637e+01 1.9578340731e+01 5.1100000000e-04 0.0000e+00 1.0000e+00
       11  1    4    4    0    0 -4.9737185881e+00 -1.2732708575e-01 +4.3148654028e+00 6.5857537523e+00 5.1100000000e-04 0.0000e+00 -1.0000e+00
       12  1    4    4    0    0 -8.1234253395e+00 -8.0223645373e+00 -3.1109001448e+01 3.3137868717e+01 0.0000000000e+00 0.0000e+00 -1.0000e+00
      -12  1    3    3    0    0 +2.7806826805e+01 +1.8940682003e+00 +1.5489100408e+01 3.1886036800e+01 0.0000000000e+00 0.0000e+00 1.0000e+00
</event>
<event>
 8      4 +2.2883893e-04 9.11880000e+01 7.81616400e-03 1.18400000e-01
      -11 -1    0    0    0    0 +0.0000000000e+00 +0.0000000000e+00 +4.5593999997e+01 4.5594000000e+01 5.1100000000e-04 0.0000e+00 1.0000e+00
       11 -1    0    0    0    0 -0.0000000000e+00 -0.0000000000e+00 -4.5593999997e+01 4.5594000000e+01 5.1100000000e-04 0.0000e+00 -1.0000e+00
       23  2    1    2    0    0 +0.0000000000e+00 +0.0000000000e+00 +1.7763568394e-15 9.1188000000e+01 9.1188000000e+01 2.0419e-13 0.0000e+00
 -9990012  2    3    3    0    0 +2.9005535242e+01 -1.0014913731e+01 -8.6649570236e+00 5.9302250018e+01 5.0000558050e+01 9.5571e-04 0.0000e+00
      -11  1    4    4    0    0 +2.1590976136e+00 -8.8154484675e+00 -1.2270957021e+01 1.5262706859e+01 5.1100000000e-04 0.0000e+00 1.0000e+00
       11  1    4    4    0    0 -2.5688827411e-02 -1.3080469727e+01 -4.0204886769e+00 1.3684431945e+01 5.1100000000e-04 0.0000e+00 -1.0000e+00
      -12  1    4    4    0    0 +2.6872126456e+01 +1.1881004464e+01 +7.6264886742e+00 3.0355111214e+01 0.0000000000e+00 0.0000e+00 1.0000e+00
       12  1    3    3    0    0 -2.9005535242e+01 +1.0014913731e+01 +8.6649570236e+00 3.1885749982e+01 0.0000000000e+00 0.0000e+00 -1.0000e+00
</event>
<event>
 8      4 +2.2883893e-04 9.11880000e+01 7.81616400e-03 1.18400000e-01
      -11 -1    0    0    0    0 +0.0000000000e+00 +0.0000000000e+00 +4.5593999997e+01 4.5594000000e+01 5.1100000000e-04 0.0000e+00 1.0000e+00
       11 -1    0    0    0    0 -0.0000000000e+00 -0.0000000000e+00 -4.5593999997e+01 4.5594000000e+01 5.1100000000e-04 0.0000e+00 -1.0000e+00
       23  2    1    2    0    0 -3.5527136788e-15 +1.7763568394e-15 +3.5527136788e-15 9.1188000000e+01 9.1188000000e+01 1.2440e-14 0.0000e+00
 -9990012  2    3    3    0    0 -2.4424384222e+01 +6.8181668590e+00 +1.9330879459e+01 5.9301939651e+01 4.9999992018e+01 1.4613e-03 0.0000e+00
      -11  1    4    4    0    0 +3.9013476942e+00 -1.3497484437e+01 +6.7747193655e+00 1.5598058299e+01 5.1100000000e-04 0.0000e+00 1.0000e+00
       11  1    4    4    0    0 -1.8359908132e+01 +1.0943604893e+01 -4.4965344397e+00 2.1841875764e+01 5.1100000000e-04 0.0000e+00 -1.0000e+00
      -12  1    4    4    0    0 -9.9658237839e+00 +9.3720464033e+00 +1.7052694533e+01 2.1862005587e+01 0.0000000000e+00 0.0000e+00 1.0000e+00
       12  1    3    3    0    0 +2.4424384222e+01 -6.8181668590e+00 -1.9330879459e+01 3.1886060349e+01 0.0000000000e+00 0.0000e+00 -1.0000e+00
</event>
<event>
 8      4 +2.2883893e-04 9.11880000e+01 7.81616400e-03 1.18400000e-01
      -11 -1    0    0    0    0 +0.0000000000e+00 +0.0000000000e+00 +4.5593999997e+01 4.5594000000e+01 5.1100000000e-04 0.0000e+00 1.0000e+00
       11 -1    0    0    0    0 -0.0000000000e+00 -0.0000000000e+00 -4.5593999997e+01 4.5594000000e+01 5.1100000000e-04 0.0000e+00 -1.0000e+00
       23  2    1    2    0    0 +0.0000000000e+00 -8.8817841970e-16 +0.0000000000e+00 9.1188000000e+01 9.1188000000e+01 5.0891e-14 0.0000e+00
 -9990012  2    3    3    0    0 +2.9407407658e+01 -1.7567178401e+00 +1.2199881821e+01 5.9301971725e+01 5.0000050513e+01 2.0866e-03 0.0000e+00
      -11  1    4    4    0    0 +1.6492362221e+01 -3.3085748835e+00 -1.1152398129e+01 2.0182186791e+01 5.1100000000e-04 0.0000e+00 1.0000e+00
       11  1    4    4    0    0 -7.5645046170e+00 +6.2876941088e+00 +1.0925977994e+01 1.4701490493e+01 5.1100000000e-04 0.0000e+00 -1.0000e+00
      -12  1    4    4    0    0 +2.0479550054e+01 -4.7358370654e+00 +1.2426301955e+01 2.4418294441e+01 0.0000000000e+00 0.0000e+00 1.0000e+00
       12  1    3    3    0    0 -2.9407407658e+01 +1.7567178401e+00 -1.2199881821e+01 3.1886028275e+01 0.0000000000e+00 0.0000e+00 -1.0000e+00
</event>
<event>
 8      4 +2.2883893e-04 9.11880000e+01 7.81616400e-03 1.18400000e-01
      -11 -1    0    0    0    0 +0.0000000000e+00 +0.0000000000e+00 +4.5593999997e+01 4.5594000000e+01 5.1100000000e-04 0.0000e+00 -1.0000e+00
       11 -1    0    0    0    0 -0.0000000000e+00 -0.0000000000e+00 -4.5593999997e+01 4.5594000000e+01 5.1100000000e-04 0.0000e+00 1.0000e+00
       23  2    1    2    0    0 +0.0000000000e+00 +3.5527136788e-15 +0.0000000000e+00 9.1188000000e+01 9.1188000000e+01 5.3587e-14 0.0000e+00
 -9990012  2    3    3    0    0 +1.9645852294e+01 +2.3378635779e+01 -9.1761292390e+00 5.9301929827e+01 4.9999974102e+01 1.1799e-03 0.0000e+00
      -11  1    4    4    0    0 +3.3669684164e+00 +3.0931073122e+00 -2.6755910342e+01 2.7143738277e+01 5.1100000000e-04 0.0000e+00 1.0000e+00
       11  1    4    4    0    0 +1.0077674878e+00 +3.5230696191e-01 +2.8565781144e+00 3.0495498503e+00 5.1100000000e-04 0.0000e+00 -1.0000e+00
      -12  1    4    4    0    0 +1.5271116390e+01 +1.9933221505e+01 +1.4723202989e+01 2.9108641700e+01 0.0000000000e+00 0.0000e+00 1.0000e+00
       12  1    3    3    0    0 -1.9645852294e+01 -2.3378635779e+01 +9.1761292390e+00 3.1886070173e+01 0.0000000000e+00 0.0000e+00 -1.0000e+00
</event>
<event>
 8      3 +2.2883893e-04 9.11880000e+01 7.81616400e-03 1.18400000e-01
      -11 -1    0    0    0    0 +0.0000000000e+00 +0.0000000000e+00 +4.5593999997e+01 4.5594000000e+01 5.1100000000e-04 0.0000e+00 1.0000e+00
       11 -1    0    0    0    0 -0.0000000000e+00 -0.0000000000e+00 -4.5593999997e+01 4.5594000000e+01 5.1100000000e-04 0.0000e+00 -1.0000e+00
       23  2    1    2    0    0 +8.8817841970e-16 +0.0000000000e+00 +0.0000000000e+00 9.1188000000e+01 9.1188000000e+01 4.8037e-14 0.0000e+00
  9990012  2    3    3    0    0 -2.1422041898e+00 +2.1045294686e+01 -2.3858351449e+01 5.9302040691e+01 5.0000176290e+01 3.0739e-03 0.0000e+00
      -11  1    4    4    0    0 -1.0169787782e+01 +1.6249439874e-01 -2.7880860241e+01 2.9678162949e+01 5.1100000000e-04 0.0000e+00 1.0000e+00
       11  1    4    4    0    0 +1.0138593616e+01 +4.4244065938e+00 +6.5250477599e+00 1.2843002092e+01 5.1100000000e-04 0.0000e+00 -1.0000e+00
       12  1    4    4    0    0 -2.1110100234e+00 +1.6458393693e+01 -2.5025389679e+00 1.6780875649e+01 0.0000000000e+00 0.0000e+00 -1.0000e+00
      -12  1    3    3    0    0 +2.1422041898e+00 -2.1045294686e+01 +2.3858351449e+01 3.1885959309e+01 0.0000000000e+00 0.0000e+00 1.0000e+00
</event>
<event>
 8      3 +2.2883893e-04 9.11880000e+01 7.81616400e-03 1.18400000e-01
      -11 -1    0    0    0    0 +0.0000000000e+00 +0.0000000000e+00 +4.5593999997e+01 4.5594000000e+01 5.1100000000e-04 0.0000e+00 -1.0000e+00
       11 -1    0    0    0    0 -0.0000000000e+00 -0.0000000000e+00 -4.5593999997e+01 4.5594000000e+01 5.1100000000e-04 0.0000e+00 1.0000e+00
       23  2    1    2    0    0 -8.8817841970e-16 +0.0000000000e+00 +3.5527136788e-15 9.1188000000e+01 9.1188000000e+01 1.1937e-13 0.0000e+00
  9990012  2    3    3    0    0 +5.1661051755e+00 +1.3624536330e+01 +2.8362007934e+01 5.9301950904e+01 5.0000012540e+01 8.4645e-04 0.0000e+00
      -11  1    4    4    0    0 +9.9601844428e+00 +1.8542385715e+00 +1.0654584768e+00 1.0187181987e+01 5.1100000000e-04 0.0000e+00 1.0000e+00
       11  1    4    4    0    0 -6.7949185883e+00 +2.7738533247e+00 -9.0305326438e+00 1.1636825210e+01 5.1100000000e-04 0.0000e+00 -1.0000e+00
       12  1    4    4    0    0 +2.0008393209e+00 +8.9964444341e+00 +3.6327082101e+01 3.7477943706e+01 0.0000000000e+00 0.0000e+00 -1.0000e+00
      -12  1    3    3    0    0 -5.1661051755e+00 -1.3624536330e+01 -2.8362007934e+01 3.1886049096e+01 0.0000000000e+00 0.0000e+00 1.0000e+00
</event>
<event>
 8      3 +2.2883893e-04 9.11880000e+01 7.81616400e-03 1.18400000e-01
      -11 -1    0    0    0    0 +0.0000000000e+00 +0.0000000000e+00 +4.5593999997e+01 4.5594000000e+01 5.1100000000e-04 0.0000e+00 -1.0000e+00
       11 -1    0    0    0    0 -0.0000000000e+00 -0.0000000000e+00 -4.5593999997e+01 4.5594000000e+01 5.1100000000e-04 0.0000e+00 1.0000e+00
       23  2    1    2    0    0 -3.5527136788e-15 +0.0000000000e+00 +0.0000000000e+00 9.1188000000e+01 9.1188000000e+01 3.8600e-14 0.0000e+00
  9990012  2    3    3    0    0 -2.8534407625e+01 -4.8216076638e+00 +1.3388866452e+01 5.9301920532e+01 4.9999957150e+01 1.6011e-03 0.0000e+00
      -11  1    4    4    0    0 +3.6079998947e-01 +1.5887580890e+01 +4.8367125761e+00 1.6611417518e+01 5.1100000000e-04 0.0000e+00 1.0000e+00
       11  1    4    4    0    0 -2.9724085946e+01 -2.3658417756e+01 +1.0026242511e+01 3.9290807515e+01 5.1100000000e-04 0.0000e+00 -1.0000e+00
       12  1    4    4    0    0 +8.2887833221e-01 +2.9492292027e+00 -1.4740886348e+00 3.3996954986e+00 0.0000000000e+00 0.0000e+00 -1.0000e+00
      -12  1    3    3    0    0 +2.8534407625e+01 +4.8216076638e+00 -1.3388866452e+01 3.1886079468e+01 0.0000000000e+00 0.0000e+00 1.0000e+00
</event>
<event>
 8      4 +2.2883893e-04 9.11880000e+01 7.81616400e-03 1.18400000e-01
      -11 -1    0    0    0    0 +0.0000000000e+00 +0.0000000000e+00 +4.5593999997e+01 4.5594000000e+01 5.1100000000e-04 0.0000e+00 1.0000e+00
       11 -1    0    0    0    0 -0.0000000000e+00 -0.0000000000e+00 -4.5593999997e+01 4.5594000000e+01 5.1100000000e-04 0.0000e+00 -1.0000e+00
       23  2    1    2    0    0 -3.5527136788e-15 -8.8817841970e-16 +3.5527136788e-15 9.1188000000e+01 9.1188000000e+01 1.6406e-13 0.0000e+00
 -9990012  2    3    3    0    0 -2.2869480739e+01 -6.8534897823e+00 +2.1136132410e+01 5.9301959720e+01 5.0000028619e+01 1.5014e-05 0.0000e+00
      -11  1    4    4    0    0 +2.2528268901e+00 -7.5904965282e+00 +1.3324522770e+01 1.5499476567e+01 5.1100000000e-04 0.0000e+00 1.0000e+00
       11  1    4    4    0    0 -9.8013589176e+00 -1.6516532969e+01 +7.7975242794e+00 2.0728335270e+01 5.1100000000e-04 0.0000e+00 -1.0000e+00
      -12  1    4    4    0    0 -1.5320948712e+01 +1.7253539714e+01 +1.4085360069e-02 2.3074147882e+01 0.0000000000e+00 0.0000e+00 1.0000e+00
       12  1    3    3    0    0 +2.2869480739e+01 +6.8534897823e+00 -2.1136132410e+01 3.1886040280e+01 0.0000000000e+00 0.0000e+00 -1.0000e+00
</event>
<event>
 8      4 +2.2883893e-04 9.11880000e+01 7.81616400e-03 1.18400000e-01
      -11 -1    0    0    0    0 +0.0000000000e+00 +0.0000000000e+00 +4.5593999997e+01 4.5594000000e+01 5.1100000000e-04 0.0000e+00 1.0000e+00
       11 -1    0    0    0    0 -0.0000000000e+00 -0.0000000000e+00 -4.5593999997e+01 4.5594000000e+01 5.1100000000e-04 0.0000e+00 -1.0000e+00
       23  2    1    2    0    0 +0.0000000000e+00 +0.0000000000e+00 +0.0000000000e+00 9.1188000000e+01 9.1188000000e+01 1.0208e-13 0.0000e+00
 -9990012  2    3    3    0    0 +1.5761782506e+01 -1.7278395945e+01 +2.1673584948e+01 5.9301936607e+01 4.9999986467e+01 6.6755e-03 0.0000e+00
      -11  1    4    4    0    0 -8.8032644228e+00 -6.6918593289e+00 +1.8506934300e+01 2.1558874350e+01 5.1100000000e-04 0.0000e+00 1.0000e+00
       11  1    4    4    0    0 -1.4787599366e+00 +4.1467642230e+00 -5.0631516872e+00 6.7095372225e+00 5.1100000000e-04 0.0000e+00 -1.0000e+00
      -12  1    4    4    0    0 +2.6043806865e+01 -1.4733300839e+01 +8.2298023353e+00 3.1033525035e+01 0.0000000000e+00 0.0000e+00 1.0000e+00
       12  1    3    3    0    0 -1.5761782506e+01 +1.7278395945e+01 -2.1673584948e+01 3.1886063393e+01 0.0000000000e+00 0.0000e+00 -1.0000e+00
</event>
<event>
 8      4 +2.2883893e-04 9.11880000e+01 7.81616400e-03 1.18400000e-01
      -11 -1    0    0    0    0 +0.0000000000e+00 +0.0000000000e+00 +4.5593999997e+01 4.5594000000e+01 5.1100000000e-04 0.0000e+00 1.0000e+00
       11 -1    0    0    0    0 -0.0000000000e+00 -0.0000000000e+00 -4.5593999997e+01 4.5594000000e+01 5.1100000000e-04 0.0000e+00 -1.0000e+00
       23  2    1    2    0    0 -3.5527136788e-15 -8.8817841970e-16 -8.8817841970e-16 9.1188000000e+01 9.1188000000e+01 1.1655e-13 0.0000e+00
 -9990012  2    3    3    0    0 -3.1032859728e+01 -6.2656805260e+00 +3.7979349400e+00 5.9301930234e+01 4.9999974843e+01 5.8396e-04 0.0000e+00
      -11  1    4    4    0    0 -7.1495579092e+00 +4.3256217638e+00 -1.5366477056e+00 8.4963797216e+00 5.1100000000e-04 0.0000e+00 1.0000e+00
       11  1    4    4    0    0 -8.3803736567e+00 -2.1701902731e+01 -1.0963223520e+01 2.5717610989e+01 5.1100000000e-04 0.0000e+00 -1.0000e+00
      -12  1    4    4    0    0 -1.5502928162e+01 +1.1110600441e+01 +1.6297806165e+01 2.5087939524e+01 0.0000000000e+00 0.0000e+00 1.0000e+00
       12  1    3    3    0    0 +3.1032859728e+01 +6.2656805260e+00 -3.7979349400e+00 3.1886069766e+01 0.0000000000e+00 0.0000e+00 -1.0000e+00
</event>
<event>
 8      3 +2.2883893e-04 9.11880000e+01 7.81616400e-03 1.18400000e-01
      -11 -1    0    0    0    0 +0.0000000000e+00 +0.0000000000e+00 +4.5593999997e+01 4.5594000000e+01 5.1100000000e-04 0.0000e+00 -1.0000e+00
       11 -1    0    0    0    0 -0.0000000000e+00 -0.0000000000e+00 -4.5593999997e+01 4.5594000000e+01 5.1100000000e-04 0.0000e+00 1.0000e+00
       23  2    1    2    0    0 +1.7763568394e-15 +0.0000000000e+00 +0.0000000000e+00 9.1188000000e+01 9.1188000000e+01 1.0132e-14 0.0000e+00
  9990012  2    3    3    0    0 -1.5072523665e+01 +2.4714546910e+01 +1.3368849489e+01 5.9302016634e+01 5.0000132416e+01 7.1147e-04 0.0000e+00
      -11  1    4    4    0    0 +1.1663496774e+00 +2.5909930990e+01 +1.0718115027e+01 2.8063550835e+01 5.1100000000e-04 0.0000e+00 1.0000e+00
       11  1    4    4    0    0 -1.1857434789e+01 +1.6527167377e+00 -1.1225001570e+01 1.6411303815e+01 5.1100000000e-04 0.0000e+00 -1.0000e+00
       12  1    4    4    0    0 -4.3814385526e+00 -2.8481008182e+00 +1.3875736032e+01 1.4827161984e+01 0.0000000000e+00 0.0000e+00 -1.0000e+00
      -12  1    3    3    0    0 +1.5072523665e+01 -2.4714546910e+01 -1.3368849489e+01 3.1885983366e+01 0.0000000000e+00 0.0000e+00 1.0000e+00
</event>
<event>
 8      3 +2.2883893e-04 9.11880000e+01 7.81616400e-03 1.18400000e-01
      -11 -1    0    0    0    0 +0.0000000000e+00 +0.0000000000e+00 +4.5593999997e+01 4.5594000000e+01 5.1100000000e-04 0.0000e+00 1.0000e+00
       11 -1    0    0    0    0 -0.0000000000e+00 -0.0000000000e+00 -4.5593999997e+01 4.5594000000e+01 5.1100000000e-04 0.0000e+00 -1.0000e+00
       23  2    1    2    0    0 +0.0000000000e+00 +3.5527136788e-15 +3.5527136788e-15 9.1188000000e+01 9.1188000000e+01 5.4441e-14 0.0000e+00
  9990012  2    3    3    0    0 -3.0928543349e+00 -2.3704862499e+01 -2.1100554591e+01 5.9301958257e+01 5.0000025950e+01 3.5463e-03 0.0000e+00
      -11  1    4    4    0    0 -3.0481729072e+00 +8.7548268537e+00 +3.6278689757e+00 9.9548874869e+00 5.1100000000e-04 0.0000e+00 1.0000e+00
       11  1    4    4    0    0 +2.2676931114e+00 +9.2431863323e-01 -1.3989444533e+01 1.4202160244e+01 5.1100000000e-04 0.0000e+00 -1.0000e+00
       12  1    4    4    0    0 -2.3123745391e+00 -3.3384007986e+01 -1.0738979033e+01 3.5144910526e+01 0.0000000000e+00 0.0000e+00 -1.0000e+00
      -12  1    3    3    0    0 +3.0928543349e+00 +2.3704862499e+01 +2.1100554591e+01 3.1886041743e+01 0.0000000000e+00 0.0000e+00 1.0000e+00
</event>
<event>
 8      4 +2.2883893e-04 9.11880000e+01 7.81616400e-03 1.18400000e-01
      -11 -1    0    0    0    0 +0.0000000000e+00 +0.0000000000e+00 +4.5593999997e+01 4.5594000000e+01 5.1100000000e-04 0.0000e+00 -1.0000e+00
       11 -1    0    0    0    0 -0.0000000000e+00 -0.0000000000e+00 -4.5593999997e+01 4.5594000000e+01 5.1100000000e-04 0.0000e+00 1.0000e+00
       23  2    1    2    0    0 -1.7763568394e-15 +1.7763568394e-15 +3.5527136788e-15 9.1188000000e+01 9.1188000000e+01 3.5784e-14 0.0000e+00
 -9990012  2    3    3    0    0 +1.2494063597e+01 -9.0747932807e+00 -2.7897536024e+01 5.9301858583e+01 4.9999844170e+01 9.9785e-04 0.0000e+00
      -11  1    4    4    0    0 -8.1696942983e+00 +4.0891932985e+00 -4.7669747818e-01 9.1483685708e+00 5.1100000000e-04 0.0000e+00 1.0000e+00
       11  1    4    4    0    0 +1.7014465038e+00 -8.1952190076e+00 +6.7544450006e+00 1.0755420137e+01 5.1100000000e-04 0.0000e+00 -1.0000e+00
      -12  1    4    4    0    0 +1.8962311391e+01 -4.9687675715e+00 -3.4175283546e+01 3.9398069876e+01 0.0000000000e+00 0.0000e+00 1.0000e+00
       12  1    3    3    0    0 -1.2494063597e+01 +9.0747932807e+00 +2.7897536024e+01 3.1886141417e+01 0.0000000000e+00 0.0000e+00 -1.0000e+00
</event>
<event>
 8      4 +2.2883893e-04 9.11880000e+01 7.81616400e-03 1.18400000e-01
      -11 -1    0    0    0    0 +0.0000000000e+00 +0.0000000000e+00 +4.5593999997e+01 4.5594000000e+01 5.1100000000e-04 0.0000e+00 -1.0000e+00
       11 -1    0    0    0    0 -0.0000000000e+00 -0.0000000000e+00 -4.5593999997e+01 4.5594000000e+01 5.1100000000e-04 0.0000e+00 1.0000e+00
       23  2    1    2    0    0 +3.5527136788e-15 +1.7763568394e-15 +4.4408920985e-16 9.1188000000e+01 9.1188000000e+01 2.7321e-15 0.0000e+00
 -9990012  2    3    3    0    0 -2.8929039727e+01 -1.3159385486e+01 +2.5806334453e+00 5.9301977437e+01 5.0000060931e+01 1.2519e-03 0.0000e+00
      -11  1    4    4    0    0 -9.4624184349e+00 +1.3262340384e+01 -6.7715975799e+00 1.7643173443e+01 5.1100000000e-04 0.0000e+00 1.0000e+00
       11  1    4    4    0    0 -4.5725214555e+00 -9.1560403056e+00 -8.0122821259e+00 1.2997603305e+01 5.1100000000e-04 0.0000e+00 -1.0000e+00
      -12  1    4    4    0    0 -1.4894099837e+01 -1.7265685565e+01 +1.7364513151e+01 2.8661200689e+01 0.0000000000e+00 0.0000e+00 1.0000e+00
       12  1    3    3    0    0 +2.8929039727e+01 +1.3159385486e+01 -2.5806334453e+00 3.1886022563e+01 0.0000000000e+00 0.0000e+00 -1.0000e+00
</event>
<event>
 8      3 +2.2883893e-04 9.11880000e+01 7.81616400e-03 1.18400000e-01
      -11 -1    0    0    0    0 +0.0000000000e+00 +0.0000000000e+00 +4.5593999997e+01 4.5594000000e+01 5.1100000000e-04 0.0000e+00 1.0000e+00
       11 -1    0    0    0    0 -0.0000000000e+00 -0.0000000000e+00 -4.5593999997e+01 4.5594000000e+01 5.1100000000e-04 0.0000e+00 -1.0000e+00
       23  2    1    2    0    0 +0.0000000000e+00 -4.4408920985e-16 -1.7763568394e-15 9.1188000000e+01 9.1188000000e+01 6.3884e-14 0.0000e+00
  9990012  2    3    3    0    0 +2.9478609579e+01 -1.2549439420e+00 -1.2089558636e+01 5.9301941369e+01 4.9999995151e+01 3.0649e-03 0.0000e+00
      -11  1    4    4    0    0 +7.1150976332e+00 -6.7327912116e+00 +9.0498762347e+00 1.3336242048e+01 5.1100000000e-04 0.0000e+00 1.0000e+00
       11  1    4    4    0    0 +1.3390388382e+01 +1.1542519503e+00 +7.6758308249e+00 1.5477505539e+01 5.1100000000e-04 0.0000e+00 -1.0000e+00
       12  1    4    4    0    0 +8.9731235636e+00 +4.3235953194e+00 -2.8815265696e+01 3.0488193782e+01 0.0000000000e+00 0.0000e+00 -1.0000e+00
      -12  1    3    3    0    0 -2.9478609579e+01 +1.2549439420e+00 +1.2089558636e+01 3.1886058631e+01 0.0000000000e+00 0.0000e+00 1.0000e+00
</event>
<event>
 8      3 +2.2883893e-04 9.11880000e+01 7.81616400e-03 1.18400000e-01
      -11 -1    0    0    0    0 +0.0000000000e+00 +0.0000000000e+00 +4.5593999997e+01 4.5594000000e+01 5.1100000000e-04 0.0000e+00 1.0000e+00
       11 -1    0    0    0    0 -0.0000000000e+00 -0.0000000000e+00 -4.5593999997e+01 4.5594000000e+01 5.1100000000e-04 0.0000e+00 -1.0000e+00
       23  2    1    2    0    0 +1.7763568394e-15 +3.5527136788e-15 +0.0000000000e+00 9.1188000000e+01 9.1188000000e+01 1.0435e-13 0.0000e+00
  9990012  2    3    3    0    0 -4.6984504149e+00 +2.6478351068e+01 -1.7133075898e+01 5.9301940330e+01 4.9999993256e+01 3.3560e-03 0.0000e+00
      -11  1    4    4    0    0 -6.4972184895e-01 -5.3084640382e+00 -3.8905582028e+00 6.6134992490e+00 5.1100000000e-04 0.0000e+00 1.0000e+00
       11  1    4    4    0    0 +1.1409535836e+01 +1.5510136421e+01 -2.1416147389e+01 2.8799187645e+01 5.1100000000e-04 0.0000e+00 -1.0000e+00
       12  1    4    4    0    0 -1.5458264402e+01 +1.6276678685e+01 +8.1736296935e+00 2.3889253435e+01 0.0000000000e+00 0.0000e+00 -1.0000e+00
      -12  1    3    3    0    0 +4.6984504149e+00 -2.6478351068e+01 +1.7133075898e+01 3.1886059670e+01 0.0000000000e+00 0.0000e+00 1.0000e+00
</event>
<event>
 8      3 +2.2883893e-04 9.11880000e+01 7.81616400e-03 1.18400000e-01
      -11 -1    0    0    0    0 +0.0000000000e+00 +0.0000000000e+00 +4.5593999997e+01 4.5594000000e+01 5.1100000000e-04 0.0000e+00 1.0000e+00
       11 -1    0    0    0    0 -0.0000000000e+00 -0.0000000000e+00 -4.5593999997e+01 4.5594000000e+01 5.1100000000e-04 0.0000e+00 -1.0000e+00
       23  2    1    2    0    0 -3.5527136788e-15 +0.0000000000e+00 +0.0000000000e+00 9.1188000000e+01 9.1188000000e+01 2.2429e-14 0.0000e+00
  9990012  2    3    3    0    0 -2.7484025156e+01 -1.3052505063e+01 +9.5394020466e+00 5.9301643692e+01 4.9999452257e+01 2.2121e-03 0.0000e+00
      -11  1    4    4    0    0 -2.2134513069e+00 +7.9021766529e+00 -1.0163163200e+00 8.2690181802e+00 5.1100000000e-04 0.0000e+00 1.0000e+00
       11  1    4    4    0    0 -3.3667453002e+01 -8.3236771280e+00 +8.6702728605e+00 3.5748491217e+01 5.1100000000e-04 0.0000e+00 -1.0000e+00
       12  1    4    4    0    0 +8.3968791524e+00 -1.2631004587e+01 +1.8854455061e+00 1.5284134295e+01 0.0000000000e+00 0.0000e+00 -1.0000e+00
      -12  1    3    3    0    0 +2.7484025156e+01 +1.3052505063e+01 -9.5394020466e+00 3.1886356308e+01 0.0000000000e+00 0.0000e+00 1.0000e+00
</event>
<event>
 8      4 +2.2883893e-04 9.11880000e+01 7.81616400e-03 1.18400000e-01
      -11 -1    0    0    0    0 +0.0000000000e+00 +0.0000000000e+00 +4.5593999997e+01 4.5594000000e+01 5.1100000000e-04 0.0000e+00 -1.0000e+00
       11 -1    0    0    0    0 -0.0000000000e+00 -0.0000000000e+00 -4.5593999997e+01 4.5594000000e+01 5.1100000000e-04 0.0000e+00 1.0000e+00
       23  2    1    2    0    0 -3.5527136788e-15 -3.5527136788e-15 +1.1102230246e-16 9.1188000000e+01 9.1188000000e+01 1.2982e-14 0.0000e+00
 -9990012  2    3    3    0    0 +3.1659492655e+01 -3.6906375676e+00 +8.8056340137e-01 5.9301958027e+01 5.0000025530e+01 3.5653e-04 0.0000e+00
      -11  1    4    4    0    0 +2.2019234164e+01 -2.3998927658e+01 -4.3109752285e+00 3.2853914676e+01 5.1100000000e-04 0.0000e+00 1.0000e+00
       11  1    4    4    0    0 +1.2148724672e+01 +1.4637675165e+01 +1.1719574354e+00 1.9058502824e+01 5.1100000000e-04 0.0000e+00 -1.0000e+00
      -12  1    4    4    0    0 -2.5084661813e+00 +5.6706149248e+00 +4.0195811945e+00 7.3895405261e+00 0.0000000000e+00 0.0000e+00 1.0000e+00
       12  1    3    3    0    0 -3.1659492655e+01 +3.6906375676e+00 -8.8056340137e-01 3.1886041973e+01 0.0000000000e+00 0.0000e+00 -1.0000e+00
</event>
<event>
 8      3 +2.2883893e-04 9.11880000e+01 7.81616400e-03 1.18400000e-01
      -11 -1    0    0    0    0 +0.0000000000e+00 +0.0000000000e+00 +4.5593999997e+01 4.5594000000e+01 5.1100000000e-04 0.0000e+00 1.0000e+00
       11 -1    0    0    0    0 -0.0000000000e+00 -0.0000000000e+00 -4.5593999997e+01 4.5594000000e+01 5.1100000000e-04 0.0000e+00 -1.0000e+00
       23  2    1    2    0    0 +0.0000000000e+00 -3.5527136788e-15 +0.0000000000e+00 9.1188000000e+01 9.1188000000e+01 9.0455e-14 0.0000e+00
  9990012  2    3    3    0    0 -5.2674420675e+00 +2.6547631865e+01 -1.6858166670e+01 5.9301945257e+01 5.0000002243e+01 1.3839e-03 0.0000e+00
      -11  1    4    4    0    0 +9.9527611306e+00 -3.7987850363e+00 -9.6123921547e+00 1.4348738797e+01 5.1100000000e-04 0.0000e+00 1.0000e+00
       11  1    4    4    0    0 -3.2336320922e+00 +2.5718559928e+01 -1.4997519151e+01 2.9947057989e+01 5.1100000000e-04 0.0000e+00 -1.0000e+00
       12  1    4    4    0    0 -1.1986571106e+01 +4.6278569735e+00 +7.7517446354e+00 1.5006148471e+01 0.0000000000e+00 0.0000e+00 -1.0000e+00
      -12  1    3    3    0    0 +5.2674420675e+00 -2.6547631865e+01 +1.6858166670e+01 3.1886054743e+01 0.0000000000e+00 0.0000e+00 1.0000e+00
</event>
<event>
 8      3 +2.2883893e-04 9.11880000e+01 7.81616400e-03 1.18400000e-01
      -11 -1    0    0    0    0 +0.0000000000e+00 +0.0000000000e+00 +4.5593999997e+01 4.5594000000e+01 5.1100000000e-04 0.0000e+00 1.0000e+00
       11 -1    0    0    0    0 -0.0000000000e+00 -0.0000000000e+00 -4.5593999997e+01 4.5594000000e+01 5.1100000000e-04 0.0000e+00 -1.0000e+00
       23  2    1    2    0    0 -3.5527136788e-15 +0.0000000000e+00 -1.7763568394e-15 9.1188000000e+01 9.1188000000e+01 1.2796e-13 0.0000e+00
  9990012  2    3    3    0    0 +1.8601171568e+01 +2.5035103915e+01 -6.6302988738e+00 5.9301939176e+01 4.9999991151e+01 1.5853e-03 0.0000e+00
      -11  1    4    4    0    0 -5.2885978679e+00 +7.3788440979e+00 -3.1732926753e+00 9.6169846778e+00 5.1100000000e-04 0.0000e+00 1.0000e+00
       11  1    4    4    0    0 -7.9235792630e+00 +4.5795294052e+00 -1.1164293768e+01 1.4435950038e+01 5.1100000000e-04 0.0000e+00 -1.0000e+00
       12  1    4    4    0    0 +3.1813348699e+01 +1.3076730412e+01 +7.7072875696e+00 3.5249004460e+01 0.0000000000e+00 0.0000e+00 -1.0000e+00
      -12  1    3    3    0    0 -1.8601171568e+01 -2.5035103915e+01 +6.6302988738e+00 3.1886060824e+01 0.0000000000e+00 0.0000e+00 1.0000e+00
</event>
<event>
 8      3 +2.2883893e-04 9.11880000e+01 7.81616400e-03 1.18400000e-01
      -11 -1    0    0    0    0 +0.0000000000e+00 +0.0000000000e+00 +4.5593999997e+01 4.5594000000e+01 5.1100000000e-04 0.0000e+00 -1.0000e+00
       11 -1    0    0    0    0 -0.0000000000e+00 -0.0000000000e+00 -4.5593999997e+01 4.5594000000e+01 5.1100000000e-04 0.0000e+00 1.0000e+00
       23  2    1    2    0    0 +4.4408920985e-16 +0.0000000000e+00 +0.0000000000e+00 9.1188000000e+01 9.1188000000e+01 2.6671e-13 0.0000e+00
  9990012  2    3    3    0    0 -3.4148828352e+00 +8.8711133588e+00 +3.0436381089e+01 5.9301774592e+01 4.9999690988e+01 1.8749e-04 0.0000e+00
      -11  1    4    4    0    0 +2.1192159853e+01 +4.6637812742e+00 +1.3627849381e+01 2.5623754097e+01 5.1100000000e-04 0.0000e+00 1.0000e+00
       11  1    4    4    0    0 -2.1603481799e+01 +3.3857435903e+00 +1.9697267892e+01 2.9430529186e+01 5.1100000000e-04 0.0000e+00 -1.0000e+00
       12  1    4    4    0    0 -3.0035608892e+00 +8.2158849429e-01 -2.8887361846e+00 4.2474913082e+00 0.0000000000e+00 0.0000e+00 -1.0000e+00
      -12  1    3    3    0    0 +3.4148828352e+00 -8.8711133588e+00 -3.0436381089e+01 3.1886225408e+01 0.0000000000e+00 0.0000e+00 1.0000e+00
</event>
<event>
 8      3 +2.2883893e-04 9.11880000e+01 7.81616400e-03 1.18400000e-01
      -11 -1    0    0    0    0 +0.0000000000e+00 +0.0000000000e+00 +4.5593999997e+01 4.5594000000e+01 5.1100000000e-04 0.0000e+00 1.0000e+00
       11 -1    0    0    0    0 -0.0000000000e+00 -0.0000000000e+00 -4.5593999997e+01 4.5594000000e+01 5.1100000000e-04 0.0000e+00 -1.0000e+00
       23  2    1    2    0    0 +3.5527136788e-15 -7.1054273576e-15 +0.0000000000e+00 9.1188000000e+01 9.1188000000e+01 5.4453e-14 0.0000e+00
  9990012  2    3    3    0    0 +1.9795020402e+01 -2.2654880369e+01 +1.0565650262e+01 5.9301962260e+01 5.0000033252e+01 2.2972e-05 0.0000e+00
      -11  1    4    4    0    0 +8.0464974318e+00 -2.5175571794e+01 +2.0725642590e+01 3.3587316015e+01 5.1100000000e-04 0.0000e+00 1.0000e+00
       11  1    4    4    0    0 -2.4173951823e+00 +3.8319951648e+00 +3.7024094509e+00 5.8511385570e+00 5.1100000000e-04 0.0000e+00 -1.0000e+00
       12  1    4    4    0    0 +1.4165918153e+01 -1.3113037402e+00 -1.3862401779e+01 1.9863507689e+01 0.0000000000e+00 0.0000e+00 -1.0000e+00
      -12  1    3    3    0    0 -1.9795020402e+01 +2.2654880369e+01 -1.0565650262e+01 3.1886037740e+01 0.0000000000e+00 0.0000e+00 1.0000e+00
</event>
<event>
 8      3 +2.2883893e-04 9.11880000e+01 7.81616400e-03 1.18400000e-01
      -11 -1    0    0    0    0 +0.0000000000e+00 +0.0000000000e+00 +4.5593999997e+01 4.5594000000e+01 5.1100000000e-04 0.0000e+00 -1.0000e+00
       11 -1    0    0    0    0 -0.0000000000e+00 -0.0000000000e+00 -4.5593999997e+01 4.5594000000e+01 5.1100000000e-04 0.0000e+00 1.0000e+00
       23  2    1    2    0    0 +0.0000000000e+00 +2.6645352591e-15 +0.0000000000e+00 9.1188000000e+01 9.1188000000e+01 2.2718e-14 0.0000e+00
  9990012  2    3    3    0    0 -2.4140005955e+01 +4.5148438057e+00 +2.0337122574e+01 5.9301917508e+01 4.9999951635e+01 7.6915e-04 0.0000e+00
      -11  1    4    4    0    0 -1.8342977922e+00 -1.0262269628e+01 +6.5881177714e-01 1.0445710101e+01 5.1100000000e-04 0.0000e+00 1.0000e+00
       11  1    4    4    0    0 +4.3921438709e+00 -6.4454437221e+00 -2.4804294524e+00 8.1845710387e+00 5.1100000000e-04 0.0000e+00 -1.0000e+00
       12  1    4    4    0    0 -2.6697852033e+01 +2.1222557156e+01 +2.2158740249e+01 4.0671636368e+01 0.0000000000e+00 0.0000e+00 -1.0000e+00
      -12  1    3    3    0    0 +2.4140005955e+01 -4.5148438057e+00 -2.0337122574e+01 3.1886082492e+01 0.0000000000e+00 0.0000e+00 1.0000e+00
</event>
<event>
 8      3 +2.2883893e-04 9.11880000e+01 7.81616400e-03 1.18400000e-01
      -11 -1    0    0    0    0 +0.0000000000e+00 +0.0000000000e+00 +4.5593999997e+01 4.5594000000e+01 5.1100000000e-04 0.0000e+00 1.0000e+00
       11 -1    0    0    0    0 -0.0000000000e+00 -0.0000000000e+00 -4.5593999997e+01 4.5594000000e+01 5.1100000000e-04 0.0000e+00 -1.0000e+00
       23  2    1    2    0    0 +2.2204460493e-15 -7.1054273576e-15 -1.7763568394e-15 9.1188000000e+01 9.1188000000e+01 1.1563e-14 0.0000e+00
  9990012  2    3    3    0    0 +3.1821668917e+00 -2.9999416978e+01 -1.0326597961e+01 5.9301798743e+01 4.9999735035e+01 4.9016e-03 0.0000e+00
      -11  1    4    4    0    0 -1.0622930211e+01 +4.4692834179e+00 -1.1213999327e+01 1.6080264976e+01 5.1100000000e-04 0.0000e+00 1.0000e+00
       11  1    4    4    0    0 +1.6457118054e+01 -2.4550870190e+01 +8.1340899241e+00 3.0655266772e+01 5.1100000000e-04 0.0000e+00 -1.0000e+00
       12  1    4    4    0    0 -2.6520209507e+00 -9.9178302064e+00 -7.2466885575e+00 1.2566266994e+01 0.0000000000e+00 0.0000e+00 -1.0000e+00
      -12  1    3    3    0    0 -3.1821668917e+00 +2.9999416978e+01 +1.0326597961e+01 3.1886201257e+01 0.0000000000e+00 0.0000e+00 1.0000e+00
</event>
<event>
 8      4 +2.2883893e-04 9.11880000e+01 7.81616400e-03 1.18400000e-01
      -11 -1    0    0    0    0 +0.0000000000e+00 +0.0000000000e+00 +4.5593999997e+01 4.5594000000e+01 5.1100000000e-04 0.0000e+00 -1.0000e+00
       11 -1    0    0    0    0 -0.0000000000e+00 -0.0000000000e+00 -4.5593999997e+01 4.5594000000e+01 5.1100000000e-04 0.0000e+00 1.0000e+00
       23  2    1    2    0    0 +1.7763568394e-15 -1.7763568394e-15 +1.0658141036e-14 9.1188000000e+01 9.1188000000e+01 5.3201e-14 0.0000e+00
 -9990012  2    3    3    0    0 -9.6433425145e+00 +1.4584069758e+01 -2.6665132005e+01 5.9301977821e+01 5.0000061631e+01 1.9107e-03 0.0000e+00
      -11  1    4    4    0    0 -1.8685763359e+00 +7.8749695492e+00 +1.0632476958e+01 1.3362495629e+01 5.1100000000e-04 0.0000e+00 1.0000e+00
       11  1    4    4    0    0 +6.5924678802e+00 +3.4539170074e+00 -2.0231929405e+00 7.7125537523e+00 5.1100000000e-04 0.0000e+00 -1.0000e+00
      -12  1    4    4    0    0 -1.4367234059e+01 +3.2551832016e+00 -3.5274416022e+01 3.8226928439e+01 0.0000000000e+00 0.0000e+00 1.0000e+00
       12  1    3    3    0    0 +9.6433425145e+00 -1.4584069758e+01 +2.6665132005e+01 3.1886022179e+01 0.0000000000e+00 0.0000e+00 -1.0000e+00
</event>
<event>
 8      3 +2.2883893e-04 9.11880000e+01 7.81616400e-03 1.18400000e-01
      -11 -1    0    0    0    0 +0.0000000000e+00 +0.0000000000e+00 +4.5593999997e+01 4.5594000000e+01 5.1100000000e-04 0.0000e+00 -1.0000e+00
       11 -1    0    0    0    0 -0.0000000000e+00 -0.0000000000e+00 -4.5593999997e+01 4.5594000000e+01 5.1100000000e-04 0.0000e+00 1.0000e+00
       23  2    1    2    0    0 +8.8817841970e-16 -3.5527136788e-15 +0.0000000000e+00 9.1188000000e+01 9.1188000000e+01 1.9040e-14 0.0000e+00
  9990012  2    3    3    0    0 -7.6399803092e+00 -2.3568316893e+01 +2.0071997373e+01 5.9301953854e+01 5.0000017920e+01 5.4008e-03 0.0000e+00
      -11  1    4    4    0    0 -3.8000706735e+00 +7.1442663272e-01 -3.0868208358e+00 4.9476666896e+00 5.1100000000e-04 0.0000e+00 1.0000e+00
       11  1    4    4    0    0 +1.4828990119e+01 -1.2582874941e+01 +2.5641725084e+01 3.2182693413e+01 5.1100000000e-04 0.0000e+00 -1.0000e+00
       12  1    4    4    0    0 -1.8668899754e+01 -1.1699868585e+01 -2.4829068756e+00 2.2171593752e+01 0.0000000000e+00 0.0000e+00 -1.0000e+00
      -12  1    3    3    0    0 +7.6399803092e+00 +2.3568316893e+01 -2.0071997373e+01 3.1886046146e+01 0.0000000000e+00 0.0000e+00 1.0000e+00
</event>
<event>
 8      4 +2.2883893e-04 9.11880000e+01 7.81616400e-03 1.18400000e-01
      -11 -1    0    0    0    0 +0.0000000000e+00 +0.0000000000e+00 +4.5593999997e+01 4.5594000000e+01 5.1100000000e-04 0.0000e+00 1.0000e+00
       11 -1    0    0    0    0 -0.0000000000e+00 -0.0000000000e+00 -4.5593999997e+01 4.5594000000e+01 5.1100000000e-04 0.0000e+00 -1.0000e+00
       23  2    1    2    0    0 +0.0000000000e+00 +3.5527136788e-15 +0.0000000000e+00 9.1188000000e+01 9.1188000000e+01 2.0702e-14 0.0000e+00
 -9990012  2    3    3    0    0 +1.3995486325e+01 +6.8068873010e+00 +2.7830107471e+01 5.9301917863e+01 4.9999952282e+01 1.4141e-03 0.0000e+00
      -11  1    4    4    0    0 -2.5333904536e+00 +3.4676813320e+00 +3.9040364688e-01 4.3122263715e+00 5.1100000000e-04 0.0000e+00 1.0000e+00
       11  1    4    4    0    0 -2.8802859379e-01 +1.8039437980e+01 -1.8708241125e+00 1.8138474749e+01 5.1100000000e-04 0.0000e+00 -1.0000e+00
      -12  1    4    4    0    0 +1.6816905372e+01 -1.4700232011e+01 +2.9310527936e+01 3.6851216742e+01 0.0000000000e+00 0.0000e+00 1.0000e+00
       12  1    3    3    0    0 -1.3995486325e+01 -6.8068873010e+00 -2.7830107471e+01 3.1886082137e+01 0.0000000000e+00 0.0000e+00 -1.0000e+00
</event>
<event>
 8      4 +2.2883893e-04 9.11880000e+01 7.81616400e-03 1.18400000e-01
      -11 -1    0    0    0    0 +0.0000000000e+00 +0.0000000000e+00 +4.5593999997e+01 4.5594000000e+01 5.1100000000e-04 0.0000e+00 1.0000e+00
       11 -1    0    0    0    0 -0.0000000000e+00 -0.0000000000e+00 -4.5593999997e+01 4.5594000000e+01 5.1100000000e-04 0.0000e+00 -1.0000e+00
       23  2    1    2    0    0 -1.7763568394e-15 -1.7763568394e-15 +0.0000000000e+00 9.1188000000e+01 9.1188000000e+01 1.2550e-13 0.0000e+00
 -9990012  2    3    3    0    0 +1.5601356587e+01 +1.2300394165e+01 +2.4940332378e+01 5.9301918348e+01 4.9999953167e+01 4.3004e-04 0.0000e+00
      -11  1    4    4    0    0 +2.6847871072e+01 +1.0332154074e+01 +5.3934870356e+00 2.9268605904e+01 5.1100000000e-04 0.0000e+00 1.0000e+00
       11  1    4    4    0    0 -9.9833319760e+00 -4.5992372159e+00 +1.8910294913e+00 1.1153290685e+01 5.1100000000e-04 0.0000e+00 -1.0000e+00
      -12  1    4    4    0    0 -1.2631825091e+00 +6.5674773072e+00 +1.7655815851e+01 1.8880021758e+01 0.0000000000e+00 0.0000e+00 1.0000e+00
       12  1    3    3    0    0 -1.5601356587e+01 -1.2300394165e+01 -2.4940332378e+01 3.1886081652e+01 0.0000000000e+00 0.0000e+00 -1.0000e+00
</event>
<event>
 8      3 +2.2883893e-04 9.11880000e+01 7.81616400e-03 1.18400000e-01
      -11 -1    0    0    0    0 +0.0000000000e+00 +0.0000000000e+00 +4.5593999997e+01 4.5594000000e+01 5.1100000000e-04 0.0000e+00 1.0000e+00
       11 -1    0    0    0    0 -0.0000000000e+00 -0.0000000000e+00 -4.5593999997e+01 4.5594000000e+01 5.1100000000e-04 0.0000e+00 -1.0000e+00
       23  2    1    2    0    0 +0.0000000000e+00 -1.7763568394e-15 -3.5527136788e-15 9.1188000000e+01 9.1188000000e+01 3.1232e-13 0.0000e+00
  9990012  2    3    3    0    0 -1.7628650620e+01 -1.4157835169e+01 -2.2483493899e+01 5.9301935375e+01 4.9999984220e+01 2.9936e-04 0.0000e+00
      -11  1    4    4    0    0 -1.7196121821e+01 +4.8493934866e+00 +1.5548441065e+00 1.7934345913e+01 5.1100000000e-04 0.0000e+00 1.0000e+00
       11  1    4    4    0    0 +1.0444251375e+01 -1.9180731264e+01 -1.1213043731e+01 2.4550258422e+01 5.1100000000e-04 0.0000e+00 -1.0000e+00
       12  1    4    4    0    0 -1.0876780174e+01 +1.7350260776e-01 -1.2825294274e+01 1.6817331040e+01 0.0000000000e+00 0.0000e+00 -1.0000e+00
      -12  1    3    3    0    0 +1.7628650620e+01 +1.4157835169e+01 +2.2483493899e+01 3.1886064625e+01 0.0000000000e+00 0.0000e+00 1.0000e+00
</event>
<event>
 8      3 +2.2883893e-04 9.11880000e+01 7.81616400e-03 1.18400000e-01
      -11 -1    0    0    0    0 +0.0000000000e+00 +0.0000000000e+00 +4.5593999997e+01 4.5594000000e+01 5.1100000000e-04 0.0000e+00 -1.0000e+00
       11 -1    0    0    0    0 -0.0000000000e+00 -0.0000000000e+00 -4.5593999997e+01 4.5594000000e+01 5.1100000000e-04 0.0000e+00 1.0000e+00
       23  2    1    2    0    0 +0.0000000000e+00 +0.0000000000e+00 +0.0000000000e+00 9.1188000000e+01 9.1188000000e+01 2.7265e-14 0.0000e+00
  9990012  2    3    3    0    0 -2.0395367154e+01 -1.9710226538e+01 +1.4569144834e+01 5.9301889972e+01 4.9999901415e+01 2.7141e-03 0.0000e+00
      -11  1    4    4    0    0 +6.3066772545e+00 +7.7955218600e+00 +5.5641056258e+00 1.1467502376e+01 5.1100000000e-04 0.0000e+00 1.0000e+00
       11  1    4    4    0    0 -2.5116287903e+01 -3.0506515952e+01 +1.4386927252e+00 3.9541690285e+01 5.1100000000e-04 0.0000e+00 -1.0000e+00
       12  1    4    4    0    0 -1.5857565057e+00 +3.0007675539e+00 +7.5663464827e+00 8.2926973118e+00 0.0000000000e+00 0.0000e+00 -1.0000e+00
      -12  1    3    3    0    0 +2.0395367154e+01 +1.9710226538e+01 -1.4569144834e+01 3.1886110028e+01 0.0000000000e+00 0.0000e+00 1.0000e+00
</event>
<event>
 8      4 +2.2883893e-04 9.11880000e+01 7.81616400e-03 1.18400000e-01
      -11 -1    0    0    0    0 +0.0000000000e+00 +0.0000000000e+00 +4.5593999997e+01 4.5594000000e+01 5.1100000000e-04 0.0000e+00 -1.0000e+00
       11 -1    0    0    0    0 -0.0000000000e+00 -0.0000000000e+00 -4.5593999997e+01 4.5594000000e+01 5.1100000000e-04 0.0000e+00 1.0000e+00
       23  2    1    2    0    0 -1.7763568394e-15 -3.5527136788e-15 +3.5527136788e-15 9.1188000000e+01 9.1188000000e+01 3.1602e-14 0.0000e+00
 -9990012  2    3    3    0    0 +2.9269013651e+00 +2.2576623691e+01 -2.2325909343e+01 5.9302001241e+01 5.0000104343e+01 1.5922e-04 0.0000e+00
      -11  1    4    4    0    0 +4.7314190736e+00 -3.3197431839e+00 +1.7113634233e+00 6.0279172427e+00 5.1100000000e-04 0.0000e+00 1.0000e+00
       11  1    4    4    0    0 +1.5842137534e+01 +9.2525158962e+00 +1.0512657138e+00 1.8376276335e+01 5.1100000000e-04 0.0000e+00 -1.0000e+00
      -12  1    4    4    0    0 -1.7646655243e+01 +1.6643850979e+01 -2.5088538480e+01 3.4897807663e+01 0.0000000000e+00 0.0000e+00 1.0000e+00
       12  1    3    3    0    0 -2.9269013651e+00 -2.2576623691e+01 +2.2325909343e+01 3.1885998759e+01 0.0000000000e+00 0.0000e+00 -1.0000e+00
</event>
<event>
 8      3 +2.2883893e-04 9.11880000e+01 7.81616400e-03 1.18400000e-01
      -11 -1    0    0    0    0 +0.0000000000e+00 +0.0000000000e+00 +4.5593999997e+01 4.5594000000e+01 5.1100000000e-04 0.0000e+00 1.0000e+00
       11 -1    0    0    0    0 -0.0000000000e+00 -0.0000000000e+00 -4.5593999997e+01 4.5594000000e+01 5.1100000000e-04 0.0000e+00 -1.0000e+00
       23  2    1    2    0    0 +3.5527136788e-15 +0.0000000000e+00 +0.0000000000e+00 9.1188000000e+01 9.1188000000e+01 7.9424e-14 0.0000e+00
  9990012  2    3    3    0    0 -2.4512792388e+01 -8.6768282420e+00 -1.8454182808e+01 5.9301934045e+01 4.9999981793e+01 6.0567e-04 0.0000e+00
      -11  1    4    4    0    0 +7.0315542317e+00 +8.1792528965e+00 -7.0509591270e+00 1.2886386527e+01 5.1100000000e-04 0.0000e+00 1.0000e+00
       11  1    4    4    0    0 -1.6019044028e+00 -1.3474219247e+01 -8.7948683976e+00 1.6170046148e+01 5.1100000000e-04 0.0000e+00 -1.0000e+00
       12  1    4    4    0    0 -2.9942442217e+01 -3.3818618910e+00 -2.6083552829e+00 3.0245501369e+01 0.0000000000e+00 0.0000e+00 -1.0000e+00
      -12  1    3    3    0    0 +2.4512792388e+01 +8.6768282420e+00 +1.8454182808e+01 3.1886065955e+01 0.0000000000e+00 0.0000e+00 1.0000e+00
</event>
<event>
 8      4 +2.2883893e-04 9.11880000e+01 7.81616400e-03 1.18400000e-01
      -11 -1    0    0    0    0 +0.0000000000e+00 +0.0000000000e+00 +4.5593999997e+01 4.5594000000e+01 5.1100000000e-04 0.0000e+00 -1.0000e+00
       11 -1    0    0    0    0 -0.0000000000e+00 -0.0000000000e+00 -4.5593999997e+01 4.5594000000e+01 5.1100000000e-04 0.0000e+00 1.0000e+00
       23  2    1    2    0    0 +0.0000000000e+00 -8.8817841970e-16 -2.2204460493e-16 9.1188000000e+01 9.1188000000e+01 8.8607e-14 0.0000e+00
 -9990012  2    3    3    0    0 +3.1778692647e+01 -2.4657391476e+00 -8.6847395227e-01 5.9301961944e+01 5.0000032675e+01 3.3229e-04 0.0000e+00
      -11  1    4    4    0    0 +9.2988939202e+00 -3.7200780994e+00 +1.1247187664e+01 1.5060134123e+01 5.1100000000e-04 0.0000e+00 1.0000e+00
       11  1    4    4    0    0 -7.3423620146e+00 +8.7899482980e+00 -8.5145097646e-01 1.1484704614e+01 5.1100000000e-04 0.0000e+00 -1.0000e+00
      -12  1    4    4    0    0 +2.9822160741e+01 -7.5356093462e+00 -1.1264210640e+01 3.2757123207e+01 0.0000000000e+00 0.0000e+00 1.0000e+00
       12  1    3    3    0    0 -3.1778692647e+01 +2.4657391476e+00 +8.6847395227e-01 3.1886038056e+01 0.0000000000e+00 0.0000e+00 -1.0000e+00
</event>
<event>
 8      3 +2.2883893e-04 9.11880000e+01 7.81616400e-03 1.18400000e-01
      -11 -1    0    0    0    0 +0.0000000000e+00 +0.0000000000e+00 +4.5593999997e+01 4.5594000000e+01 5.1100000000e-04 0.0000e+00 1.0000e+00
       11 -1    0    0    0    0 -0.0000000000e+00 -0.0000000000e+00 -4.5593999997e+01 4.5594000000e+01 5.1100000000e-04 0.0000e+00 -1.0000e+00
       23  2    1    2    0    0 -1.7763568394e-15 +4.4408920985e-16 +0.0000000000e+00 9.1188000000e+01 9.1188000000e+01 1.1116e-13 0.0000e+00
  9990012  2    3    3    0    0 +1.5929632152e+01 +1.8158484142e+00 -2.7562225283e+01 5.9301847073e+01 4.9999823177e+01 2.1657e-03 0.0000e+00
      -11  1    4    4    0    0 +1.8978431859e+01 -4.5073924724e+00 -4.1640232917e+00 1.9945840492e+01 5.1100000000e-04 0.0000e+00 1.0000e+00
       11  1    4    4    0    0 -1.6214847918e+01 +8.3020066045e+00 -1.1851390596e+01 2.1732465714e+01 5.1100000000e-04 0.0000e+00 -1.0000e+00
       12  1    4    4    0    0 +1.3166048212e+01 -1.9787657179e+00 -1.1546811395e+01 1.7623540866e+01 0.0000000000e+00 0.0000e+00 -1.0000e+00
      -12  1    3    3    0    0 -1.5929632152e+01 -1.8158484142e+00 +2.7562225283e+01 3.1886152927e+01 0.0000000000e+00 0.0000e+00 1.0000e+00
</event>
<event>
 8      4 +2.2883893e-04 9.11880000e+01 7.81616400e-03 1.18400000e-01
      -11 -1    0    0    0    0 +0.0000000000e+00 +0.0000000000e+00 +4.5593999997e+01 4.5594000000e+01 5.1100000000e-04 0.0000e+00 1.0000e+00
       11 -1    0    0    0    0 -0.0000000000e+00 -0.0000000000e+00 -4.5593999997e+01 4.5594000000e+01 5.1100000000e-04 0.0000e+00 -1.0000e+00
       23  2    1    2    0    0 +0.0000000000e+00 -3.5527136788e-15 +3.1086244690e-15 9.1188000000e+01 9.1188000000e+01 4.4720e-14 0.0000e+00
 -9990012  2    3    3    0    0 -1.4329396904e+01 -2.8319320801e+01 -3.0641283445e+00 5.9302197065e+01 5.0000461478e+01 7.2297e-05 0.0000e+00
      -11  1    4    4    0    0 -1.2900726591e+01 -1.0908642945e+01 +1.6291728637e+01 2.3470144007e+01 5.1100000000e-04 0.0000e+00 1.0000e+00
       11  1    4    4    0    0 -4.1657014492e+00 +4.0293987444e+00 -1.1421258057e+01 1.2807585981e+01 5.1100000000e-04 0.0000e+00 -1.0000e+00
      -12  1    4    4    0    0 +2.7370311361e+00 -2.1440076601e+01 -7.9345989245e+00 2.3024467077e+01 0.0000000000e+00 0.0000e+00 1.0000e+00
       12  1    3    3    0    0 +1.4329396904e+01 +2.8319320801e+01 +3.0641283445e+00 3.1885802935e+01 0.0000000000e+00 0.0000e+00 -1.0000e+00
</event>
<event>
 8      4 +2.2883893e-04 9.11880000e+01 7.81616400e-03 1.18400000e-01
      -11 -1    0    0    0    0 +0.0000000000e+00 +0.0000000000e+00 +4.5593999997e+01 4.5594000000e+01 5.1100000000e-04 0.0000e+00 1.0000e+00
       11 -1    0    0    0    0 -0.0000000000e+00 -0.0000000000e+00 -4.5593999997e+01 4.5594000000e+01 5.1100000000e-04 0.0000e+00 -1.0000e+00
       23  2    1    2    0    0 +3.5527136788e-15 +0.0000000000e+00 +0.0000000000e+00 9.1188000000e+01 9.1188000000e+01 1.3668e-14 0.0000e+00
 -9990012  2    3    3    0    0 -1.8387487848e+01 +2.5399403103e+01 +5.7871243996e+00 5.9301949819e+01 5.0000010561e+01 6.8257e-04 0.0000e+00
      -11  1    4    4    0    0 -3.3743051070e+01 +1.6649349821e+01 -1.2215188994e+00 3.7646865124e+01 5.1100000000e-04 0.0000e+00 1.0000e+00
       11  1    4    4    0    0 +6.3299683783e-01 -6.5230944118e-01 -1.8553869409e+00 2.0660720136e+00 5.1100000000e-04 0.0000e+00 -1.0000e+00
      -12  1    4    4    0    0 +1.4722566385e+01 +9.4023627241e+00 +8.8640302399e+00 1.9589012681e+01 0.0000000000e+00 0.0000e+00 1.0000e+00
       12  1    3    3    0    0 +1.8387487848e+01 -2.5399403103e+01 -5.7871243996e+00 3.1886050181e+01 0.0000000000e+00 0.0000e+00 -1.0000e+00
</event>
<event>
 8      3 +2.2883893e-04 9.11880000e+01 7.81616400e-03 1.18400000e-01
      -11 -1    0    0    0    0 +0.0000000000e+00 +0.0000000000e+00 +4.5593999997e+01 4.5594000000e+01 5.1100000000e-04 0.0000e+00 -1.0000e+00
       11 -1    0    0    0    0 -0.0000000000e+00 -0.0000000000e+00 -4.5593999997e+01 4.5594000000e+01 5.1100000000e-04 0.0000e+00 1.0000e+00
       23  2    1    2    0    0 +0.0000000000e+00 +0.0000000000e+00 +0.0000000000e+00 9.1188000000e+01 9.1188000000e+01 2.1666e-13 0.0000e+00
  9990012  2    3    3    0    0 -2.2707325622e+01 -1.1797214843e+01 +1.9024291895e+01 5.9301943532e+01 4.9999999096e+01 1.6876e-03 0.0000e+00
      -11  1    4    4    0    0 -2.0111665725e+01 +5.1344730729e+00 -4.8067136443e-01 2.0762296530e+01 5.1100000000e-04 0.0000e+00 1.0000e+00
       11  1    4    4    0    0 -8.7062134101e+00 -1.4488938523e+01 +2.4855213465e+01 3.0058428570e+01 5.1100000000e-04 0.0000e+00 -1.0000e+00
       12  1    4    4    0    0 +6.1105535126e+00 -2.4427493930e+00 -5.3502502058e+00 8.4812184321e+00 0.0000000000e+00 0.0000e+00 -1.0000e+00
      -12  1    3    3    0    0 +2.2707325622e+01 +1.1797214843e+01 -1.9024291895e+01 3.1886056468e+01 0.0000000000e+00 0.0000e+00 1.0000e+00
</event>
<event>
 8      3 +2.2883893e-04 9.11880000e+01 7.81616400e-03 1.18400000e-01
      -11 -1    0    0    0    0 +0.0000000000e+00 +0.0000000000e+00 +4.5593999997e+01 4.5594000000e+01 5.1100000000e-04 0.0000e+00 1.0000e+00
       11 -1    0    0    0    0 -0.0000000000e+00 -0.0000000000e+00 -4.5593999997e+01 4.5594000000e+01 5.1100000000e-04 0.0000e+00 -1.0000e+00
       23  2    1    2    0    0 +3.5527136788e-15 -3.5527136788e-15 +1.7763568394e-15 9.1188000000e+01 9.1188000000e+01 1.7063e-14 0.0000e+00
  9990012  2    3    3    0    0 -1.8881444414e+01 +2.3119842561e+01 -1.1210878192e+01 5.9301955199e+01 5.0000020374e+01 2.4748e-03 0.0000e+00
      -11  1    4    4    0    0 -2.8486803826e+01 +8.1599275853e+00 -1.5200457098e+01 3.3303698093e+01 5.1100000000e-04 0.0000e+00 1.0000e+00
       11  1    4    4    0    0 +1.5211887762e+01 +1.0470844385e+01 +2.2118749393e+00 1.8599260803e+01 5.1100000000e-04 0.0000e+00 -1.0000e+00
       12  1    4    4    0    0 -5.6065283491e+00 +4.4890705905e+00 +1.7777039664e+00 7.3989963028e+00 0.0000000000e+00 0.0000e+00 -1.0000e+00
      -12  1    3    3    0    0 +1.8881444414e+01 -2.3119842561e+01 +1.1210878192e+01 3.1886044801e+01 0.0000000000e+00 0.0000e+00 1.0000e+00
</event>
<event>
 8      3 +2.2883893e-04 9.11880000e+01 7.81616400e-03 1.18400000e-01
      -11 -1    0    0    0    0 +0.0000000000e+00 +0.0000000000e+00 +4.5593999997e+01 4.5594000000e+01 5.1100000000e-04 0.0000e+00 1.0000e+00
       11 -1    0    0    0    0 -0.0000000000e+00 -0.0000000000e+00 -4.5593999997e+01 4.5594000000e+01 5.1100000000e-04 0.0000e+00 -1.0000e+00
       23  2    1    2    0    0 +0.0000000000e+00 +0.0000000000e+00 +0.0000000000e+00 9.1188000000e+01 9.1188000000e+01 1.6363e-13 0.0000e+00
  9990012  2    3    3    0    0 -4.0729802555e+00 -2.2031590305e+01 -2.2687957984e+01 5.9301896804e+01 4.9999913875e+01 3.2347e-04 0.0000e+00
      -11  1    4    4    0    0 -1.8568938145e+01 -4.2588644003e+00 -2.3210016058e+00 1.9191936810e+01 5.1100000000e-04 0.0000e+00 1.0000e+00
       11  1    4    4    0    0 -4.1322707072e+00 -2.4425732929e+00 -1.4510855187e+01 1.5284199161e+01 5.1100000000e-04 0.0000e+00 -1.0000e+00
       12  1    4    4    0    0 +1.8628228596e+01 -1.5330152612e+01 -5.8561011915e+00 2.4825760832e+01 0.0000000000e+00 0.0000e+00 -1.0000e+00
      -12  1    3    3    0    0 +4.0729802555e+00 +2.2031590305e+01 +2.2687957984e+01 3.1886103196e+01 0.0000000000e+00 0.0000e+00 1.0000e+00
</event>
<event>
 8      3 +2.2883893e-04 9.11880000e+01 7.81616400e-03 1.18400000e-01
      -11 -1    0    0    0    0 +0.0000000000e+00 +0.0000000000e+00 +4.5593999997e+01 4.5594000000e+01 5.1100000000e-04 0.0000e+00 1.0000e+00
       11 -1    0    0    0    0 -0.0000000000e+00 -0.0000000000e+00 -4.5593999997e+01 4.5594000000e+01 5.1100000000e-04 0.0000e+00 -1.0000e+00
       23  2    1    2    0    0 -3.5527136788e-15 -8.8817841970e-16 +0.0000000000e+00 9.1188000000e+01 9.1188000000e+01 1.0056e-13 0.0000e+00
  9990012  2    3    3    0    0 +2.5350564625e+01 -7.8585989209e+00 +1.7672347008e+01 5.9301944230e+01 5.0000000369e+01 2.2168e-03 0.0000e+00
      -11  1    4    4    0    0 -7.2497278406e+00 -1.4410168521e+00 +5.3043968695e+00 9.0978958964e+00 5.1100000000e-04 0.0000e+00 -1.0000e+00
       11  1    4    4    0    0 -6.0865875119e+00 +4.7673980518e+00 +5.1536446294e+00 9.2916459765e+00 5.1100000000e-04 0.0000e+00 1.0000e+00
       12  1    4    4    0    0 +3.8686879977e+01 -1.1184980121e+01 +7.2143055093e+00 4.0912402357e+01 0.0000000000e+00 0.0000e+00 -1.0000e+00
      -12  1    3    3    0    0 -2.5350564625e+01 +7.8585989209e+00 -1.7672347008e+01 3.1886055770e+01 0.0000000000e+00 0.0000e+00 1.0000e+00
</event>
<event>
 8      3 +2.2883893e-04 9.11880000e+01 7.81616400e-03 1.18400000e-01
      -11 -1    0    0    0    0 +0.0000000000e+00 +0.0000000000e+00 +4.5593999997e+01 4.5594000000e+01 5.1100000000e-04 0.0000e+00 1.0000e+00
       11 -1    0    0    0    0 -0.0000000000e+00 -0.0000000000e+00 -4.5593999997e+01 4.5594000000e+01 5.1100000000e-04 0.0000e+00 -1.0000e+00
       23  2    1    2    0    0 +0.0000000000e+00 +0.0000000000e+00 +3.5527136788e-15 9.1188000000e+01 9.1188000000e+01 2.6822e-14 0.0000e+00
  9990012  2    3    3    0    0 -1.2489194986e+01 +1.3098204094e+01 -2.6252222930e+01 5.9301919171e+01 4.9999954667e+01 2.9253e-03 0.0000e+00
      -11  1    4    4    0    0 -7.8959314827e+00 +6.6006784974e+00 +1.3275909302e+00 1.0376761949e+01 5.1100000000e-04 0.0000e+00 1.0000e+00
       11  1    4    4    0    0 -1.8081446016e+01 +1.5402982455e-01 -2.8761143225e+01 3.3973015396e+01 5.1100000000e-04 0.0000e+00 -1.0000e+00
       12  1    4    4    0    0 +1.3488182513e+01 +6.3434957719e+00 +1.1813293649e+00 1.4952141826e+01 0.0000000000e+00 0.0000e+00 -1.0000e+00
      -12  1    3    3    0    0 +1.2489194986e+01 -1.3098204094e+01 +2.6252222930e+01 3.1886080829e+01 0.0000000000e+00 0.0000e+00 1.0000e+00
</event>
<event>
 8      4 +2.2883893e-04 9.11880000e+01 7.81616400e-03 1.18400000e-01
      -11 -1    0    0    0    0 +0.0000000000e+00 +0.0000000000e+00 +4.5593999997e+01 4.5594000000e+01 5.1100000000e-04 0.0000e+00 -1.0000e+00
       11 -1    0    0    0    0 -0.0000000000e+00 -0.0000000000e+00 -4.5593999997e+01 4.5594000000e+01 5.1100000000e-04 0.0000e+00 1.0000e+00
       23  2    1    2    0    0 +3.5527136788e-15 +0.0000000000e+00 +3.5527136788e-15 9.1188000000e+01 9.1188000000e+01 2.6716e-13 0.0000e+00
 -9990012  2    3    3    0    0 -2.3109031114e+01 +1.0444248631e+01 -1.9328780318e+01 5.9302087796e+01 5.0000262198e+01 2.6388e-04 0.0000e+00
      -11  1    4    4    0    0 +2.6443140436e+00 +3.3148608824e-01 +2.2814054265e+00 3.5081463437e+00 5.1100000000e-04 0.0000e+00 1.0000e+00
       11  1    4    4    0    0 +8.3176954477e+00 +7.1421898779e+00 +5.3933354998e+00 1.2218142326e+01 5.1100000000e-04 0.0000e+00 -1.0000e+00
      -12  1    4    4    0    0 -3.4071040606e+01 +2.9705726648e+00 -2.7003521244e+01 4.3575799126e+01 0.0000000000e+00 0.0000e+00 1.0000e+00
       12  1    3    3    0    0 +2.3109031114e+01 -1.0444248631e+01 +1.9328780318e+01 3.1885912204e+01 0.0000000000e+00 0.0000e+00 -1.0000e+00
</event>
<event>
 8      3 +2.2883893e-04 9.11880000e+01 7.81616400e-03 1.18400000e-01
      -11 -1    0    0    0    0 +0.0000000000e+00 +0.0000000000e+00 +4.5593999997e+01 4.5594000000e+01 5.1100000000e-04 0.0000e+00 -1.0000e+00
       11 -1    0    0    0    0 -0.0000000000e+00 -0.0000000000e+00 -4.5593999997e+01 4.5594000000e+01 5.1100000000e-04 0.0000e+00 1.0000e+00
       23  2    1    2    0    0 +0.0000000000e+00 -8.8817841970e-16 +0.0000000000e+00 9.1188000000e+01 9.1188000000e+01 2.0779e-13 0.0000e+00
  9990012  2    3    3    0    0 +2.4008597098e+01 +5.4935194230e+00 +2.0251549264e+01 5.9302004048e+01 5.0000109462e+01 1.2019e-03 0.0000e+00
      -11  1    4    4    0    0 +1.3921144573e+01 +1.0069044991e+01 -6.9793090961e-01 1.7195087702e+01 5.1100000000e-04 0.0000e+00 1.0000e+00
       11  1    4    4    0    0 +1.3272801427e+00 -1.4800925833e+01 -2.4975587446e+00 1.5068738435e+01 5.1100000000e-04 0.0000e+00 -1.0000e+00
       12  1    4    4    0    0 +8.7601723831e+00 +1.0225400264e+01 +2.3447038918e+01 2.7038177911e+01 0.0000000000e+00 0.0000e+00 -1.0000e+00
      -12  1    3    3    0    0 -2.4008597098e+01 -5.4935194230e+00 -2.0251549264e+01 3.1885995952e+01 0.0000000000e+00 0.0000e+00 1.0000e+00
</event>
<event>
 8      3 +2.2883893e-04 9.11880000e+01 7.81616400e-03 1.18400000e-01
      -11 -1    0    0    0    0 +0.0000000000e+00 +0.0000000000e+00 +4.5593999997e+01 4.5594000000e+01 5.1100000000e-04 0.0000e+00 1.0000e+00
       11 -1    0    0    0    0 -0.0000000000e+00 -0.0000000000e+00 -4.5593999997e+01 4.5594000000e+01 5.1100000000e-04 0.0000e+00 -1.0000e+00
       23  2    1    2    0    0 +0.0000000000e+00 +0.0000000000e+00 -8.8817841970e-16 9.1188000000e+01 9.1188000000e+01 7.8282e-14 0.0000e+00
  9990012  2    3    3    0    0 +3.9752121179e+00 +3.1449167435e+01 +3.4484032220e+00 5.9301577678e+01 4.9999331861e+01 1.3409e-03 0.0000e+00
      -11  1    4    4    0    0 +2.5554688742e+00 +2.4350506122e+01 +1.6292558337e+01 2.9409607733e+01 5.1100000000e-04 0.0000e+00 1.0000e+00
       11  1    4    4    0    0 -3.0256582750e+00 +5.7161488395e-02 +7.4038635565e+00 7.9984418018e+00 5.1100000000e-04 0.0000e+00 -1.0000e+00
       12  1    4    4    0    0 +4.4454015186e+00 +7.0414998241e+00 -2.0248018671e+01 2.1893528143e+01 0.0000000000e+00 0.0000e+00 -1.0000e+00
      -12  1    3    3    0    0 -3.9752121179e+00 -3.1449167435e+01 -3.4484032220e+00 3.1886422322e+01 0.0000000000e+00 0.0000e+00 1.0000e+00
</event>
<event>
 8      3 +2.2883893e-04 9.11880000e+01 7.81616400e-03 1.18400000e-01
      -11 -1    0    0    0    0 +0.0000000000e+00 +0.0000000000e+00 +4.5593999997e+01 4.5594000000e+01 5.1100000000e-04 0.0000e+00 1.0000e+00
       11 -1    0    0    0    0 -0.0000000000e+00 -0.0000000000e+00 -4.5593999997e+01 4.5594000000e+01 5.1100000000e-04 0.0000e+00 -1.0000e+00
       23  2    1    2    0    0 -3.5527136788e-15 +4.4408920985e-16 +1.3322676296e-15 9.1188000000e+01 9.1188000000e+01 1.6210e-13 0.0000e+00
  9990012  2    3    3    0    0 +3.1610638118e+01 +2.3734656576e+00 -3.4456578016e+00 5.9301665322e+01 4.9999491706e+01 2.6362e-03 0.0000e+00
      -11  1    4    4    0    0 -4.1715283319e+00 +1.3428164025e+01 -2.3346535022e+00 1.4253695834e+01 5.1100000000e-04 0.0000e+00 1.0000e+00
       11  1    4    4    0    0 +2.5093097297e+01 -5.6834895702e+00 -1.2434533888e+01 2.8575920264e+01 5.1100000000e-04 0.0000e+00 -1.0000e+00
       12  1    4    4    0    0 +1.0689069153e+01 -5.3712087970e+00 +1.1323529588e+01 1.6472049224e+01 0.0000000000e+00 0.0000e+00 -1.0000e+00
      -12  1    3    3    0    0 -3.1610638118e+01 -2.3734656576e+00 +3.4456578016e+00 3.1886334678e+01 0.0000000000e+00 0.0000e+00 1.0000e+00
</event>
<event>
 8      3 +2.2883893e-04 9.11880000e+01 7.81616400e-03 1.18400000e-01
      -11 -1    0    0    0    0 +0.0000000000e+00 +0.0000000000e+00 +4.5593999997e+01 4.5594000000e+01 5.1100000000e-04 0.0000e+00 -1.0000e+00
       11 -1    0    0    0    0 -0.0000000000e+00 -0.0000000000e+00 -4.5593999997e+01 4.5594000000e+01 5.1100000000e-04 0.0000e+00 1.0000e+00
       23  2    1    2    0    0 +0.0000000000e+00 +0.0000000000e+00 +0.0000000000e+00 9.1188000000e+01 9.1188000000e+01 2.5339e-14 0.0000e+00
  9990012  2    3    3    0    0 +2.3230600356e+01 -8.8543355617e+00 +1.9966440991e+01 5.9301971445e+01 5.0000050003e+01 3.1750e-03 0.0000e+00
      -11  1    4    4    0    0 +2.7316573396e+01 +2.9189439191e+00 -2.6009638402e+00 2.7594934840e+01 5.1100000000e-04 0.0000e+00 1.0000e+00
       11  1    4    4    0    0 -1.0774917599e+01 -9.0205612277e+00 +1.9027478341e+01 2.3654054756e+01 5.1100000000e-04 0.0000e+00 -1.0000e+00
       12  1    4    4    0    0 +6.6889445597e+00 -2.7527182531e+00 +3.5399264899e+00 8.0529818488e+00 0.0000000000e+00 0.0000e+00 -1.0000e+00
      -12  1    3    3    0    0 -2.3230600356e+01 +8.8543355617e+00 -1.9966440991e+01 3.1886028555e+01 0.0000000000e+00 0.0000e+00 1.0000e+00
</event>
<event>
 8      3 +2.2883893e-04 9.11880000e+01 7.81616400e-03 1.18400000e-01
      -11 -1    0    0    0    0 +0.0000000000e+00 +0.0000000000e+00 +4.5593999997e+01 4.5594000000e+01 5.1100000000e-04 0.0000e+00 1.0000e+00
       11 -1    0    0    0    0 -0.0000000000e+00 -0.0000000000e+00 -4.5593999997e+01 4.5594000000e+01 5.1100000000e-04 0.0000e+00 -1.0000e+00
       23  2    1    2    0    0 +0.0000000000e+00 +0.0000000000e+00 +0.0000000000e+00 9.1188000000e+01 9.1188000000e+01 4.7776e-15 0.0000e+00
  9990012  2    3    3    0    0 -3.0432955142e+01 +4.7861135270e+00 -8.2249649910e+00 5.9301926387e+01 4.9999967827e+01 3.1236e-03 0.0000e+00
      -11  1    4    4    0    0 -4.0521826518e+00 +1.4980300516e+01 -1.1635664827e+01 1.9396347182e+01 5.1100000000e-04 0.0000e+00 1.0000e+00
       11  1    4    4    0    0 +8.4101696740e-02 -1.0467337372e+01 -5.6951169485e+00 1.1916651462e+01 5.1100000000e-04 0.0000e+00 -1.0000e+00
       12  1    4    4    0    0 -2.6464874187e+01 +2.7315038309e-01 +9.1058167844e+00 2.7988927743e+01 0.0000000000e+00 0.0000e+00 -1.0000e+00
      -12  1    3    3    0    0 +3.0432955142e+01 -4.7861135270e+00 +8.2249649910e+00 3.1886073613e+01 0.0000000000e+00 0.0000e+00 1.0000e+00
</event>
<event>
 8      3 +2.2883893e-04 9.11880000e+01 7.81616400e-03 1.18400000e-01
      -11 -1    0    0    0    0 +0.0000000000e+00 +0.0000000000e+00 +4.5593999997e+01 4.5594000000e+01 5.1100000000e-04 0.0000e+00 1.0000e+00
       11 -1    0    0    0    0 -0.0000000000e+00 -0.0000000000e+00 -4.5593999997e+01 4.5594000000e+01 5.1100000000e-04 0.0000e+00 -1.0000e+00
       23  2    1    2    0    0 +0.0000000000e+00 +0.0000000000e+00 -4.4408920985e-16 9.1188000000e+01 9.1188000000e+01 3.4889e-14 0.0000e+00
  9990012  2    3    3    0    0 -2.2008505924e+01 +2.2994787030e+01 +1.8935358046e+00 5.9301952245e+01 5.0000014987e+01 5.7365e-04 0.0000e+00
      -11  1    4    4    0    0 -1.1650885298e+01 -3.9464811190e+00 -3.2023105455e+00 1.2711122474e+01 5.1100000000e-04 0.0000e+00 1.0000e+00
       11  1    4    4    0    0 -9.8479740226e+00 +2.8118865806e+01 +1.7211319423e+01 3.4407596880e+01 5.1100000000e-04 0.0000e+00 -1.0000e+00
       12  1    4    4    0    0 -5.0964660356e-01 -1.1775976564e+00 -1.2115473073e+01 1.2183232891e+01 0.0000000000e+00 0.0000e+00 -1.0000e+00
      -12  1    3    3    0    0 +2.2008505924e+01 -2.2994787030e+01 -1.8935358046e+00 3.1886047755e+01 0.0000000000e+00 0.0000e+00 1.0000e+00
</event>
<event>
 8      4 +2.2883893e-04 9.11880000e+01 7.81616400e-03 1.18400000e-01
      -11 -1    0    0    0    0 +0.0000000000e+00 +0.0000000000e+00 +4.5593999997e+01 4.5594000000e+01 5.1100000000e-04 0.0000e+00 1.0000e+00
       11 -1    0    0    0    0 -0.0000000000e+00 -0.0000000000e+00 -4.5593999997e+01 4.5594000000e+01 5.1100000000e-04 0.0000e+00 -1.0000e+00
       23  2    1    2    0    0 +3.5527136788e-15 +1.5543122345e-15 +0.0000000000e+00 9.1188000000e+01 9.1188000000e+01 1.4388e-13 0.0000e+00
 -9990012  2    3    3    0    0 +2.0976894967e+01 -1.7404387454e+00 +2.3951181144e+01 5.9301979118e+01 5.0000063997e+01 3.4649e-03 0.0000e+00
      -11  1    4    4    0    0 -3.6652944963e+00 -3.0394632313e+00 +1.6243934379e+01 1.6927437043e+01 5.1100000000e-04 0.0000e+00 1.0000e+00
       11  1    4    4    0    0 +2.9552969553e+00 -1.4514750253e+01 +3.2854198490e+00 1.5172532381e+01 5.1100000000e-04 0.0000e+00 -1.0000e+00
      -12  1    4    4    0    0 +2.1686892508e+01 +1.5813774739e+01 +4.4218269159e+00 2.7202009694e+01 0.0000000000e+00 0.0000e+00 1.0000e+00
       12  1    3    3    0    0 -2.0976894967e+01 +1.7404387454e+00 -2.3951181144e+01 3.1886020882e+01 0.0000000000e+00 0.0000e+00 -1.0000e+00
</event>
<event>
 8      4 +2.2883893e-04 9.11880000e+01 7.81616400e-03 1.18400000e-01
      -11 -1    0    0    0    0 +0.0000000000e+00 +0.0000000000e+00 +4.5593999997e+01 4.5594000000e+01 5.1100000000e-04 0.0000e+00 -1.0000e+00
       11 -1    0    0    0    0 -0.0000000000e+00 -0.0000000000e+00 -4.5593999997e+01 4.5594000000e+01 5.1100000000e-04 0.0000e+00 1.0000e+00
       23  2    1    2    0    0 -3.5527136788e-15 -3.5527136788e-15 +0.0000000000e+00 9.1188000000e+01 9.1188000000e+01 2.9998e-14 0.0000e+00
 -9990012  2    3    3    0    0 -2.2789852159e+01 -1.8839397593e+01 -1.1934415864e+01 5.9301787539e+01 4.9999714601e+01 3.1703e-03 0.0000e+00
      -11  1    4    4    0    0 -1.8989968313e+01 +9.9793295259e+00 -1.6421116560e+01 2.7015902421e+01 5.1100000000e-04 0.0000e+00 1.0000e+00
       11  1    4    4    0    0 -5.0187031349e-01 -1.6804701724e+01 +8.9574018532e+00 1.9049538631e+01 5.1100000000e-04 0.0000e+00 -1.0000e+00
      -12  1    4    4    0    0 -3.2980135323e+00 -1.2014025396e+01 -4.4707011575e+00 1.3236346486e+01 0.0000000000e+00 0.0000e+00 1.0000e+00
       12  1    3    3    0    0 +2.2789852159e+01 +1.8839397593e+01 +1.1934415864e+01 3.1886212461e+01 0.0000000000e+00 0.0000e+00 -1.0000e+00
</event>
<event>
 8      3 +2.2883893e-04 9.11880000e+01 7.81616400e-03 1.18400000e-01
      -11 -1    0    0    0    0 +0.0000000000e+00 +0.0000000000e+00 +4.5593999997e+01 4.5594000000e+01 5.1100000000e-04 0.0000e+00 1.0000e+00
       11 -1    0    0    0    0 -0.0000000000e+00 -0.0000000000e+00 -4.5593999997e+01 4.5594000000e+01 5.1100000000e-04 0.0000e+00 -1.0000e+00
       23  2    1    2    0    0 +0.0000000000e+00 +0.0000000000e+00 -3.5527136788e-15 9.1188000000e+01 9.1188000000e+01 1.4255e-13 0.0000e+00
  9990012  2    3    3    0    0 -2.1409030318e+01 -1.5350478147e+01 -1.7964945258e+01 5.9301905592e+01 4.9999929902e+01 9.8195e-04 0.0000e+00
      -11  1    4    4    0    0 +2.9878881831e+00 +9.9131238068e+00 -7.7174335791e-01 1.0382344989e+01 5.1100000000e-04 0.0000e+00 1.0000e+00
       11  1    4    4    0    0 -2.7156228642e+00 -2.2339193103e+01 -2.6729661869e+00 2.2661838066e+01 5.1100000000e-04 0.0000e+00 -1.0000e+00
       12  1    4    4    0    0 -2.1681295637e+01 -2.9244088503e+00 -1.4520235714e+01 2.6257722536e+01 0.0000000000e+00 0.0000e+00 -1.0000e+00
      -12  1    3    3    0    0 +2.1409030318e+01 +1.5350478147e+01 +1.7964945258e+01 3.1886094408e+01 0.0000000000e+00 0.0000e+00 1.0000e+00
</event>
<event>
 8      4 +2.2883893e-04 9.11880000e+01 7.81616400e-03 1.18400000e-01
      -11 -1    0    0    0    0 +0.0000000000e+00 +0.0000000000e+00 +4.5593999997e+01 4.5594000000e+01 5.1100000000e-04 0.0000e+00 1.0000e+00
       11 -1    0    0    0    0 -0.0000000000e+00 -0.0000000000e+00 -4.5593999997e+01 4.5594000000e+01 5.1100000000e-04 0.0000e+00 -1.0000e+00
       23  2    1    2    0    0 +0.0000000000e+00 +0.0000000000e+00 +0.0000000000e+00 9.1188000000e+01 9.1188000000e+01 1.5729e-13 0.0000e+00
 -9990012  2    3    3    0    0 -2.6502585907e+01 -1.5826117442e+01 +7.9918185818e+00 5.9301918125e+01 4.9999952760e+01 2.6018e-04 0.0000e+00
      -11  1    4    4    0    0 -1.8141681571e+01 -2.5947320510e+01 +1.2121154906e+01 3.3901422513e+01 5.1100000000e-04 0.0000e+00 1.0000e+00
       11  1    4    4    0    0 +6.8400836091e+00 +4.8178149998e+00 +1.1772885836e+00 8.4489108068e+00 5.1100000000e-04 0.0000e+00 -1.0000e+00
      -12  1    4    4    0    0 -1.5200987945e+01 +5.3033880680e+00 -5.3066249081e+00 1.6951584806e+01 0.0000000000e+00 0.0000e+00 1.0000e+00
       12  1    3    3    0    0 +2.6502585907e+01 +1.5826117442e+01 -7.9918185818e+00 3.1886081875e+01 0.0000000000e+00 0.0000e+00 -1.0000e+00
</event>
<event>
 8      4 +2.2883893e-04 9.11880000e+01 7.81616400e-03 1.18400000e-01
      -11 -1    0    0    0    0 +0.0000000000e+00 +0.0000000000e+00 +4.5593999997e+01 4.5594000000e+01 5.1100000000e-04 0.0000e+00 1.0000e+00
       11 -1    0    0    0    0 -0.0000000000e+00 -0.0000000000e+00 -4.5593999997e+01 4.5594000000e+01 5.1100000000e-04 0.0000e+00 -1.0000e+00
       23  2    1    2    0    0 +0.0000000000e+00 -1.7763568394e-15 +0.0000000000e+00 9.1188000000e+01 9.1188000000e+01 5.0647e-14 0.0000e+00
 -9990012  2    3    3    0    0 +1.6635687723e+01 +1.4245666051e+01 +2.3174059458e+01 5.9301919353e+01 4.9999955000e+01 1.7220e-03 0.0000e+00
      -11  1    4    4    0    0 +2.5771656050e+01 -4.2779274092e+00 +1.7814409257e+01 3.1620121694e+01 5.1100000000e-04 0.0000e+00 1.0000e+00
       11  1    4    4    0    0 +8.2778395193e-01 +1.6554677037e+01 +9.3003040568e-01 1.6601431110e+01 5.1100000000e-04 0.0000e+00 -1.0000e+00
      -12  1    4    4    0    0 -9.9637522788e+00 +1.9689164237e+00 +4.4296197946e+00 1.1080366550e+01 0.0000000000e+00 0.0000e+00 1.0000e+00
       12  1    3    3    0    0 -1.6635687723e+01 -1.4245666051e+01 -2.3174059458e+01 3.1886080647e+01 0.0000000000e+00 0.0000e+00 -1.0000e+00
</event>
<event>
 8      4 +2.2883893e-04 9.11880000e+01 7.81616400e-03 1.18400000e-01
      -11 -1    0    0    0    0 +0.0000000000e+00 +0.0000000000e+00 +4.5593999997e+01 4.5594000000e+01 5.1100000000e-04 0.0000e+00 -1.0000e+00
       11 -1    0    0    0    0 -0.0000000000e+00 -0.0000000000e+00 -4.5593999997e+01 4.5594000000e+01 5.1100000000e-04 0.0000e+00 1.0000e+00
       23  2    1    2    0    0 +0.0000000000e+00 +3.5527136788e-15 +0.0000000000e+00 9.1188000000e+01 9.1188000000e+01 1.2335e-13 0.0000e+00
 -9990012  2    3    3    0    0 -2.6010878354e+01 +2.5865840987e+00 -1.8261038123e+01 5.9301925871e+01 4.9999966886e+01 7.2398e-04 0.0000e+00
      -11  1    4    4    0    0 -2.3953224490e+01 -1.5744746128e+01 -4.0532826016e-01 2.8667373186e+01 5.1100000000e-04 0.0000e+00 1.0000e+00
       11  1    4    4    0    0 +4.2382828982e+00 -1.0295984215e+00 -1.8516241870e+00 4.7383148087e+00 5.1100000000e-04 0.0000e+00 -1.0000e+00
      -12  1    4    4    0    0 -6.2959367624e+00 +1.9360928648e+01 -1.6004085676e+01 2.5896237877e+01 0.0000000000e+00 0.0000e+00 1.0000e+00
       12  1    3    3    0    0 +2.6010878354e+01 -2.5865840987e+00 +1.8261038123e+01 3.1886074129e+01 0.0000000000e+00 0.0000e+00 -1.0000e+00
</event>
<event>
 8      4 +2.2883893e-04 9.11880000e+01 7.81616400e-03 1.18400000e-01
      -11 -1    0    0    0    0 +0.0000000000e+00 +0.0000000000e+00 +4.5593999997e+01 4.5594000000e+01 5.1100000000e-04 0.0000e+00 1.0000e+00
       11 -1    0    0    0    0 -0.0000000000e+00 -0.0000000000e+00 -4.5593999997e+01 4.5594000000e+01 5.1100000000e-04 0.0000e+00 -1.0000e+00
       23  2    1    2    0    0 -1.7763568394e-15 +7.1054273576e-15 -1.7763568394e-15 9.1188000000e+01 9.1188000000e+01 7.2914e-14 0.0000e+00
 -9990012  2    3    3    0    0 -3.0964964141e+00 -3.0041363937e+01 +1.0229774348e+01 5.9301951006e+01 5.0000012726e+01 1.1094e-03 0.0000e+00
      -11  1    4    4    0    0 -1.5658660454e+01 -1.4288776009e+01 +4.8082967223e+00 2.1736662225e+01 5.1100000000e-04 0.0000e+00 1.0000e+00
       11  1    4    4    0    0 -3.4516521603e+00 -1.4195535626e+01 -7.9613657933e+00 1.6637622423e+01 5.1100000000e-04 0.0000e+00 -1.0000e+00
      -12  1    4    4    0    0 +1.6013816201e+01 -1.5570523017e+00 +1.3382843419e+01 2.0927666357e+01 0.0000000000e+00 0.0000e+00 1.0000e+00
       12  1    3    3    0    0 +3.0964964141e+00 +3.0041363937e+01 -1.0229774348e+01 3.1886048994e+01 0.0000000000e+00 0.0000e+00 -1.0000e+00
</event>
<event>
 8      4 +2.2883893e-04 9.11880000e+01 7.81616400e-03 1.18400000e-01
      -11 -1    0    0    0    0 +0.0000000000e+00 +0.0000000000e+00 +4.5593999997e+01 4.5594000000e+01 5.1100000000e-04 0.0000e+00 1.0000e+00
       11 -1    0    0    0    0 -0.0000000000e+00 -0.0000000000e+00 -4.5593999997e+01 4.5594000000e+01 5.1100000000e-04 0.0000e+00 -1.0000e+00
       23  2    1    2    0    0 +3.5527136788e-15 +0.0000000000e+00 -8.8817841970e-16 9.1188000000e+01 9.1188000000e+01 2.6734e-14 0.0000e+00
 -9990012  2    3    3    0    0 -1.8857470699e+01 +2.4445690633e+01 +7.9703020211e+00 5.9301926144e+01 4.9999967384e+01 4.0644e-03 0.0000e+00
      -11  1    4    4    0    0 -2.2773361144e+01 +1.2635782644e+01 +1.8823889977e+01 3.2134526836e+01 5.1100000000e-04 0.0000e+00 1.0000e+00
       11  1    4    4    0    0 -1.4261365404e+00 +1.6208659814e+01 -1.1913837305e+01 2.0166656589e+01 5.1100000000e-04 0.0000e+00 -1.0000e+00
      -12  1    4    4    0    0 +5.3420269855e+00 -4.3987518253e+00 +1.0602493493e+00 7.0007427190e+00 0.0000000000e+00 0.0000e+00 1.0000e+00
       12  1    3    3    0    0 +1.8857470699e+01 -2.4445690633e+01 -7.9703020211e+00 3.1886073856e+01 0.0000000000e+00 0.0000e+00 -1.0000e+00
</event>
<event>
 8      3 +2.2883893e-04 9.11880000e+01 7.81616400e-03 1.18400000e-01
      -11 -1    0    0    0    0 +0.0000000000e+00 +0.0000000000e+00 +4.5593999997e+01 4.5594000000e+01 5.1100000000e-04 0.0000e+00 -1.0000e+00
       11 -1    0    0    0    0 -0.0000000000e+00 -0.0000000000e+00 -4.5593999997e+01 4.5594000000e+01 5.1100000000e-04 0.0000e+00 1.0000e+00
       23  2    1    2    0    0 +2.2204460493e-16 +8.8817841970e-16 +0.0000000000e+00 9.1188000000e+01 9.1188000000e+01 3.8103e-14 0.0000e+00
  9990012  2    3    3    0    0 -1.8112687322e-01 +4.2865470514e+00 +3.1596091086e+01 5.9301948748e+01 5.0000008608e+01 1.8027e-03 0.0000e+00
      -11  1    4    4    0    0 +1.9722958768e+00 -7.3702656788e+00 -3.3274508626e+00 8.3236228114e+00 5.1100000000e-04 0.0000e+00 1.0000e+00
       11  1    4    4    0    0 +1.0082109771e+01 -3.5327670460e+00 +2.8510689166e+01 3.0446490395e+01 5.1100000000e-04 0.0000e+00 -1.0000e+00
       12  1    4    4    0    0 -1.2235532521e+01 +1.5189579776e+01 +6.4128527827e+00 2.0531835541e+01 0.0000000000e+00 0.0000e+00 -1.0000e+00
      -12  1    3    3    0    0 +1.8112687322e-01 -4.2865470514e+00 -3.1596091086e+01 3.1886051252e+01 0.0000000000e+00 0.0000e+00 1.0000e+00
</event>
<event>
 8      3 +2.2883893e-04 9.11880000e+01 7.81616400e-03 1.18400000e-01
      -11 -1    0    0    0    0 +0.0000000000e+00 +0.0000000000e+00 +4.5593999997e+01 4.5594000000e+01 5.1100000000e-04 0.0000e+00 -1.0000e+00
       11 -1    0    0    0    0 -0.0000000000e+00 -0.0000000000e+00 -4.5593999997e+01 4.5594000000e+01 5.1100000000e-04 0.0000e+00 1.0000e+00
       23  2    1    2    0    0 +0.0000000000e+00 +0.0000000000e+00 +0.0000000000e+00 9.1188000000e+01 9.1188000000e+01 1.4684e-14 0.0000e+00
  9990012  2    3    3    0    0 +2.0389662328e+01 -6.0646274319e+00 +2.3752948848e+01 5.9301943255e+01 4.9999998591e+01 1.4709e-03 0.0000e+00
      -11  1    4    4    0    0 +4.6957220381e+00 +6.2919720058e+00 -1.6907737662e+00 8.0310294091e+00 5.1100000000e-04 0.0000e+00 1.0000e+00
       11  1    4    4    0    0 -9.8369474573e+00 -9.4863077208e+00 +2.1212012618e+01 2.5233015060e+01 5.1100000000e-04 0.0000e+00 -1.0000e+00
       12  1    4    4    0    0 +2.5530887747e+01 -2.8702917169e+00 +4.2317099966e+00 2.6037898786e+01 0.0000000000e+00 0.0000e+00 -1.0000e+00
      -12  1    3    3    0    0 -2.0389662328e+01 +6.0646274319e+00 -2.3752948848e+01 3.1886056745e+01 0.0000000000e+00 0.0000e+00 1.0000e+00
</event>
<event>
 8      3 +2.2883893e-04 9.11880000e+01 7.81616400e-03 1.18400000e-01
      -11 -1    0    0    0    0 +0.0000000000e+00 +0.0000000000e+00 +4.5593999997e+01 4.5594000000e+01 5.1100000000e-04 0.0000e+00 -1.0000e+00
       11 -1    0    0    0    0 -0.0000000000e+00 -0.0000000000e+00 -4.5593999997e+01 4.5594000000e+01 5.1100000000e-04 0.0000e+00 1.0000e+00
       23  2    1    2    0    0 -1.7763568394e-15 +0.0000000000e+00 +0.0000000000e+00 9.1188000000e+01 9.1188000000e+01 1.8335e-13 0.0000e+00
  9990012  2    3    3    0    0 +3.1377925668e+00 +2.6892745687e+01 +1.6842166075e+01 5.9301889060e+01 4.9999899752e+01 2.7768e-03 0.0000e+00
      -11  1    4    4    0    0 +3.9351777867e+00 -6.2615961832e+00 -2.3697337413e+00 7.7658772358e+00 5.1100000000e-04 0.0000e+00 1.0000e+00
       11  1    4    4    0    0 -1.4533554698e+01 +2.9099313136e+01 +8.4083558999e+00 3.3596051648e+01 5.1100000000e-04 0.0000e+00 -1.0000e+00
       12  1    4    4    0    0 +1.3736169478e+01 +4.0550287341e+00 +1.0803543916e+01 1.7939960176e+01 0.0000000000e+00 0.0000e+00 -1.0000e+00
      -12  1    3    3    0    0 -3.1377925668e+00 -2.6892745687e+01 -1.6842166075e+01 3.1886110940e+01 0.0000000000e+00 0.0000e+00 1.0000e+00
</event>
<event>
 8      3 +2.2883893e-04 9.11880000e+01 7.81616400e-03 1.18400000e-01
      -11 -1    0    0    0    0 +0.0000000000e+00 +0.0000000000e+00 +4.5593999997e+01 4.5594000000e+01 5.1100000000e-04 0.0000e+00 -1.0000e+00
       11 -1    0    0    0    0 -0.0000000000e+00 -0.0000000000e+00 -4.5593999997e+01 4.5594000000e+01 5.1100000000e-04 0.0000e+00 1.0000e+00
       23  2    1    2    0    0 +0.0000000000e+00 -3.5527136788e-15 +4.4408920985e-16 9.1188000000e+01 9.1188000000e+01 7.2463e-14 0.0000e+00
  9990012  2    3    3    0    0 +2.6832446064e+01 +1.6771083730e+01 +3.9333449031e+00 5.9301943277e+01 4.9999998630e+01 1.2005e-03 0.0000e+00
      -11  1    4    4    0    0 +2.0942144535e+01 -6.5306050571e-01 +3.7968723363e+00 2.1293570521e+01 5.1100000000e-04 0.0000e+00 1.0000e+00
       11  1    4    4    0    0 +4.7352178783e+00 -8.9034868703e+00 +4.9268588833e+00 1.1223560287e+01 5.1100000000e-04 0.0000e+00 -1.0000e+00
       12  1    4    4    0    0 +1.1550836506e+00 +2.6327631106e+01 -4.7903863165e+00 2.6784812468e+01 0.0000000000e+00 0.0000e+00 -1.0000e+00
      -12  1    3    3    0    0 -2.6832446064e+01 -1.6771083730e+01 -3.9333449031e+00 3.1886056723e+01 0.0000000000e+00 0.0000e+00 1.0000e+00
</event>
<event>
 8      4 +2.2883893e-04 9.11880000e+01 7.81616400e-03 1.18400000e-01
      -11 -1    0    0    0    0 +0.0000000000e+00 +0.0000000000e+00 +4.5593999997e+01 4.5594000000e+01 5.1100000000e-04 0.0000e+00 1.0000e+00
       11 -1    0    0    0    0 -0.0000000000e+00 -0.0000000000e+00 -4.5593999997e+01 4.5594000000e+01 5.1100000000e-04 0.0000e+00 -1.0000e+00
       23  2    1    2    0    0 +0.0000000000e+00 +0.0000000000e+00 +0.0000000000e+00 9.1188000000e+01 9.1188000000e+01 2.2133e-14 0.0000e+00
 -9990012  2    3    3    0    0 +1.9533622815e+01 +1.3172655481e+01 -2.1485813334e+01 5.9301930199e+01 4.9999974780e+01 1.3316e-03 0.0000e+00
      -11  1    4    4    0    0 +1.1756577351e+01 -4.2870956754e+00 -8.9028124392e+00 1.5357616023e+01 5.1100000000e-04 0.0000e+00 1.0000e+00
       11  1    4    4    0    0 +6.8102034913e+00 +2.6865996301e+01 -1.7998975556e+01 3.3047295656e+01 5.1100000000e-04 0.0000e+00 -1.0000e+00
      -12  1    4    4    0    0 +9.6684197316e-01 -9.4062451436e+00 +5.4159746615e+00 1.0897018521e+01 0.0000000000e+00 0.0000e+00 1.0000e+00
       12  1    3    3    0    0 -1.9533622815e+01 -1.3172655481e+01 +2.1485813334e+01 3.1886069801e+01 0.0000000000e+00 0.0000e+00 -1.0000e+00
</event>
<event>
 8      3 +2.2883893e-04 9.11880000e+01 7.81616400e-03 1.18400000e-01
      -11 -1    0    0    0    0 +0.0000000000e+00 +0.0000000000e+00 +4.5593999997e+01 4.5594000000e+01 5.1100000000e-04 0.0000e+00 -1.0000e+00
       11 -1    0    0    0    0 -0.0000000000e+00 -0.0000000000e+00 -4.5593999997e+01 4.5594000000e+01 5.1100000000e-04 0.0000e+00 1.0000e+00
       23  2    1    2    0    0 +0.0000000000e+00 +8.8817841970e-16 +3.5527136788e-15 9.1188000000e+01 9.1188000000e+01 5.0669e-15 0.0000e+00
  9990012  2    3    3    0    0 +2.4735470411e+01 -6.3015368977e+00 +1.9109343952e+01 5.9301954620e+01 5.0000019318e+01 5.0868e-04 0.0000e+00
      -11  1    4    4    0    0 -2.2855849525e+00 +2.4461418318e+00 +1.0791019425e+00 3.5173810853e+00 5.1100000000e-04 0.0000e+00 1.0000e+00
       11  1    4    4    0    0 +2.5231677455e+01 +7.1902551769e+00 -5.9813758120e+00 2.6909369624e+01 5.1100000000e-04 0.0000e+00 -1.0000e+00
       12  1    4    4    0    0 +1.7893779086e+00 -1.5937933906e+01 +2.4011617821e+01 2.8875203911e+01 0.0000000000e+00 0.0000e+00 -1.0000e+00
      -12  1    3    3    0    0 -2.4735470411e+01 +6.3015368977e+00 -1.9109343952e+01 3.1886045380e+01 0.0000000000e+00 0.0000e+00 1.0000e+00
</event>
<event>
 8      4 +2.2883893e-04 9.11880000e+01 7.81616400e-03 1.18400000e-01
      -11 -1    0    0    0    0 +0.0000000000e+00 +0.0000000000e+00 +4.5593999997e+01 4.5594000000e+01 5.1100000000e-04 0.0000e+00 -1.0000e+00
       11 -1    0    0    0    0 -0.0000000000e+00 -0.0000000000e+00 -4.5593999997e+01 4.5594000000e+01 5.1100000000e-04 0.0000e+00 1.0000e+00
       23  2    1    2    0    0 -3.5527136788e-15 +0.0000000000e+00 -3.5527136788e-15 9.1188000000e+01 9.1188000000e+01 2.2990e-14 0.0000e+00
 -9990012  2    3    3    0    0 -1.8798814165e+01 -8.4579804552e+00 -2.4326655873e+01 5.9301968053e+01 5.0000043816e+01 1.3284e-04 0.0000e+00
      -11  1    4    4    0    0 -2.2727707557e+01 +1.2836647521e+00 -1.7378907073e+01 2.8639533818e+01 5.1100000000e-04 0.0000e+00 1.0000e+00
       11  1    4    4    0    0 -9.2311549830e+00 -2.7144235654e+00 +5.6309441413e+00 1.1148535769e+01 5.1100000000e-04 0.0000e+00 -1.0000e+00
      -12  1    4    4    0    0 +1.3160048375e+01 -7.0272216419e+00 -1.2578692941e+01 1.9513898466e+01 0.0000000000e+00 0.0000e+00 1.0000e+00
       12  1    3    3    0    0 +1.8798814165e+01 +8.4579804552e+00 +2.4326655873e+01 3.1886031947e+01 0.0000000000e+00 0.0000e+00 -1.0000e+00
</event>
<event>
 8      3 +2.2883893e-04 9.11880000e+01 7.81616400e-03 1.18400000e-01
      -11 -1    0    0    0    0 +0.0000000000e+00 +0.0000000000e+00 +4.5593999997e+01 4.5594000000e+01 5.1100000000e-04 0.0000e+00 -1.0000e+00
       11 -1    0    0    0    0 -0.0000000000e+00 -0.0000000000e+00 -4.5593999997e+01 4.5594000000e+01 5.1100000000e-04 0.0000e+00 1.0000e+00
       23  2    1    2    0    0 -3.5527136788e-15 -1.1102230246e-15 +3.5527136788e-15 9.1188000000e+01 9.1188000000e+01 1.9777e-14 0.0000e+00
  9990012  2    3    3    0    0 +2.4460919772e+01 +1.9792523737e+00 +2.0358416496e+01 5.9301966094e+01 5.0000040244e+01 5.0142e-04 0.0000e+00
      -11  1    4    4    0    0 +2.1099301077e+01 -9.5008600689e+00 -8.5345388603e-01 2.3155457927e+01 5.1100000000e-04 0.0000e+00 1.0000e+00
       11  1    4    4    0    0 +9.7282680006e-01 -8.7503330445e+00 +7.7498697753e+00 1.1729245592e+01 5.1100000000e-04 0.0000e+00 -1.0000e+00
       12  1    4    4    0    0 +2.3887918945e+00 +2.0230445487e+01 +1.3462000606e+01 2.4417262575e+01 0.0000000000e+00 0.0000e+00 -1.0000e+00
      -12  1    3    3    0    0 -2.4460919772e+01 -1.9792523737e+00 -2.0358416496e+01 3.1886033906e+01 0.0000000000e+00 0.0000e+00 1.0000e+00
</event>
<event>
 8      4 +2.2883893e-04 9.11880000e+01 7.81616400e-03 1.18400000e-01
      -11 -1    0    0    0    0 +0.0000000000e+00 +0.0000000000e+00 +4.5593999997e+01 4.5594000000e+01 5.1100000000e-04 0.0000e+00 1.0000e+00
       11 -1    0    0    0    0 -0.0000000000e+00 -0.0000000000e+00 -4.5593999997e+01 4.5594000000e+01 5.1100000000e-04 0.0000e+00 -1.0000e+00
       23  2    1    2    0    0 +3.5527136788e-15 -8.8817841970e-16 +0.0000000000e+00 9.1188000000e+01 9.1188000000e+01 8.3943e-14 0.0000e+00
 -9990012  2    3    3    0    0 -1.9944790844e+01 -4.1163078679e+00 +2.4535315112e+01 5.9301947251e+01 5.0000005878e+01 3.7622e-03 0.0000e+00
      -11  1    4    4    0    0 +1.6285996526e+00 +1.6932302161e+01 +5.2071056776e+00 1.7789579621e+01 5.1100000000e-04 0.0000e+00 1.0000e+00
       11  1    4    4    0    0 +3.3302469691e+00 -3.6799007965e+00 -8.7929181614e-01 5.0403739054e+00 5.1100000000e-04 0.0000e+00 -1.0000e+00
      -12  1    4    4    0    0 -2.4903637466e+01 -1.7368709232e+01 +2.0207501251e+01 3.6471993724e+01 0.0000000000e+00 0.0000e+00 1.0000e+00
       12  1    3    3    0    0 +1.9944790844e+01 +4.1163078679e+00 -2.4535315112e+01 3.1886052749e+01 0.0000000000e+00 0.0000e+00 -1.0000e+00
</event>
<event>
 8      3 +2.2883893e-04 9.11880000e+01 7.81616400e-03 1.18400000e-01
      -11 -1    0    0    0    0 +0.0000000000e+00 +0.0000000000e+00 +4.5593999997e+01 4.5594000000e+01 5.1100000000e-04 0.0000e+00 1.0000e+00
       11 -1    0    0    0    0 -0.0000000000e+00 -0.0000000000e+00 -4.5593999997e+01 4.5594000000e+01 5.1100000000e-04 0.0000e+00 -1.0000e+00
       23  2    1    2    0    0 -6.6613381478e-16 +0.0000000000e+00 +0.0000000000e+00 9.1188000000e+01 9.1188000000e+01 2.8691e-14 0.0000e+00
  9990012  2    3    3    0    0 +1.6780507672e+00 -2.7400526692e+01 -1.6220846049e+01 5.9301944052e+01 5.0000000044e+01 1.2640e-03 0.0000e+00
      -11  1    4    4    0    0 +1.3582515860e+01 -3.7150579192e+01 -1.6923402276e+01 4.3023851713e+01 5.1100000000e-04 0.0000e+00 -1.0000e+00
       11  1    4    4    0    0 -7.0655446621e+00 +2.9461673241e+00 +1.7809098954e+00 7.8596096335e+00 5.1100000000e-04 0.0000e+00 1.0000e+00
       12  1    4    4    0    0 -4.8389204303e+00 +6.8038851758e+00 -1.0783536684e+00 8.4184827048e+00 0.0000000000e+00 0.0000e+00 -1.0000e+00
      -12  1    3    3    0    0 -1.6780507672e+00 +2.7400526692e+01 +1.6220846049e+01 3.1886055948e+01 0.0000000000e+00 0.0000e+00 1.0000e+00
</event>
<event>
 8      4 +2.2883893e-04 9.11880000e+01 7.81616400e-03 1.18400000e-01
      -11 -1    0    0    0    0 +0.0000000000e+00 +0.0000000000e+00 +4.5593999997e+01 4.5594000000e+01 5.1100000000e-04 0.0000e+00 1.0000e+00
       11 -1    0    0    0    0 -0.0000000000e+00 -0.0000000000e+00 -4.5593999997e+01 4.5594000000e+01 5.1100000000e-04 0.0000e+00 -1.0000e+00
       23  2    1    2    0    0 +0.0000000000e+00 +0.0000000000e+00 +0.0000000000e+00 9.1188000000e+01 9.1188000000e+01 2.3583e-14 0.0000e+00
 -9990012  2    3    3    0    0 -1.8585571604e+01 -1.2645419302e+01 +2.2613944101e+01 5.9301943973e+01 4.9999999900e+01 4.3291e-04 0.0000e+00
      -11  1    4    4    0    0 -1.1618502066e+01 -4.4007113884e-01 +2.5309090070e+01 2.7851989037e+01 5.1100000000e-04 0.0000e+00 1.0000e+00
       11  1    4    4    0    0 -3.7614250492e+00 -1.1196046474e+01 +1.1725461874e+01 1.6642903336e+01 5.1100000000e-04 0.0000e+00 -1.0000e+00
      -12  1    4    4    0    0 -3.2056444891e+00 -1.0093016893e+00 -1.4420607843e+01 1.4807051599e+01 0.0000000000e+00 0.0000e+00 1.0000e+00
       12  1    3    3    0    0 +1.8585571604e+01 +1.2645419302e+01 -2.2613944101e+01 3.1886056027e+01 0.0000000000e+00 0.0000e+00 -1.0000e+00
</event>
<event>
 8      3 +2.2883893e-04 9.11880000e+01 7.81616400e-03 1.18400000e-01
      -11 -1    0    0    0    0 +0.0000000000e+00 +0.0000000000e+00 +4.5593999997e+01 4.5594000000e+01 5.1100000000e-04 0.0000e+00 1.0000e+00
       11 -1    0    0    0    0 -0.0000000000e+00 -0.0000000000e+00 -4.5593999997e+01 4.5594000000e+01 5.1100000000e-04 0.0000e+00 -1.0000e+00
       23  2    1    2    0    0 +0.0000000000e+00 -2.2204460493e-16 -7.1054273576e-15 9.1188000000e+01 9.1188000000e+01 1.3591e-14 0.0000e+00
  9990012  2    3    3    0    0 -4.0190134835e+00 +1.7915674642e+00 -3.1580964753e+01 5.9301960451e+01 5.0000029953e+01 1.5116e-03 0.0000e+00
      -11  1    4    4    0    0 +6.4186585404e+00 +8.4379225961e+00 -3.1835964872e+01 3.3554826400e+01 5.1100000000e-04 0.0000e+00 1.0000e+00
       11  1    4    4    0    0 -4.0500903507e+00 +6.6432766920e+00 -5.9045391893e+00 9.7672893043e+00 5.1100000000e-04 0.0000e+00 -1.0000e+00
       12  1    4    4    0    0 -6.3875816733e+00 -1.3289631824e+01 +6.1595393076e+00 1.5979844747e+01 0.0000000000e+00 0.0000e+00 -1.0000e+00
      -12  1    3    3    0    0 +4.0190134835e+00 -1.7915674642e+00 +3.1580964753e+01 3.1886039549e+01 0.0000000000e+00 0.0000e+00 1.0000e+00
</event>
<event>
 8      4 +2.2883893e-04 9.11880000e+01 7.81616400e-03 1.18400000e-01
      -11 -1    0    0    0    0 +0.0000000000e+00 +0.0000000000e+00 +4.5593999997e+01 4.5594000000e+01 5.1100000000e-04 0.0000e+00 1.0000e+00
       11 -1    0    0    0    0 -0.0000000000e+00 -0.0000000000e+00 -4.5593999997e+01 4.5594000000e+01 5.1100000000e-04 0.0000e+00 -1.0000e+00
       23  2    1    2    0    0 +0.0000000000e+00 -1.1102230246e-16 -3.5527136788e-15 9.1188000000e+01 9.1188000000e+01 5.3557e-14 0.0000e+00
 -9990012  2    3    3    0    0 +2.0841515913e+01 -5.4876501447e-01 +2.4125708784e+01 5.9301956769e+01 5.0000023238e+01 1.7257e-03 0.0000e+00
      -11  1    4    4    0    0 +2.4502725664e+01 +3.1893392174e+00 +2.4096057569e+01 3.4513409571e+01 5.1100000000e-04 0.0000e+00 1.0000e+00
       11  1    4    4    0    0 -2.0842069320e+00 +2.9717941911e+00 +1.1138520240e+01 1.1715037885e+01 5.1100000000e-04 0.0000e+00 -1.0000e+00
      -12  1    4    4    0    0 -1.5770028191e+00 -6.7098984229e+00 -1.1108869025e+01 1.3073509313e+01 0.0000000000e+00 0.0000e+00 1.0000e+00
       12  1    3    3    0    0 -2.0841515913e+01 +5.4876501447e-01 -2.4125708784e+01 3.1886043231e+01 0.0000000000e+00 0.0000e+00 -1.0000e+00
</event>
<event>
 8      4 +2.2883893e-04 9.11880000e+01 7.81616400e-03 1.18400000e-01
      -11 -1    0    0    0    0 +0.0000000000e+00 +0.0000000000e+00 +4.5593999997e+01 4.5594000000e+01 5.1100000000e-04 0.0000e+00 -1.0000e+00
       11 -1    0    0    0    0 -0.0000000000e+00 -0.0000000000e+00 -4.5593999997e+01 4.5594000000e+01 5.1100000000e-04 0.0000e+00 1.0000e+00
       23  2    1    2    0    0 +1.7763568394e-15 -3.5527136788e-15 +3.1086244690e-15 9.1188000000e+01 9.1188000000e+01 2.2726e-15 0.0000e+00
 -9990012  2    3    3    0    0 -1.3886650086e+01 +2.8473267300e+01 -3.6262213654e+00 5.9302023729e+01 5.0000145356e+01 2.5369e-03 0.0000e+00
      -11  1    4    4    0    0 +2.0094885960e+00 +1.6863468712e+01 -8.8216977212e+00 1.9137318840e+01 5.1100000000e-04 0.0000e+00 1.0000e+00
       11  1    4    4    0    0 -1.7681451943e+01 +1.8342043049e+01 +1.3895780532e+01 2.9019941470e+01 5.1100000000e-04 0.0000e+00 -1.0000e+00
      -12  1    4    4    0    0 +1.7853132610e+00 -6.7322444611e+00 -8.7003041766e+00 1.1144763420e+01 0.0000000000e+00 0.0000e+00 1.0000e+00
       12  1    3    3    0    0 +1.3886650086e+01 -2.8473267300e+01 +3.6262213654e+00 3.1885976271e+01 0.0000000000e+00 0.0000e+00 -1.0000e+00
</event>
<event>
 8      4 +2.2883893e-04 9.11880000e+01 7.81616400e-03 1.18400000e-01
      -11 -1    0    0    0    0 +0.0000000000e+00 +0.0000000000e+00 +4.5593999997e+01 4.5594000000e+01 5.1100000000e-04 0.0000e+00 1.0000e+00
       11 -1    0    0    0    0 -0.0000000000e+00 -0.0000000000e+00 -4.5593999997e+01 4.5594000000e+01 5.1100000000e-04 0.0000e+00 -1.0000e+00
       23  2    1    2    0    0 -3.5527136788e-15 +0.0000000000e+00 +0.0000000000e+00 9.1188000000e+01 9.1188000000e+01 2.5665e-14 0.0000e+00
 -9990012  2    3    3    0    0 -1.7132268024e+01 +1.9532575535e+01 -1.8484715270e+01 5.9301940142e+01 4.9999992913e+01 2.3251e-04 0.0000e+00
      -11  1    4    4    0    0 +4.3461200308e+00 +6.3188718602e-01 -7.1726947955e+00 8.4104453882e+00 5.1100000000e-04 0.0000e+00 1.0000e+00
       11  1    4    4    0    0 -9.1124827643e+00 +6.3689797796e+00 -2.5798454723e+01 2.8092018651e+01 5.1100000000e-04 0.0000e+00 -1.0000e+00
      -12  1    4    4    0    0 -1.2365905290e+01 +1.2531708570e+01 +1.4486434248e+01 2.2799476102e+01 0.0000000000e+00 0.0000e+00 1.0000e+00
       12  1    3    3    0    0 +1.7132268024e+01 -1.9532575535e+01 +1.8484715270e+01 3.1886059858e+01 0.0000000000e+00 0.0000e+00 -1.0000e+00
</event>
<event>
 8      3 +2.2883893e-04 9.11880000e+01 7.81616400e-03 1.18400000e-01
      -11 -1    0    0    0    0 +0.0000000000e+00 +0.0000000000e+00 +4.5593999997e+01 4.5594000000e+01 5.1100000000e-04 0.0000e+00 1.0000e+00
       11 -1    0    0    0    0 -0.0000000000e+00 -0.0000000000e+00 -4.5593999997e+01 4.5594000000e+01 5.1100000000e-04 0.0000e+00 -1.0000e+00
       23  2    1    2    0    0 +3.5527136788e-15 +3.5527136788e-15 +0.0000000000e+00 9.1188000000e+01 9.1188000000e+01 7.5129e-14 0.0000e+00
  9990012  2    3    3    0    0 -1.6068192561e+01 -2.2291162431e+01 -1.6175215520e+01 5.9301947692e+01 5.0000006682e+01 2.3473e-04 0.0000e+00
      -11  1    4    4    0    0 -1.1800493849e+01 +9.0355531499e+00 -1.5507979170e+00 1.4943153959e+01 5.1100000000e-04 0.0000e+00 1.0000e+00
       11  1    4    4    0    0 +2.4553153922e+00 +1.7370428705e+00 +4.6224835949e+00 5.5148206186e+00 5.1100000000e-04 0.0000e+00 -1.0000e+00
       12  1    4    4    0    0 -6.7230141038e+00 -3.3063758452e+01 -1.9246901198e+01 3.8843973114e+01 0.0000000000e+00 0.0000e+00 -1.0000e+00
      -12  1    3    3    0    0 +1.6068192561e+01 +2.2291162431e+01 +1.6175215520e+01 3.1886052308e+01 0.0000000000e+00 0.0000e+00 1.0000e+00
</event>
<event>
 8      4 +2.2883893e-04 9.11880000e+01 7.81616400e-03 1.18400000e-01
      -11 -1    0    0    0    0 +0.0000000000e+00 +0.0000000000e+00 +4.5593999997e+01 4.5594000000e+01 5.1100000000e-04 0.0000e+00 -1.0000e+00
       11 -1    0    0    0    0 -0.0000000000e+00 -0.0000000000e+00 -4.5593999997e+01 4.5594000000e+01 5.1100000000e-04 0.0000e+00 1.0000e+00
       23  2    1    2    0    0 +0.0000000000e+00 -1.7763568394e-15 +1.7763568394e-15 9.1188000000e+01 9.1188000000e+01 6.0448e-15 0.0000e+00
 -9990012  2    3    3    0    0 +2.5926405352e+01 -1.5908918342e+01 -9.5632587762e+00 5.9301825947e+01 4.9999784649e+01 2.4125e-03 0.0000e+00
      -11  1    4    4    0    0 +2.0792158862e+01 +2.5415716836e+00 -2.5946783946e+01 3.3346799759e+01 5.1100000000e-04 0.0000e+00 1.0000e+00
       11  1    4    4    0    0 -3.4088892698e-03 -4.9964392222e+00 +7.5710111338e+00 9.0710873863e+00 5.1100000000e-04 0.0000e+00 -1.0000e+00
      -12  1    4    4    0    0 +5.1376553793e+00 -1.3454050804e+01 +8.8125140360e+00 1.6883938802e+01 0.0000000000e+00 0.0000e+00 1.0000e+00
       12  1    3    3    0    0 -2.5926405352e+01 +1.5908918342e+01 +9.5632587762e+00 3.1886174053e+01 0.0000000000e+00 0.0000e+00 -1.0000e+00
</event>
<event>
 8      3 +2.2883893e-04 9.11880000e+01 7.81616400e-03 1.18400000e-01
      -11 -1    0    0    0    0 +0.0000000000e+00 +0.0000000000e+00 +4.5593999997e+01 4.5594000000e+01 5.1100000000e-04 0.0000e+00 1.0000e+00
       11 -1    0    0    0    0 -0.0000000000e+00 -0.0000000000e+00 -4.5593999997e+01 4.5594000000e+01 5.1100000000e-04 0.0000e+00 -1.0000e+00
       23  2    1    2    0    0 +0.0000000000e+00 +0.0000000000e+00 +0.0000000000e+00 9.1188000000e+01 9.1188000000e+01 6.2398e-14 0.0000e+00
  9990012  2    3    3    0    0 -6.1798984249e+00 -2.4665455486e+01 -1.9239150501e+01 5.9301941121e+01 4.9999994698e+01 1.2005e-03 0.0000e+00
      -11  1    4    4    0    0 -2.2036607810e+01 -1.4739270291e+01 -1.1633905198e+01 2.8951786178e+01 5.1100000000e-04 0.0000e+00 1.0000e+00
       11  1    4    4    0    0 +2.1297761995e+01 -9.4494714567e+00 -8.5266105009e+00 2.4811091546e+01 5.1100000000e-04 0.0000e+00 -1.0000e+00
       12  1    4    4    0    0 -5.4410526094e+00 -4.7671373849e-01 +9.2136519821e-01 5.5390633969e+00 0.0000000000e+00 0.0000e+00 -1.0000e+00
      -12  1    3    3    0    0 +6.1798984249e+00 +2.4665455486e+01 +1.9239150501e+01 3.1886058879e+01 0.0000000000e+00 0.0000e+00 1.0000e+00
</event>
<event>
 8      3 +2.2883893e-04 9.11880000e+01 7.81616400e-03 1.18400000e-01
      -11 -1    0    0    0    0 +0.0000000000e+00 +0.0000000000e+00 +4.5593999997e+01 4.5594000000e+01 5.1100000000e-04 0.0000e+00 1.0000e+00
       11 -1    0    0    0    0 -0.0000000000e+00 -0.0000000000e+00 -4.5593999997e+01 4.5594000000e+01 5.1100000000e-04 0.0000e+00 -1.0000e+00
       23  2    1    2    0    0 +0.0000000000e+00 +1.1102230246e-16 +0.0000000000e+00 9.1188000000e+01 9.1188000000e+01 1.4463e-13 0.0000e+00
  9990012  2    3    3    0    0 +2.9123597904e+01 -7.4702160768e-01 -1.2960669970e+01 5.9301937807e+01 4.9999988654e+01 1.8795e-04 0.0000e+00
      -11  1    4    4    0    0 -2.1040608597e+00 +2.7877243704e+00 +1.0958423879e+01 1.1501544829e+01 5.1100000000e-04 0.0000e+00 1.0000e+00
       11  1    4    4    0    0 +1.6001648248e+01 -1.5964827722e+00 -2.7666585346e+01 3.2000647632e+01 5.1100000000e-04 0.0000e+00 -1.0000e+00
       12  1    4    4    0    0 +1.5226010516e+01 -1.9382632059e+00 +3.7474914970e+00 1.5799745346e+01 0.0000000000e+00 0.0000e+00 -1.0000e+00
      -12  1    3    3    0    0 -2.9123597904e+01 +7.4702160768e-01 +1.2960669970e+01 3.1886062193e+01 0.0000000000e+00 0.0000e+00 1.0000e+00
</event>
<event>
 8      4 +2.2883893e-04 9.11880000e+01 7.81616400e-03 1.18400000e-01
      -11 -1    0    0    0    0 +0.0000000000e+00 +0.0000000000e+00 +4.5593999997e+01 4.5594000000e+01 5.1100000000e-04 0.0000e+00 -1.0000e+00
       11 -1    0    0    0    0 -0.0000000000e+00 -0.0000000000e+00 -4.5593999997e+01 4.5594000000e+01 5.1100000000e-04 0.0000e+00 1.0000e+00
       23  2    1    2    0    0 +0.0000000000e+00 +0.0000000000e+00 +0.0000000000e+00 9.1188000000e+01 9.1188000000e+01 5.9943e-14 0.0000e+00
 -9990012  2    3    3    0    0 -1.8431262909e+01 -1.5193557928e+01 -2.1122594883e+01 5.9301958077e+01 5.0000025622e+01 1.1465e-03 0.0000e+00
      -11  1    4    4    0    0 +9.2010620200e+00 -5.5885428391e+00 -2.5247726114e+01 2.7447022198e+01 5.1100000000e-04 0.0000e+00 1.0000e+00
       11  1    4    4    0    0 +1.1282735669e+00 -1.0362797234e+00 +5.7264627658e-01 1.6354818636e+00 5.1100000000e-04 0.0000e+00 -1.0000e+00
      -12  1    4    4    0    0 -2.8760598496e+01 -8.5687353656e+00 +3.5524849544e+00 3.0219454015e+01 0.0000000000e+00 0.0000e+00 1.0000e+00
       12  1    3    3    0    0 +1.8431262909e+01 +1.5193557928e+01 +2.1122594883e+01 3.1886041923e+01 0.0000000000e+00 0.0000e+00 -1.0000e+00
</event>
<event>
 8      3 +2.2883893e-04 9.11880000e+01 7.81616400e-03 1.18400000e-01
      -11 -1    0    0    0    0 +0.0000000000e+00 +0.0000000000e+00 +4.5593999997e+01 4.5594000000e+01 5.1100000000e-04 0.0000e+00 1.0000e+00
       11 -1    0    0    0    0 -0.0000000000e+00 -0.0000000000e+00 -4.5593999997e+01 4.5594000000e+01 5.1100000000e-04 0.0000e+00 -1.0000e+00
       23  2    1    2    0    0 +0.0000000000e+00 +3.5527136788e-15 +3.5527136788e-15 9.1188000000e+01 9.1188000000e+01 2.1482e-14 0.0000e+00
  9990012  2    3    3    0    0 +3.4740551950e+00 -2.0105559717e+01 -2.4503325411e+01 5.9302022718e+01 5.0000143511e+01 1.5311e-03 0.0000e+00
      -11  1    4    4    0    0 +3.4287573043e-01 -9.3250500844e+00 +1.4011907431e+00 9.4359662252e+00 5.1100000000e-04 0.0000e+00 1.0000e+00
       11  1    4    4    0    0 +1.8263819185e+01 -1.6973698638e+01 -9.4363070666e+00 2.6659284086e+01 5.1100000000e-04 0.0000e+00 -1.0000e+00
       12  1    4    4    0    0 -1.5132639721e+01 +6.1931890048e+00 -1.6468209088e+01 2.3206772406e+01 0.0000000000e+00 0.0000e+00 -1.0000e+00
      -12  1    3    3    0    0 -3.4740551950e+00 +2.0105559717e+01 +2.4503325411e+01 3.1885977282e+01 0.0000000000e+00 0.0000e+00 1.0000e+00
</event>
<event>
 8      4 +2.2883893e-04 9.11880000e+01 7.81616400e-03 1.18400000e-01
      -11 -1    0    0    0    0 +0.0000000000e+00 +0.0000000000e+00 +4.5593999997e+01 4.5594000000e+01 5.1100000000e-04 0.0000e+00 -1.0000e+00
       11 -1    0    0    0    0 -0.0000000000e+00 -0.0000000000e+00 -4.5593999997e+01 4.5594000000e+01 5.1100000000e-04 0.0000e+00 1.0000e+00
       23  2    1    2    0    0 -3.5527136788e-15 +8.8817841970e-16 +0.0000000000e+00 9.1188000000e+01 9.1188000000e+01 9.1406e-14 0.0000e+00
 -9990012  2    3    3    0    0 +1.6756187203e+01 +1.5315650518e+00 -2.7085011122e+01 5.9302057509e+01 5.0000206961e+01 7.8668e-05 0.0000e+00
      -11  1    4    4    0    0 +2.0794755353e+01 +5.8344651610e+00 -2.4048674660e+01 3.2323390711e+01 5.1100000000e-04 0.0000e+00 1.0000e+00
       11  1    4    4    0    0 -2.9880664717e+00 +1.0048895372e+01 -6.2890704407e+00 1.2225434418e+01 5.1100000000e-04 0.0000e+00 -1.0000e+00
      -12  1    4    4    0    0 -1.0505016778e+00 -1.4351795481e+01 +3.2527339791e+00 1.4753232380e+01 0.0000000000e+00 0.0000e+00 1.0000e+00
       12  1    3    3    0    0 -1.6756187203e+01 -1.5315650518e+00 +2.7085011122e+01 3.1885942491e+01 0.0000000000e+00 0.0000e+00 -1.0000e+00
</event>
<event>
 8      3 +2.2883893e-04 9.11880000e+01 7.81616400e-03 1.18400000e-01
      -11 -1    0    0    0    0 +0.0000000000e+00 +0.0000000000e+00 +4.5593999997e+01 4.5594000000e+01 5.1100000000e-04 0.0000e+00 1.0000e+00
       11 -1    0    0    0    0 -0.0000000000e+00 -0.0000000000e+00 -4.5593999997e+01 4.5594000000e+01 5.1100000000e-04 0.0000e+00 -1.0000e+00
       23  2    1    2    0    0 +3.5527136788e-15 +3.5527136788e-15 +0.0000000000e+00 9.1188000000e+01 9.1188000000e+01 8.1519e-14 0.0000e+00
  9990012  2    3    3    0    0 -8.8183688335e+00 -2.9499581168e+01 -8.2900957807e+00 5.9302037477e+01 5.0000170428e+01 3.7418e-03 0.0000e+00
      -11  1    4    4    0    0 +1.5034274513e+01 -1.6654194260e+01 -1.6717245235e+01 2.7979597658e+01 5.1100000000e-04 0.0000e+00 1.0000e+00
       11  1    4    4    0    0 -1.3210861762e+01 -3.7741803553e+00 +1.0358033193e+01 1.7206398744e+01 5.1100000000e-04 0.0000e+00 -1.0000e+00
       12  1    4    4    0    0 -1.0641781584e+01 -9.0712065526e+00 -1.9308837384e+00 1.4116041074e+01 0.0000000000e+00 0.0000e+00 -1.0000e+00
      -12  1    3    3    0    0 +8.8183688335e+00 +2.9499581168e+01 +8.2900957807e+00 3.1885962523e+01 0.0000000000e+00 0.0000e+00 1.0000e+00
</event>
<event>
 8      4 +2.2883893e-04 9.11880000e+01 7.81616400e-03 1.18400000e-01
      -11 -1    0    0    0    0 +0.0000000000e+00 +0.0000000000e+00 +4.5593999997e+01 4.5594000000e+01 5.1100000000e-04 0.0000e+00 -1.0000e+00
       11 -1    0    0    0    0 -0.0000000000e+00 -0.0000000000e+00 -4.5593999997e+01 4.5594000000e+01 5.1100000000e-04 0.0000e+00 1.0000e+00
       23  2    1    2    0    0 -3.5527136788e-15 +0.0000000000e+00 -3.5527136788e-15 9.1188000000e+01 9.1188000000e+01 2.8410e-14 0.0000e+00
 -9990012  2    3    3    0    0 +1.8141794234e+01 +1.9138421903e+01 +1.7925333286e+01 5.9301929932e+01 4.9999974293e+01 4.3621e-04 0.0000e+00
      -11  1    4    4    0    0 +1.4674677328e+01 +2.2363311149e+01 -5.8454447453e+00 2.7379427765e+01 5.1100000000e-04 0.0000e+00 1.0000e+00
       11  1    4    4    0    0 -4.0290402762e+00 +3.8230998736e+00 +2.0327260633e+01 2.1072417595e+01 5.1100000000e-04 0.0000e+00 -1.0000e+00
      -12  1    4    4    0    0 +7.4961571828e+00 -7.0479891199e+00 +3.4435173978e+00 1.0850084572e+01 0.0000000000e+00 0.0000e+00 1.0000e+00
       12  1    3    3    0    0 -1.8141794234e+01 -1.9138421903e+01 -1.7925333286e+01 3.1886070068e+01 0.0000000000e+00 0.0000e+00 -1.0000e+00
</event>
<event>
 8      3 +2.2883893e-04 9.11880000e+01 7.81616400e-03 1.18400000e-01
      -11 -1    0    0    0    0 +0.0000000000e+00 +0.0000000000e+00 +4.5593999997e+01 4.5594000000e+01 5.1100000000e-04 0.0000e+00 1.0000e+00
       11 -1    0    0    0    0 -0.0000000000e+00 -0.0000000000e+00 -4.5593999997e+01 4.5594000000e+01 5.1100000000e-04 0.0000e+00 -1.0000e+00
       23  2    1    2    0    0 +0.0000000000e+00 -8.8817841970e-16 +0.0000000000e+00 9.1188000000e+01 9.1188000000e+01 1.3706e-14 0.0000e+00
  9990012  2    3    3    0    0 +1.3228725790e+01 -7.6259100893e+00 -2.7992256766e+01 5.9301950863e+01 5.0000012465e+01 2.0637e-03 0.0000e+00
      -11  1    4    4    0    0 -4.8568483666e+00 -1.0073840175e+01 +9.9691064850e+00 1.4981799501e+01 5.1100000000e-04 0.0000e+00 1.0000e+00
       11  1    4    4    0    0 +9.6786043333e+00 -1.6768720696e+00 -7.2382844302e+00 1.2201641018e+01 5.1100000000e-04 0.0000e+00 -1.0000e+00
       12  1    4    4    0    0 +8.4069698236e+00 +4.1248021554e+00 -3.0723078821e+01 3.2118510343e+01 0.0000000000e+00 0.0000e+00 -1.0000e+00
      -12  1    3    3    0    0 -1.3228725790e+01 +7.6259100893e+00 +2.7992256766e+01 3.1886049137e+01 0.0000000000e+00 0.0000e+00 1.0000e+00
</event>
<event>
 8      4 +2.2883893e-04 9.11880000e+01 7.81616400e-03 1.18400000e-01
      -11 -1    0    0    0    0 +0.0000000000e+00 +0.0000000000e+00 +4.5593999997e+01 4.5594000000e+01 5.1100000000e-04 0.0000e+00 -1.0000e+00
       11 -1    0    0    0    0 -0.0000000000e+00 -0.0000000000e+00 -4.5593999997e+01 4.5594000000e+01 5.1100000000e-04 0.0000e+00 1.0000e+00
       23  2    1    2    0    0 +0.0000000000e+00 +0.0000000000e+00 +0.0000000000e+00 9.1188000000e+01 9.1188000000e+01 1.4547e-13 0.0000e+00
 -9990012  2    3    3    0    0 -8.5512158216e+00 +1.7425166518e+01 -2.5297436941e+01 5.9301952330e+01 5.0000015142e+01 2.2263e-03 0.0000e+00
      -11  1    4    4    0    0 +3.6298326388e-01 +1.8454127924e+01 -9.4811147217e+00 2.0750376645e+01 5.1100000000e-04 0.0000e+00 1.0000e+00
       11  1    4    4    0    0 +1.7293104069e+00 +1.2339149918e+01 +3.3218876171e+00 1.2894963079e+01 5.1100000000e-04 0.0000e+00 -1.0000e+00
      -12  1    4    4    0    0 -1.0643509492e+01 -1.3368111325e+01 -1.9138209836e+01 2.5656612606e+01 0.0000000000e+00 0.0000e+00 1.0000e+00
       12  1    3    3    0    0 +8.5512158216e+00 -1.7425166518e+01 +2.5297436941e+01 3.1886047670e+01 0.0000000000e+00 0.0000e+00 -1.0000e+00
</event>
<event>
 8      4 +2.2883893e-04 9.11880000e+01 7.81616400e-03 1.18400000e-01
      -11 -1    0    0    0    0 +0.0000000000e+00 +0.0000000000e+00 +4.5593999997e+01 4.5594000000e+01 5.1100000000e-04 0.0000e+00 1.0000e+00
       11 -1    0    0    0    0 -0.0000000000e+00 -0.0000000000e+00 -4.5593999997e+01 4.5594000000e+01 5.1100000000e-04 0.0000e+00 -1.0000e+00
       23  2    1    2    0    0 -7.1054273576e-15 -1.7763568394e-15 +0.0000000000e+00 9.1188000000e+01 9.1188000000e+01 5.7653e-14 0.0000e+00
 -9990012  2    3    3    0    0 +2.8249990953e+01 -1.4297075441e+01 -3.7753676011e+00 5.9301925366e+01 4.9999965965e+01 1.1944e-03 0.0000e+00
      -11  1    4    4    0    0 -3.9920106559e+00 -1.3338232714e+00 +4.0388116594e+00 5.8332866788e+00 5.1100000000e-04 0.0000e+00 1.0000e+00
       11  1    4    4    0    0 -2.5117742070e+00 -1.6153623914e+01 -8.7781081107e+00 1.8555423937e+01 5.1100000000e-04 0.0000e+00 -1.0000e+00
      -12  1    4    4    0    0 +3.4753775816e+01 +3.1903717439e+00 +9.6392885026e-01 3.4913214750e+01 0.0000000000e+00 0.0000e+00 1.0000e+00
       12  1    3    3    0    0 -2.8249990953e+01 +1.4297075441e+01 +3.7753676011e+00 3.1886074634e+01 0.0000000000e+00 0.0000e+00 -1.0000e+00
</event>
<event>
 8      3 +2.2883893e-04 9.11880000e+01 7.81616400e-03 1.18400000e-01
      -11 -1    0    0    0    0 +0.0000000000e+00 +0.0000000000e+00 +4.5593999997e+01 4.5594000000e+01 5.1100000000e-04 0.0000e+00 1.0000e+00
       11 -1    0    0    0    0 -0.0000000000e+00 -0.0000000000e+00 -4.5593999997e+01 4.5594000000e+01 5.1100000000e-04 0.0000e+00 -1.0000e+00
       23  2    1    2    0    0 -3.5527136788e-15 -3.5527136788e-15 +0.0000000000e+00 9.1188000000e+01 9.1188000000e+01 1.4748e-13 0.0000e+00
  9990012  2    3    3    0    0 +2.4677836430e+01 +1.6414526953e+01 +1.1759726715e+01 5.9301898351e+01 4.9999916697e+01 3.8768e-03 0.0000e+00
      -11  1    4    4    0    0 +1.2426901801e+00 -1.2694721508e+01 +8.7751775520e-01 1.2785549293e+01 5.1100000000e-04 0.0000e+00 1.0000e+00
       11  1    4    4    0    0 +8.7123674366e+00 -1.4022051831e+00 -3.7821868212e+00 9.6008574168e+00 5.1100000000e-04 0.0000e+00 -1.0000e+00
       12  1    4    4    0    0 +1.4722778813e+01 +3.0511453645e+01 +1.4664395781e+01 3.6915491641e+01 0.0000000000e+00 0.0000e+00 -1.0000e+00
      -12  1    3    3    0    0 -2.4677836430e+01 -1.6414526953e+01 -1.1759726715e+01 3.1886101649e+01 0.0000000000e+00 0.0000e+00 1.0000e+00
</event>
<event>
 8      3 +2.2883893e-04 9.11880000e+01 7.81616400e-03 1.18400000e-01
      -11 -1    0    0    0    0 +0.0000000000e+00 +0.0000000000e+00 +4.5593999997e+01 4.5594000000e+01 5.1100000000e-04 0.0000e+00 1.0000e+00
       11 -1    0    0    0    0 -0.0000000000e+00 -0.0000000000e+00 -4.5593999997e+01 4.5594000000e+01 5.1100000000e-04 0.0000e+00 -1.0000e+00
       23  2    1    2    0    0 +0.0000000000e+00 +0.0000000000e+00 +3.5527136788e-15 9.1188000000e+01 9.1188000000e+01 1.0273e-14 0.0000e+00
  9990012  2    3    3    0    0 -1.2034116765e+01 -1.7439278403e+01 -2.3828111635e+01 5.9301838399e+01 4.9999807358e+01 4.8512e-04 0.0000e+00
      -11  1    4    4    0    0 -1.6525330837e+01 +4.4134319208e+00 -6.7107250491e+00 1.8373861095e+01 5.1100000000e-04 0.0000e+00 1.0000e+00
       11  1    4    4    0    0 +1.0004329203e+01 -3.8931159305e+00 -1.9229289421e+01 2.2022909126e+01 5.1100000000e-04 0.0000e+00 -1.0000e+00
       12  1    4    4    0    0 -5.5131151307e+00 -1.7959594393e+01 +2.1119028352e+00 1.8905068178e+01 0.0000000000e+00 0.0000e+00 -1.0000e+00
      -12  1    3    3    0    0 +1.2034116765e+01 +1.7439278403e+01 +2.3828111635e+01 3.1886161601e+01 0.0000000000e+00 0.0000e+00 1.0000e+00
</event>
<event>
 8      3 +2.2883893e-04 9.11880000e+01 7.81616400e-03 1.18400000e-01
      -11 -1    0    0    0    0 +0.0000000000e+00 +0.0000000000e+00 +4.5593999997e+01 4.5594000000e+01 5.1100000000e-04 0.0000e+00 -1.0000e+00
       11 -1    0    0    0    0 -0.0000000000e+00 -0.0000000000e+00 -4.5593999997e+01 4.5594000000e+01 5.1100000000e-04 0.0000e+00 1.0000e+00
       23  2    1    2    0    0 +5.3290705182e-15 -4.4408920985e-16 +1.0658141036e-14 9.1188000000e+01 9.1188000000e+01 1.1576e-13 0.0000e+00
  9990012  2    3    3    0    0 +8.0817138128e+00 +3.5673334139e+00 +3.0637869780e+01 5.9301968098e+01 5.0000043898e+01 3.8236e-05 0.0000e+00
      -11  1    4    4    0    0 -3.0005392628e+00 +4.1406698003e+00 -5.8785336326e+00 7.7913760141e+00 5.1100000000e-04 0.0000e+00 1.0000e+00
       11  1    4    4    0    0 +1.6263364432e+01 +8.4036371043e+00 +3.6843322326e+01 4.1140594788e+01 5.1100000000e-04 0.0000e+00 -1.0000e+00
       12  1    4    4    0    0 -5.1811113562e+00 -8.9769734908e+00 -3.2691891334e-01 1.0369997296e+01 0.0000000000e+00 0.0000e+00 -1.0000e+00
      -12  1    3    3    0    0 -8.0817138128e+00 -3.5673334139e+00 -3.0637869780e+01 3.1886031902e+01 0.0000000000e+00 0.0000e+00 1.0000e+00
</event>
<event>
 8      4 +2.2883893e-04 9.11880000e+01 7.81616400e-03 1.18400000e-01
      -11 -1    0    0    0    0 +0.0000000000e+00 +0.0000000000e+00 +4.5593999997e+01 4.5594000000e+01 5.1100000000e-04 0.0000e+00 1.0000e+00
       11 -1    0    0    0    0 -0.0000000000e+00 -0.0000000000e+00 -4.5593999997e+01 4.5594000000e+01 5.1100000000e-04 0.0000e+00 -1.0000e+00
       23  2    1    2    0    0 -4.4408920985e-16 +0.0000000000e+00 +0.0000000000e+00 9.1188000000e+01 9.1188000000e+01 2.7730e-13 0.0000e+00
 -9990012  2    3    3    0    0 +3.3337946034e+00 +3.0503197070e+01 -8.6695110555e+00 5.9301958541e+01 5.0000026469e+01 5.4359e-03 0.0000e+00
      -11  1    4    4    0    0 -2.0359491402e+00 +5.9881259672e+00 +2.4134437456e+00 6.7695976598e+00 5.1100000000e-04 0.0000e+00 1.0000e+00
       11  1    4    4    0    0 -1.9537990787e+01 +1.1457930119e+01 -8.8630067059e+00 2.4322214840e+01 5.1100000000e-04 0.0000e+00 -1.0000e+00
      -12  1    4    4    0    0 +2.4907734531e+01 +1.3057140984e+01 -2.2199480952e+00 2.8210146041e+01 0.0000000000e+00 0.0000e+00 1.0000e+00
       12  1    3    3    0    0 -3.3337946034e+00 -3.0503197070e+01 +8.6695110555e+00 3.1886041459e+01 0.0000000000e+00 0.0000e+00 -1.0000e+00
</event>
<event>
 8      3 +2.2883893e-04 9.11880000e+01 7.81616400e-03 1.18400000e-01
      -11 -1    0    0    0    0 +0.0000000000e+00 +0.0000000000e+00 +4.5593999997e+01 4.5594000000e+01 5.1100000000e-04 0.0000e+00 -1.0000e+00
       11 -1    0    0    0    0 -0.0000000000e+00 -0.0000000000e+00 -4.5593999997e+01 4.5594000000e+01 5.1100000000e-04 0.0000e+00 1.0000e+00
       23  2    1    2    0    0 +0.0000000000e+00 -3.5527136788e-15 +0.0000000000e+00 9.1188000000e+01 9.1188000000e+01 9.2660e-15 0.0000e+00
  9990012  2    3    3    0    0 +1.4921686179e+01 +1.6858328427e+01 +2.2580138631e+01 5.9301911868e+01 4.9999941348e+01 3.6027e-04 0.0000e+00
      -11  1    4    4    0    0 -7.5088476885e+00 +3.7181283698e+00 -7.3683891605e-01 8.4113140490e+00 5.1100000000e-04 0.0000e+00 1.0000e+00
       11  1    4    4    0    0 +2.8276545340e+01 +3.5001437385e+00 +2.6774241169e+01 3.9098260997e+01 5.1100000000e-04 0.0000e+00 -1.0000e+00
       12  1    4    4    0    0 -5.8460114725e+00 +9.6400563187e+00 -3.4572636216e+00 1.1792336822e+01 0.0000000000e+00 0.0000e+00 -1.0000e+00
      -12  1    3    3    0    0 -1.4921686179e+01 -1.6858328427e+01 -2.2580138631e+01 3.1886088132e+01 0.0000000000e+00 0.0000e+00 1.0000e+00
</event>
<event>
 8      3 +2.2883893e-04 9.11880000e+01 7.81616400e-03 1.18400000e-01
      -11 -1    0    0    0    0 +0.0000000000e+00 +0.0000000000e+00 +4.5593999997e+01 4.5594000000e+01 5.1100000000e-04 0.0000e+00 1.0000e+00
       11 -1    0    0    0    0 -0.0000000000e+00 -0.0000000000e+00 -4.5593999997e+01 4.5594000000e+01 5.1100000000e-04 0.0000e+00 -1.0000e+00
       23  2    1    2    0    0 -3.5527136788e-15 -8.8817841970e-16 +7.1054273576e-15 9.1188000000e+01 9.1188000000e+01 2.4110e-14 0.0000e+00
  9990012  2    3    3    0    0 -2.0626895989e+01 +5.0597735795e+00 -2.3783416013e+01 5.9301936837e+01 4.9999986885e+01 1.1596e-03 0.0000e+00
      -11  1    4    4    0    0 -2.6698224989e+01 -1.1628727160e+00 -8.2290971700e+00 2.7961858505e+01 5.1100000000e-04 0.0000e+00 -1.0000e+00
       11  1    4    4    0    0 +8.9865943617e+00 +2.3909711624e+00 +4.7714219138e+00 1.0451894023e+01 5.1100000000e-04 0.0000e+00 1.0000e+00
       12  1    4    4    0    0 -2.9152653616e+00 +3.8316751330e+00 -2.0325740756e+01 2.0888184309e+01 0.0000000000e+00 0.0000e+00 -1.0000e+00
      -12  1    3    3    0    0 +2.0626895989e+01 -5.0597735795e+00 +2.3783416013e+01 3.1886063163e+01 0.0000000000e+00 0.0000e+00 1.0000e+00
</event>
<event>
 8      3 +2.2883893e-04 9.11880000e+01 7.81616400e-03 1.18400000e-01
      -11 -1    0    0    0    0 +0.0000000000e+00 +0.0000000000e+00 +4.5593999997e+01 4.5594000000e+01 5.1100000000e-04 0.0000e+00 -1.0000e+00
       11 -1    0    0    0    0 -0.0000000000e+00 -0.0000000000e+00 -4.5593999997e+01 4.5594000000e+01 5.1100000000e-04 0.0000e+00 1.0000e+00
       23  2    1    2    0    0 +0.0000000000e+00 +1.7763568394e-15 -7.1054273576e-15 9.1188000000e+01 9.1188000000e+01 1.3773e-13 0.0000e+00
  9990012  2    3    3    0    0 +4.7285446454e+00 -5.9052345083e+00 +3.0975636144e+01 5.9301937785e+01 4.9999988615e+01 3.9505e-04 0.0000e+00
      -11  1    4    4    0    0 -3.8416592274e+00 +1.1463206588e+01 +2.2749221034e+01 2.5762191460e+01 5.1100000000e-04 0.0000e+00 1.0000e+00
       11  1    4    4    0    0 +4.8210746434e+00 +3.2412814075e+00 -5.8950457991e+00 8.2764866408e+00 5.1100000000e-04 0.0000e+00 -1.0000e+00
       12  1    4    4    0    0 +3.7491292293e+00 -2.0609722504e+01 +1.4121460909e+01 2.5263259684e+01 0.0000000000e+00 0.0000e+00 -1.0000e+00
      -12  1    3    3    0    0 -4.7285446454e+00 +5.9052345083e+00 -3.0975636144e+01 3.1886062215e+01 0.0000000000e+00 0.0000e+00 1.0000e+00
</event>
<event>
 8      4 +2.2883893e-04 9.11880000e+01 7.81616400e-03 1.18400000e-01
      -11 -1    0    0    0    0 +0.0000000000e+00 +0.0000000000e+00 +4.5593999997e+01 4.5594000000e+01 5.1100000000e-04 0.0000e+00 -1.0000e+00
       11 -1    0    0    0    0 -0.0000000000e+00 -0.0000000000e+00 -4.5593999997e+01 4.5594000000e+01 5.1100000000e-04 0.0000e+00 1.0000e+00
       23  2    1    2    0    0 -4.4408920985e-16 +0.0000000000e+00 +0.0000000000e+00 9.1188000000e+01 9.1188000000e+01 1.0328e-13 0.0000e+00
 -9990012  2    3    3    0    0 +1.0869819076e+00 +3.1554514829e+01 +4.4551328192e+00 5.9301997676e+01 5.0000097842e+01 8.2113e-04 0.0000e+00
      -11  1    4    4    0    0 +1.0395433112e+01 -5.1501106065e+00 +7.0914235726e+00 1.3596946620e+01 5.1100000000e-04 0.0000e+00 1.0000e+00
       11  1    4    4    0    0 -1.1040885666e+01 +2.4369300364e+00 -1.0845059310e+00 1.1358518287e+01 5.1100000000e-04 0.0000e+00 -1.0000e+00
      -12  1    4    4    0    0 +1.7324344620e+00 +3.4267695399e+01 -1.5517848223e+00 3.4346532769e+01 0.0000000000e+00 0.0000e+00 1.0000e+00
       12  1    3    3    0    0 -1.0869819076e+00 -3.1554514829e+01 -4.4551328192e+00 3.1886002324e+01 0.0000000000e+00 0.0000e+00 -1.0000e+00
</event>
<event>
 8      4 +2.2883893e-04 9.11880000e+01 7.81616400e-03 1.18400000e-01
      -11 -1    0    0    0    0 +0.0000000000e+00 +0.0000000000e+00 +4.5593999997e+01 4.5594000000e+01 5.1100000000e-04 0.0000e+00 -1.0000e+00
       11 -1    0    0    0    0 -0.0000000000e+00 -0.0000000000e+00 -4.5593999997e+01 4.5594000000e+01 5.1100000000e-04 0.0000e+00 1.0000e+00
       23  2    1    2    0    0 +0.0000000000e+00 +1.5543122345e-15 -3.5527136788e-15 9.1188000000e+01 9.1188000000e+01 1.0420e-13 0.0000e+00
 -9990012  2    3    3    0    0 +2.2863580318e+01 -1.8280599927e+00 -2.2150343253e+01 5.9301908761e+01 4.9999935681e+01 1.3157e-03 0.0000e+00
      -11  1    4    4    0    0 +1.6305894750e+01 -1.3863307698e+01 +4.5105339623e+00 2.1872778077e+01 5.1100000000e-04 0.0000e+00 1.0000e+00
       11  1    4    4    0    0 +1.3448526118e+01 +8.1202339931e+00 -2.4686916219e+01 2.9261662419e+01 5.1100000000e-04 0.0000e+00 -1.0000e+00
      -12  1    4    4    0    0 -6.8908405493e+00 +3.9150137121e+00 -1.9739609957e+00 8.1674682646e+00 0.0000000000e+00 0.0000e+00 1.0000e+00
       12  1    3    3    0    0 -2.2863580318e+01 +1.8280599927e+00 +2.2150343253e+01 3.1886091239e+01 0.0000000000e+00 0.0000e+00 -1.0000e+00
</event>
<event>
 8      3 +2.2883893e-04 9.11880000e+01 7.81616400e-03 1.18400000e-01
      -11 -1    0    0    0    0 +0.0000000000e+00 +0.0000000000e+00 +4.5593999997e+01 4.5594000000e+01 5.1100000000e-04 0.0000e+00 -1.0000e+00
       11 -1    0    0    0    0 -0.0000000000e+00 -0.0000000000e+00 -4.5593999997e+01 4.5594000000e+01 5.1100000000e-04 0.0000e+00 1.0000e+00
       23  2    1    2    0    0 +0.0000000000e+00 -3.5527136788e-15 +0.0000000000e+00 9.1188000000e+01 9.1188000000e+01 5.9562e-13 0.0000e+00
  9990012  2    3    3    0    0 +2.3251569415e+01 -2.1218361095e+01 +5.0856673559e+00 5.9301978921e+01 5.0000063637e+01 1.1234e-03 0.0000e+00
      -11  1    4    4    0    0 -3.9825806682e+00 +1.4873617072e+00 -5.9958719234e+00 7.3500798641e+00 5.1100000000e-04 0.0000e+00 1.0000e+00
       11  1    4    4    0    0 +1.9818614112e+01 -2.7026361391e+00 -9.6466894531e+00 2.2206763048e+01 5.1100000000e-04 0.0000e+00 -1.0000e+00
       12  1    4    4    0    0 +7.4155359711e+00 -2.0003086663e+01 +2.0728228732e+01 2.9745136008e+01 0.0000000000e+00 0.0000e+00 -1.0000e+00
      -12  1    3    3    0    0 -2.3251569415e+01 +2.1218361095e+01 -5.0856673559e+00 3.1886021079e+01 0.0000000000e+00 0.0000e+00 1.0000e+00
</event>
<event>
 8      3 +2.2883893e-04 9.11880000e+01 7.81616400e-03 1.18400000e-01
      -11 -1    0    0    0    0 +0.0000000000e+00 +0.0000000000e+00 +4.5593999997e+01 4.5594000000e+01 5.1100000000e-04 0.0000e+00 -1.0000e+00
       11 -1    0    0    0    0 -0.0000000000e+00 -0.0000000000e+00 -4.5593999997e+01 4.5594000000e+01 5.1100000000e-04 0.0000e+00 1.0000e+00
       23  2    1    2    0    0 +4.4408920985e-16 -1.7763568394e-15 +0.0000000000e+00 9.1188000000e+01 9.1188000000e+01 3.0531e-14 0.0000e+00
  9990012  2    3    3    0    0 +2.7387888592e+00 +1.1196102162e+01 +2.9729899703e+01 5.9301943418e+01 4.9999998888e+01 5.5269e-04 0.0000e+00
      -11  1    4    4    0    0 +5.3588201153e+00 -1.4219899692e+01 +1.3209193280e+01 2.0134678732e+01 5.1100000000e-04 0.0000e+00 1.0000e+00
       11  1    4    4    0    0 -2.8516144506e-01 +2.9881490188e+01 +1.1401460272e+01 3.1984028350e+01 5.1100000000e-04 0.0000e+00 -1.0000e+00
       12  1    4    4    0    0 -2.3348698111e+00 -4.4654883340e+00 +5.1192461511e+00 7.1832363355e+00 0.0000000000e+00 0.0000e+00 -1.0000e+00
      -12  1    3    3    0    0 -2.7387888592e+00 -1.1196102162e+01 -2.9729899703e+01 3.1886056582e+01 0.0000000000e+00 0.0000e+00 1.0000e+00
</event>
<event>
 8      4 +2.2883893e-04 9.11880000e+01 7.81616400e-03 1.18400000e-01
      -11 -1    0    0    0    0 +0.0000000000e+00 +0.0000000000e+00 +4.5593999997e+01 4.5594000000e+01 5.1100000000e-04 0.0000e+00 1.0000e+00
       11 -1    0    0    0    0 -0.0000000000e+00 -0.0000000000e+00 -4.5593999997e+01 4.5594000000e+01 5.1100000000e-04 0.0000e+00 -1.0000e+00
       23  2    1    2    0    0 -3.5527136788e-15 +0.0000000000e+00 +0.0000000000e+00 9.1188000000e+01 9.1188000000e+01 7.7172e-15 0.0000e+00
 -9990012  2    3    3    0    0 +1.7004228736e+01 -2.1578733541e+01 +1.6184430221e+01 5.9301932232e+01 4.9999978487e+01 5.8583e-04 0.0000e+00
      -11  1    4    4    0    0 +7.2396683217e+00 -1.6425327783e+01 +2.9668188535e+01 3.4675720633e+01 5.1100000000e-04 0.0000e+00 1.0000e+00
       11  1    4    4    0    0 -2.7662798466e+00 -1.5365778686e+00 +2.4739586076e+00 4.0166960539e+00 5.1100000000e-04 0.0000e+00 -1.0000e+00
      -12  1    4    4    0    0 +1.2530840261e+01 -3.6168278889e+00 -1.5957716922e+01 2.0609515545e+01 0.0000000000e+00 0.0000e+00 1.0000e+00
       12  1    3    3    0    0 -1.7004228736e+01 +2.1578733541e+01 -1.6184430221e+01 3.1886067768e+01 0.0000000000e+00 0.0000e+00 -1.0000e+00
</event>
<event>
 8      4 +2.2883893e-04 9.11880000e+01 7.81616400e-03 1.18400000e-01
      -11 -1    0    0    0    0 +0.0000000000e+00 +0.0000000000e+00 +4.5593999997e+01 4.5594000000e+01 5.1100000000e-04 0.0000e+00 1.0000e+00
       11 -1    0    0    0    0 -0.0000000000e+00 -0.0000000000e+00 -4.5593999997e+01 4.5594000000e+01 5.1100000000e-04 0.0000e+00 -1.0000e+00
       23  2    1    2    0    0 -3.5527136788e-15 -3.5527136788e-15 -3.5527136788e-15 9.1188000000e+01 9.1188000000e+01 6.8052e-14 0.0000e+00
 -9990012  2    3    3    0    0 +1.8330675455e+01 +1.7230943094e+01 +1.9590849056e+01 5.9301946163e+01 5.0000003895e+01 5.2250e-05 0.0000e+00
      -11  1    4    4    0    0 +4.2073623557e+00 +2.0713509497e+00 -3.0632098276e+00 5.6013969202e+00 5.1100000000e-04 0.0000e+00 1.0000e+00
       11  1    4    4    0    0 +2.4178056449e+01 +1.4581336378e+00 -1.3840379425e+00 2.4261494774e+01 5.1100000000e-04 0.0000e+00 -1.0000e+00
      -12  1    4    4    0    0 -1.0054743350e+01 +1.3701458507e+01 +2.4038096826e+01 2.9439054470e+01 0.0000000000e+00 0.0000e+00 1.0000e+00
       12  1    3    3    0    0 -1.8330675455e+01 -1.7230943094e+01 -1.9590849056e+01 3.1886053837e+01 0.0000000000e+00 0.0000e+00 -1.0000e+00
</event>
<event>
 8      4 +2.2883893e-04 9.11880000e+01 7.81616400e-03 1.18400000e-01
      -11 -1    0    0    0    0 +0.0000000000e+00 +0.0000000000e+00 +4.5593999997e+01 4.5594000000e+01 5.1100000000e-04 0.0000e+00 1.0000e+00
       11 -1    0    0    0    0 -0.0000000000e+00 -0.0000000000e+00 -4.5593999997e+01 4.5594000000e+01 5.1100000000e-04 0.0000e+00 -1.0000e+00
       23  2    1    2    0    0 +0.0000000000e+00 +0.0000000000e+00 +0.0000000000e+00 9.1188000000e+01 9.1188000000e+01 4.0527e-14 0.0000e+00
 -9990012  2    3    3    0    0 -1.7642985685e+01 -1.5211142441e+01 +2.1773153441e+01 5.9301890030e+01 4.9999901521e+01 1.9239e-03 0.0000e+00
      -11  1    4    4    0    0 -1.1011663888e+01 +2.8287990267e+00 +7.0196254857e+00 1.3361661114e+01 5.1100000000e-04 0.0000e+00 1.0000e+00
       11  1    4    4    0    0 -3.2439295117e+00 -5.3398071671e+00 -1.3446615184e+01 1.4827274848e+01 5.1100000000e-04 0.0000e+00 -1.0000e+00
      -12  1    4    4    0    0 -3.3873922855e+00 -1.2700134301e+01 +2.8200143139e+01 3.1112954068e+01 0.0000000000e+00 0.0000e+00 1.0000e+00
       12  1    3    3    0    0 +1.7642985685e+01 +1.5211142441e+01 -2.1773153441e+01 3.1886109970e+01 0.0000000000e+00 0.0000e+00 -1.0000e+00
</event>
<event>
 8      3 +2.2883893e-04 9.11880000e+01 7.81616400e-03 1.18400000e-01
      -11 -1    0    0    0    0 +0.0000000000e+00 +0.0000000000e+00 +4.5593999997e+01 4.5594000000e+01 5.1100000000e-04 0.0000e+00 1.0000e+00
       11 -1    0    0    0    0 -0.0000000000e+00 -0.0000000000e+00 -4.5593999997e+01 4.5594000000e+01 5.1100000000e-04 0.0000e+00 -1.0000e+00
       23  2    1    2    0    0 +0.0000000000e+00 +0.0000000000e+00 +0.0000000000e+00 9.1188000000e+01 9.1188000000e+01 2.3435e-14 0.0000e+00
  9990012  2    3    3    0    0 +1.4370487872e+01 -2.1781840406e+01 -1.8323735769e+01 5.9301971936e+01 5.0000050899e+01 2.1291e-04 0.0000e+00
      -11  1    4    4    0    0 -9.5271999746e+00 -2.0894597340e+01 -9.3224034619e+00 2.4784247899e+01 5.1100000000e-04 0.0000e+00 1.0000e+00
       11  1    4    4    0    0 -4.4446415942e+00 -1.6090112846e+00 +1.3980385917e-01 4.7289852606e+00 5.1100000000e-04 0.0000e+00 -1.0000e+00
       12  1    4    4    0    0 +2.8342329441e+01 +7.2176821910e-01 -9.1411361664e+00 2.9788738777e+01 0.0000000000e+00 0.0000e+00 -1.0000e+00
      -12  1    3    3    0    0 -1.4370487872e+01 +2.1781840406e+01 +1.8323735769e+01 3.1886028064e+01 0.0000000000e+00 0.0000e+00 1.0000e+00
</event>
<event>
 8      4 +2.2883893e-04 9.11880000e+01 7.81616400e-03 1.18400000e-01
      -11 -1    0    0    0    0 +0.0000000000e+00 +0.0000000000e+00 +4.5593999997e+01 4.5594000000e+01 5.1100000000e-04 0.0000e+00 1.0000e+00
       11 -1    0    0    0    0 -0.0000000000e+00 -0.0000000000e+00 -4.5593999997e+01 4.5594000000e+01 5.1100000000e-04 0.0000e+00 -1.0000e+00
       23  2    1    2    0    0 -8.8817841970e-16 +3.5527136788e-15 +0.0000000000e+00 9.1188000000e+01 9.1188000000e+01 2.4697e-14 0.0000e+00
 -9990012  2    3    3    0    0 -4.8837225351e+00 -2.8777682352e+01 +1.2834045448e+01 5.9301976887e+01 5.0000059928e+01 2.0801e-04 0.0000e+00
      -11  1    4    4    0    0 -9.6827987378e+00 +2.7759319023e-01 +7.4657839414e+00 1.2229946014e+01 5.1100000000e-04 0.0000e+00 1.0000e+00
       11  1    4    4    0    0 +8.7892130894e+00 -1.5114247107e+01 -1.4334013206e+01 2.2608729889e+01 5.1100000000e-04 0.0000e+00 -1.0000e+00
      -12  1    4    4    0    0 -3.9901368867e+00 -1.3941028435e+01 +1.9702274713e+01 2.4463300985e+01 0.0000000000e+00 0.0000e+00 1.0000e+00
       12  1    3    3    0    0 +4.8837225351e+00 +2.8777682352e+01 -1.2834045448e+01 3.1886023113e+01 0.0000000000e+00 0.0000e+00 -1.0000e+00
</event>
<event>
 8      4 +2.2883893e-04 9.11880000e+01 7.81616400e-03 1.18400000e-01
      -11 -1    0    0    0    0 +0.0000000000e+00 +0.0000000000e+00 +4.5593999997e+01 4.5594000000e+01 5.1100000000e-04 0.0000e+00 1.0000e+00
       11 -1    0    0    0    0 -0.0000000000e+00 -0.0000000000e+00 -4.5593999997e+01 4.5594000000e+01 5.1100000000e-04 0.0000e+00 -1.0000e+00
       23  2    1    2    0    0 -8.8817841970e-16 +0.0000000000e+00 +3.5527136788e-15 9.1188000000e+01 9.1188000000e+01 4.3530e-14 0.0000e+00
 -9990012  2    3    3    0    0 -6.7416046504e+00 +2.5202053344e+01 +1.8333806301e+01 5.9301934399e+01 4.9999982440e+01 7.9239e-04 0.0000e+00
      -11  1    4    4    0    0 +7.3909762480e+00 -8.3227877371e+00 +4.6163965610e+00 1.2050163612e+01 5.1100000000e-04 0.0000e+00 1.0000e+00
       11  1    4    4    0    0 -8.7044918522e-01 +1.7800703492e+00 -6.8758513762e+00 7.1556735980e+00 5.1100000000e-04 0.0000e+00 -1.0000e+00
      -12  1    4    4    0    0 -1.3262131713e+01 +3.1744770732e+01 +2.0593261116e+01 4.0096097189e+01 0.0000000000e+00 0.0000e+00 1.0000e+00
       12  1    3    3    0    0 +6.7416046504e+00 -2.5202053344e+01 -1.8333806301e+01 3.1886065601e+01 0.0000000000e+00 0.0000e+00 -1.0000e+00
</event>
<event>
 8      3 +2.2883893e-04 9.11880000e+01 7.81616400e-03 1.18400000e-01
      -11 -1    0    0    0    0 +0.0000000000e+00 +0.0000000000e+00 +4.5593999997e+01 4.5594000000e+01 5.1100000000e-04 0.0000e+00 1.0000e+00
       11 -1    0    0    0    0 -0.0000000000e+00 -0.0000000000e+00 -4.5593999997e+01 4.5594000000e+01 5.1100000000e-04 0.0000e+00 -1.0000e+00
       23  2    1    2    0    0 -3.5527136788e-15 +0.0000000000e+00 +8.8817841970e-16 9.1188000000e+01 9.1188000000e+01 7.7509e-14 0.0000e+00
  9990012  2    3    3    0    0 +2.8315541204e+01 +1.3526529218e+01 +5.6553644031e+00 5.9301952693e+01 5.0000015803e+01 2.6925e-03 0.0000e+00
      -11  1    4    4    0    0 +1.6608952910e+01 -7.2642268308e+00 +1.8534373598e+01 2.5925842574e+01 5.1100000000e-04 0.0000e+00 1.0000e+00
       11  1    4    4    0    0 +1.1997277228e+01 +1.9001061902e+01 -2.2392236702e+00 2.2582939073e+01 5.1100000000e-04 0.0000e+00 -1.0000e+00
       12  1    4    4    0    0 -2.9068893380e-01 +1.7896941471e+00 -1.0639785525e+01 1.0793171045e+01 0.0000000000e+00 0.0000e+00 -1.0000e+00
      -12  1    3    3    0    0 -2.8315541204e+01 -1.3526529218e+01 -5.6553644031e+00 3.1886047307e+01 0.0000000000e+00 0.0000e+00 1.0000e+00
</event>
<event>
 8      3 +2.2883893e-04 9.11880000e+01 7.81616400e-03 1.18400000e-01
      -11 -1    0    0    0    0 +0.0000000000e+00 +0.0000000000e+00 +4.5593999997e+01 4.5594000000e+01 5.1100000000e-04 0.0000e+00 1.0000e+00
       11 -1    0    0    0    0 -0.0000000000e+00 -0.0000000000e+00 -4.5593999997e+01 4.5594000000e+01 5.1100000000e-04 0.0000e+00 -1.0000e+00
       23  2    1    2    0    0 -3.5527136788e-15 +3.5527136788e-15 +0.0000000000e+00 9.1188000000e+01 9.1188000000e+01 8.3889e-14 0.0000e+00
  9990012  2    3    3    0    0 -2.7633751616e+01 -1.2695680228e+01 -9.5873086329e+00 5.9301937031e+01 4.9999987239e+01 1.2387e-03 0.0000e+00
      -11  1    4    4    0    0 +3.6358966114e+00 -1.2193442050e+01 -2.2447607461e+00 1.2920476937e+01 5.1100000000e-04 0.0000e+00 1.0000e+00
       11  1    4    4    0    0 -1.6974123416e+01 +1.6382895366e+01 -5.1745683656e+00 2.4151527579e+01 5.1100000000e-04 0.0000e+00 -1.0000e+00
       12  1    4    4    0    0 -1.4295524811e+01 -1.6885133544e+01 -2.1679795212e+00 2.2229932516e+01 0.0000000000e+00 0.0000e+00 -1.0000e+00
      -12  1    3    3    0    0 +2.7633751616e+01 +1.2695680228e+01 +9.5873086329e+00 3.1886062969e+01 0.0000000000e+00 0.0000e+00 1.0000e+00
</event>
<event>
 8      3 +2.2883893e-04 9.11880000e+01 7.81616400e-03 1.18400000e-01
      -11 -1    0    0    0    0 +0.0000000000e+00 +0.0000000000e+00 +4.5593999997e+01 4.5594000000e+01 5.1100000000e-04 0.0000e+00 1.0000e+00
       11 -1    0    0    0    0 -0.0000000000e+00 -0.0000000000e+00 -4.5593999997e+01 4.5594000000e+01 5.1100000000e-04 0.0000e+00 -1.0000e+00
       23  2    1    2    0    0 -1.7763568394e-15 +0.0000000000e+00 +1.7763568394e-15 9.1188000000e+01 9.1188000000e+01 8.8688e-14 0.0000e+00
  9990012  2    3    3    0    0 +6.1185175414e+00 +2.7491354737e+01 +1.4950225688e+01 5.9301951479e+01 5.0000013589e+01 1.2065e-03 0.0000e+00
      -11  1    4    4    0    0 -4.2558958468e+00 +1.5888214025e+00 +4.0897381880e+00 6.1125249787e+00 5.1100000000e-04 0.0000e+00 1.0000e+00
       11  1    4    4    0    0 +1.4708660895e+01 +3.7099378388e+01 +1.0055207343e+01 4.1155993210e+01 5.1100000000e-04 0.0000e+00 -1.0000e+00
       12  1    4    4    0    0 -4.3342475070e+00 -1.1196845054e+01 +8.0528015662e-01 1.2033433290e+01 0.0000000000e+00 0.0000e+00 -1.0000e+00
      -12  1    3    3    0    0 -6.1185175414e+00 -2.7491354737e+01 -1.4950225688e+01 3.1886048521e+01 0.0000000000e+00 0.0000e+00 1.0000e+00
</event>
<event>
 8      4 +2.2883893e-04 9.11880000e+01 7.81616400e-03 1.18400000e-01
      -11 -1    0    0    0    0 +0.0000000000e+00 +0.0000000000e+00 +4.5593999997e+01 4.5594000000e+01 5.1100000000e-04 0.0000e+00 -1.0000e+00
       11 -1    0    0    0    0 -0.0000000000e+00 -0.0000000000e+00 -4.5593999997e+01 4.5594000000e+01 5.1100000000e-04 0.0000e+00 1.0000e+00
       23  2    1    2    0    0 +3.5527136788e-15 +3.5527136788e-15 +0.0000000000e+00 9.1188000000e+01 9.1188000000e+01 1.3590e-13 0.0000e+00
 -9990012  2    3    3    0    0 -2.5025716584e+01 +1.7970143602e+01 -8.2162865953e+00 5.9301954196e+01 5.0000018544e+01 2.3290e-03 0.0000e+00
      -11  1    4    4    0    0 -2.1334120282e+01 -5.4791136179e+00 +8.9172511112e+00 2.3763054137e+01 5.1100000000e-04 0.0000e+00 -1.0000e+00
       11  1    4    4    0    0 -4.0679550139e+00 -2.1559999369e-01 +2.5068627338e+00 4.7832104679e+00 5.1100000000e-04 0.0000e+00 1.0000e+00
      -12  1    4    4    0    0 +3.7635871222e-01 +2.3664857213e+01 -1.9640400440e+01 3.0755689592e+01 0.0000000000e+00 0.0000e+00 1.0000e+00
       12  1    3    3    0    0 +2.5025716584e+01 -1.7970143602e+01 +8.2162865953e+00 3.1886045804e+01 0.0000000000e+00 0.0000e+00 -1.0000e+00
</event>
<event>
 8      4 +2.2883893e-04 9.11880000e+01 7.81616400e-03 1.18400000e-01
      -11 -1    0    0    0    0 +0.0000000000e+00 +0.0000000000e+00 +4.5593999997e+01 4.5594000000e+01 5.1100000000e-04 0.0000e+00 1.0000e+00
       11 -1    0    0    0    0 -0.0000000000e+00 -0.0000000000e+00 -4.5593999997e+01 4.5594000000e+01 5.1100000000e-04 0.0000e+00 -1.0000e+00
       23  2    1    2    0    0 +3.5527136788e-15 +0.0000000000e+00 +0.0000000000e+00 9.1188000000e+01 9.1188000000e+01 4.2773e-14 0.0000e+00
 -9990012  2    3    3    0    0 -2.0463740079e+01 -8.9839443118e+00 +2.2742999246e+01 5.9301954022e+01 5.0000018227e+01 1.7064e-03 0.0000e+00
      -11  1    4    4    0    0 -1.9530545973e+01 -2.8277698239e+01 +1.8707318369e+01 3.9128432176e+01 5.1100000000e-04 0.0000e+00 1.0000e+00
       11  1    4    4    0    0 -1.7877372027e-02 +1.1436749238e+01 +3.3791993508e-01 1.1441754362e+01 5.1100000000e-04 0.0000e+00 -1.0000e+00
      -12  1    4    4    0    0 -9.1531673411e-01 +7.8570046893e+00 +3.6977609417e+00 8.7317674839e+00 0.0000000000e+00 0.0000e+00 1.0000e+00
       12  1    3    3    0    0 +2.0463740079e+01 +8.9839443118e+00 -2.2742999246e+01 3.1886045978e+01 0.0000000000e+00 0.0000e+00 -1.0000e+00
</event>
<event>
 8      3 +2.2883893e-04 9.11880000e+01 7.81616400e-03 1.18400000e-01
      -11 -1    0    0    0    0 +0.0000000000e+00 +0.0000000000e+00 +4.5593999997e+01 4.5594000000e+01 5.1100000000e-04 0.0000e+00 1.0000e+00
       11 -1    0    0    0    0 -0.0000000000e+00 -0.0000000000e+00 -4.5593999997e+01 4.5594000000e+01 5.1100000000e-04 0.0000e+00 -1.0000e+00
       23  2    1    2    0    0 +0.0000000000e+00 +0.0000000000e+00 -3.5527136788e-15 9.1188000000e+01 9.1188000000e+01 7.1236e-15 0.0000e+00
  9990012  2    3    3    0    0 -2.0181191358e+01 +8.2026604066e+00 -2.3284263050e+01 5.9301936772e+01 4.9999986768e+01 1.3768e-03 0.0000e+00
      -11  1    4    4    0    0 +9.5464956032e+00 +3.6928813730e-01 +1.9704446032e-01 9.5556673661e+00 5.1100000000e-04 0.0000e+00 1.0000e+00
       11  1    4    4    0    0 -2.1296218120e+01 -3.1327719272e+00 -2.7887549142e+01 3.5228661110e+01 5.1100000000e-04 0.0000e+00 -1.0000e+00
       12  1    4    4    0    0 -8.4314688405e+00 +1.0966144197e+01 +4.4062416313e+00 1.4517608297e+01 0.0000000000e+00 0.0000e+00 -1.0000e+00
      -12  1    3    3    0    0 +2.0181191358e+01 -8.2026604066e+00 +2.3284263050e+01 3.1886063228e+01 0.0000000000e+00 0.0000e+00 1.0000e+00
</event>
<event>
 8      4 +2.2883893e-04 9.11880000e+01 7.81616400e-03 1.18400000e-01
      -11 -1    0    0    0    0 +0.0000000000e+00 +0.0000000000e+00 +4.5593999997e+01 4.5594000000e+01 5.1100000000e-04 0.0000e+00 1.0000e+00
       11 -1    0    0    0    0 -0.0000000000e+00 -0.0000000000e+00 -4.5593999997e+01 4.5594000000e+01 5.1100000000e-04 0.0000e+00 -1.0000e+00
       23  2    1    2    0    0 +1.7763568394e-15 +0.0000000000e+00 +3.5527136788e-15 9.1188000000e+01 9.1188000000e+01 1.2617e-14 0.0000e+00
 -9990012  2    3    3    0    0 -1.5310051484e+01 +2.1725290745e+00 +2.7885518336e+01 5.9301957726e+01 5.0000024983e+01 2.7028e-03 0.0000e+00
      -11  1    4    4    0    0 -5.0160128827e+00 -1.2515612089e+01 +7.9130302429e+00 1.5633840830e+01 5.1100000000e-04 0.0000e+00 1.0000e+00
       11  1    4    4    0    0 +1.2412104014e+01 +8.8004790222e+00 +5.9373390917e+00 1.6332812153e+01 5.1100000000e-04 0.0000e+00 -1.0000e+00
      -12  1    4    4    0    0 -2.2706142615e+01 +5.8876621412e+00 +1.4035149001e+01 2.7335304744e+01 0.0000000000e+00 0.0000e+00 1.0000e+00
       12  1    3    3    0    0 +1.5310051484e+01 -2.1725290745e+00 -2.7885518336e+01 3.1886042274e+01 0.0000000000e+00 0.0000e+00 -1.0000e+00
</event>
<event>
 8      3 +2.2883893e-04 9.11880000e+01 7.81616400e-03 1.18400000e-01
      -11 -1    0    0    0    0 +0.0000000000e+00 +0.0000000000e+00 +4.5593999997e+01 4.5594000000e+01 5.1100000000e-04 0.0000e+00 -1.0000e+00
       11 -1    0    0    0    0 -0.0000000000e+00 -0.0000000000e+00 -4.5593999997e+01 4.5594000000e+01 5.1100000000e-04 0.0000e+00 1.0000e+00
       23  2    1    2    0    0 -8.8817841970e-16 +7.1054273576e-15 +0.0000000000e+00 9.1188000000e+01 9.1188000000e+01 1.5626e-13 0.0000e+00
  9990012  2    3    3    0    0 +2.0577122636e+00 -3.0527655764e+01 +8.9746742258e+00 5.9302004270e+01 5.0000109867e+01 1.2808e-03 0.0000e+00
      -11  1    4    4    0    0 -2.7322442637e+00 -4.6246339926e-01 +8.8228363732e+00 9.2477820606e+00 5.1100000000e-04 0.0000e+00 1.0000e+00
       11  1    4    4    0    0 -1.6876030323e+01 -7.3506010845e+00 +2.4979723473e+00 1.8576102979e+01 5.1100000000e-04 0.0000e+00 -1.0000e+00
       12  1    4    4    0    0 +2.1665986850e+01 -2.2714591281e+01 -2.3461344947e+00 3.1478119231e+01 0.0000000000e+00 0.0000e+00 -1.0000e+00
      -12  1    3    3    0    0 -2.0577122636e+00 +3.0527655764e+01 -8.9746742258e+00 3.1885995730e+01 0.0000000000e+00 0.0000e+00 1.0000e+00
</event>
<event>
 8      4 +2.2883893e-04 9.11880000e+01 7.81616400e-03 1.18400000e-01
      -11 -1    0    0    0    0 +0.0000000000e+00 +0.0000000000e+00 +4.5593999997e+01 4.5594000000e+01 5.1100000000e-04 0.0000e+00 -1.0000e+00
       11 -1    0    0    0    0 -0.0000000000e+00 -0.0000000000e+00 -4.5593999997e+01 4.5594000000e+01 5.1100000000e-04 0.0000e+00 1.0000e+00
       23  2    1    2    0    0 +3.5527136788e-15 +0.0000000000e+00 +1.7763568394e-15 9.1188000000e+01 9.1188000000e+01 1.8567e-13 0.0000e+00
 -9990012  2    3    3    0    0 +2.7847367598e+01 -7.2272868583e+00 -1.3748095882e+01 5.9301957632e+01 5.0000024812e+01 2.7859e-03 0.0000e+00
      -11  1    4    4    0    0 +7.2961626690e+00 -1.1944332533e+01 -1.2332976527e+00 1.4050697232e+01 5.1100000000e-04 0.0000e+00 1.0000e+00
       11  1    4    4    0    0 +5.7529858290e+00 -1.1112958532e+01 +8.4503302103e+00 1.5099760733e+01 5.1100000000e-04 0.0000e+00 -1.0000e+00
      -12  1    4    4    0    0 +1.4798219100e+01 +1.5830004206e+01 -2.0965128439e+01 3.0151499667e+01 0.0000000000e+00 0.0000e+00 1.0000e+00
       12  1    3    3    0    0 -2.7847367598e+01 +7.2272868583e+00 +1.3748095882e+01 3.1886042368e+01 0.0000000000e+00 0.0000e+00 -1.0000e+00
</event>
<event>
 8      3 +2.2883893e-04 9.11880000e+01 7.81616400e-03 1.18400000e-01
      -11 -1    0    0    0    0 +0.0000000000e+00 +0.0000000000e+00 +4.5593999997e+01 4.5594000000e+01 5.1100000000e-04 0.0000e+00 -1.0000e+00
       11 -1    0    0    0    0 -0.0000000000e+00 -0.0000000000e+00 -4.5593999997e+01 4.5594000000e+01 5.1100000000e-04 0.0000e+00 1.0000e+00
       23  2    1    2    0    0 +1.7763568394e-15 -3.5527136788e-15 +3.5527136788e-15 9.1188000000e+01 9.1188000000e+01 6.9161e-14 0.0000e+00
  9990012  2    3    3    0    0 +5.6651756768e+00 -2.1264505859e+01 +2.3074821896e+01 5.9301939874e+01 4.9999992424e+01 1.3174e-03 0.0000e+00
      -11  1    4    4    0    0 -1.1154520881e+01 -6.7339578850e+00 +3.9140641889e+00 1.3604757389e+01 5.1100000000e-04 0.0000e+00 1.0000e+00
       11  1    4    4    0    0 -1.1015170296e+01 -3.9976363686e+00 +5.7891699038e+00 1.3070178332e+01 5.1100000000e-04 0.0000e+00 -1.0000e+00
       12  1    4    4    0    0 +2.7834866854e+01 -1.0532911605e+01 +1.3371587803e+01 3.2627004153e+01 0.0000000000e+00 0.0000e+00 -1.0000e+00
      -12  1    3    3    0    0 -5.6651756768e+00 +2.1264505859e+01 -2.3074821896e+01 3.1886060126e+01 0.0000000000e+00 0.0000e+00 1.0000e+00
</event>
<event>
 8      4 +2.2883893e-04 9.11880000e+01 7.81616400e-03 1.18400000e-01
      -11 -1    0    0    0    0 +0.0000000000e+00 +0.0000000000e+00 +4.5593999997e+01 4.5594000000e+01 5.1100000000e-04 0.0000e+00 1.0000e+00
       11 -1    0    0    0    0 -0.0000000000e+00 -0.0000000000e+00 -4.5593999997e+01 4.5594000000e+01 5.1100000000e-04 0.0000e+00 -1.0000e+00
       23  2    1    2    0    0 +0.0000000000e+00 -1.7763568394e-15 +3.5527136788e-15 9.1188000000e+01 9.1188000000e+01 2.2219e-14 0.0000e+00
 -9990012  2    3    3    0    0 +2.0435133282e+01 -1.2075550739e+01 +2.1291047560e+01 5.9301916764e+01 4.9999950278e+01 1.9512e-04 0.0000e+00
      -11  1    4    4    0    0 -5.0982049309e-02 -2.3189015308e+01 +5.0004519843e+00 2.3722089925e+01 5.1100000000e-04 0.0000e+00 -1.0000e+00
       11  1    4    4    0    0 +2.4676283276e+01 +9.1000420962e+00 +1.6278744560e+01 3.0931007859e+01 5.1100000000e-04 0.0000e+00 1.0000e+00
      -12  1    4    4    0    0 -4.1901679446e+00 +2.0134224728e+00 +1.1851015842e-02 4.6488189796e+00 0.0000000000e+00 0.0000e+00 1.0000e+00
       12  1    3    3    0    0 -2.0435133282e+01 +1.2075550739e+01 -2.1291047560e+01 3.1886083236e+01 0.0000000000e+00 0.0000e+00 -1.0000e+00
</event>
<event>
 8      3 +2.2883893e-04 9.11880000e+01 7.81616400e-03 1.18400000e-01
      -11 -1    0    0    0    0 +0.0000000000e+00 +0.0000000000e+00 +4.5593999997e+01 4.5594000000e+01 5.1100000000e-04 0.0000e+00 1.0000e+00
       11 -1    0    0    0    0 -0.0000000000e+00 -0.0000000000e+00 -4.5593999997e+01 4.5594000000e+01 5.1100000000e-04 0.0000e+00 -1.0000e+00
       23  2    1    2    0    0 -3.5527136788e-15 +8.8817841970e-16 +7.1054273576e-15 9.1188000000e+01 9.1188000000e+01 1.0321e-13 0.0000e+00
  9990012  2    3    3    0    0 -1.7911475898e+01 +3.1673061469e+00 -2.6189044446e+01 5.9301970989e+01 5.0000049171e+01 7.2232e-04 0.0000e+00
      -11  1    4    4    0    0 -1.4325637937e+00 +1.0327020790e+01 -6.1179092006e+00 1.2088358477e+01 5.1100000000e-04 0.0000e+00 -1.0000e+00
       11  1    4    4    0    0 +8.7975533099e+00 -3.3634049591e+00 +5.6246176451e+00 1.0970221560e+01 5.1100000000e-04 0.0000e+00 1.0000e+00
       12  1    4    4    0    0 -2.5276465414e+01 -3.7963096844e+00 -2.5695752891e+01 3.6243390952e+01 0.0000000000e+00 0.0000e+00 -1.0000e+00
      -12  1    3    3    0    0 +1.7911475898e+01 -3.1673061469e+00 +2.6189044446e+01 3.1886029011e+01 0.0000000000e+00 0.0000e+00 1.0000e+00
</event>
<event>
 8      4 +2.2883893e-04 9.11880000e+01 7.81616400e-03 1.18400000e-01
      -11 -1    0    0    0    0 +0.0000000000e+00 +0.0000000000e+00 +4.5593999997e+01 4.5594000000e+01 5.1100000000e-04 0.0000e+00 1.0000e+00
       11 -1    0    0    0    0 -0.0000000000e+00 -0.0000000000e+00 -4.5593999997e+01 4.5594000000e+01 5.1100000000e-04 0.0000e+00 -1.0000e+00
       23  2    1    2    0    0 +0.0000000000e+00 +5.3290705182e-15 +8.8817841970e-16 9.1188000000e+01 9.1188000000e+01 1.3224e-14 0.0000e+00
 -9990012  2    3    3    0    0 +3.1030724472e+01 +7.0830705637e+00 -1.9090652806e+00 5.9301948502e+01 5.0000008160e+01 3.1589e-04 0.0000e+00
      -11  1    4    4    0    0 +1.8287801188e+01 -1.7663503703e+01 -8.1681825888e+00 2.6705097686e+01 5.1100000000e-04 0.0000e+00 -1.0000e+00
       11  1    4    4    0    0 +8.4033664923e+00 +3.1024506920e+00 +5.4947332865e+00 1.0508751727e+01 5.1100000000e-04 0.0000e+00 1.0000e+00
      -12  1    4    4    0    0 +4.3395567917e+00 +2.1644123574e+01 +7.6438402169e-01 2.2088099089e+01 0.0000000000e+00 0.0000e+00 1.0000e+00
       12  1    3    3    0    0 -3.1030724472e+01 -7.0830705637e+00 +1.9090652806e+00 3.1886051498e+01 0.0000000000e+00 0.0000e+00 -1.0000e+00
</event>
<event>
 8      3 +2.2883893e-04 9.11880000e+01 7.81616400e-03 1.18400000e-01
      -11 -1    0    0    0    0 +0.0000000000e+00 +0.0000000000e+00 +4.5593999997e+01 4.5594000000e+01 5.1100000000e-04 0.0000e+00 -1.0000e+00
       11 -1    0    0    0    0 -0.0000000000e+00 -0.0000000000e+00 -4.5593999997e+01 4.5594000000e+01 5.1100000000e-04 0.0000e+00 1.0000e+00
       23  2    1    2    0    0 +0.0000000000e+00 +0.0000000000e+00 +0.0000000000e+00 9.1188000000e+01 9.1188000000e+01 8.7553e-14 0.0000e+00
  9990012  2    3    3    0    0 +2.1064612738e+01 +1.3930950033e+01 -1.9466199468e+01 5.9301918391e+01 4.9999953244e+01 2.3293e-04 0.0000e+00
      -11  1    4    4    0    0 +1.0631078217e+01 +8.0349975721e+00 -1.9999188988e+01 2.4032240230e+01 5.1100000000e-04 0.0000e+00 1.0000e+00
       11  1    4    4    0    0 +1.2655214534e+01 -1.1808806329e+01 -1.1480701139e+00 1.7347058168e+01 5.1100000000e-04 0.0000e+00 -1.0000e+00
       12  1    4    4    0    0 -2.2216800133e+00 +1.7704758791e+01 +1.6810596332e+00 1.7922619993e+01 0.0000000000e+00 0.0000e+00 -1.0000e+00
      -12  1    3    3    0    0 -2.1064612738e+01 -1.3930950033e+01 +1.9466199468e+01 3.1886081609e+01 0.0000000000e+00 0.0000e+00 1.0000e+00
</event>
</LesHouchesEvents>
