<event>
 4    1  0.4137916E+000  0.2237704E+03  0.7546771E-02  0.1131103E+00
         21   -1    0    0  503  502  0.00000000000E+00  0.00000000000E+00  0.52305081292E+03  0.52305081292E+03  0.00000000000E+00 0.  1.
         21   -1    0    0  501  503 -0.00000000000E+00 -0.00000000000E+00 -0.37176737221E+03  0.37176737221E+03  0.00000000000E+00 0.  1.
          6    1    1    2  501    0 -0.96596414789E+02  0.10398712413E+03 -0.30988173306E+03  0.38223013725E+03  0.17300000000E+03 0.  1.
         -6    1    1    2    0  502  0.96596414789E+02 -0.10398712413E+03  0.46116517377E+03  0.51258804789E+03  0.17300000000E+03 0.  1.
<mgrwt>
<rscale>  2 0.22377039E+03</rscale>
<asrwt>0</asrwt>
<pdfrwt beam="1">  1       21 0.80469356E-01 0.22377039E+03</pdfrwt>
<pdfrwt beam="2">  1       21 0.57194980E-01 0.22377039E+03</pdfrwt>
<totfact> 0.38025998E+03</totfact>
</mgrwt>
</event>
<event>
 4    1  0.4137916E+000  0.2541496E+03  0.7546771E-02  0.1110710E+00
         21   -1    0    0  503  502  0.00000000000E+00  0.00000000000E+00  0.32149336837E+03  0.32149336837E+03  0.00000000000E+00 0.  1.
         21   -1    0    0  501  503 -0.00000000000E+00 -0.00000000000E+00 -0.63364446707E+03  0.63364446707E+03  0.00000000000E+00 0. -1.
          6    1    1    2  501    0 -0.39944937152E+02 -0.18184446332E+03 -0.55073523468E+03  0.60654868359E+03  0.17300000000E+03 0. -1.
         -6    1    1    2    0  502  0.39944937152E+02  0.18184446332E+03  0.23858413599E+03  0.34858915185E+03  0.17300000000E+03 0. -1.
<mgrwt>
<rscale>  2 0.25414958E+03</rscale>
<asrwt>0</asrwt>
<pdfrwt beam="1">  1       21 0.49460519E-01 0.25414958E+03</pdfrwt>
<pdfrwt beam="2">  1       21 0.97483764E-01 0.25414958E+03</pdfrwt>
<totfact> 0.32444314E+03</totfact>
</mgrwt>
</event>
<event>
 4    1  0.4137916E+000  0.1841690E+03  0.7546771E-02  0.1163828E+00
         21   -1    0    0  503  502  0.00000000000E+00  0.00000000000E+00  0.49294293466E+03  0.49294293466E+03  0.00000000000E+00 0.  1.
         21   -1    0    0  501  503 -0.00000000000E+00 -0.00000000000E+00 -0.21119262762E+03  0.21119262762E+03  0.00000000000E+00 0.  1.
          6    1    1    2  501    0 -0.62647678322E+02 -0.80315705855E+01 -0.14820549097E+03  0.23639607712E+03  0.17300000000E+03 0.  1.
         -6    1    1    2    0  502  0.62647678322E+02  0.80315705855E+01  0.42995579801E+03  0.46773948515E+03  0.17300000000E+03 0.  1.
<mgrwt>
<rscale>  2 0.18416905E+03</rscale>
<asrwt>0</asrwt>
<pdfrwt beam="1">  1       21 0.75837374E-01 0.18416905E+03</pdfrwt>
<pdfrwt beam="2">  1       21 0.32491174E-01 0.18416905E+03</pdfrwt>
<totfact> 0.14214924E+04</totfact>
</mgrwt>
</event>
<event>
 4    1  0.4137916E+000  0.1828643E+03  0.7546771E-02  0.1165059E+00
         21   -1    0    0  501  502  0.00000000000E+00  0.00000000000E+00  0.52916899430E+03  0.52916899430E+03  0.00000000000E+00 0.  1.
         21   -1    0    0  502  503 -0.00000000000E+00 -0.00000000000E+00 -0.63822004754E+02  0.63822004754E+02  0.00000000000E+00 0.  1.
          6    1    1    2  501    0  0.25728462004E+02 -0.53370536177E+02  0.26212626162E+03  0.31960842436E+03  0.17300000000E+03 0.  1.
         -6    1    1    2    0  503 -0.25728462004E+02  0.53370536177E+02  0.20322072792E+03  0.27338257469E+03  0.17300000000E+03 0.  1.
<mgrwt>
<rscale>  2 0.18286434E+03</rscale>
<asrwt>0</asrwt>
<pdfrwt beam="1">  1       21 0.81410611E-01 0.18286434E+03</pdfrwt>
<pdfrwt beam="2">  1       21 0.98187703E-02 0.18286434E+03</pdfrwt>
<totfact> 0.11120657E+05</totfact>
</mgrwt>
</event>
<event>
 4    1  0.4137916E+000  0.2807027E+03  0.7546771E-02  0.1095306E+00
         21   -1    0    0  501  502  0.00000000000E+00  0.00000000000E+00  0.86235191054E+03  0.86235191054E+03  0.00000000000E+00 0. -1.
         21   -1    0    0  502  503 -0.00000000000E+00 -0.00000000000E+00 -0.16337041803E+03  0.16337041803E+03  0.00000000000E+00 0.  1.
          6    1    1    2  501    0  0.21933074345E+03  0.27550226456E+02  0.68995967116E+03  0.74487471284E+03  0.17300000000E+03 0. -1.
         -6    1    1    2    0  503 -0.21933074345E+03 -0.27550226456E+02  0.90218213413E+01  0.28084761573E+03  0.17300000000E+03 0.  1.
<mgrwt>
<rscale>  2 0.28070267E+03</rscale>
<asrwt>0</asrwt>
<pdfrwt beam="1">  1       21 0.13266952E+00 0.28070267E+03</pdfrwt>
<pdfrwt beam="2">  1       21 0.25133911E-01 0.28070267E+03</pdfrwt>
<totfact> 0.57993379E+03</totfact>
</mgrwt>
</event>
<event>
 4    1  0.4137916E+000  0.2634355E+03  0.7546771E-02  0.1105097E+00
         21   -1    0    0  501  502  0.00000000000E+00  0.00000000000E+00  0.72073269850E+02  0.72073269850E+02  0.00000000000E+00 0.  1.
         21   -1    0    0  502  503 -0.00000000000E+00 -0.00000000000E+00 -0.21256686725E+04  0.21256686725E+04  0.00000000000E+00 0. -1.
          6    1    1    2  501    0 -0.12764967909E+03 -0.15223277320E+03 -0.21406373597E+03  0.33944298618E+03  0.17300000000E+03 0.  1.
         -6    1    1    2    0  503  0.12764967909E+03  0.15223277320E+03 -0.18395316667E+04  0.18582989562E+04  0.17300000000E+03 0. -1.
<mgrwt>
<rscale>  2 0.26343549E+03</rscale>
<asrwt>0</asrwt>
<pdfrwt beam="1">  1       21 0.11088194E-01 0.26343549E+03</pdfrwt>
<pdfrwt beam="2">  1       21 0.32702598E+00 0.26343549E+03</pdfrwt>
<totfact> 0.14829302E+03</totfact>
</mgrwt>
</event>
<event>
 4    1  0.4137916E+000  0.2154611E+03  0.7546771E-02  0.1137313E+00
         21   -1    0    0  501  502  0.00000000000E+00  0.00000000000E+00  0.21373945009E+03  0.21373945009E+03  0.00000000000E+00 0. -1.
         21   -1    0    0  502  503 -0.00000000000E+00 -0.00000000000E+00 -0.21733207036E+03  0.21733207036E+03  0.00000000000E+00 0. -1.
          6    1    1    2  501    0  0.12190867828E+03  0.40407327989E+02  0.35852528803E+01  0.21549090940E+03  0.17300000000E+03 0. -1.
         -6    1    1    2    0  503 -0.12190867828E+03 -0.40407327989E+02 -0.71778731503E+01  0.21558061105E+03  0.17300000000E+03 0. -1.
<mgrwt>
<rscale>  2 0.21546108E+03</rscale>
<asrwt>0</asrwt>
<pdfrwt beam="1">  1       21 0.32882993E-01 0.21546108E+03</pdfrwt>
<pdfrwt beam="2">  1       21 0.33435703E-01 0.21546108E+03</pdfrwt>
<totfact> 0.75950527E+04</totfact>
</mgrwt>
</event>
<event>
 4    1  0.4137916E+000  0.1930391E+03  0.7546771E-02  0.1155748E+00
         21   -1    0    0  501  502  0.00000000000E+00  0.00000000000E+00  0.84627384562E+02  0.84627384562E+02  0.00000000000E+00 0.  1.
         21   -1    0    0  502  503 -0.00000000000E+00 -0.00000000000E+00 -0.45900040438E+03  0.45900040438E+03  0.00000000000E+00 0. -1.
          6    1    1    2  501    0 -0.71721340388E+02 -0.46809632796E+02 -0.24200486735E+03  0.30956493376E+03  0.17300000000E+03 0. -1.
         -6    1    1    2    0  503  0.71721340388E+02  0.46809632796E+02 -0.13236815246E+03  0.23406285518E+03  0.17300000000E+03 0.  1.
<mgrwt>
<rscale>  2 0.19303910E+03</rscale>
<asrwt>0</asrwt>
<pdfrwt beam="1">  1       21 0.13019598E-01 0.19303910E+03</pdfrwt>
<pdfrwt beam="2">  1       21 0.70615447E-01 0.19303910E+03</pdfrwt>
<totfact> 0.92125143E+04</totfact>
</mgrwt>
</event>
<event>
 4    1  0.4137916E+000  0.2656691E+03  0.7546771E-02  0.1103784E+00
         21   -1    0    0  501  502  0.00000000000E+00  0.00000000000E+00  0.30411655602E+02  0.30411655602E+02  0.00000000000E+00 0.  1.
         21   -1    0    0  502  503 -0.00000000000E+00 -0.00000000000E+00 -0.23994949754E+04  0.23994949754E+04  0.00000000000E+00 0.  1.
          6    1    1    2  501    0  0.18886131488E+03 -0.70586742021E+02 -0.96454890977E+03  0.10004672327E+04  0.17300000000E+03 0.  1.
         -6    1    1    2    0  503 -0.18886131488E+03  0.70586742021E+02 -0.14045344100E+04  0.14294393982E+04  0.17300000000E+03 0.  1.
<mgrwt>
<rscale>  2 0.26566913E+03</rscale>
<asrwt>0</asrwt>
<pdfrwt beam="1">  1       21 0.46787149E-02 0.26566913E+03</pdfrwt>
<pdfrwt beam="2">  1       21 0.36915318E+00 0.26566913E+03</pdfrwt>
<totfact> 0.37254043E+03</totfact>
</mgrwt>
</event>
<event>
 4    1  0.4137916E+000  0.1955556E+03  0.7546771E-02  0.1153544E+00
         21   -1    0    0  501  502  0.00000000000E+00  0.00000000000E+00  0.20512415133E+03  0.20512415133E+03  0.00000000000E+00 0.  1.
         21   -1    0    0  502  503 -0.00000000000E+00 -0.00000000000E+00 -0.64056747625E+03  0.64056747625E+03  0.00000000000E+00 0. -1.
          6    1    1    2  501    0  0.66544801736E+02 -0.62327863480E+02  0.13831251058E+03  0.23952520491E+03  0.17300000000E+03 0.  1.
         -6    1    1    2    0  503 -0.66544801736E+02  0.62327863480E+02 -0.57375583550E+03  0.60616642267E+03  0.17300000000E+03 0. -1.
<mgrwt>
<rscale>  2 0.19555555E+03</rscale>
<asrwt>0</asrwt>
<pdfrwt beam="1">  1       21 0.31557562E-01 0.19555555E+03</pdfrwt>
<pdfrwt beam="2">  1       21 0.98548843E-01 0.19555555E+03</pdfrwt>
<totfact> 0.81857702E+03</totfact>
</mgrwt>
</event>
<event>
 4    1  0.4137916E+000  0.1843035E+03  0.7546771E-02  0.1163702E+00
         21   -1    0    0  501  502  0.00000000000E+00  0.00000000000E+00  0.33086668272E+03  0.33086668272E+03  0.00000000000E+00 0. -1.
         21   -1    0    0  502  503 -0.00000000000E+00 -0.00000000000E+00 -0.36947893637E+03  0.36947893637E+03  0.00000000000E+00 0. -1.
          6    1    1    2  501    0 -0.45449152420E+02 -0.44420227292E+02  0.27826680385E+03  0.33376667925E+03  0.17300000000E+03 0. -1.
         -6    1    1    2    0  503  0.45449152420E+02  0.44420227292E+02 -0.31687905750E+03  0.36657893984E+03  0.17300000000E+03 0. -1.
<mgrwt>
<rscale>  2 0.18430351E+03</rscale>
<asrwt>0</asrwt>
<pdfrwt beam="1">  1       21 0.50902567E-01 0.18430351E+03</pdfrwt>
<pdfrwt beam="2">  1       21 0.56842913E-01 0.18430351E+03</pdfrwt>
<totfact> 0.10737165E+04</totfact>
</mgrwt>
</event>
<event>
 4    1  0.4137916E+000  0.2950593E+03  0.7546771E-02  0.1087737E+00
         21   -1    0    0  503  502  0.00000000000E+00  0.00000000000E+00  0.25796625062E+03  0.25796625062E+03  0.00000000000E+00 0.  1.
         21   -1    0    0  501  503 -0.00000000000E+00 -0.00000000000E+00 -0.35717717742E+03  0.35717717742E+03  0.00000000000E+00 0. -1.
          6    1    1    2  501    0 -0.13612150815E+03  0.19647367901E+03 -0.12182280859E+03  0.31921899727E+03  0.17300000000E+03 0.  1.
         -6    1    1    2    0  502  0.13612150815E+03 -0.19647367901E+03  0.22611881788E+02  0.29592443077E+03  0.17300000000E+03 0. -1.
<mgrwt>
<rscale>  2 0.29505927E+03</rscale>
<asrwt>0</asrwt>
<pdfrwt beam="1">  1       21 0.39687115E-01 0.29505927E+03</pdfrwt>
<pdfrwt beam="2">  1       21 0.54950335E-01 0.29505927E+03</pdfrwt>
<totfact> 0.18157164E+04</totfact>
</mgrwt>
</event>
<event>
 4    1  0.4137916E+000  0.2315971E+03  0.7546771E-02  0.1125521E+00
         21   -1    0    0  503  502  0.00000000000E+00  0.00000000000E+00  0.65510452878E+02  0.65510452878E+02  0.00000000000E+00 0. -1.
         21   -1    0    0  501  503 -0.00000000000E+00 -0.00000000000E+00 -0.15057935000E+04  0.15057935000E+04  0.00000000000E+00 0.  1.
          6    1    1    2  501    0 -0.97315837483E+02  0.11932235007E+03 -0.12508269301E+04  0.12720869485E+04  0.17300000000E+03 0.  1.
         -6    1    1    2    0  502  0.97315837483E+02 -0.11932235007E+03 -0.18945611708E+03  0.29921700445E+03  0.17300000000E+03 0. -1.
<mgrwt>
<rscale>  2 0.23159705E+03</rscale>
<asrwt>0</asrwt>
<pdfrwt beam="1">  1       21 0.10078532E-01 0.23159705E+03</pdfrwt>
<pdfrwt beam="2">  1       21 0.23166051E+00 0.23159705E+03</pdfrwt>
<totfact> 0.66046175E+03</totfact>
</mgrwt>
</event>
<event>
 4    1  0.4137916E+000  0.1973825E+03  0.7546771E-02  0.1151966E+00
         21   -1    0    0  501  502  0.00000000000E+00  0.00000000000E+00  0.24235347093E+03  0.24235347093E+03  0.00000000000E+00 0. -1.
         21   -1    0    0  502  503 -0.00000000000E+00 -0.00000000000E+00 -0.23305052660E+03  0.23305052660E+03  0.00000000000E+00 0. -1.
          6    1    1    2  501    0 -0.94773221816E+02 -0.69925444160E+01  0.13704277285E+03  0.24029269827E+03  0.17300000000E+03 0. -1.
         -6    1    1    2    0  503  0.94773221816E+02  0.69925444160E+01 -0.12773982852E+03  0.23511129926E+03  0.17300000000E+03 0. -1.
<mgrwt>
<rscale>  2 0.19738252E+03</rscale>
<asrwt>0</asrwt>
<pdfrwt beam="1">  1       21 0.37285150E-01 0.19738252E+03</pdfrwt>
<pdfrwt beam="2">  1       21 0.35853927E-01 0.19738252E+03</pdfrwt>
<totfact> 0.51922144E+04</totfact>
</mgrwt>
</event>
<event>
 4    1  0.4137916E+000  0.1818337E+03  0.7546771E-02  0.1166040E+00
         21   -1    0    0  503  502  0.00000000000E+00  0.00000000000E+00  0.72017062359E+03  0.72017062359E+03  0.00000000000E+00 0. -1.
         21   -1    0    0  501  503 -0.00000000000E+00 -0.00000000000E+00 -0.11268484876E+03  0.11268484876E+03  0.00000000000E+00 0. -1.
          6    1    1    2  501    0  0.95263681331E+00  0.55978480978E+02 -0.16818525682E+02  0.18260985914E+03  0.17300000000E+03 0. -1.
         -6    1    1    2    0  502 -0.95263681331E+00 -0.55978480978E+02  0.62430430051E+03  0.65024561320E+03  0.17300000000E+03 0. -1.
<mgrwt>
<rscale>  2 0.18183371E+03</rscale>
<asrwt>0</asrwt>
<pdfrwt beam="1">  1       21 0.11079548E+00 0.18183371E+03</pdfrwt>
<pdfrwt beam="2">  1       21 0.17336131E-01 0.18183371E+03</pdfrwt>
<totfact> 0.19445677E+04</totfact>
</mgrwt>
</event>
<event>
 4    1  0.4137916E+000  0.1759813E+03  0.7546771E-02  0.1171750E+00
         21   -1    0    0  501  502  0.00000000000E+00  0.00000000000E+00  0.10828225373E+03  0.10828225373E+03  0.00000000000E+00 0.  1.
         21   -1    0    0  502  503 -0.00000000000E+00 -0.00000000000E+00 -0.30310176636E+03  0.30310176636E+03  0.00000000000E+00 0.  1.
          6    1    1    2  501    0  0.17325381269E+02  0.27207780084E+02 -0.48560192898E+02  0.18255827691E+03  0.17300000000E+03 0.  1.
         -6    1    1    2    0  503 -0.17325381269E+02 -0.27207780084E+02 -0.14625931973E+03  0.22882574318E+03  0.17300000000E+03 0.  1.
<mgrwt>
<rscale>  2 0.17598134E+03</rscale>
<asrwt>0</asrwt>
<pdfrwt beam="1">  1       21 0.16658808E-01 0.17598134E+03</pdfrwt>
<pdfrwt beam="2">  1       21 0.46631041E-01 0.17598134E+03</pdfrwt>
<totfact> 0.14339279E+05</totfact>
</mgrwt>
</event>
<event>
 4    1  0.4137916E+000  0.2777158E+03  0.7546771E-02  0.1096943E+00
         21   -1    0    0  501  502  0.00000000000E+00  0.00000000000E+00  0.20275137710E+03  0.20275137710E+03  0.00000000000E+00 0. -1.
         21   -1    0    0  502  503 -0.00000000000E+00 -0.00000000000E+00 -0.41699857337E+03  0.41699857337E+03  0.00000000000E+00 0.  1.
          6    1    1    2  501    0  0.58525063297E+02  0.20921732576E+03 -0.15318365664E+02  0.27813795994E+03  0.17300000000E+03 0.  1.
         -6    1    1    2    0  503 -0.58525063297E+02 -0.20921732576E+03 -0.19892883061E+03  0.34161199053E+03  0.17300000000E+03 0. -1.
<mgrwt>
<rscale>  2 0.27771581E+03</rscale>
<asrwt>0</asrwt>
<pdfrwt beam="1">  1       21 0.31192520E-01 0.27771581E+03</pdfrwt>
<pdfrwt beam="2">  1       21 0.64153627E-01 0.27771581E+03</pdfrwt>
<totfact> 0.21202386E+04</totfact>
</mgrwt>
</event>
<event>
 4    1  0.4137916E+000  0.1740833E+03  0.7546771E-02  0.1173655E+00
         21   -1    0    0  503  502  0.00000000000E+00  0.00000000000E+00  0.10800720094E+04  0.10800720094E+04  0.00000000000E+00 0.  1.
         21   -1    0    0  501  503 -0.00000000000E+00 -0.00000000000E+00 -0.13777347122E+03  0.13777347122E+03  0.00000000000E+00 0.  1.
          6    1    1    2  501    0 -0.11410511623E+02 -0.15678409183E+02 -0.72242035410E+02  0.18847791375E+03  0.17300000000E+03 0.  1.
         -6    1    1    2    0  502  0.11410511623E+02  0.15678409183E+02  0.10145405736E+04  0.10293675669E+04  0.17300000000E+03 0.  1.
<mgrwt>
<rscale>  2 0.17408335E+03</rscale>
<asrwt>0</asrwt>
<pdfrwt beam="1">  1       21 0.16616492E+00 0.17408335E+03</pdfrwt>
<pdfrwt beam="2">  1       21 0.21195919E-01 0.17408335E+03</pdfrwt>
<totfact> 0.47825193E+03</totfact>
</mgrwt>
</event>
<event>
 4    1  0.4137916E+000  0.1995920E+03  0.7546771E-02  0.1150084E+00
         21   -1    0    0  503  502  0.00000000000E+00  0.00000000000E+00  0.52251388106E+02  0.52251388106E+02  0.00000000000E+00 0. -1.
         21   -1    0    0  501  503 -0.00000000000E+00 -0.00000000000E+00 -0.79880282811E+03  0.79880282811E+03  0.00000000000E+00 0. -1.
          6    1    1    2  501    0 -0.97199225013E+02 -0.21453922839E+02 -0.46410329038E+03  0.50520176592E+03  0.17300000000E+03 0. -1.
         -6    1    1    2    0  502  0.97199225013E+02  0.21453922839E+02 -0.28244814962E+03  0.34585245029E+03  0.17300000000E+03 0. -1.
<mgrwt>
<rscale>  2 0.19959198E+03</rscale>
<asrwt>0</asrwt>
<pdfrwt beam="1">  1       21 0.80386751E-02 0.19959198E+03</pdfrwt>
<pdfrwt beam="2">  1       21 0.12289274E+00 0.19959198E+03</pdfrwt>
<totfact> 0.59016556E+04</totfact>
</mgrwt>
</event>
<event>
 4    1  0.4137916E+000  0.2007813E+03  0.7546771E-02  0.1149082E+00
         21   -1    0    0  501  502  0.00000000000E+00  0.00000000000E+00  0.39182641145E+02  0.39182641145E+02  0.00000000000E+00 0. -1.
         21   -1    0    0  502  503 -0.00000000000E+00 -0.00000000000E+00 -0.10594393084E+04  0.10594393084E+04  0.00000000000E+00 0.  1.
          6    1    1    2  501    0  0.96452197926E+02  0.32880067957E+02 -0.60346521481E+03  0.63599008706E+03  0.17300000000E+03 0.  1.
         -6    1    1    2    0  503 -0.96452197926E+02 -0.32880067957E+02 -0.41679145243E+03  0.46263186247E+03  0.17300000000E+03 0. -1.
<mgrwt>
<rscale>  2 0.20078129E+03</rscale>
<asrwt>0</asrwt>
<pdfrwt beam="1">  1       21 0.60280983E-02 0.20078129E+03</pdfrwt>
<pdfrwt beam="2">  1       21 0.16299067E+00 0.20078129E+03</pdfrwt>
<totfact> 0.46600845E+04</totfact>
</mgrwt>
</event>
<event>
 4    1  0.4137916E+000  0.1974742E+03  0.7546771E-02  0.1151888E+00
         21   -1    0    0  501  502  0.00000000000E+00  0.00000000000E+00  0.24922473412E+03  0.24922473412E+03  0.00000000000E+00 0. -1.
         21   -1    0    0  502  503 -0.00000000000E+00 -0.00000000000E+00 -0.16520738965E+03  0.16520738965E+03  0.00000000000E+00 0. -1.
          6    1    1    2  501    0  0.67775995857E+02 -0.66884047978E+02  0.89664142691E+02  0.21687720021E+03  0.17300000000E+03 0. -1.
         -6    1    1    2    0  503 -0.67775995857E+02  0.66884047978E+02 -0.56467982244E+01  0.19755492355E+03  0.17300000000E+03 0. -1.
<mgrwt>
<rscale>  2 0.19747420E+03</rscale>
<asrwt>0</asrwt>
<pdfrwt beam="1">  1       21 0.38342267E-01 0.19747420E+03</pdfrwt>
<pdfrwt beam="2">  1       21 0.25416521E-01 0.19747420E+03</pdfrwt>
<totfact> 0.96080224E+04</totfact>
</mgrwt>
</event>
<event>
 4    1  0.4137916E+000  0.2476087E+03  0.7546771E-02  0.1114825E+00
         21   -1    0    0  503  502  0.00000000000E+00  0.00000000000E+00  0.10005323526E+04  0.10005323526E+04  0.00000000000E+00 0. -1.
         21   -1    0    0  501  503 -0.00000000000E+00 -0.00000000000E+00 -0.11031920947E+03  0.11031920947E+03  0.00000000000E+00 0.  1.
          6    1    1    2  501    0  0.16810967766E+03  0.55858605684E+02  0.74781095321E+02  0.25865471148E+03  0.17300000000E+03 0.  1.
         -6    1    1    2    0  502 -0.16810967766E+03 -0.55858605684E+02  0.81543204782E+03  0.85219685059E+03  0.17300000000E+03 0. -1.
<mgrwt>
<rscale>  2 0.24760866E+03</rscale>
<asrwt>0</asrwt>
<pdfrwt beam="1">  1       21 0.15392805E+00 0.24760866E+03</pdfrwt>
<pdfrwt beam="2">  1       21 0.16972187E-01 0.24760866E+03</pdfrwt>
<totfact> 0.84011140E+03</totfact>
</mgrwt>
</event>
<event>
 4    1  0.4137916E+000  0.1911347E+03  0.7546771E-02  0.1157442E+00
         21   -1    0    0  503  502  0.00000000000E+00  0.00000000000E+00  0.75512273957E+02  0.75512273957E+02  0.00000000000E+00 0.  1.
         21   -1    0    0  501  503 -0.00000000000E+00 -0.00000000000E+00 -0.50393330308E+03  0.50393330308E+03  0.00000000000E+00 0.  1.
          6    1    1    2  501    0  0.13067882761E+02 -0.80204189251E+02 -0.27212731620E+03  0.33254436960E+03  0.17300000000E+03 0.  1.
         -6    1    1    2    0  502 -0.13067882761E+02  0.80204189251E+02 -0.15629371293E+03  0.24690120744E+03  0.17300000000E+03 0.  1.
<mgrwt>
<rscale>  2 0.19113472E+03</rscale>
<asrwt>0</asrwt>
<pdfrwt beam="1">  1       21 0.11617273E-01 0.19113472E+03</pdfrwt>
<pdfrwt beam="2">  1       21 0.77528203E-01 0.19113472E+03</pdfrwt>
<totfact> 0.91848042E+04</totfact>
</mgrwt>
</event>
<event>
 4    1  0.4137916E+000  0.2166419E+03  0.7546771E-02  0.1136412E+00
         21   -1    0    0  501  502  0.00000000000E+00  0.00000000000E+00  0.78124946054E+03  0.78124946054E+03  0.00000000000E+00 0.  1.
         21   -1    0    0  502  503 -0.00000000000E+00 -0.00000000000E+00 -0.80009001247E+02  0.80009001247E+02  0.00000000000E+00 0.  1.
          6    1    1    2  501    0 -0.10492005097E+03  0.77437122666E+02  0.13567439213E+03  0.25561937669E+03  0.17300000000E+03 0.  1.
         -6    1    1    2    0  503  0.10492005097E+03 -0.77437122666E+02  0.56556606717E+03  0.60563908510E+03  0.17300000000E+03 0.  1.
<mgrwt>
<rscale>  2 0.21664193E+03</rscale>
<asrwt>0</asrwt>
<pdfrwt beam="1">  1       21 0.12019222E+00 0.21664193E+03</pdfrwt>
<pdfrwt beam="2">  1       21 0.12309078E-01 0.21664193E+03</pdfrwt>
<totfact> 0.29085193E+04</totfact>
</mgrwt>
</event>
<event>
 4    1  0.4137916E+000  0.2326442E+03  0.7546771E-02  0.1124792E+00
         21   -1    0    0  501  502  0.00000000000E+00  0.00000000000E+00  0.41501196009E+03  0.41501196009E+03  0.00000000000E+00 0. -1.
         21   -1    0    0  502  503 -0.00000000000E+00 -0.00000000000E+00 -0.31709971566E+03  0.31709971566E+03  0.00000000000E+00 0.  1.
          6    1    1    2  501    0 -0.15544623260E+03  0.55488234334E+01  0.32982595336E+03  0.40361922673E+03  0.17300000000E+03 0. -1.
         -6    1    1    2    0  503  0.15544623260E+03 -0.55488234334E+01 -0.23191370893E+03  0.32849244902E+03  0.17300000000E+03 0.  1.
<mgrwt>
<rscale>  2 0.23264419E+03</rscale>
<asrwt>0</asrwt>
<pdfrwt beam="1">  1       21 0.63847994E-01 0.23264419E+03</pdfrwt>
<pdfrwt beam="2">  1       21 0.48784571E-01 0.23264419E+03</pdfrwt>
<totfact> 0.88495495E+03</totfact>
</mgrwt>
</event>
<event>
 4    1  0.4137916E+000  0.2014939E+03  0.7546771E-02  0.1148485E+00
         21   -1    0    0  501  502  0.00000000000E+00  0.00000000000E+00  0.61336652804E+03  0.61336652804E+03  0.00000000000E+00 0. -1.
         21   -1    0    0  502  503 -0.00000000000E+00 -0.00000000000E+00 -0.20448350983E+03  0.20448350983E+03  0.00000000000E+00 0. -1.
          6    1    1    2  501    0  0.94297778445E+02 -0.42174761779E+02  0.54073057415E+03  0.57705228132E+03  0.17300000000E+03 0. -1.
         -6    1    1    2    0  503 -0.94297778445E+02  0.42174761779E+02 -0.13184755594E+03  0.24079775655E+03  0.17300000000E+03 0. -1.
<mgrwt>
<rscale>  2 0.20149387E+03</rscale>
<asrwt>0</asrwt>
<pdfrwt beam="1">  1       21 0.94364081E-01 0.20149387E+03</pdfrwt>
<pdfrwt beam="2">  1       21 0.31459002E-01 0.20149387E+03</pdfrwt>
<totfact> 0.90813797E+03</totfact>
</mgrwt>
</event>
<event>
 4    1  0.4137916E+000  0.2017049E+03  0.7546771E-02  0.1148309E+00
         21   -1    0    0  503  502  0.00000000000E+00  0.00000000000E+00  0.22486087642E+04  0.22486087642E+04  0.00000000000E+00 0. -1.
         21   -1    0    0  501  503 -0.00000000000E+00 -0.00000000000E+00 -0.24578199053E+02  0.24578199053E+02  0.00000000000E+00 0.  1.
          6    1    1    2  501    0  0.97952471593E+00 -0.10370582382E+03  0.52819364378E+03  0.56539665961E+03  0.17300000000E+03 0.  1.
         -6    1    1    2    0  502 -0.97952471593E+00  0.10370582382E+03  0.16958369213E+04  0.17077903036E+04  0.17300000000E+03 0. -1.
<mgrwt>
<rscale>  2 0.20170488E+03</rscale>
<asrwt>0</asrwt>
<pdfrwt beam="1">  1       21 0.34593965E+00 0.20170488E+03</pdfrwt>
<pdfrwt beam="2">  1       21 0.37812632E-02 0.20170488E+03</pdfrwt>
<totfact> 0.78703156E+03</totfact>
</mgrwt>
</event>
<event>
 4    1  0.4137916E+000  0.1841598E+03  0.7546771E-02  0.1163837E+00
         21   -1    0    0  503  502  0.00000000000E+00  0.00000000000E+00  0.14583822787E+03  0.14583822787E+03  0.00000000000E+00 0. -1.
         21   -1    0    0  501  503 -0.00000000000E+00 -0.00000000000E+00 -0.42599852983E+03  0.42599852983E+03  0.00000000000E+00 0.  1.
          6    1    1    2  501    0 -0.57793667174E+02 -0.25411178814E+02 -0.33275256465E+03  0.38031448205E+03  0.17300000000E+03 0.  1.
         -6    1    1    2    0  502  0.57793667174E+02  0.25411178814E+02  0.52592262695E+02  0.19152227565E+03  0.17300000000E+03 0. -1.
<mgrwt>
<rscale>  2 0.18415981E+03</rscale>
<asrwt>0</asrwt>
<pdfrwt beam="1">  1       21 0.22436651E-01 0.18415981E+03</pdfrwt>
<pdfrwt beam="2">  1       21 0.65538235E-01 0.18415981E+03</pdfrwt>
<totfact> 0.39988523E+04</totfact>
</mgrwt>
</event>
<event>
 4    1  0.4137916E+000  0.1892506E+03  0.7546771E-02  0.1159139E+00
         21   -1    0    0  501  502  0.00000000000E+00  0.00000000000E+00  0.10766030595E+04  0.10766030595E+04  0.00000000000E+00 0. -1.
         21   -1    0    0  502  503 -0.00000000000E+00 -0.00000000000E+00 -0.69464025495E+02  0.69464025495E+02  0.00000000000E+00 0. -1.
          6    1    1    2  501    0 -0.76055798601E+02 -0.10115144214E+02  0.91722046442E+03  0.93654107277E+03  0.17300000000E+03 0. -1.
         -6    1    1    2    0  503  0.76055798601E+02  0.10115144214E+02  0.89918569595E+02  0.20952601223E+03  0.17300000000E+03 0. -1.
<mgrwt>
<rscale>  2 0.18925063E+03</rscale>
<asrwt>0</asrwt>
<pdfrwt beam="1">  1       21 0.16563123E+00 0.18925063E+03</pdfrwt>
<pdfrwt beam="2">  1       21 0.10686774E-01 0.18925063E+03</pdfrwt>
<totfact> 0.16572257E+04</totfact>
</mgrwt>
</event>
<event>
 4    1  0.4137916E+000  0.2103367E+03  0.7546771E-02  0.1141300E+00
         21   -1    0    0  501  502  0.00000000000E+00  0.00000000000E+00  0.35072249262E+02  0.35072249262E+02  0.00000000000E+00 0. -1.
         21   -1    0    0  502  503 -0.00000000000E+00 -0.00000000000E+00 -0.12703846444E+04  0.12703846444E+04  0.00000000000E+00 0. -1.
          6    1    1    2  501    0  0.11963078590E+03 -0.10027975434E+01 -0.56288506736E+03  0.60090026593E+03  0.17300000000E+03 0.  1.
         -6    1    1    2    0  503 -0.11963078590E+03  0.10027975434E+01 -0.67242732774E+03  0.70455662769E+03  0.17300000000E+03 0.  1.
<mgrwt>
<rscale>  2 0.21033671E+03</rscale>
<asrwt>0</asrwt>
<pdfrwt beam="1">  1       21 0.53957299E-02 0.21033671E+03</pdfrwt>
<pdfrwt beam="2">  1       21 0.19544382E+00 0.21033671E+03</pdfrwt>
<totfact> 0.33552088E+04</totfact>
</mgrwt>
</event>
<event>
 4    1  0.4137916E+000  0.1788586E+03  0.7546771E-02  0.1168912E+00
         21   -1    0    0  503  502  0.00000000000E+00  0.00000000000E+00  0.11275392357E+03  0.11275392357E+03  0.00000000000E+00 0.  1.
         21   -1    0    0  501  503 -0.00000000000E+00 -0.00000000000E+00 -0.90421784027E+03  0.90421784027E+03  0.00000000000E+00 0.  1.
          6    1    1    2  501    0  0.71401404528E+01 -0.44837688872E+02 -0.81695580056E+03  0.83630567380E+03  0.17300000000E+03 0.  1.
         -6    1    1    2    0  502 -0.71401404528E+01  0.44837688872E+02  0.25491883863E+02  0.18066609004E+03  0.17300000000E+03 0.  1.
<mgrwt>
<rscale>  2 0.17885860E+03</rscale>
<asrwt>0</asrwt>
<pdfrwt beam="1">  1       21 0.17346758E-01 0.17885860E+03</pdfrwt>
<pdfrwt beam="2">  1       21 0.13911043E+00 0.17885860E+03</pdfrwt>
<totfact> 0.11046636E+04</totfact>
</mgrwt>
</event>
<event>
 4    1  0.4137916E+000  0.1774433E+03  0.7546771E-02  0.1170301E+00
         21   -1    0    0  501  502  0.00000000000E+00  0.00000000000E+00  0.43124034660E+02  0.43124034660E+02  0.00000000000E+00 0.  1.
         21   -1    0    0  502  503 -0.00000000000E+00 -0.00000000000E+00 -0.83785789931E+03  0.83785789931E+03  0.00000000000E+00 0.  1.
          6    1    1    2  501    0  0.20112255270E+02 -0.33950145111E+02 -0.23941766593E+03  0.29800492265E+03  0.17300000000E+03 0.  1.
         -6    1    1    2    0  503 -0.20112255270E+02  0.33950145111E+02 -0.55531619872E+03  0.58297701132E+03  0.17300000000E+03 0.  1.
<mgrwt>
<rscale>  2 0.17744327E+03</rscale>
<asrwt>0</asrwt>
<pdfrwt beam="1">  1       21 0.66344675E-02 0.17744327E+03</pdfrwt>
<pdfrwt beam="2">  1       21 0.12890120E+00 0.17744327E+03</pdfrwt>
<totfact> 0.73814346E+04</totfact>
</mgrwt>
</event>
<event>
 4    1  0.4137916E+000  0.2016005E+03  0.7546771E-02  0.1148396E+00
         21   -1    0    0  501  502  0.00000000000E+00  0.00000000000E+00  0.15816433097E+04  0.15816433097E+04  0.00000000000E+00 0. -1.
         21   -1    0    0  502  503 -0.00000000000E+00 -0.00000000000E+00 -0.43983006539E+03  0.43983006539E+03  0.00000000000E+00 0. -1.
          6    1    1    2  501    0  0.10165829141E+03 -0.19477278895E+02  0.15516734404E+04  0.15647150661E+04  0.17300000000E+03 0. -1.
         -6    1    1    2    0  503 -0.10165829141E+03  0.19477278895E+02 -0.40986019600E+03  0.45675830903E+03  0.17300000000E+03 0. -1.
<mgrwt>
<rscale>  2 0.20160053E+03</rscale>
<asrwt>0</asrwt>
<pdfrwt beam="1">  1       21 0.24332974E+00 0.20160053E+03</pdfrwt>
<pdfrwt beam="2">  1       21 0.67666165E-01 0.20160053E+03</pdfrwt>
<totfact> 0.14346581E+02</totfact>
</mgrwt>
</event>
<event>
 4    1  0.4137916E+000  0.1979671E+03  0.7546771E-02  0.1151466E+00
         21   -1    0    0  501  502  0.00000000000E+00  0.00000000000E+00  0.34990794862E+03  0.34990794862E+03  0.00000000000E+00 0. -1.
         21   -1    0    0  502  503 -0.00000000000E+00 -0.00000000000E+00 -0.12284277705E+03  0.12284277705E+03  0.00000000000E+00 0.  1.
          6    1    1    2  501    0 -0.93027146722E+02 -0.24655688959E+02  0.18374685377E+03  0.27009972102E+03  0.17300000000E+03 0. -1.
         -6    1    1    2    0  503  0.93027146722E+02  0.24655688959E+02  0.43318317805E+02  0.20265100464E+03  0.17300000000E+03 0. -1.
<mgrwt>
<rscale>  2 0.19796705E+03</rscale>
<asrwt>0</asrwt>
<pdfrwt beam="1">  1       21 0.53831992E-01 0.19796705E+03</pdfrwt>
<pdfrwt beam="2">  1       21 0.18898889E-01 0.19796705E+03</pdfrwt>
<totfact> 0.83533364E+04</totfact>
</mgrwt>
</event>
<event>
 4    1  0.4137916E+000  0.2855420E+03  0.7546771E-02  0.1092700E+00
         21   -1    0    0  501  502  0.00000000000E+00  0.00000000000E+00  0.10042291090E+04  0.10042291090E+04  0.00000000000E+00 0. -1.
         21   -1    0    0  502  503 -0.00000000000E+00 -0.00000000000E+00 -0.88833750128E+02  0.88833750128E+02  0.00000000000E+00 0. -1.
          6    1    1    2  501    0  0.22664768671E+02  0.22603433313E+03  0.61800573054E+03  0.68078285413E+03  0.17300000000E+03 0. -1.
         -6    1    1    2    0  503 -0.22664768671E+02 -0.22603433313E+03  0.29738962836E+03  0.41228000503E+03  0.17300000000E+03 0. -1.
<mgrwt>
<rscale>  2 0.28554196E+03</rscale>
<asrwt>0</asrwt>
<pdfrwt beam="1">  1       21 0.15449678E+00 0.28554196E+03</pdfrwt>
<pdfrwt beam="2">  1       21 0.13666731E-01 0.28554196E+03</pdfrwt>
<totfact> 0.12119043E+04</totfact>
</mgrwt>
</event>
<event>
 4    1  0.4137916E+000  0.1971385E+03  0.7546771E-02  0.1152176E+00
         21   -1    0    0  501  502  0.00000000000E+00  0.00000000000E+00  0.97436777061E+02  0.97436777061E+02  0.00000000000E+00 0. -1.
         21   -1    0    0  502  503 -0.00000000000E+00 -0.00000000000E+00 -0.40146381635E+03  0.40146381635E+03  0.00000000000E+00 0. -1.
          6    1    1    2  501    0 -0.14235020341E+02 -0.93444819380E+02 -0.13192167735E+03  0.23720644812E+03  0.17300000000E+03 0. -1.
         -6    1    1    2    0  503  0.14235020341E+02  0.93444819380E+02 -0.17210536194E+03  0.26169414529E+03  0.17300000000E+03 0. -1.
<mgrwt>
<rscale>  2 0.19713845E+03</rscale>
<asrwt>0</asrwt>
<pdfrwt beam="1">  1       21 0.14990273E-01 0.19713845E+03</pdfrwt>
<pdfrwt beam="2">  1       21 0.61763664E-01 0.19713845E+03</pdfrwt>
<totfact> 0.95440593E+04</totfact>
</mgrwt>
</event>
<event>
 4    1  0.4137916E+000  0.1772364E+03  0.7546771E-02  0.1170505E+00
         21   -1    0    0  503  502  0.00000000000E+00  0.00000000000E+00  0.17453309614E+03  0.17453309614E+03  0.00000000000E+00 0. -1.
         21   -1    0    0  501  503 -0.00000000000E+00 -0.00000000000E+00 -0.18438163617E+03  0.18438163617E+03  0.00000000000E+00 0. -1.
          6    1    1    2  501    0 -0.37138158056E+02 -0.10221826840E+02 -0.32646967858E+02  0.18021807079E+03  0.17300000000E+03 0. -1.
         -6    1    1    2    0  502  0.37138158056E+02  0.10221826840E+02  0.22798427830E+02  0.17869666152E+03  0.17300000000E+03 0. -1.
<mgrwt>
<rscale>  2 0.17723636E+03</rscale>
<asrwt>0</asrwt>
<pdfrwt beam="1">  1       21 0.26851246E-01 0.17723636E+03</pdfrwt>
<pdfrwt beam="2">  1       21 0.28366406E-01 0.17723636E+03</pdfrwt>
<totfact> 0.15769702E+05</totfact>
</mgrwt>
</event>
<event>
 4    1  0.4137916E+000  0.2561245E+03  0.7546771E-02  0.1109494E+00
         21   -1    0    0  501  502  0.00000000000E+00  0.00000000000E+00  0.19956250577E+04  0.19956250577E+04  0.00000000000E+00 0. -1.
         21   -1    0    0  502  503 -0.00000000000E+00 -0.00000000000E+00 -0.46442677780E+02  0.46442677780E+02  0.00000000000E+00 0. -1.
          6    1    1    2  501    0 -0.59549912396E+02  0.17923330560E+03  0.15265232666E+04  0.15478607991E+04  0.17300000000E+03 0. -1.
         -6    1    1    2    0  503  0.59549912396E+02 -0.17923330560E+03  0.42265911332E+03  0.49420693639E+03  0.17300000000E+03 0. -1.
<mgrwt>
<rscale>  2 0.25612452E+03</rscale>
<asrwt>0</asrwt>
<pdfrwt beam="1">  1       21 0.30701917E+00 0.25612452E+03</pdfrwt>
<pdfrwt beam="2">  1       21 0.71450289E-02 0.25612452E+03</pdfrwt>
<totfact> 0.42514120E+03</totfact>
</mgrwt>
</event>
<event>
 4    1  0.4137916E+000  0.1954386E+03  0.7546771E-02  0.1153646E+00
         21   -1    0    0  501  502  0.00000000000E+00  0.00000000000E+00  0.10788315748E+03  0.10788315748E+03  0.00000000000E+00 0. -1.
         21   -1    0    0  502  503 -0.00000000000E+00 -0.00000000000E+00 -0.38668143994E+03  0.38668143994E+03  0.00000000000E+00 0. -1.
          6    1    1    2  501    0 -0.88980144844E+02 -0.18702814563E+02 -0.67566749713E+02  0.20678860490E+03  0.17300000000E+03 0. -1.
         -6    1    1    2    0  503  0.88980144844E+02  0.18702814563E+02 -0.21123153274E+03  0.28777599252E+03  0.17300000000E+03 0. -1.
<mgrwt>
<rscale>  2 0.19543864E+03</rscale>
<asrwt>0</asrwt>
<pdfrwt beam="1">  1       21 0.16597409E-01 0.19543864E+03</pdfrwt>
<pdfrwt beam="2">  1       21 0.59489452E-01 0.19543864E+03</pdfrwt>
<totfact> 0.85942793E+04</totfact>
</mgrwt>
</event>
<event>
 4    1  0.4137916E+000  0.1792888E+03  0.7546771E-02  0.1168493E+00
         21   -1    0    0  503  502  0.00000000000E+00  0.00000000000E+00  0.28474522590E+03  0.28474522590E+03  0.00000000000E+00 0. -1.
         21   -1    0    0  501  503 -0.00000000000E+00 -0.00000000000E+00 -0.11290391415E+03  0.11290391415E+03  0.00000000000E+00 0. -1.
          6    1    1    2  501    0 -0.18640209602E+02 -0.43220353543E+02  0.88245134188E+02  0.19982907717E+03  0.17300000000E+03 0.  1.
         -6    1    1    2    0  502  0.18640209602E+02  0.43220353543E+02  0.83596177558E+02  0.19782006288E+03  0.17300000000E+03 0.  1.
<mgrwt>
<rscale>  2 0.17928875E+03</rscale>
<asrwt>0</asrwt>
<pdfrwt beam="1">  1       21 0.43806958E-01 0.17928875E+03</pdfrwt>
<pdfrwt beam="2">  1       21 0.17369833E-01 0.17928875E+03</pdfrwt>
<totfact> 0.15078225E+05</totfact>
</mgrwt>
</event>
<event>
 4    1  0.4137916E+000  0.2114064E+03  0.7546771E-02  0.1140457E+00
         21   -1    0    0  503  502  0.00000000000E+00  0.00000000000E+00  0.72775752374E+03  0.72775752374E+03  0.00000000000E+00 0. -1.
         21   -1    0    0  501  503 -0.00000000000E+00 -0.00000000000E+00 -0.69597595487E+02  0.69597595487E+02  0.00000000000E+00 0.  1.
          6    1    1    2  501    0 -0.29326641112E+02 -0.11791363957E+03  0.46580976522E+03  0.51153828366E+03  0.17300000000E+03 0. -1.
         -6    1    1    2    0  502  0.29326641112E+02  0.11791363957E+03  0.19235016303E+03  0.28581683557E+03  0.17300000000E+03 0.  1.
<mgrwt>
<rscale>  2 0.21140643E+03</rscale>
<asrwt>0</asrwt>
<pdfrwt beam="1">  1       21 0.11196269E+00 0.21140643E+03</pdfrwt>
<pdfrwt beam="2">  1       21 0.10707323E-01 0.21140643E+03</pdfrwt>
<totfact> 0.44540551E+04</totfact>
</mgrwt>
</event>
<event>
 4    1  0.4137916E+000  0.2088438E+03  0.7546771E-02  0.1142485E+00
         21   -1    0    0  503  502  0.00000000000E+00  0.00000000000E+00  0.12683554793E+03  0.12683554793E+03  0.00000000000E+00 0. -1.
         21   -1    0    0  501  503 -0.00000000000E+00 -0.00000000000E+00 -0.53453442976E+03  0.53453442976E+03  0.00000000000E+00 0. -1.
          6    1    1    2  501    0 -0.10985814282E+03  0.40223564880E+02 -0.40134358984E+03  0.45242946834E+03  0.17300000000E+03 0. -1.
         -6    1    1    2    0  502  0.10985814282E+03 -0.40223564880E+02 -0.63552919877E+01  0.20894050936E+03  0.17300000000E+03 0. -1.
<mgrwt>
<rscale>  2 0.20884383E+03</rscale>
<asrwt>0</asrwt>
<pdfrwt beam="1">  1       21 0.19513161E-01 0.20884383E+03</pdfrwt>
<pdfrwt beam="2">  1       21 0.82236066E-01 0.20884383E+03</pdfrwt>
<totfact> 0.30949605E+04</totfact>
</mgrwt>
</event>
<event>
 4    1  0.4137916E+000  0.2009978E+03  0.7546771E-02  0.1148900E+00
         21   -1    0    0  501  502  0.00000000000E+00  0.00000000000E+00  0.21604699857E+03  0.21604699857E+03  0.00000000000E+00 0.  1.
         21   -1    0    0  502  503 -0.00000000000E+00 -0.00000000000E+00 -0.39266020576E+03  0.39266020576E+03  0.00000000000E+00 0.  1.
          6    1    1    2  501    0  0.22795981289E+02  0.99757033001E+02  0.13195986585E+03  0.24044443972E+03  0.17300000000E+03 0.  1.
         -6    1    1    2    0  503 -0.22795981289E+02 -0.99757033001E+02 -0.30857307304E+03  0.36826276461E+03  0.17300000000E+03 0.  1.
<mgrwt>
<rscale>  2 0.20099782E+03</rscale>
<asrwt>0</asrwt>
<pdfrwt beam="1">  1       21 0.33238000E-01 0.20099782E+03</pdfrwt>
<pdfrwt beam="2">  1       21 0.60409262E-01 0.20099782E+03</pdfrwt>
<totfact> 0.22148491E+04</totfact>
</mgrwt>
</event>
<event>
 4    1  0.4137916E+000  0.2802891E+03  0.7546771E-02  0.1095531E+00
         21   -1    0    0  503  502  0.00000000000E+00  0.00000000000E+00  0.43623077092E+02  0.43623077092E+02  0.00000000000E+00 0. -1.
         21   -1    0    0  501  503 -0.00000000000E+00 -0.00000000000E+00 -0.19017733156E+04  0.19017733156E+04  0.00000000000E+00 0.  1.
          6    1    1    2  501    0 -0.88072692253E+02  0.20217864647E+03 -0.70508573879E+03  0.75875417841E+03  0.17300000000E+03 0. -1.
         -6    1    1    2    0  502  0.88072692253E+02 -0.20217864647E+03 -0.11530644997E+04  0.11866422143E+04  0.17300000000E+03 0. -1.
<mgrwt>
<rscale>  2 0.28028914E+03</rscale>
<asrwt>0</asrwt>
<pdfrwt beam="1">  1       21 0.67112449E-02 0.28028914E+03</pdfrwt>
<pdfrwt beam="2">  1       21 0.29258041E+00 0.28028914E+03</pdfrwt>
<totfact> 0.56444010E+03</totfact>
</mgrwt>
</event>
<event>
 4    1  0.4137916E+000  0.2283649E+03  0.7546771E-02  0.1127796E+00
         21   -1    0    0  503  502  0.00000000000E+00  0.00000000000E+00  0.90406611412E+03  0.90406611412E+03  0.00000000000E+00 0.  1.
         21   -1    0    0  501  503 -0.00000000000E+00 -0.00000000000E+00 -0.36458806561E+03  0.36458806561E+03  0.00000000000E+00 0. -1.
          6    1    1    2  501    0 -0.14479231157E+03 -0.35450041985E+02 -0.31224768471E+03  0.38684510540E+03  0.17300000000E+03 0. -1.
         -6    1    1    2    0  502  0.14479231157E+03  0.35450041985E+02  0.85172573321E+03  0.88180907433E+03  0.17300000000E+03 0.  1.
<mgrwt>
<rscale>  2 0.22836488E+03</rscale>
<asrwt>0</asrwt>
<pdfrwt beam="1">  1       21 0.13908709E+00 0.22836488E+03</pdfrwt>
<pdfrwt beam="2">  1       21 0.56090472E-01 0.22836488E+03</pdfrwt>
<totfact> 0.10519883E+03</totfact>
</mgrwt>
</event>
<event>
 4    1  0.4137916E+000  0.1749374E+03  0.7546771E-02  0.1172795E+00
         21   -1    0    0  503  502  0.00000000000E+00  0.00000000000E+00  0.52391540470E+03  0.52391540470E+03  0.00000000000E+00 0. -1.
         21   -1    0    0  501  503 -0.00000000000E+00 -0.00000000000E+00 -0.67062750762E+02  0.67062750762E+02  0.00000000000E+00 0. -1.
          6    1    1    2  501    0 -0.30007659870E+01  0.25789133653E+02  0.12230050474E+03  0.21344905123E+03  0.17300000000E+03 0. -1.
         -6    1    1    2    0  502  0.30007659870E+01 -0.25789133653E+02  0.33455214919E+03  0.37752910423E+03  0.17300000000E+03 0. -1.
<mgrwt>
<rscale>  2 0.17493737E+03</rscale>
<asrwt>0</asrwt>
<pdfrwt beam="1">  1       21 0.80602367E-01 0.17493737E+03</pdfrwt>
<pdfrwt beam="2">  1       21 0.10317347E-01 0.17493737E+03</pdfrwt>
<totfact> 0.10455273E+05</totfact>
</mgrwt>
</event>
<event>
 4    1  0.4137916E+000  0.1813602E+03  0.7546771E-02  0.1166493E+00
         21   -1    0    0  503  502  0.00000000000E+00  0.00000000000E+00  0.18309699583E+04  0.18309699583E+04  0.00000000000E+00 0. -1.
         21   -1    0    0  501  503 -0.00000000000E+00 -0.00000000000E+00 -0.34035282716E+02  0.34035282716E+02  0.00000000000E+00 0. -1.
          6    1    1    2  501    0  0.38508951088E+02 -0.38465272541E+02  0.25768452345E+03  0.31510764848E+03  0.17300000000E+03 0. -1.
         -6    1    1    2    0  502 -0.38508951088E+02  0.38465272541E+02  0.15392501521E+04  0.15498975925E+04  0.17300000000E+03 0. -1.
<mgrwt>
<rscale>  2 0.18136018E+03</rscale>
<asrwt>0</asrwt>
<pdfrwt beam="1">  1       21 0.28168761E+00 0.18136018E+03</pdfrwt>
<pdfrwt beam="2">  1       21 0.52361988E-02 0.18136018E+03</pdfrwt>
<totfact> 0.10952300E+04</totfact>
</mgrwt>
</event>
<event>
 4    1  0.4137916E+000  0.2036481E+03  0.7546771E-02  0.1146697E+00
         21   -1    0    0  503  502  0.00000000000E+00  0.00000000000E+00  0.17834670609E+03  0.17834670609E+03  0.00000000000E+00 0.  1.
         21   -1    0    0  501  503 -0.00000000000E+00 -0.00000000000E+00 -0.23302162123E+03  0.23302162123E+03  0.00000000000E+00 0.  1.
          6    1    1    2  501    0 -0.10489562113E+03  0.23247305702E+02 -0.17974844156E+02  0.20443977983E+03  0.17300000000E+03 0.  1.
         -6    1    1    2    0  502  0.10489562113E+03 -0.23247305702E+02 -0.36700070984E+02  0.20692854748E+03  0.17300000000E+03 0.  1.
<mgrwt>
<rscale>  2 0.20364805E+03</rscale>
<asrwt>0</asrwt>
<pdfrwt beam="1">  1       21 0.27437955E-01 0.20364805E+03</pdfrwt>
<pdfrwt beam="2">  1       21 0.35849480E-01 0.20364805E+03</pdfrwt>
<totfact> 0.94638589E+04</totfact>
</mgrwt>
</event>
<event>
 4    1  0.4137916E+000  0.2074073E+03  0.7546771E-02  0.1143636E+00
         21   -1    0    0  503  502  0.00000000000E+00  0.00000000000E+00  0.53533497232E+03  0.53533497232E+03  0.00000000000E+00 0.  1.
         21   -1    0    0  501  503 -0.00000000000E+00 -0.00000000000E+00 -0.17074516343E+03  0.17074516343E+03  0.00000000000E+00 0.  1.
          6    1    1    2  501    0 -0.85356620795E+02 -0.76177527679E+02 -0.74570857106E+02  0.22040549260E+03  0.17300000000E+03 0.  1.
         -6    1    1    2    0  502  0.85356620795E+02  0.76177527679E+02  0.43916066600E+03  0.48567464315E+03  0.17300000000E+03 0.  1.
<mgrwt>
<rscale>  2 0.20740725E+03</rscale>
<asrwt>0</asrwt>
<pdfrwt beam="1">  1       21 0.82359226E-01 0.20740725E+03</pdfrwt>
<pdfrwt beam="2">  1       21 0.26268487E-01 0.20740725E+03</pdfrwt>
<totfact> 0.17579152E+04</totfact>
</mgrwt>
</event>
<event>
 4    1  0.4137916E+000  0.3217660E+03  0.7546771E-02  0.1074839E+00
         21   -1    0    0  503  502  0.00000000000E+00  0.00000000000E+00  0.28032803977E+03  0.28032803977E+03  0.00000000000E+00 0. -1.
         21   -1    0    0  501  503 -0.00000000000E+00 -0.00000000000E+00 -0.57846095921E+03  0.57846095921E+03  0.00000000000E+00 0. -1.
          6    1    1    2  501    0  0.19219970925E+03  0.19147745623E+03 -0.40725050098E+03  0.51902438770E+03  0.17300000000E+03 0. -1.
         -6    1    1    2    0  502 -0.19219970925E+03 -0.19147745623E+03  0.10911758154E+03  0.33976461128E+03  0.17300000000E+03 0. -1.
<mgrwt>
<rscale>  2 0.32176598E+03</rscale>
<asrwt>0</asrwt>
<pdfrwt beam="1">  1       21 0.43127391E-01 0.32176598E+03</pdfrwt>
<pdfrwt beam="2">  1       21 0.88993993E-01 0.32176598E+03</pdfrwt>
<totfact> 0.51519673E+03</totfact>
</mgrwt>
</event>
<event>
 4    1  0.4137916E+000  0.1885142E+03  0.7546771E-02  0.1159808E+00
         21   -1    0    0  503  502  0.00000000000E+00  0.00000000000E+00  0.63790842558E+03  0.63790842558E+03  0.00000000000E+00 0. -1.
         21   -1    0    0  501  503 -0.00000000000E+00 -0.00000000000E+00 -0.32639866084E+03  0.32639866084E+03  0.00000000000E+00 0. -1.
          6    1    1    2  501    0 -0.74012402524E+02 -0.11434867641E+02 -0.28332806473E+03  0.34031218636E+03  0.17300000000E+03 0. -1.
         -6    1    1    2    0  502  0.74012402524E+02  0.11434867641E+02  0.59483782946E+03  0.62399490005E+03  0.17300000000E+03 0. -1.
<mgrwt>
<rscale>  2 0.18851417E+03</rscale>
<asrwt>0</asrwt>
<pdfrwt beam="1">  1       21 0.98139757E-01 0.18851417E+03</pdfrwt>
<pdfrwt beam="2">  1       21 0.50215179E-01 0.18851417E+03</pdfrwt>
<totfact> 0.32525079E+03</totfact>
</mgrwt>
</event>
<event>
 4    1  0.4137916E+000  0.2330437E+03  0.7546771E-02  0.1124516E+00
         21   -1    0    0  503  502  0.00000000000E+00  0.00000000000E+00  0.21853014392E+03  0.21853014392E+03  0.00000000000E+00 0.  1.
         21   -1    0    0  501  503 -0.00000000000E+00 -0.00000000000E+00 -0.32993734762E+03  0.32993734762E+03  0.00000000000E+00 0. -1.
          6    1    1    2  501    0  0.85712097888E+02  0.13051368591E+03 -0.19192968834E+03  0.30190460612E+03  0.17300000000E+03 0. -1.
         -6    1    1    2    0  502 -0.85712097888E+02 -0.13051368591E+03  0.80522484639E+02  0.24656288542E+03  0.17300000000E+03 0.  1.
<mgrwt>
<rscale>  2 0.23304374E+03</rscale>
<asrwt>0</asrwt>
<pdfrwt beam="1">  1       21 0.33620022E-01 0.23304374E+03</pdfrwt>
<pdfrwt beam="2">  1       21 0.50759592E-01 0.23304374E+03</pdfrwt>
<totfact> 0.30815546E+04</totfact>
</mgrwt>
</event>
<event>
 4    1  0.4137916E+000  0.2668657E+03  0.7546771E-02  0.1103087E+00
         21   -1    0    0  503  502  0.00000000000E+00  0.00000000000E+00  0.49610061830E+03  0.49610061830E+03  0.00000000000E+00 0.  1.
         21   -1    0    0  501  503 -0.00000000000E+00 -0.00000000000E+00 -0.18161925364E+03  0.18161925364E+03  0.00000000000E+00 0.  1.
          6    1    1    2  501    0  0.13759432378E+03  0.14951961811E+03  0.21082304977E+01  0.26687405039E+03  0.17300000000E+03 0.  1.
         -6    1    1    2    0  502 -0.13759432378E+03 -0.14951961811E+03  0.31237313417E+03  0.41084582155E+03  0.17300000000E+03 0.  1.
<mgrwt>
<rscale>  2 0.26686572E+03</rscale>
<asrwt>0</asrwt>
<pdfrwt beam="1">  1       21 0.76323171E-01 0.26686572E+03</pdfrwt>
<pdfrwt beam="2">  1       21 0.27941424E-01 0.26686572E+03</pdfrwt>
<totfact> 0.17964685E+04</totfact>
</mgrwt>
</event>
<event>
 4    1  0.4137916E+000  0.2666877E+03  0.7546771E-02  0.1103190E+00
         21   -1    0    0  503  502  0.00000000000E+00  0.00000000000E+00  0.19198834961E+03  0.19198834961E+03  0.00000000000E+00 0. -1.
         21   -1    0    0  501  503 -0.00000000000E+00 -0.00000000000E+00 -0.39138770323E+03  0.39138770323E+03  0.00000000000E+00 0.  1.
          6    1    1    2  501    0 -0.14715570518E+03  0.13978022530E+03 -0.16716291317E+03  0.31474712467E+03  0.17300000000E+03 0.  1.
         -6    1    1    2    0  502  0.14715570518E+03 -0.13978022530E+03 -0.32236440458E+02  0.26862892816E+03  0.17300000000E+03 0.  1.
<mgrwt>
<rscale>  2 0.26668767E+03</rscale>
<asrwt>0</asrwt>
<pdfrwt beam="1">  1       21 0.29536669E-01 0.26668767E+03</pdfrwt>
<pdfrwt beam="2">  1       21 0.60213492E-01 0.26668767E+03</pdfrwt>
<totfact> 0.27228888E+04</totfact>
</mgrwt>
</event>
<event>
 4    1  0.4137916E+000  0.2093804E+03  0.7546771E-02  0.1142058E+00
         21   -1    0    0  503  502  0.00000000000E+00  0.00000000000E+00  0.10433991083E+03  0.10433991083E+03  0.00000000000E+00 0. -1.
         21   -1    0    0  501  503 -0.00000000000E+00 -0.00000000000E+00 -0.99503915023E+03  0.99503915023E+03  0.00000000000E+00 0. -1.
          6    1    1    2  501    0 -0.10151084562E+03 -0.60055781450E+02 -0.86316378110E+03  0.88819584646E+03  0.17300000000E+03 0. -1.
         -6    1    1    2    0  502  0.10151084562E+03  0.60055781450E+02 -0.27535458299E+02  0.21118321460E+03  0.17300000000E+03 0. -1.
<mgrwt>
<rscale>  2 0.20938039E+03</rscale>
<asrwt>0</asrwt>
<pdfrwt beam="1">  1       21 0.16052294E-01 0.20938039E+03</pdfrwt>
<pdfrwt beam="2">  1       21 0.15308294E+00 0.20938039E+03</pdfrwt>
<totfact> 0.96952740E+03</totfact>
</mgrwt>
</event>
<event>
 4    1  0.4137916E+000  0.2572490E+03  0.7546771E-02  0.1108807E+00
         21   -1    0    0  501  502  0.00000000000E+00  0.00000000000E+00  0.13391066353E+03  0.13391066353E+03  0.00000000000E+00 0. -1.
         21   -1    0    0  502  503 -0.00000000000E+00 -0.00000000000E+00 -0.49418935477E+03  0.49418935477E+03  0.00000000000E+00 0. -1.
          6    1    1    2  501    0 -0.16600634355E+03  0.93219894625E+02 -0.18064203544E+03  0.31433835245E+03  0.17300000000E+03 0. -1.
         -6    1    1    2    0  503  0.16600634355E+03 -0.93219894625E+02 -0.17963665580E+03  0.31376166586E+03  0.17300000000E+03 0. -1.
<mgrwt>
<rscale>  2 0.25724901E+03</rscale>
<asrwt>0</asrwt>
<pdfrwt beam="1">  1       21 0.20601640E-01 0.25724901E+03</pdfrwt>
<pdfrwt beam="2">  1       21 0.76029132E-01 0.25724901E+03</pdfrwt>
<totfact> 0.32627693E+04</totfact>
</mgrwt>
</event>
<event>
 4    1  0.4137916E+000  0.2220032E+03  0.7546771E-02  0.1132398E+00
         21   -1    0    0  503  502  0.00000000000E+00  0.00000000000E+00  0.10896953287E+04  0.10896953287E+04  0.00000000000E+00 0. -1.
         21   -1    0    0  501  503 -0.00000000000E+00 -0.00000000000E+00 -0.46586399253E+02  0.46586399253E+02  0.00000000000E+00 0. -1.
          6    1    1    2  501    0 -0.86685262835E+02 -0.10882137647E+03  0.61854725423E+03  0.65718044134E+03  0.17300000000E+03 0. -1.
         -6    1    1    2    0  502  0.86685262835E+02  0.10882137647E+03  0.42456167523E+03  0.47910128662E+03  0.17300000000E+03 0. -1.
<mgrwt>
<rscale>  2 0.22200321E+03</rscale>
<asrwt>0</asrwt>
<pdfrwt beam="1">  1       21 0.16764542E+00 0.22200321E+03</pdfrwt>
<pdfrwt beam="2">  1       21 0.71671392E-02 0.22200321E+03</pdfrwt>
<totfact> 0.31610781E+04</totfact>
</mgrwt>
</event>
<event>
 4    1  0.4137916E+000  0.2106972E+03  0.7546771E-02  0.1141015E+00
         21   -1    0    0  503  502  0.00000000000E+00  0.00000000000E+00  0.15610922728E+04  0.15610922728E+04  0.00000000000E+00 0.  1.
         21   -1    0    0  501  503 -0.00000000000E+00 -0.00000000000E+00 -0.28517136470E+02  0.28517136470E+02  0.00000000000E+00 0.  1.
          6    1    1    2  501    0 -0.25030940237E+02 -0.11763410481E+03  0.80832793023E+03  0.83533668265E+03  0.17300000000E+03 0.  1.
         -6    1    1    2    0  502  0.25030940237E+02  0.11763410481E+03  0.72424720605E+03  0.75427272658E+03  0.17300000000E+03 0.  1.
<mgrwt>
<rscale>  2 0.21069725E+03</rscale>
<asrwt>0</asrwt>
<pdfrwt beam="1">  1       21 0.24016798E+00 0.21069725E+03</pdfrwt>
<pdfrwt beam="2">  1       21 0.43872530E-02 0.21069725E+03</pdfrwt>
<totfact> 0.25134443E+04</totfact>
</mgrwt>
</event>
<event>
 4    1  0.4137916E+000  0.2985282E+03  0.7546771E-02  0.1085979E+00
         21   -1    0    0  501  502  0.00000000000E+00  0.00000000000E+00  0.12041458849E+03  0.12041458849E+03  0.00000000000E+00 0. -1.
         21   -1    0    0  502  503 -0.00000000000E+00 -0.00000000000E+00 -0.78519253029E+03  0.78519253029E+03  0.00000000000E+00 0.  1.
          6    1    1    2  501    0  0.24004013552E+03 -0.39633685240E+02 -0.44089745798E+03  0.53245625559E+03  0.17300000000E+03 0.  1.
         -6    1    1    2    0  503 -0.24004013552E+03  0.39633685240E+02 -0.22388048382E+03  0.37315086319E+03  0.17300000000E+03 0. -1.
<mgrwt>
<rscale>  2 0.29852822E+03</rscale>
<asrwt>0</asrwt>
<pdfrwt beam="1">  1       21 0.18525321E-01 0.29852822E+03</pdfrwt>
<pdfrwt beam="2">  1       21 0.12079885E+00 0.29852822E+03</pdfrwt>
<totfact> 0.13023400E+04</totfact>
</mgrwt>
</event>
<event>
 4    1  0.4137916E+000  0.2378401E+03  0.7546771E-02  0.1121240E+00
         21   -1    0    0  503  502  0.00000000000E+00  0.00000000000E+00  0.88123410513E+03  0.88123410513E+03  0.00000000000E+00 0. -1.
         21   -1    0    0  501  503 -0.00000000000E+00 -0.00000000000E+00 -0.14456159197E+03  0.14456159197E+03  0.00000000000E+00 0. -1.
          6    1    1    2  501    0 -0.16005235998E+03  0.31971485511E+02 -0.14092949369E+02  0.23825730848E+03  0.17300000000E+03 0. -1.
         -6    1    1    2    0  502  0.16005235998E+03 -0.31971485511E+02  0.75076546253E+03  0.78753838862E+03  0.17300000000E+03 0. -1.
<mgrwt>
<rscale>  2 0.23784014E+03</rscale>
<asrwt>0</asrwt>
<pdfrwt beam="1">  1       21 0.13557447E+00 0.23784014E+03</pdfrwt>
<pdfrwt beam="2">  1       21 0.22240246E-01 0.23784014E+03</pdfrwt>
<totfact> 0.71128588E+03</totfact>
</mgrwt>
</event>
<event>
 4    1  0.4137916E+000  0.1878677E+03  0.7546771E-02  0.1160399E+00
         21   -1    0    0  501  502  0.00000000000E+00  0.00000000000E+00  0.26833729091E+03  0.26833729091E+03  0.00000000000E+00 0. -1.
         21   -1    0    0  502  503 -0.00000000000E+00 -0.00000000000E+00 -0.13171026789E+03  0.13171026789E+03  0.00000000000E+00 0. -1.
          6    1    1    2  501    0 -0.46190047648E+02 -0.56848572214E+02  0.60904105562E+02  0.19749326758E+03  0.17300000000E+03 0. -1.
         -6    1    1    2    0  503  0.46190047648E+02  0.56848572214E+02  0.75722917464E+02  0.20255429122E+03  0.17300000000E+03 0. -1.
<mgrwt>
<rscale>  2 0.18786772E+03</rscale>
<asrwt>0</asrwt>
<pdfrwt beam="1">  1       21 0.41282660E-01 0.18786772E+03</pdfrwt>
<pdfrwt beam="2">  1       21 0.20263118E-01 0.18786772E+03</pdfrwt>
<totfact> 0.12749551E+05</totfact>
</mgrwt>
</event>
<event>
 4    1  0.4137916E+000  0.3110875E+03  0.7546771E-02  0.1079826E+00
         21   -1    0    0  503  502  0.00000000000E+00  0.00000000000E+00  0.39452953733E+03  0.39452953733E+03  0.00000000000E+00 0. -1.
         21   -1    0    0  501  503 -0.00000000000E+00 -0.00000000000E+00 -0.35216813001E+03  0.35216813001E+03  0.00000000000E+00 0.  1.
          6    1    1    2  501    0  0.67420239921E+02 -0.24960158288E+03 -0.18449242756E+03  0.36168065300E+03  0.17300000000E+03 0.  1.
         -6    1    1    2    0  502 -0.67420239921E+02  0.24960158288E+03  0.22685383488E+03  0.38501701433E+03  0.17300000000E+03 0. -1.
<mgrwt>
<rscale>  2 0.31108751E+03</rscale>
<asrwt>0</asrwt>
<pdfrwt beam="1">  1       21 0.60696852E-01 0.31108751E+03</pdfrwt>
<pdfrwt beam="2">  1       21 0.54179712E-01 0.31108751E+03</pdfrwt>
<totfact> 0.76006752E+03</totfact>
</mgrwt>
</event>
<event>
 4    1  0.4137916E+000  0.1763513E+03  0.7546771E-02  0.1171382E+00
         21   -1    0    0  503  502  0.00000000000E+00  0.00000000000E+00  0.12223943589E+03  0.12223943589E+03  0.00000000000E+00 0.  1.
         21   -1    0    0  501  503 -0.00000000000E+00 -0.00000000000E+00 -0.36221586536E+03  0.36221586536E+03  0.00000000000E+00 0.  1.
          6    1    1    2  501    0 -0.25554818800E+02  0.22753899181E+02  0.12155681627E+02  0.17676976350E+03  0.17300000000E+03 0.  1.
         -6    1    1    2    0  502  0.25554818800E+02 -0.22753899181E+02 -0.25213211110E+03  0.30768553775E+03  0.17300000000E+03 0.  1.
<mgrwt>
<rscale>  2 0.17635132E+03</rscale>
<asrwt>0</asrwt>
<pdfrwt beam="1">  1       21 0.18806067E-01 0.17635132E+03</pdfrwt>
<pdfrwt beam="2">  1       21 0.55725517E-01 0.17635132E+03</pdfrwt>
<totfact> 0.79069387E+04</totfact>
</mgrwt>
</event>
<event>
 4    1  0.4137916E+000  0.2106817E+03  0.7546771E-02  0.1141027E+00
         21   -1    0    0  503  502  0.00000000000E+00  0.00000000000E+00  0.42822884565E+03  0.42822884565E+03  0.00000000000E+00 0. -1.
         21   -1    0    0  501  503 -0.00000000000E+00 -0.00000000000E+00 -0.11193827869E+03  0.11193827869E+03  0.00000000000E+00 0. -1.
          6    1    1    2  501    0  0.78053216304E+02  0.91462980811E+02  0.84662043802E+02  0.22705603514E+03  0.17300000000E+03 0. -1.
         -6    1    1    2    0  502 -0.78053216304E+02 -0.91462980811E+02  0.23162852316E+03  0.31311108919E+03  0.17300000000E+03 0. -1.
<mgrwt>
<rscale>  2 0.21068171E+03</rscale>
<asrwt>0</asrwt>
<pdfrwt beam="1">  1       21 0.65881360E-01 0.21068171E+03</pdfrwt>
<pdfrwt beam="2">  1       21 0.17221274E-01 0.21068171E+03</pdfrwt>
<totfact> 0.63942518E+04</totfact>
</mgrwt>
</event>
<event>
 4    1  0.4137916E+000  0.2071670E+03  0.7546771E-02  0.1143829E+00
         21   -1    0    0  501  502  0.00000000000E+00  0.00000000000E+00  0.58586303142E+02  0.58586303142E+02  0.00000000000E+00 0.  1.
         21   -1    0    0  502  503 -0.00000000000E+00 -0.00000000000E+00 -0.16494072858E+04  0.16494072858E+04  0.00000000000E+00 0. -1.
          6    1    1    2  501    0 -0.70082947077E+02  0.89875135970E+02 -0.15870283639E+03  0.26096886752E+03  0.17300000000E+03 0.  1.
         -6    1    1    2    0  503  0.70082947077E+02 -0.89875135970E+02 -0.14321181463E+04  0.14470247214E+04  0.17300000000E+03 0. -1.
<mgrwt>
<rscale>  2 0.20716698E+03</rscale>
<asrwt>0</asrwt>
<pdfrwt beam="1">  1       21 0.90132784E-02 0.20716698E+03</pdfrwt>
<pdfrwt beam="2">  1       21 0.25375494E+00 0.20716698E+03</pdfrwt>
<totfact> 0.60692084E+03</totfact>
</mgrwt>
</event>
<event>
 4    1  0.4137916E+000  0.2789657E+03  0.7546771E-02  0.1096255E+00
         21   -1    0    0  501  502  0.00000000000E+00  0.00000000000E+00  0.22531209426E+04  0.22531209426E+04  0.00000000000E+00 0. -1.
         21   -1    0    0  502  503 -0.00000000000E+00 -0.00000000000E+00 -0.42908026343E+02  0.42908026343E+02  0.00000000000E+00 0.  1.
          6    1    1    2  501    0  0.76647517499E+01  0.21871011038E+03  0.16120976379E+04  0.16360564339E+04  0.17300000000E+03 0. -1.
         -6    1    1    2    0  503 -0.76647517499E+01 -0.21871011038E+03  0.59811527836E+03  0.65997253504E+03  0.17300000000E+03 0.  1.
<mgrwt>
<rscale>  2 0.27896570E+03</rscale>
<asrwt>0</asrwt>
<pdfrwt beam="1">  1       21 0.34663390E+00 0.27896570E+03</pdfrwt>
<pdfrwt beam="2">  1       21 0.66012366E-02 0.27896570E+03</pdfrwt>
<totfact> 0.27858398E+03</totfact>
</mgrwt>
</event>
<event>
 4    1  0.4137916E+000  0.2067347E+03  0.7546771E-02  0.1144178E+00
         21   -1    0    0  501  502  0.00000000000E+00  0.00000000000E+00  0.61402379243E+03  0.61402379243E+03  0.00000000000E+00 0. -1.
         21   -1    0    0  502  503 -0.00000000000E+00 -0.00000000000E+00 -0.79009932995E+02  0.79009932995E+02  0.00000000000E+00 0.  1.
          6    1    1    2  501    0 -0.59870650346E+02 -0.96050658902E+02  0.38705916573E+03  0.43880977841E+03  0.17300000000E+03 0. -1.
         -6    1    1    2    0  503  0.59870650346E+02  0.96050658902E+02  0.14795469370E+03  0.25422394702E+03  0.17300000000E+03 0. -1.
<mgrwt>
<rscale>  2 0.20673467E+03</rscale>
<asrwt>0</asrwt>
<pdfrwt beam="1">  1       21 0.94465196E-01 0.20673467E+03</pdfrwt>
<pdfrwt beam="2">  1       21 0.12155375E-01 0.20673467E+03</pdfrwt>
<totfact> 0.53451872E+04</totfact>
</mgrwt>
</event>
<event>
 4    1  0.4137916E+000  0.2008905E+03  0.7546771E-02  0.1148990E+00
         21   -1    0    0  501  502  0.00000000000E+00  0.00000000000E+00  0.27458255317E+04  0.27458255317E+04  0.00000000000E+00 0.  1.
         21   -1    0    0  502  503 -0.00000000000E+00 -0.00000000000E+00 -0.20957191437E+02  0.20957191437E+02  0.00000000000E+00 0.  1.
          6    1    1    2  501    0  0.21875777820E+02  0.99746830539E+02  0.21184873429E+04  0.21279909779E+04  0.17300000000E+03 0.  1.
         -6    1    1    2    0  503 -0.21875777820E+02 -0.99746830539E+02  0.60638099731E+03  0.63879174522E+03  0.17300000000E+03 0.  1.
<mgrwt>
<rscale>  2 0.20089047E+03</rscale>
<asrwt>0</asrwt>
<pdfrwt beam="1">  1       21 0.42243441E+00 0.20089047E+03</pdfrwt>
<pdfrwt beam="2">  1       21 0.32241855E-02 0.20089047E+03</pdfrwt>
<totfact> 0.34912802E+03</totfact>
</mgrwt>
</event>
<event>
 4    1  0.4137916E+000  0.1800626E+03  0.7546771E-02  0.1167742E+00
         21   -1    0    0  501  502  0.00000000000E+00  0.00000000000E+00  0.42861944065E+02  0.42861944065E+02  0.00000000000E+00 0.  1.
         21   -1    0    0  502  503 -0.00000000000E+00 -0.00000000000E+00 -0.94163399802E+03  0.94163399802E+03  0.00000000000E+00 0.  1.
          6    1    1    2  501    0 -0.39953543888E+02  0.29954481343E+02 -0.23108565663E+03  0.29295586241E+03  0.17300000000E+03 0.  1.
         -6    1    1    2    0  503  0.39953543888E+02 -0.29954481343E+02 -0.66768639732E+03  0.69154007967E+03  0.17300000000E+03 0.  1.
<mgrwt>
<rscale>  2 0.18006265E+03</rscale>
<asrwt>0</asrwt>
<pdfrwt beam="1">  1       21 0.65941452E-02 0.18006265E+03</pdfrwt>
<pdfrwt beam="2">  1       21 0.14486677E+00 0.18006265E+03</pdfrwt>
<totfact> 0.55280782E+04</totfact>
</mgrwt>
</event>
<event>
 4    1  0.4137916E+000  0.2936950E+03  0.7546771E-02  0.1088436E+00
         21   -1    0    0  501  502  0.00000000000E+00  0.00000000000E+00  0.26996022238E+03  0.26996022238E+03  0.00000000000E+00 0.  1.
         21   -1    0    0  502  503 -0.00000000000E+00 -0.00000000000E+00 -0.34947416072E+03  0.34947416072E+03  0.00000000000E+00 0.  1.
          6    1    1    2  501    0 -0.21205353745E+03  0.10658810745E+03  0.50923176585E+02  0.29807699896E+03  0.17300000000E+03 0.  1.
         -6    1    1    2    0  503  0.21205353745E+03 -0.10658810745E+03 -0.13043711493E+03  0.32135738415E+03  0.17300000000E+03 0.  1.
<mgrwt>
<rscale>  2 0.29369496E+03</rscale>
<asrwt>0</asrwt>
<pdfrwt beam="1">  1       21 0.41532342E-01 0.29369496E+03</pdfrwt>
<pdfrwt beam="2">  1       21 0.53765256E-01 0.29369496E+03</pdfrwt>
<totfact> 0.17343040E+04</totfact>
</mgrwt>
</event>
<event>
 4    1  0.4137916E+000  0.2193384E+03  0.7546771E-02  0.1134377E+00
         21   -1    0    0  501  502  0.00000000000E+00  0.00000000000E+00  0.73706945893E+03  0.73706945893E+03  0.00000000000E+00 0. -1.
         21   -1    0    0  502  503 -0.00000000000E+00 -0.00000000000E+00 -0.77289842568E+02  0.77289842568E+02  0.00000000000E+00 0.  1.
          6    1    1    2  501    0 -0.94974048875E+02 -0.95709220469E+02  0.49045618367E+03  0.53726771068E+03  0.17300000000E+03 0. -1.
         -6    1    1    2    0  503  0.94974048875E+02  0.95709220469E+02  0.16932343269E+03  0.27709159082E+03  0.17300000000E+03 0.  1.
<mgrwt>
<rscale>  2 0.21933838E+03</rscale>
<asrwt>0</asrwt>
<pdfrwt beam="1">  1       21 0.11339530E+00 0.21933838E+03</pdfrwt>
<pdfrwt beam="2">  1       21 0.11890746E-01 0.21933838E+03</pdfrwt>
<totfact> 0.35661993E+04</totfact>
</mgrwt>
</event>
<event>
 4    1  0.4137916E+000  0.2107106E+03  0.7546771E-02  0.1141004E+00
         21   -1    0    0  503  502  0.00000000000E+00  0.00000000000E+00  0.42279028742E+03  0.42279028742E+03  0.00000000000E+00 0.  1.
         21   -1    0    0  501  503 -0.00000000000E+00 -0.00000000000E+00 -0.11694291030E+03  0.11694291030E+03  0.00000000000E+00 0.  1.
          6    1    1    2  501    0  0.11726081457E+02  0.11971826668E+03  0.66733115285E+02  0.22102550314E+03  0.17300000000E+03 0.  1.
         -6    1    1    2    0  502 -0.11726081457E+02 -0.11971826668E+03  0.23911426183E+03  0.31870769457E+03  0.17300000000E+03 0.  1.
<mgrwt>
<rscale>  2 0.21071062E+03</rscale>
<asrwt>0</asrwt>
<pdfrwt beam="1">  1       21 0.65044659E-01 0.21071062E+03</pdfrwt>
<pdfrwt beam="2">  1       21 0.17991217E-01 0.21071062E+03</pdfrwt>
<totfact> 0.60643254E+04</totfact>
</mgrwt>
</event>
<event>
 4    1  0.4137916E+000  0.2258941E+03  0.7546771E-02  0.1129563E+00
         21   -1    0    0  503  502  0.00000000000E+00  0.00000000000E+00  0.13795381873E+03  0.13795381873E+03  0.00000000000E+00 0. -1.
         21   -1    0    0  501  503 -0.00000000000E+00 -0.00000000000E+00 -0.41298124141E+03  0.41298124141E+03  0.00000000000E+00 0. -1.
          6    1    1    2  501    0  0.12382021453E+03 -0.75945476498E+02 -0.48535369897E+02  0.23104943856E+03  0.17300000000E+03 0. -1.
         -6    1    1    2    0  502 -0.12382021453E+03  0.75945476498E+02 -0.22649205278E+03  0.31988562159E+03  0.17300000000E+03 0. -1.
<mgrwt>
<rscale>  2 0.22589414E+03</rscale>
<asrwt>0</asrwt>
<pdfrwt beam="1">  1       21 0.21223664E-01 0.22589414E+03</pdfrwt>
<pdfrwt beam="2">  1       21 0.63535576E-01 0.22589414E+03</pdfrwt>
<totfact> 0.46547989E+04</totfact>
</mgrwt>
</event>
<event>
 4    1  0.4137916E+000  0.3053063E+03  0.7546771E-02  0.1082618E+00
         21   -1    0    0  501  502  0.00000000000E+00  0.00000000000E+00  0.14096854119E+03  0.14096854119E+03  0.00000000000E+00 0. -1.
         21   -1    0    0  502  503 -0.00000000000E+00 -0.00000000000E+00 -0.14604423368E+04  0.14604423368E+04  0.00000000000E+00 0. -1.
          6    1    1    2  501    0 -0.51227961290E+02  0.24628970826E+03 -0.67407867620E+02  0.31265915152E+03  0.17300000000E+03 0. -1.
         -6    1    1    2    0  503  0.51227961290E+02 -0.24628970826E+03 -0.12520659280E+04  0.12887517265E+04  0.17300000000E+03 0. -1.
<mgrwt>
<rscale>  2 0.30530628E+03</rscale>
<asrwt>0</asrwt>
<pdfrwt beam="1">  1       21 0.21687468E-01 0.30530628E+03</pdfrwt>
<pdfrwt beam="2">  1       21 0.22468343E+00 0.30530628E+03</pdfrwt>
<totfact> 0.16917058E+03</totfact>
</mgrwt>
</event>
<event>
 4    1  0.4137916E+000  0.1857193E+03  0.7546771E-02  0.1162380E+00
         21   -1    0    0  503  502  0.00000000000E+00  0.00000000000E+00  0.26248828200E+03  0.26248828200E+03  0.00000000000E+00 0.  1.
         21   -1    0    0  501  503 -0.00000000000E+00 -0.00000000000E+00 -0.18212608088E+03  0.18212608088E+03  0.00000000000E+00 0.  1.
          6    1    1    2  501    0 -0.67540352726E+02  0.98538157611E+00 -0.77138748998E+02  0.20110210546E+03  0.17300000000E+03 0.  1.
         -6    1    1    2    0  502  0.67540352726E+02 -0.98538157611E+00  0.15750095012E+03  0.24351225741E+03  0.17300000000E+03 0.  1.
<mgrwt>
<rscale>  2 0.18571933E+03</rscale>
<asrwt>0</asrwt>
<pdfrwt beam="1">  1       21 0.40382813E-01 0.18571933E+03</pdfrwt>
<pdfrwt beam="2">  1       21 0.28019397E-01 0.18571933E+03</pdfrwt>
<totfact> 0.72100121E+04</totfact>
</mgrwt>
</event>
<event>
 4    1  0.4137916E+000  0.1971752E+03  0.7546771E-02  0.1152144E+00
         21   -1    0    0  501  502  0.00000000000E+00  0.00000000000E+00  0.16519917748E+03  0.16519917748E+03  0.00000000000E+00 0. -1.
         21   -1    0    0  502  503 -0.00000000000E+00 -0.00000000000E+00 -0.28132071827E+03  0.28132071827E+03  0.00000000000E+00 0.  1.
          6    1    1    2  501    0  0.56189096888E+02 -0.76104097974E+02  0.32199311435E+02  0.19978699656E+03  0.17300000000E+03 0. -1.
         -6    1    1    2    0  503 -0.56189096888E+02  0.76104097974E+02 -0.14832085223E+03  0.24673289919E+03  0.17300000000E+03 0.  1.
<mgrwt>
<rscale>  2 0.19717517E+03</rscale>
<asrwt>0</asrwt>
<pdfrwt beam="1">  1       21 0.25415258E-01 0.19717517E+03</pdfrwt>
<pdfrwt beam="2">  1       21 0.43280110E-01 0.19717517E+03</pdfrwt>
<totfact> 0.75181957E+04</totfact>
</mgrwt>
</event>
<event>
 4    1  0.4137916E+000  0.3519911E+03  0.7546771E-02  0.1061801E+00
         21   -1    0    0  503  502  0.00000000000E+00  0.00000000000E+00  0.68031867168E+02  0.68031867168E+02  0.00000000000E+00 0. -1.
         21   -1    0    0  501  503 -0.00000000000E+00 -0.00000000000E+00 -0.18218988719E+04  0.18218988719E+04  0.00000000000E+00 0. -1.
          6    1    1    2  501    0  0.48900352242E+02 -0.30261778204E+03 -0.89580166252E+03  0.96247513476E+03  0.17300000000E+03 0. -1.
         -6    1    1    2    0  502 -0.48900352242E+02  0.30261778204E+03 -0.85806534216E+03  0.92745560426E+03  0.17300000000E+03 0. -1.
<mgrwt>
<rscale>  2 0.35199115E+03</rscale>
<asrwt>0</asrwt>
<pdfrwt beam="1">  1       21 0.10466441E-01 0.35199115E+03</pdfrwt>
<pdfrwt beam="2">  1       21 0.28029214E+00 0.35199115E+03</pdfrwt>
<totfact> 0.28984227E+03</totfact>
</mgrwt>
</event>
<event>
 4    1  0.4137916E+000  0.1754377E+03  0.7546771E-02  0.1172293E+00
         21   -1    0    0  501  502  0.00000000000E+00  0.00000000000E+00  0.11565768972E+03  0.11565768972E+03  0.00000000000E+00 0.  1.
         21   -1    0    0  502  503 -0.00000000000E+00 -0.00000000000E+00 -0.79983606689E+03  0.79983606689E+03  0.00000000000E+00 0.  1.
          6    1    1    2  501    0  0.25229520474E+02 -0.14589580912E+02  0.31833299581E+02  0.17830239353E+03  0.17300000000E+03 0.  1.
         -6    1    1    2    0  503 -0.25229520474E+02  0.14589580912E+02 -0.71601167675E+03  0.73719136309E+03  0.17300000000E+03 0.  1.
<mgrwt>
<rscale>  2 0.17543769E+03</rscale>
<asrwt>0</asrwt>
<pdfrwt beam="1">  1       21 0.17793491E-01 0.17543769E+03</pdfrwt>
<pdfrwt beam="2">  1       21 0.12305170E+00 0.17543769E+03</pdfrwt>
<totfact> 0.14399547E+04</totfact>
</mgrwt>
</event>
<event>
 4    1  0.4137916E+000  0.1861327E+03  0.7546771E-02  0.1161996E+00
         21   -1    0    0  501  502  0.00000000000E+00  0.00000000000E+00  0.18426002300E+04  0.18426002300E+04  0.00000000000E+00 0.  1.
         21   -1    0    0  502  503 -0.00000000000E+00 -0.00000000000E+00 -0.21072774781E+02  0.21072774781E+02  0.00000000000E+00 0.  1.
          6    1    1    2  501    0 -0.56343557478E+02  0.39265714994E+02  0.12166240589E+04  0.12307800346E+04  0.17300000000E+03 0.  1.
         -6    1    1    2    0  503  0.56343557478E+02 -0.39265714994E+02  0.60490339631E+03  0.63289297019E+03  0.17300000000E+03 0.  1.
<mgrwt>
<rscale>  2 0.18613273E+03</rscale>
<asrwt>0</asrwt>
<pdfrwt beam="1">  1       21 0.28347683E+00 0.18613273E+03</pdfrwt>
<pdfrwt beam="2">  1       21 0.32419668E-02 0.18613273E+03</pdfrwt>
<totfact> 0.23790811E+04</totfact>
</mgrwt>
</event>
<event>
 4    1  0.4137916E+000  0.2079241E+03  0.7546771E-02  0.1143221E+00
         21   -1    0    0  501  502  0.00000000000E+00  0.00000000000E+00  0.12913318840E+03  0.12913318840E+03  0.00000000000E+00 0.  1.
         21   -1    0    0  502  503 -0.00000000000E+00 -0.00000000000E+00 -0.33687204680E+03  0.33687204680E+03  0.00000000000E+00 0.  1.
          6    1    1    2  501    0 -0.55900045434E+02 -0.10088910884E+03 -0.12218971863E+03  0.24116955591E+03  0.17300000000E+03 0.  1.
         -6    1    1    2    0  503  0.55900045434E+02  0.10088910884E+03 -0.85549139778E+02  0.22483567928E+03  0.17300000000E+03 0.  1.
<mgrwt>
<rscale>  2 0.20792409E+03</rscale>
<asrwt>0</asrwt>
<pdfrwt beam="1">  1       21 0.19866644E-01 0.20792409E+03</pdfrwt>
<pdfrwt beam="2">  1       21 0.51826469E-01 0.20792409E+03</pdfrwt>
<totfact> 0.82088502E+04</totfact>
</mgrwt>
</event>
<event>
 4    1  0.4137916E+000  0.2479683E+03  0.7546771E-02  0.1114596E+00
         21   -1    0    0  501  502  0.00000000000E+00  0.00000000000E+00  0.12694597179E+04  0.12694597179E+04  0.00000000000E+00 0.  1.
         21   -1    0    0  502  503 -0.00000000000E+00 -0.00000000000E+00 -0.73678911207E+02  0.73678911207E+02  0.00000000000E+00 0. -1.
          6    1    1    2  501    0  0.10205416161E+01 -0.17764637102E+03  0.99097322040E+03  0.10215264060E+04  0.17300000000E+03 0.  1.
         -6    1    1    2    0  503 -0.10205416161E+01  0.17764637102E+03  0.20480758630E+03  0.32161222310E+03  0.17300000000E+03 0. -1.
<mgrwt>
<rscale>  2 0.24796829E+03</rscale>
<asrwt>0</asrwt>
<pdfrwt beam="1">  1       21 0.19530148E+00 0.24796829E+03</pdfrwt>
<pdfrwt beam="2">  1       21 0.11335218E-01 0.24796829E+03</pdfrwt>
<totfact> 0.89678317E+03</totfact>
</mgrwt>
</event>
<event>
 4    1  0.4137916E+000  0.2926891E+03  0.7546771E-02  0.1088953E+00
         21   -1    0    0  503  502  0.00000000000E+00  0.00000000000E+00  0.33293225803E+03  0.33293225803E+03  0.00000000000E+00 0. -1.
         21   -1    0    0  501  503 -0.00000000000E+00 -0.00000000000E+00 -0.29411656596E+03  0.29411656596E+03  0.00000000000E+00 0.  1.
          6    1    1    2  501    0  0.17971729600E+03  0.15309991388E+03  0.13031834512E+03  0.32039001418E+03  0.17300000000E+03 0.  1.
         -6    1    1    2    0  502 -0.17971729600E+03 -0.15309991388E+03 -0.91502653051E+02  0.30665880980E+03  0.17300000000E+03 0.  1.
<mgrwt>
<rscale>  2 0.29268907E+03</rscale>
<asrwt>0</asrwt>
<pdfrwt beam="1">  1       21 0.51220348E-01 0.29268907E+03</pdfrwt>
<pdfrwt beam="2">  1       21 0.45248702E-01 0.29268907E+03</pdfrwt>
<totfact> 0.16113188E+04</totfact>
</mgrwt>
</event>
<event>
 4    1  0.4137916E+000  0.2161443E+03  0.7546771E-02  0.1136791E+00
         21   -1    0    0  503  502  0.00000000000E+00  0.00000000000E+00  0.10849311268E+03  0.10849311268E+03  0.00000000000E+00 0. -1.
         21   -1    0    0  501  503 -0.00000000000E+00 -0.00000000000E+00 -0.55455044245E+03  0.55455044245E+03  0.00000000000E+00 0.  1.
          6    1    1    2  501    0 -0.12369574693E+03  0.38583772479E+02 -0.37975645849E+03  0.43695916637E+03  0.17300000000E+03 0.  1.
         -6    1    1    2    0  502  0.12369574693E+03 -0.38583772479E+02 -0.66300871283E+02  0.22608438876E+03  0.17300000000E+03 0. -1.
<mgrwt>
<rscale>  2 0.21614427E+03</rscale>
<asrwt>0</asrwt>
<pdfrwt beam="1">  1       21 0.16691248E-01 0.21614427E+03</pdfrwt>
<pdfrwt beam="2">  1       21 0.85315453E-01 0.21614427E+03</pdfrwt>
<totfact> 0.37867675E+04</totfact>
</mgrwt>
</event>
<event>
 4    1  0.4137916E+000  0.1754970E+03  0.7546771E-02  0.1172234E+00
         21   -1    0    0  501  502  0.00000000000E+00  0.00000000000E+00  0.24423117737E+03  0.24423117737E+03  0.00000000000E+00 0.  1.
         21   -1    0    0  502  503 -0.00000000000E+00 -0.00000000000E+00 -0.18230279171E+03  0.18230279171E+03  0.00000000000E+00 0.  1.
          6    1    1    2  501    0 -0.29166885467E+02  0.44142025932E+01  0.14937189482E+03  0.23045857622E+03  0.17300000000E+03 0.  1.
         -6    1    1    2    0  503  0.29166885467E+02 -0.44142025932E+01 -0.87443509150E+02  0.19607539286E+03  0.17300000000E+03 0.  1.
<mgrwt>
<rscale>  2 0.17549699E+03</rscale>
<asrwt>0</asrwt>
<pdfrwt beam="1">  1       21 0.37574027E-01 0.17549699E+03</pdfrwt>
<pdfrwt beam="2">  1       21 0.28046583E-01 0.17549699E+03</pdfrwt>
<totfact> 0.83537229E+04</totfact>
</mgrwt>
</event>
<event>
 4    1  0.4137916E+000  0.2688057E+03  0.7546771E-02  0.1101965E+00
         21   -1    0    0  503  502  0.00000000000E+00  0.00000000000E+00  0.57257989853E+02  0.57257989853E+02  0.00000000000E+00 0.  1.
         21   -1    0    0  501  503 -0.00000000000E+00 -0.00000000000E+00 -0.15114386131E+04  0.15114386131E+04  0.00000000000E+00 0.  1.
          6    1    1    2  501    0 -0.20202889446E+03 -0.38882595691E+02 -0.10457608794E+04  0.10797556888E+04  0.17300000000E+03 0.  1.
         -6    1    1    2    0  502  0.20202889446E+03  0.38882595691E+02 -0.40841974384E+03  0.48894091422E+03  0.17300000000E+03 0.  1.
<mgrwt>
<rscale>  2 0.26880575E+03</rscale>
<asrwt>0</asrwt>
<pdfrwt beam="1">  1       21 0.88089225E-02 0.26880575E+03</pdfrwt>
<pdfrwt beam="2">  1       21 0.23252899E+00 0.26880575E+03</pdfrwt>
<totfact> 0.80549550E+03</totfact>
</mgrwt>
</event>
<event>
 4    1  0.4137916E+000  0.2086842E+03  0.7546771E-02  0.1142612E+00
         21   -1    0    0  501  502  0.00000000000E+00  0.00000000000E+00  0.15464441983E+03  0.15464441983E+03  0.00000000000E+00 0.  1.
         21   -1    0    0  502  503 -0.00000000000E+00 -0.00000000000E+00 -0.42563762348E+03  0.42563762348E+03  0.00000000000E+00 0. -1.
          6    1    1    2  501    0 -0.10632676411E+03  0.48111340644E+02  0.33281180816E+02  0.21132136395E+03  0.17300000000E+03 0.  1.
         -6    1    1    2    0  503  0.10632676411E+03 -0.48111340644E+02 -0.30427438447E+03  0.36896067935E+03  0.17300000000E+03 0. -1.
<mgrwt>
<rscale>  2 0.20868417E+03</rscale>
<asrwt>0</asrwt>
<pdfrwt beam="1">  1       21 0.23791449E-01 0.20868417E+03</pdfrwt>
<pdfrwt beam="2">  1       21 0.65482711E-01 0.20868417E+03</pdfrwt>
<totfact> 0.35396731E+04</totfact>
</mgrwt>
</event>
<event>
 4    1  0.4137916E+000  0.1970665E+03  0.7546771E-02  0.1152238E+00
         21   -1    0    0  503  502  0.00000000000E+00  0.00000000000E+00  0.24032743182E+03  0.24032743182E+03  0.00000000000E+00 0.  1.
         21   -1    0    0  501  503 -0.00000000000E+00 -0.00000000000E+00 -0.16591086526E+03  0.16591086526E+03  0.00000000000E+00 0.  1.
          6    1    1    2  501    0  0.21386514177E+02 -0.91917399801E+02  0.44398088252E+01  0.19711647135E+03  0.17300000000E+03 0.  1.
         -6    1    1    2    0  502 -0.21386514177E+02  0.91917399801E+02  0.69976757737E+02  0.20912182573E+03  0.17300000000E+03 0.  1.
<mgrwt>
<rscale>  2 0.19706646E+03</rscale>
<asrwt>0</asrwt>
<pdfrwt beam="1">  1       21 0.36973451E-01 0.19706646E+03</pdfrwt>
<pdfrwt beam="2">  1       21 0.25524749E-01 0.19706646E+03</pdfrwt>
<totfact> 0.10252242E+05</totfact>
</mgrwt>
</event>
<event>
 4    1  0.4137916E+000  0.2179891E+03  0.7546771E-02  0.1135391E+00
         21   -1    0    0  501  502  0.00000000000E+00  0.00000000000E+00  0.10762199377E+03  0.10762199377E+03  0.00000000000E+00 0.  1.
         21   -1    0    0  502  503 -0.00000000000E+00 -0.00000000000E+00 -0.48769207752E+03  0.48769207752E+03  0.00000000000E+00 0. -1.
          6    1    1    2  501    0  0.66432258809E+02  0.11479117823E+03 -0.28160346358E+03  0.35611763550E+03  0.17300000000E+03 0. -1.
         -6    1    1    2    0  503 -0.66432258809E+02 -0.11479117823E+03 -0.98466620172E+02  0.23919643580E+03  0.17300000000E+03 0.  1.
<mgrwt>
<rscale>  2 0.21798913E+03</rscale>
<asrwt>0</asrwt>
<pdfrwt beam="1">  1       21 0.16557230E-01 0.21798913E+03</pdfrwt>
<pdfrwt beam="2">  1       21 0.75029549E-01 0.21798913E+03</pdfrwt>
<totfact> 0.51388895E+04</totfact>
</mgrwt>
</event>
<event>
 4    1  0.4137916E+000  0.1956004E+03  0.7546771E-02  0.1153505E+00
         21   -1    0    0  503  502  0.00000000000E+00  0.00000000000E+00  0.28871702300E+02  0.28871702300E+02  0.00000000000E+00 0. -1.
         21   -1    0    0  501  503 -0.00000000000E+00 -0.00000000000E+00 -0.14883206202E+04  0.14883206202E+04  0.00000000000E+00 0.  1.
          6    1    1    2  501    0  0.22005258070E+02 -0.88579231725E+02 -0.98089881054E+03  0.10002109718E+04  0.17300000000E+03 0.  1.
         -6    1    1    2    0  502 -0.22005258070E+02  0.88579231725E+02 -0.47855010739E+03  0.51698135069E+03  0.17300000000E+03 0. -1.
<mgrwt>
<rscale>  2 0.19560039E+03</rscale>
<asrwt>0</asrwt>
<pdfrwt beam="1">  1       21 0.44417995E-02 0.19560039E+03</pdfrwt>
<pdfrwt beam="2">  1       21 0.22897245E+00 0.19560039E+03</pdfrwt>
<totfact> 0.29082581E+04</totfact>
</mgrwt>
</event>
<event>
 4    1  0.4137916E+000  0.2158970E+03  0.7546771E-02  0.1136979E+00
         21   -1    0    0  503  502  0.00000000000E+00  0.00000000000E+00  0.20692954472E+03  0.20692954472E+03  0.00000000000E+00 0. -1.
         21   -1    0    0  501  503 -0.00000000000E+00 -0.00000000000E+00 -0.49240806350E+03  0.49240806350E+03  0.00000000000E+00 0. -1.
          6    1    1    2  501    0  0.51066568178E+02 -0.11863697036E+03 -0.40029777849E+03  0.45480747200E+03  0.17300000000E+03 0. -1.
         -6    1    1    2    0  502 -0.51066568178E+02  0.11863697036E+03  0.11481925971E+03  0.24453013622E+03  0.17300000000E+03 0. -1.
<mgrwt>
<rscale>  2 0.21589702E+03</rscale>
<asrwt>0</asrwt>
<pdfrwt beam="1">  1       21 0.31835315E-01 0.21589702E+03</pdfrwt>
<pdfrwt beam="2">  1       21 0.75755087E-01 0.21589702E+03</pdfrwt>
<totfact> 0.14536179E+04</totfact>
</mgrwt>
</event>
<event>
 4    1  0.4137916E+000  0.2044369E+03  0.7546771E-02  0.1146049E+00
         21   -1    0    0  503  502  0.00000000000E+00  0.00000000000E+00  0.23735143295E+03  0.23735143295E+03  0.00000000000E+00 0.  1.
         21   -1    0    0  501  503 -0.00000000000E+00 -0.00000000000E+00 -0.84964652878E+03  0.84964652878E+03  0.00000000000E+00 0.  1.
          6    1    1    2  501    0 -0.10604663726E+03 -0.24891052692E+02 -0.79006094731E+03  0.81608256583E+03  0.17300000000E+03 0.  1.
         -6    1    1    2    0  502  0.10604663726E+03  0.24891052692E+02  0.17776585149E+03  0.27091539590E+03  0.17300000000E+03 0.  1.
<mgrwt>
<rscale>  2 0.20443692E+03</rscale>
<asrwt>0</asrwt>
<pdfrwt beam="1">  1       21 0.36515605E-01 0.20443692E+03</pdfrwt>
<pdfrwt beam="2">  1       21 0.13071485E+00 0.20443692E+03</pdfrwt>
<totfact> 0.30518072E+03</totfact>
</mgrwt>
</event>
<event>
 4    1  0.4137916E+000  0.2109219E+03  0.7546771E-02  0.1140838E+00
         21   -1    0    0  503  502  0.00000000000E+00  0.00000000000E+00  0.23745037885E+03  0.23745037885E+03  0.00000000000E+00 0. -1.
         21   -1    0    0  501  503 -0.00000000000E+00 -0.00000000000E+00 -0.13689110323E+04  0.13689110323E+04  0.00000000000E+00 0.  1.
          6    1    1    2  501    0 -0.68868994585E+02  0.99076182394E+02 -0.13119254724E+04  0.13287725440E+04  0.17300000000E+03 0.  1.
         -6    1    1    2    0  502  0.68868994585E+02 -0.99076182394E+02  0.18046481895E+03  0.27758886724E+03  0.17300000000E+03 0. -1.
<mgrwt>
<rscale>  2 0.21092185E+03</rscale>
<asrwt>0</asrwt>
<pdfrwt beam="1">  1       21 0.36530828E-01 0.21092185E+03</pdfrwt>
<pdfrwt beam="2">  1       21 0.21060169E+00 0.21092185E+03</pdfrwt>
<totfact> 0.81425516E+02</totfact>
</mgrwt>
</event>
<event>
 4    1  0.4137916E+000  0.1857891E+03  0.7546771E-02  0.1162315E+00
         21   -1    0    0  503  502  0.00000000000E+00  0.00000000000E+00  0.79535178268E+02  0.79535178268E+02  0.00000000000E+00 0. -1.
         21   -1    0    0  501  503 -0.00000000000E+00 -0.00000000000E+00 -0.44363200756E+03  0.44363200756E+03  0.00000000000E+00 0. -1.
          6    1    1    2  501    0  0.45099350886E+02 -0.50543347562E+02 -0.22060972773E+03  0.28842023750E+03  0.17300000000E+03 0. -1.
         -6    1    1    2    0  502 -0.45099350886E+02  0.50543347562E+02 -0.14348710157E+03  0.23474694833E+03  0.17300000000E+03 0. -1.
<mgrwt>
<rscale>  2 0.18578908E+03</rscale>
<asrwt>0</asrwt>
<pdfrwt beam="1">  1       21 0.12236182E-01 0.18578908E+03</pdfrwt>
<pdfrwt beam="2">  1       21 0.68251077E-01 0.18578908E+03</pdfrwt>
<totfact> 0.11129771E+05</totfact>
</mgrwt>
</event>
<event>
 4    1  0.4137916E+000  0.2222020E+03  0.7546771E-02  0.1132252E+00
         21   -1    0    0  501  502  0.00000000000E+00  0.00000000000E+00  0.11972545230E+03  0.11972545230E+03  0.00000000000E+00 0. -1.
         21   -1    0    0  502  503 -0.00000000000E+00 -0.00000000000E+00 -0.95179795148E+03  0.95179795148E+03  0.00000000000E+00 0. -1.
          6    1    1    2  501    0 -0.31280823704E+02 -0.13589046091E+03 -0.81936346151E+03  0.84895829659E+03  0.17300000000E+03 0.  1.
         -6    1    1    2    0  503  0.31280823704E+02  0.13589046091E+03 -0.12709037668E+02  0.22256510719E+03  0.17300000000E+03 0.  1.
<mgrwt>
<rscale>  2 0.22220195E+03</rscale>
<asrwt>0</asrwt>
<pdfrwt beam="1">  1       21 0.18419301E-01 0.22220195E+03</pdfrwt>
<pdfrwt beam="2">  1       21 0.14643045E+00 0.22220195E+03</pdfrwt>
<totfact> 0.83801866E+03</totfact>
</mgrwt>
</event>
<event>
 4    1  0.4137916E+000  0.2104361E+03  0.7546771E-02  0.1141221E+00
         21   -1    0    0  503  502  0.00000000000E+00  0.00000000000E+00  0.24375471847E+03  0.24375471847E+03  0.00000000000E+00 0. -1.
         21   -1    0    0  501  503 -0.00000000000E+00 -0.00000000000E+00 -0.20516762552E+03  0.20516762552E+03  0.00000000000E+00 0. -1.
          6    1    1    2  501    0 -0.37396951939E+02  0.11382354974E+03  0.95253230437E+02  0.23099028204E+03  0.17300000000E+03 0. -1.
         -6    1    1    2    0  502  0.37396951939E+02 -0.11382354974E+03 -0.56666137484E+02  0.21793206195E+03  0.17300000000E+03 0. -1.
<mgrwt>
<rscale>  2 0.21043605E+03</rscale>
<asrwt>0</asrwt>
<pdfrwt beam="1">  1       21 0.37500726E-01 0.21043605E+03</pdfrwt>
<pdfrwt beam="2">  1       21 0.31564250E-01 0.21043605E+03</pdfrwt>
<totfact> 0.65641506E+04</totfact>
</mgrwt>
</event>
<event>
 4    1  0.4137916E+000  0.1733419E+03  0.7546771E-02  0.1174407E+00
         21   -1    0    0  501  502  0.00000000000E+00  0.00000000000E+00  0.13337321923E+04  0.13337321923E+04  0.00000000000E+00 0. -1.
         21   -1    0    0  502  503 -0.00000000000E+00 -0.00000000000E+00 -0.27263123366E+02  0.27263123366E+02  0.00000000000E+00 0. -1.
          6    1    1    2  501    0  0.79295817471E+01 -0.74521062528E+01  0.93680884413E+03  0.95271098587E+03  0.17300000000E+03 0. -1.
         -6    1    1    2    0  503 -0.79295817471E+01  0.74521062528E+01  0.36966022478E+03  0.40828432978E+03  0.17300000000E+03 0. -1.
<mgrwt>
<rscale>  2 0.17334189E+03</rscale>
<asrwt>0</asrwt>
<pdfrwt beam="1">  1       21 0.20518952E+00 0.17334189E+03</pdfrwt>
<pdfrwt beam="2">  1       21 0.41943277E-02 0.17334189E+03</pdfrwt>
<totfact> 0.45628944E+04</totfact>
</mgrwt>
</event>
<event>
 4    1  0.4137916E+000  0.1937980E+03  0.7546771E-02  0.1155080E+00
         21   -1    0    0  501  502  0.00000000000E+00  0.00000000000E+00  0.47697149605E+02  0.47697149605E+02  0.00000000000E+00 0.  1.
         21   -1    0    0  502  503 -0.00000000000E+00 -0.00000000000E+00 -0.15980598548E+04  0.15980598548E+04  0.00000000000E+00 0. -1.
          6    1    1    2  501    0  0.85533188451E+02  0.17684228877E+02 -0.18910614890E+03  0.27077443349E+03  0.17300000000E+03 0.  1.
         -6    1    1    2    0  503 -0.85533188451E+02 -0.17684228877E+02 -0.13612565563E+04  0.13749825709E+04  0.17300000000E+03 0. -1.
<mgrwt>
<rscale>  2 0.19379798E+03</rscale>
<asrwt>0</asrwt>
<pdfrwt beam="1">  1       21 0.73380231E-02 0.19379798E+03</pdfrwt>
<pdfrwt beam="2">  1       21 0.24585536E+00 0.19379798E+03</pdfrwt>
<totfact> 0.97961760E+03</totfact>
</mgrwt>
</event>
<event>
 4    1  0.4137916E+000  0.1911497E+03  0.7546771E-02  0.1157428E+00
         21   -1    0    0  501  502  0.00000000000E+00  0.00000000000E+00  0.14963605730E+03  0.14963605730E+03  0.00000000000E+00 0. -1.
         21   -1    0    0  502  503 -0.00000000000E+00 -0.00000000000E+00 -0.26515597448E+03  0.26515597448E+03  0.00000000000E+00 0. -1.
          6    1    1    2  501    0 -0.12021480684E+02 -0.80403387038E+02  0.57174678000E+00  0.19115058865E+03  0.17300000000E+03 0.  1.
         -6    1    1    2    0  503  0.12021480684E+02  0.80403387038E+02 -0.11609166396E+03  0.22364144313E+03  0.17300000000E+03 0.  1.
<mgrwt>
<rscale>  2 0.19114973E+03</rscale>
<asrwt>0</asrwt>
<pdfrwt beam="1">  1       21 0.23020932E-01 0.19114973E+03</pdfrwt>
<pdfrwt beam="2">  1       21 0.40793226E-01 0.19114973E+03</pdfrwt>
<totfact> 0.10262877E+05</totfact>
</mgrwt>
</event>
<event>
 4    1  0.4137916E+000  0.1911667E+03  0.7546771E-02  0.1157413E+00
         21   -1    0    0  503  502  0.00000000000E+00  0.00000000000E+00  0.13734874236E+04  0.13734874236E+04  0.00000000000E+00 0. -1.
         21   -1    0    0  501  503 -0.00000000000E+00 -0.00000000000E+00 -0.39011533826E+02  0.39011533826E+02  0.00000000000E+00 0. -1.
          6    1    1    2  501    0  0.32363471814E+02 -0.74621231084E+02  0.26899555532E+03  0.33000504727E+03  0.17300000000E+03 0. -1.
         -6    1    1    2    0  502 -0.32363471814E+02  0.74621231084E+02  0.10654803345E+04  0.10824939102E+04  0.17300000000E+03 0. -1.
<mgrwt>
<rscale>  2 0.19116674E+03</rscale>
<asrwt>0</asrwt>
<pdfrwt beam="1">  1       21 0.21130572E+00 0.19116674E+03</pdfrwt>
<pdfrwt beam="2">  1       21 0.60017755E-02 0.19116674E+03</pdfrwt>
<totfact> 0.22468823E+04</totfact>
</mgrwt>
</event>
<event>
 4    1  0.4137916E+000  0.1910068E+03  0.7546771E-02  0.1157556E+00
         21   -1    0    0  503  502  0.00000000000E+00  0.00000000000E+00  0.10650454036E+04  0.10650454036E+04  0.00000000000E+00 0. -1.
         21   -1    0    0  501  503 -0.00000000000E+00 -0.00000000000E+00 -0.35312366663E+02  0.35312366663E+02  0.00000000000E+00 0. -1.
          6    1    1    2  501    0 -0.71126239906E+02 -0.38673891447E+02  0.61004974733E+03  0.63925292811E+03  0.17300000000E+03 0. -1.
         -6    1    1    2    0  502  0.71126239906E+02  0.38673891447E+02  0.41968328965E+03  0.46110484220E+03  0.17300000000E+03 0. -1.
<mgrwt>
<rscale>  2 0.19100684E+03</rscale>
<asrwt>0</asrwt>
<pdfrwt beam="1">  1       21 0.16385311E+00 0.19100684E+03</pdfrwt>
<pdfrwt beam="2">  1       21 0.54326726E-02 0.19100684E+03</pdfrwt>
<totfact> 0.55182970E+04</totfact>
</mgrwt>
</event>
<event>
 4    1  0.4137916E+000  0.2336187E+03  0.7546771E-02  0.1124118E+00
         21   -1    0    0  503  502  0.00000000000E+00  0.00000000000E+00  0.65775667203E+02  0.65775667203E+02  0.00000000000E+00 0. -1.
         21   -1    0    0  501  503 -0.00000000000E+00 -0.00000000000E+00 -0.15162623983E+04  0.15162623983E+04  0.00000000000E+00 0.  1.
          6    1    1    2  501    0  0.13008800568E+03 -0.87896452733E+02 -0.12575016437E+04  0.12790183969E+04  0.17300000000E+03 0.  1.
         -6    1    1    2    0  502 -0.13008800568E+03  0.87896452733E+02 -0.19298508742E+03  0.30301966865E+03  0.17300000000E+03 0. -1.
<mgrwt>
<rscale>  2 0.23361865E+03</rscale>
<asrwt>0</asrwt>
<pdfrwt beam="1">  1       21 0.10119335E-01 0.23361865E+03</pdfrwt>
<pdfrwt beam="2">  1       21 0.23327110E+00 0.23361865E+03</pdfrwt>
<totfact> 0.64006710E+03</totfact>
</mgrwt>
</event>
<event>
 4    1  0.4137916E+000  0.1820708E+03  0.7546771E-02  0.1165814E+00
         21   -1    0    0  501  502  0.00000000000E+00  0.00000000000E+00  0.10504492148E+03  0.10504492148E+03  0.00000000000E+00 0.  1.
         21   -1    0    0  502  503 -0.00000000000E+00 -0.00000000000E+00 -0.47568365604E+03  0.47568365604E+03  0.00000000000E+00 0.  1.
          6    1    1    2  501    0  0.36004818213E+01  0.56637537814E+02 -0.16862541314E+02  0.18284999168E+03  0.17300000000E+03 0.  1.
         -6    1    1    2    0  503 -0.36004818213E+01 -0.56637537814E+02 -0.35377619324E+03  0.39787858583E+03  0.17300000000E+03 0.  1.
<mgrwt>
<rscale>  2 0.18207079E+03</rscale>
<asrwt>0</asrwt>
<pdfrwt beam="1">  1       21 0.16160757E-01 0.18207079E+03</pdfrwt>
<pdfrwt beam="2">  1       21 0.73182101E-01 0.18207079E+03</pdfrwt>
<totfact> 0.57770441E+04</totfact>
</mgrwt>
</event>
<event>
 4    1  0.4137916E+000  0.2447867E+03  0.7546771E-02  0.1116645E+00
         21   -1    0    0  503  502  0.00000000000E+00  0.00000000000E+00  0.74236919818E+02  0.74236919818E+02  0.00000000000E+00 0. -1.
         21   -1    0    0  501  503 -0.00000000000E+00 -0.00000000000E+00 -0.21603473159E+04  0.21603473159E+04  0.00000000000E+00 0. -1.
          6    1    1    2  501    0 -0.11268371120E+02 -0.17281358583E+03 -0.19273256576E+04  0.19428084574E+04  0.17300000000E+03 0. -1.
         -6    1    1    2    0  502  0.11268371120E+02  0.17281358583E+03 -0.15878473843E+03  0.29177577829E+03  0.17300000000E+03 0. -1.
<mgrwt>
<rscale>  2 0.24478667E+03</rscale>
<asrwt>0</asrwt>
<pdfrwt beam="1">  1       21 0.11421066E-01 0.24478667E+03</pdfrwt>
<pdfrwt beam="2">  1       21 0.33236109E+00 0.24478667E+03</pdfrwt>
<totfact> 0.13334930E+03</totfact>
</mgrwt>
</event>
<event>
 4    1  0.4137916E+000  0.1911022E+03  0.7546771E-02  0.1157471E+00
         21   -1    0    0  503  502  0.00000000000E+00  0.00000000000E+00  0.36934867642E+02  0.36934867642E+02  0.00000000000E+00 0.  1.
         21   -1    0    0  501  503 -0.00000000000E+00 -0.00000000000E+00 -0.18853087350E+04  0.18853087350E+04  0.00000000000E+00 0.  1.
          6    1    1    2  501    0  0.57735813149E+02  0.57075483909E+02 -0.26140284715E+03  0.32380778787E+03  0.17300000000E+03 0.  1.
         -6    1    1    2    0  502 -0.57735813149E+02 -0.57075483909E+02 -0.15869710202E+04  0.15984358148E+04  0.17300000000E+03 0.  1.
<mgrwt>
<rscale>  2 0.19110216E+03</rscale>
<asrwt>0</asrwt>
<pdfrwt beam="1">  1       21 0.56822875E-02 0.19110216E+03</pdfrwt>
<pdfrwt beam="2">  1       21 0.29004749E+00 0.19110216E+03</pdfrwt>
<totfact> 0.84420915E+03</totfact>
</mgrwt>
</event>
<event>
 4    1  0.4137916E+000  0.2029358E+03  0.7546771E-02  0.1147285E+00
         21   -1    0    0  503  502  0.00000000000E+00  0.00000000000E+00  0.43645827054E+03  0.43645827054E+03  0.00000000000E+00 0. -1.
         21   -1    0    0  501  503 -0.00000000000E+00 -0.00000000000E+00 -0.35856688357E+03  0.35856688357E+03  0.00000000000E+00 0. -1.
          6    1    1    2  501    0 -0.38934843715E+02  0.98681321184E+02 -0.30227884494E+03  0.36408161901E+03  0.17300000000E+03 0. -1.
         -6    1    1    2    0  502  0.38934843715E+02 -0.98681321184E+02  0.38017023191E+03  0.43094353509E+03  0.17300000000E+03 0. -1.
<mgrwt>
<rscale>  2 0.20293577E+03</rscale>
<asrwt>0</asrwt>
<pdfrwt beam="1">  1       21 0.67147426E-01 0.20293577E+03</pdfrwt>
<pdfrwt beam="2">  1       21 0.55164136E-01 0.20293577E+03</pdfrwt>
<totfact> 0.62445756E+03</totfact>
</mgrwt>
</event>
<event>
 4    1  0.4137916E+000  0.2186783E+03  0.7546771E-02  0.1134872E+00
         21   -1    0    0  503  502  0.00000000000E+00  0.00000000000E+00  0.25607232717E+03  0.25607232717E+03  0.00000000000E+00 0.  1.
         21   -1    0    0  501  503 -0.00000000000E+00 -0.00000000000E+00 -0.19604848354E+03  0.19604848354E+03  0.00000000000E+00 0. -1.
          6    1    1    2  501    0  0.92265207462E+02 -0.96841816452E+02 -0.19233680369E+02  0.21952252819E+03  0.17300000000E+03 0. -1.
         -6    1    1    2    0  502 -0.92265207462E+02  0.96841816452E+02  0.79257523996E+02  0.23259828252E+03  0.17300000000E+03 0. -1.
<mgrwt>
<rscale>  2 0.21867832E+03</rscale>
<asrwt>0</asrwt>
<pdfrwt beam="1">  1       21 0.39395743E-01 0.21867832E+03</pdfrwt>
<pdfrwt beam="2">  1       21 0.30161305E-01 0.21867832E+03</pdfrwt>
<totfact> 0.64749979E+04</totfact>
</mgrwt>
</event>
<event>
 4    1  0.4137916E+000  0.1890630E+03  0.7546771E-02  0.1159309E+00
         21   -1    0    0  501  502  0.00000000000E+00  0.00000000000E+00  0.73855065892E+02  0.73855065892E+02  0.00000000000E+00 0. -1.
         21   -1    0    0  502  503 -0.00000000000E+00 -0.00000000000E+00 -0.75765669948E+03  0.75765669948E+03  0.00000000000E+00 0. -1.
          6    1    1    2  501    0  0.76019998362E+02 -0.60648463684E+01 -0.92029577487E+02  0.21027188506E+03  0.17300000000E+03 0. -1.
         -6    1    1    2    0  503 -0.76019998362E+02  0.60648463684E+01 -0.59177205610E+03  0.62123988031E+03  0.17300000000E+03 0. -1.
<mgrwt>
<rscale>  2 0.18906301E+03</rscale>
<asrwt>0</asrwt>
<pdfrwt beam="1">  1       21 0.11362318E-01 0.18906301E+03</pdfrwt>
<pdfrwt beam="2">  1       21 0.11656257E+00 0.18906301E+03</pdfrwt>
<totfact> 0.36770055E+04</totfact>
</mgrwt>
</event>
<event>
 4    1  0.4137916E+000  0.2743016E+03  0.7546771E-02  0.1098843E+00
         21   -1    0    0  501  502  0.00000000000E+00  0.00000000000E+00  0.15624105242E+03  0.15624105242E+03  0.00000000000E+00 0.  1.
         21   -1    0    0  502  503 -0.00000000000E+00 -0.00000000000E+00 -0.53167871844E+03  0.53167871844E+03  0.00000000000E+00 0. -1.
          6    1    1    2  501    0  0.15359423288E+03 -0.14738111236E+03 -0.82127238768E+02  0.28633243617E+03  0.17300000000E+03 0.  1.
         -6    1    1    2    0  503 -0.15359423288E+03  0.14738111236E+03 -0.29331042724E+03  0.40158733469E+03  0.17300000000E+03 0. -1.
<mgrwt>
<rscale>  2 0.27430162E+03</rscale>
<asrwt>0</asrwt>
<pdfrwt beam="1">  1       21 0.24037085E-01 0.27430162E+03</pdfrwt>
<pdfrwt beam="2">  1       21 0.81796726E-01 0.27430162E+03</pdfrwt>
<totfact> 0.20455167E+04</totfact>
</mgrwt>
</event>
<event>
 4    1  0.4137916E+000  0.1932620E+03  0.7546771E-02  0.1155552E+00
         21   -1    0    0  501  502  0.00000000000E+00  0.00000000000E+00  0.15834976471E+03  0.15834976471E+03  0.00000000000E+00 0. -1.
         21   -1    0    0  502  503 -0.00000000000E+00 -0.00000000000E+00 -0.31891444848E+03  0.31891444848E+03  0.00000000000E+00 0. -1.
          6    1    1    2  501    0 -0.41979726435E+02  0.75225595568E+02  0.41488498743E+02  0.19766507832E+03  0.17300000000E+03 0. -1.
         -6    1    1    2    0  503  0.41979726435E+02 -0.75225595568E+02 -0.20205318251E+03  0.27959913488E+03  0.17300000000E+03 0. -1.
<mgrwt>
<rscale>  2 0.19326197E+03</rscale>
<asrwt>0</asrwt>
<pdfrwt beam="1">  1       21 0.24361503E-01 0.19326197E+03</pdfrwt>
<pdfrwt beam="2">  1       21 0.49063761E-01 0.19326197E+03</pdfrwt>
<totfact> 0.63055114E+04</totfact>
</mgrwt>
</event>
<event>
 4    1  0.4137916E+000  0.1955628E+03  0.7546771E-02  0.1153538E+00
         21   -1    0    0  501  502  0.00000000000E+00  0.00000000000E+00  0.31531258112E+03  0.31531258112E+03  0.00000000000E+00 0. -1.
         21   -1    0    0  502  503 -0.00000000000E+00 -0.00000000000E+00 -0.13790788905E+03  0.13790788905E+03  0.00000000000E+00 0.  1.
          6    1    1    2  501    0  0.96937761071E+01 -0.90674390466E+02  0.16736163941E+03  0.25739994702E+03  0.17300000000E+03 0. -1.
         -6    1    1    2    0  503 -0.96937761071E+01  0.90674390466E+02  0.10043052668E+02  0.19582052315E+03  0.17300000000E+03 0.  1.
<mgrwt>
<rscale>  2 0.19556281E+03</rscale>
<asrwt>0</asrwt>
<pdfrwt beam="1">  1       21 0.48509628E-01 0.19556281E+03</pdfrwt>
<pdfrwt beam="2">  1       21 0.21216598E-01 0.19556281E+03</pdfrwt>
<totfact> 0.83762755E+04</totfact>
</mgrwt>
</event>
<event>
 4    1  0.4137916E+000  0.2851837E+03  0.7546771E-02  0.1092891E+00
         21   -1    0    0  501  502  0.00000000000E+00  0.00000000000E+00  0.67836876881E+02  0.67836876881E+02  0.00000000000E+00 0.  1.
         21   -1    0    0  502  503 -0.00000000000E+00 -0.00000000000E+00 -0.11991369941E+04  0.11991369941E+04  0.00000000000E+00 0. -1.
          6    1    1    2  501    0  0.19914912707E+03 -0.10835305785E+03 -0.55677987560E+03  0.62556661503E+03  0.17300000000E+03 0.  1.
         -6    1    1    2    0  503 -0.19914912707E+03  0.10835305785E+03 -0.57452024158E+03  0.64140725592E+03  0.17300000000E+03 0. -1.
<mgrwt>
<rscale>  2 0.28518373E+03</rscale>
<asrwt>0</asrwt>
<pdfrwt beam="1">  1       21 0.10436443E-01 0.28518373E+03</pdfrwt>
<pdfrwt beam="2">  1       21 0.18448261E+00 0.28518373E+03</pdfrwt>
<totfact> 0.12008599E+04</totfact>
</mgrwt>
</event>
<event>
 4    1  0.4137916E+000  0.2190821E+03  0.7546771E-02  0.1134569E+00
         21   -1    0    0  503  502  0.00000000000E+00  0.00000000000E+00  0.41331752259E+03  0.41331752259E+03  0.00000000000E+00 0.  1.
         21   -1    0    0  501  503 -0.00000000000E+00 -0.00000000000E+00 -0.12793720482E+03  0.12793720482E+03  0.00000000000E+00 0. -1.
          6    1    1    2  501    0 -0.27411579352E+02  0.13159250001E+03  0.60462626107E+02  0.22727232541E+03  0.17300000000E+03 0. -1.
         -6    1    1    2    0  502  0.27411579352E+02 -0.13159250001E+03  0.22491769166E+03  0.31398240200E+03  0.17300000000E+03 0.  1.
<mgrwt>
<rscale>  2 0.21908213E+03</rscale>
<asrwt>0</asrwt>
<pdfrwt beam="1">  1       21 0.63587310E-01 0.21908213E+03</pdfrwt>
<pdfrwt beam="2">  1       21 0.19682647E-01 0.21908213E+03</pdfrwt>
<totfact> 0.53695852E+04</totfact>
</mgrwt>
</event>
<event>
 4    1  0.4137916E+000  0.2136492E+03  0.7546771E-02  0.1138708E+00
         21   -1    0    0  503  502  0.00000000000E+00  0.00000000000E+00  0.24736541354E+03  0.24736541354E+03  0.00000000000E+00 0. -1.
         21   -1    0    0  501  503 -0.00000000000E+00 -0.00000000000E+00 -0.25506735645E+03  0.25506735645E+03  0.00000000000E+00 0. -1.
          6    1    1    2  501    0 -0.40298822402E+02  0.11871391864E+03  0.12825865638E+03  0.24919123681E+03  0.17300000000E+03 0. -1.
         -6    1    1    2    0  502  0.40298822402E+02 -0.11871391864E+03 -0.13596059930E+03  0.25324153318E+03  0.17300000000E+03 0. -1.
<mgrwt>
<rscale>  2 0.21364922E+03</rscale>
<asrwt>0</asrwt>
<pdfrwt beam="1">  1       21 0.38056218E-01 0.21364922E+03</pdfrwt>
<pdfrwt beam="2">  1       21 0.39241132E-01 0.21364922E+03</pdfrwt>
<totfact> 0.41252792E+04</totfact>
</mgrwt>
</event>
<event>
 4    1  0.4137916E+000  0.3886146E+03  0.7546771E-02  0.1047795E+00
         21   -1    0    0  501  502  0.00000000000E+00  0.00000000000E+00  0.14855045078E+03  0.14855045078E+03  0.00000000000E+00 0. -1.
         21   -1    0    0  502  503 -0.00000000000E+00 -0.00000000000E+00 -0.12551383762E+04  0.12551383762E+04  0.00000000000E+00 0.  1.
          6    1    1    2  501    0  0.20262912197E+03  0.28290231405E+03 -0.24734837704E+03  0.46065442578E+03  0.17300000000E+03 0. -1.
         -6    1    1    2    0  503 -0.20262912197E+03 -0.28290231405E+03 -0.85923954838E+03  0.94303440120E+03  0.17300000000E+03 0.  1.
<mgrwt>
<rscale>  2 0.38861457E+03</rscale>
<asrwt>0</asrwt>
<pdfrwt beam="1">  1       21 0.22853915E-01 0.38861457E+03</pdfrwt>
<pdfrwt beam="2">  1       21 0.19309822E+00 0.38861457E+03</pdfrwt>
<totfact> 0.23341519E+03</totfact>
</mgrwt>
</event>
<event>
 4    1  0.4137916E+000  0.1779353E+03  0.7546771E-02  0.1169816E+00
         21   -1    0    0  503  502  0.00000000000E+00  0.00000000000E+00  0.15472583690E+03  0.15472583690E+03  0.00000000000E+00 0.  1.
         21   -1    0    0  501  503 -0.00000000000E+00 -0.00000000000E+00 -0.20562069139E+03  0.20562069139E+03  0.00000000000E+00 0.  1.
          6    1    1    2  501    0 -0.39030998023E+02  0.14441058006E+02 -0.12917361871E+02  0.17840353472E+03  0.17300000000E+03 0.  1.
         -6    1    1    2    0  502  0.39030998023E+02 -0.14441058006E+02 -0.37977492627E+02  0.18194299357E+03  0.17300000000E+03 0.  1.
<mgrwt>
<rscale>  2 0.17793528E+03</rscale>
<asrwt>0</asrwt>
<pdfrwt beam="1">  1       21 0.23803975E-01 0.17793528E+03</pdfrwt>
<pdfrwt beam="2">  1       21 0.31633953E-01 0.17793528E+03</pdfrwt>
<totfact> 0.16048649E+05</totfact>
</mgrwt>
</event>
<event>
 4    1  0.4137916E+000  0.1730044E+03  0.7546771E-02  0.1174750E+00
         21   -1    0    0  501  502  0.00000000000E+00  0.00000000000E+00  0.13475059904E+03  0.13475059904E+03  0.00000000000E+00 0.  1.
         21   -1    0    0  502  503 -0.00000000000E+00 -0.00000000000E+00 -0.32137329872E+03  0.32137329872E+03  0.00000000000E+00 0.  1.
          6    1    1    2  501    0  0.85688088550E+00 -0.88825324369E+00  0.33431933592E+02  0.17620504369E+03  0.17300000000E+03 0.  1.
         -6    1    1    2    0  503 -0.85688088550E+00  0.88825324369E+00 -0.22005463327E+03  0.27991885407E+03  0.17300000000E+03 0.  1.
<mgrwt>
<rscale>  2 0.17300440E+03</rscale>
<asrwt>0</asrwt>
<pdfrwt beam="1">  1       21 0.20730862E-01 0.17300440E+03</pdfrwt>
<pdfrwt beam="2">  1       21 0.49442046E-01 0.17300440E+03</pdfrwt>
<totfact> 0.84864191E+04</totfact>
</mgrwt>
</event>
<event>
 4    1  0.4137916E+000  0.2198257E+03  0.7546771E-02  0.1134013E+00
         21   -1    0    0  501  502  0.00000000000E+00  0.00000000000E+00  0.43305161442E+02  0.43305161442E+02  0.00000000000E+00 0. -1.
         21   -1    0    0  502  503 -0.00000000000E+00 -0.00000000000E+00 -0.11231804592E+04  0.11231804592E+04  0.00000000000E+00 0. -1.
          6    1    1    2  501    0  0.47936615528E+02  0.12687163589E+03 -0.49291338574E+03  0.53971004896E+03  0.17300000000E+03 0. -1.
         -6    1    1    2    0  503 -0.47936615528E+02 -0.12687163589E+03 -0.58696191201E+03  0.62677557168E+03  0.17300000000E+03 0. -1.
<mgrwt>
<rscale>  2 0.21982568E+03</rscale>
<asrwt>0</asrwt>
<pdfrwt beam="1">  1       21 0.66623330E-02 0.21982568E+03</pdfrwt>
<pdfrwt beam="2">  1       21 0.17279698E+00 0.21982568E+03</pdfrwt>
<totfact> 0.33030686E+04</totfact>
</mgrwt>
</event>
<event>
 4    1  0.4137916E+000  0.2067362E+03  0.7546771E-02  0.1144177E+00
         21   -1    0    0  501  502  0.00000000000E+00  0.00000000000E+00  0.43865996986E+03  0.43865996986E+03  0.00000000000E+00 0.  1.
         21   -1    0    0  502  503 -0.00000000000E+00 -0.00000000000E+00 -0.15978429390E+03  0.15978429390E+03  0.00000000000E+00 0.  1.
          6    1    1    2  501    0  0.94715785520E+02  0.61966057060E+02  0.32635538614E+03  0.38632591204E+03  0.17300000000E+03 0.  1.
         -6    1    1    2    0  503 -0.94715785520E+02 -0.61966057060E+02 -0.47479710182E+02  0.21211835171E+03  0.17300000000E+03 0.  1.
<mgrwt>
<rscale>  2 0.20673624E+03</rscale>
<asrwt>0</asrwt>
<pdfrwt beam="1">  1       21 0.67486149E-01 0.20673624E+03</pdfrwt>
<pdfrwt beam="2">  1       21 0.24582199E-01 0.20673624E+03</pdfrwt>
<totfact> 0.31166690E+04</totfact>
</mgrwt>
</event>
<event>
 4    1  0.4137916E+000  0.2080447E+03  0.7546771E-02  0.1143124E+00
         21   -1    0    0  501  502  0.00000000000E+00  0.00000000000E+00  0.30621667181E+03  0.30621667181E+03  0.00000000000E+00 0. -1.
         21   -1    0    0  502  503 -0.00000000000E+00 -0.00000000000E+00 -0.14922478207E+03  0.14922478207E+03  0.00000000000E+00 0. -1.
          6    1    1    2  501    0 -0.72305507648E+02 -0.90141522146E+02  0.13082037898E+03  0.24575709961E+03  0.17300000000E+03 0. -1.
         -6    1    1    2    0  503  0.72305507648E+02  0.90141522146E+02  0.26171510760E+02  0.20968435427E+03  0.17300000000E+03 0. -1.
<mgrwt>
<rscale>  2 0.20804466E+03</rscale>
<asrwt>0</asrwt>
<pdfrwt beam="1">  1       21 0.47110257E-01 0.20804466E+03</pdfrwt>
<pdfrwt beam="2">  1       21 0.22957659E-01 0.20804466E+03</pdfrwt>
<totfact> 0.76281295E+04</totfact>
</mgrwt>
</event>
<event>
 4    1  0.4137916E+000  0.1758680E+03  0.7546771E-02  0.1171863E+00
         21   -1    0    0  501  502  0.00000000000E+00  0.00000000000E+00  0.32872930222E+03  0.32872930222E+03  0.00000000000E+00 0.  1.
         21   -1    0    0  502  503 -0.00000000000E+00 -0.00000000000E+00 -0.13477916728E+03  0.13477916728E+03  0.00000000000E+00 0.  1.
          6    1    1    2  501    0 -0.27287261987E+02 -0.15999166761E+02  0.22431510741E+03  0.28503830517E+03  0.17300000000E+03 0.  1.
         -6    1    1    2    0  503  0.27287261987E+02  0.15999166761E+02 -0.30364972466E+02  0.17847016433E+03  0.17300000000E+03 0.  1.
<mgrwt>
<rscale>  2 0.17586804E+03</rscale>
<asrwt>0</asrwt>
<pdfrwt beam="1">  1       21 0.50573739E-01 0.17586804E+03</pdfrwt>
<pdfrwt beam="2">  1       21 0.20735257E-01 0.17586804E+03</pdfrwt>
<totfact> 0.80831884E+04</totfact>
</mgrwt>
</event>
<event>
 4    1  0.4137916E+000  0.1987573E+03  0.7546771E-02  0.1150792E+00
         21   -1    0    0  501  502  0.00000000000E+00  0.00000000000E+00  0.16674540649E+03  0.16674540649E+03  0.00000000000E+00 0. -1.
         21   -1    0    0  502  503 -0.00000000000E+00 -0.00000000000E+00 -0.24111612689E+03  0.24111612689E+03  0.00000000000E+00 0.  1.
          6    1    1    2  501    0 -0.79286328937E+02  0.57350910632E+02 -0.10266006217E+02  0.19902220929E+03  0.17300000000E+03 0.  1.
         -6    1    1    2    0  503  0.79286328937E+02 -0.57350910632E+02 -0.64104714177E+02  0.20883932409E+03  0.17300000000E+03 0.  1.
<mgrwt>
<rscale>  2 0.19875726E+03</rscale>
<asrwt>0</asrwt>
<pdfrwt beam="1">  1       21 0.25653139E-01 0.19875726E+03</pdfrwt>
<pdfrwt beam="2">  1       21 0.37094789E-01 0.19875726E+03</pdfrwt>
<totfact> 0.10080893E+05</totfact>
</mgrwt>
</event>
<event>
 4    1  0.4137916E+000  0.1747644E+03  0.7546771E-02  0.1172968E+00
         21   -1    0    0  501  502  0.00000000000E+00  0.00000000000E+00  0.11933076698E+03  0.11933076698E+03  0.00000000000E+00 0.  1.
         21   -1    0    0  502  503 -0.00000000000E+00 -0.00000000000E+00 -0.27141940256E+03  0.27141940256E+03  0.00000000000E+00 0.  1.
          6    1    1    2  501    0  0.21931079091E+02  0.11516617237E+02 -0.12268854138E+03  0.21353005149E+03  0.17300000000E+03 0. -1.
         -6    1    1    2    0  503 -0.21931079091E+02 -0.11516617237E+02 -0.29400094210E+02  0.17722011805E+03  0.17300000000E+03 0. -1.
<mgrwt>
<rscale>  2 0.17476443E+03</rscale>
<asrwt>0</asrwt>
<pdfrwt beam="1">  1       21 0.18358580E-01 0.17476443E+03</pdfrwt>
<pdfrwt beam="2">  1       21 0.41756831E-01 0.17476443E+03</pdfrwt>
<totfact> 0.15032384E+05</totfact>
</mgrwt>
</event>
<event>
 4    1  0.4137916E+000  0.1795992E+03  0.7546771E-02  0.1168192E+00
         21   -1    0    0  503  502  0.00000000000E+00  0.00000000000E+00  0.29089908994E+03  0.29089908994E+03  0.00000000000E+00 0. -1.
         21   -1    0    0  501  503 -0.00000000000E+00 -0.00000000000E+00 -0.15107181669E+03  0.15107181669E+03  0.00000000000E+00 0.  1.
          6    1    1    2  501    0 -0.31360688300E+01 -0.48135586599E+02 -0.44064776051E+02  0.18492586113E+03  0.17300000000E+03 0.  1.
         -6    1    1    2    0  502  0.31360688300E+01  0.48135586599E+02  0.18389204930E+03  0.25704504551E+03  0.17300000000E+03 0. -1.
<mgrwt>
<rscale>  2 0.17959919E+03</rscale>
<asrwt>0</asrwt>
<pdfrwt beam="1">  1       21 0.44753706E-01 0.17959919E+03</pdfrwt>
<pdfrwt beam="2">  1       21 0.23241818E-01 0.17959919E+03</pdfrwt>
<totfact> 0.83826024E+04</totfact>
</mgrwt>
</event>
<event>
 4    1  0.4137916E+000  0.2130505E+03  0.7546771E-02  0.1139173E+00
         21   -1    0    0  503  502  0.00000000000E+00  0.00000000000E+00  0.15315709008E+03  0.15315709008E+03  0.00000000000E+00 0.  1.
         21   -1    0    0  501  503 -0.00000000000E+00 -0.00000000000E+00 -0.30273276832E+03  0.30273276832E+03  0.00000000000E+00 0.  1.
          6    1    1    2  501    0 -0.12061576484E+03  0.30222011243E+02 -0.41730756526E+02  0.21709902978E+03  0.17300000000E+03 0.  1.
         -6    1    1    2    0  502  0.12061576484E+03 -0.30222011243E+02 -0.10784492171E+03  0.23879082862E+03  0.17300000000E+03 0.  1.
<mgrwt>
<rscale>  2 0.21305054E+03</rscale>
<asrwt>0</asrwt>
<pdfrwt beam="1">  1       21 0.23562630E-01 0.21305054E+03</pdfrwt>
<pdfrwt beam="2">  1       21 0.46574271E-01 0.21305054E+03</pdfrwt>
<totfact> 0.74188082E+04</totfact>
</mgrwt>
</event>
<event>
 4    1  0.4137916E+000  0.2237883E+03  0.7546771E-02  0.1131090E+00
         21   -1    0    0  503  502  0.00000000000E+00  0.00000000000E+00  0.40612742776E+02  0.40612742776E+02  0.00000000000E+00 0. -1.
         21   -1    0    0  501  503 -0.00000000000E+00 -0.00000000000E+00 -0.13007851637E+04  0.13007851637E+04  0.00000000000E+00 0. -1.
          6    1    1    2  501    0  0.11592472383E+03 -0.81937025809E+02 -0.47713897796E+03  0.52701311377E+03  0.17300000000E+03 0. -1.
         -6    1    1    2    0  502 -0.11592472383E+03  0.81937025809E+02 -0.78303344297E+03  0.81438479271E+03  0.17300000000E+03 0. -1.
<mgrwt>
<rscale>  2 0.22378833E+03</rscale>
<asrwt>0</asrwt>
<pdfrwt beam="1">  1       21 0.62481153E-02 0.22378833E+03</pdfrwt>
<pdfrwt beam="2">  1       21 0.20012076E+00 0.22378833E+03</pdfrwt>
<totfact> 0.24117184E+04</totfact>
</mgrwt>
</event>
<event>
 4    1  0.4137916E+000  0.2397909E+03  0.7546771E-02  0.1119932E+00
         21   -1    0    0  501  502  0.00000000000E+00  0.00000000000E+00  0.18420224629E+03  0.18420224629E+03  0.00000000000E+00 0. -1.
         21   -1    0    0  502  503 -0.00000000000E+00 -0.00000000000E+00 -0.45458618720E+03  0.45458618720E+03  0.00000000000E+00 0. -1.
          6    1    1    2  501    0  0.13800616651E+03  0.92330913949E+02  0.43588915312E+02  0.24372052274E+03  0.17300000000E+03 0. -1.
         -6    1    1    2    0  503 -0.13800616651E+03 -0.92330913949E+02 -0.31397285622E+03  0.39506791075E+03  0.17300000000E+03 0. -1.
<mgrwt>
<rscale>  2 0.23979095E+03</rscale>
<asrwt>0</asrwt>
<pdfrwt beam="1">  1       21 0.28338807E-01 0.23979095E+03</pdfrwt>
<pdfrwt beam="2">  1       21 0.69936336E-01 0.23979095E+03</pdfrwt>
<totfact> 0.21530850E+04</totfact>
</mgrwt>
</event>
<event>
 4    1  0.4137916E+000  0.1966757E+03  0.7546771E-02  0.1152574E+00
         21   -1    0    0  503  502  0.00000000000E+00  0.00000000000E+00  0.18307265106E+04  0.18307265106E+04  0.00000000000E+00 0. -1.
         21   -1    0    0  501  503 -0.00000000000E+00 -0.00000000000E+00 -0.62121731269E+02  0.62121731269E+02  0.00000000000E+00 0. -1.
          6    1    1    2  501    0  0.35914315388E+02  0.86385745405E+02  0.11549473299E+03  0.22807974134E+03  0.17300000000E+03 0. -1.
         -6    1    1    2    0  502 -0.35914315388E+02 -0.86385745405E+02  0.16531100463E+04  0.16647685005E+04  0.17300000000E+03 0. -1.
<mgrwt>
<rscale>  2 0.19667571E+03</rscale>
<asrwt>0</asrwt>
<pdfrwt beam="1">  1       21 0.28165019E+00 0.19667571E+03</pdfrwt>
<pdfrwt beam="2">  1       21 0.95571908E-02 0.19667571E+03</pdfrwt>
<totfact> 0.38091492E+03</totfact>
</mgrwt>
</event>
<event>
 4    1  0.4137916E+000  0.2719518E+03  0.7546771E-02  0.1100168E+00
         21   -1    0    0  503  502  0.00000000000E+00  0.00000000000E+00  0.82548217941E+02  0.82548217941E+02  0.00000000000E+00 0. -1.
         21   -1    0    0  501  503 -0.00000000000E+00 -0.00000000000E+00 -0.90521021467E+03  0.90521021467E+03  0.00000000000E+00 0.  1.
          6    1    1    2  501    0 -0.59483349816E+02 -0.20122251706E+03 -0.36133593581E+03  0.45224045461E+03  0.17300000000E+03 0. -1.
         -6    1    1    2    0  502  0.59483349816E+02  0.20122251706E+03 -0.46132606092E+03  0.53551797800E+03  0.17300000000E+03 0.  1.
<mgrwt>
<rscale>  2 0.27195178E+03</rscale>
<asrwt>0</asrwt>
<pdfrwt beam="1">  1       21 0.12699726E-01 0.27195178E+03</pdfrwt>
<pdfrwt beam="2">  1       21 0.13926311E+00 0.27195178E+03</pdfrwt>
<totfact> 0.18364823E+04</totfact>
</mgrwt>
</event>
<event>
 4    1  0.4137916E+000  0.2043109E+03  0.7546771E-02  0.1146152E+00
         21   -1    0    0  501  502  0.00000000000E+00  0.00000000000E+00  0.27272470654E+03  0.27272470654E+03  0.00000000000E+00 0. -1.
         21   -1    0    0  502  503 -0.00000000000E+00 -0.00000000000E+00 -0.18072066242E+03  0.18072066242E+03  0.00000000000E+00 0.  1.
          6    1    1    2  501    0  0.10447403832E+03  0.29985075878E+02  0.13470361117E+03  0.24472023276E+03  0.17300000000E+03 0. -1.
         -6    1    1    2    0  503 -0.10447403832E+03 -0.29985075878E+02 -0.42699567054E+02  0.20872513621E+03  0.17300000000E+03 0.  1.
<mgrwt>
<rscale>  2 0.20431086E+03</rscale>
<asrwt>0</asrwt>
<pdfrwt beam="1">  1       21 0.41957647E-01 0.20431086E+03</pdfrwt>
<pdfrwt beam="2">  1       21 0.27803179E-01 0.20431086E+03</pdfrwt>
<totfact> 0.67173063E+04</totfact>
</mgrwt>
</event>
<event>
 4    1  0.4137916E+000  0.1994736E+03  0.7546771E-02  0.1150184E+00
         21   -1    0    0  501  502  0.00000000000E+00  0.00000000000E+00  0.88871324757E+03  0.88871324757E+03  0.00000000000E+00 0.  1.
         21   -1    0    0  502  503 -0.00000000000E+00 -0.00000000000E+00 -0.72628973429E+02  0.72628973429E+02  0.00000000000E+00 0.  1.
          6    1    1    2  501    0  0.22935910641E+02  0.96616007760E+02  0.70572780961E+03  0.73337674507E+03  0.17300000000E+03 0.  1.
         -6    1    1    2    0  503 -0.22935910641E+02 -0.96616007760E+02  0.11035646453E+03  0.22796547593E+03  0.17300000000E+03 0.  1.
<mgrwt>
<rscale>  2 0.19947358E+03</rscale>
<asrwt>0</asrwt>
<pdfrwt beam="1">  1       21 0.13672511E+00 0.19947358E+03</pdfrwt>
<pdfrwt beam="2">  1       21 0.11173689E-01 0.19947358E+03</pdfrwt>
<totfact> 0.25239897E+04</totfact>
</mgrwt>
</event>
<event>
 4    1  0.4137916E+000  0.1737982E+03  0.7546771E-02  0.1173944E+00
         21   -1    0    0  501  502  0.00000000000E+00  0.00000000000E+00  0.13146434328E+02  0.13146434328E+02  0.00000000000E+00 0. -1.
         21   -1    0    0  502  503 -0.00000000000E+00 -0.00000000000E+00 -0.30610519742E+04  0.30610519742E+04  0.00000000000E+00 0. -1.
          6    1    1    2  501    0 -0.98728237521E+01  0.13391947072E+02 -0.75633487964E+03  0.77604656243E+03  0.17300000000E+03 0. -1.
         -6    1    1    2    0  503  0.98728237521E+01 -0.13391947072E+02 -0.22915706602E+04  0.22981518461E+04  0.17300000000E+03 0. -1.
<mgrwt>
<rscale>  2 0.17379821E+03</rscale>
<asrwt>0</asrwt>
<pdfrwt beam="1">  1       21 0.20225233E-02 0.17379821E+03</pdfrwt>
<pdfrwt beam="2">  1       21 0.47093226E+00 0.17379821E+03</pdfrwt>
<totfact> 0.37460014E+03</totfact>
</mgrwt>
</event>
<event>
 4    1  0.4137916E+000  0.2273327E+03  0.7546771E-02  0.1128531E+00
         21   -1    0    0  501  502  0.00000000000E+00  0.00000000000E+00  0.45184275784E+03  0.45184275784E+03  0.00000000000E+00 0.  1.
         21   -1    0    0  502  503 -0.00000000000E+00 -0.00000000000E+00 -0.15054209784E+03  0.15054209784E+03  0.00000000000E+00 0. -1.
          6    1    1    2  501    0  0.13131893945E+03  0.67130319925E+02  0.29827656683E+03  0.37503207067E+03  0.17300000000E+03 0.  1.
         -6    1    1    2    0  503 -0.13131893945E+03 -0.67130319925E+02  0.30240931746E+01  0.22735278501E+03  0.17300000000E+03 0. -1.
<mgrwt>
<rscale>  2 0.22733267E+03</rscale>
<asrwt>0</asrwt>
<pdfrwt beam="1">  1       21 0.69514270E-01 0.22733267E+03</pdfrwt>
<pdfrwt beam="2">  1       21 0.23160323E-01 0.22733267E+03</pdfrwt>
<totfact> 0.32366605E+04</totfact>
</mgrwt>
</event>
<event>
 4    1  0.4137916E+000  0.2266720E+03  0.7546771E-02  0.1129004E+00
         21   -1    0    0  503  502  0.00000000000E+00  0.00000000000E+00  0.90997742157E+03  0.90997742157E+03  0.00000000000E+00 0.  1.
         21   -1    0    0  501  503 -0.00000000000E+00 -0.00000000000E+00 -0.63680201237E+02  0.63680201237E+02  0.00000000000E+00 0.  1.
          6    1    1    2  501    0  0.13075636733E+03  0.65984529265E+02  0.58703924978E+03  0.62928154786E+03  0.17300000000E+03 0.  1.
         -6    1    1    2    0  502 -0.13075636733E+03 -0.65984529265E+02  0.25925797056E+03  0.34437607495E+03  0.17300000000E+03 0.  1.
<mgrwt>
<rscale>  2 0.22667198E+03</rscale>
<asrwt>0</asrwt>
<pdfrwt beam="1">  1       21 0.13999652E+00 0.22667198E+03</pdfrwt>
<pdfrwt beam="2">  1       21 0.97969547E-02 0.22667198E+03</pdfrwt>
<totfact> 0.29511509E+04</totfact>
</mgrwt>
</event>
<event>
 4    1  0.4137916E+000  0.2691858E+03  0.7546771E-02  0.1101747E+00
         21   -1    0    0  503  502  0.00000000000E+00  0.00000000000E+00  0.41595865558E+03  0.41595865558E+03  0.00000000000E+00 0.  1.
         21   -1    0    0  501  503 -0.00000000000E+00 -0.00000000000E+00 -0.17532007676E+03  0.17532007676E+03  0.00000000000E+00 0. -1.
          6    1    1    2  501    0  0.16412244410E+03  0.12488315746E+03  0.96713842991E+02  0.28603242317E+03  0.17300000000E+03 0.  1.
         -6    1    1    2    0  502 -0.16412244410E+03 -0.12488315746E+03  0.14392473583E+03  0.30524630917E+03  0.17300000000E+03 0.  1.
<mgrwt>
<rscale>  2 0.26918577E+03</rscale>
<asrwt>0</asrwt>
<pdfrwt beam="1">  1       21 0.63993639E-01 0.26918577E+03</pdfrwt>
<pdfrwt beam="2">  1       21 0.26972320E-01 0.26918577E+03</pdfrwt>
<totfact> 0.28440178E+04</totfact>
</mgrwt>
</event>
<event>
 4    1  0.4137916E+000  0.2485772E+03  0.7546771E-02  0.1114207E+00
         21   -1    0    0  503  502  0.00000000000E+00  0.00000000000E+00  0.12258575597E+04  0.12258575597E+04  0.00000000000E+00 0.  1.
         21   -1    0    0  501  503 -0.00000000000E+00 -0.00000000000E+00 -0.10091121986E+03  0.10091121986E+03  0.00000000000E+00 0.  1.
          6    1    1    2  501    0  0.10215214212E+03  0.14637822183E+03  0.93159272380E+02  0.26546053190E+03  0.17300000000E+03 0.  1.
         -6    1    1    2    0  502 -0.10215214212E+03 -0.14637822183E+03  0.10317870675E+04  0.10613082477E+04  0.17300000000E+03 0.  1.
<mgrwt>
<rscale>  2 0.24857724E+03</rscale>
<asrwt>0</asrwt>
<pdfrwt beam="1">  1       21 0.18859346E+00 0.24857724E+03</pdfrwt>
<pdfrwt beam="2">  1       21 0.15524804E-01 0.24857724E+03</pdfrwt>
<totfact> 0.56137106E+03</totfact>
</mgrwt>
</event>
<event>
 4    1  0.4137916E+000  0.1867010E+03  0.7546771E-02  0.1161471E+00
         21   -1    0    0  501  502  0.00000000000E+00  0.00000000000E+00  0.21912600309E+04  0.21912600309E+04  0.00000000000E+00 0.  1.
         21   -1    0    0  502  503 -0.00000000000E+00 -0.00000000000E+00 -0.18545397520E+02  0.18545397520E+02  0.00000000000E+00 0.  1.
          6    1    1    2  501    0  0.26043144759E+02  0.65192253022E+02  0.15030752622E+04  0.15146261978E+04  0.17300000000E+03 0.  1.
         -6    1    1    2    0  503 -0.26043144759E+02 -0.65192253022E+02  0.66963937120E+03  0.69517923063E+03  0.17300000000E+03 0.  1.
<mgrwt>
<rscale>  2 0.18670103E+03</rscale>
<asrwt>0</asrwt>
<pdfrwt beam="1">  1       21 0.33711672E+00 0.18670103E+03</pdfrwt>
<pdfrwt beam="2">  1       21 0.28531398E-02 0.18670103E+03</pdfrwt>
<totfact> 0.14407454E+04</totfact>
</mgrwt>
</event>
<event>
 4    1  0.4137916E+000  0.1791810E+03  0.7546771E-02  0.1168598E+00
         21   -1    0    0  501  502  0.00000000000E+00  0.00000000000E+00  0.20398648749E+03  0.20398648749E+03  0.00000000000E+00 0. -1.
         21   -1    0    0  502  503 -0.00000000000E+00 -0.00000000000E+00 -0.30723720527E+03  0.30723720527E+03  0.00000000000E+00 0. -1.
          6    1    1    2  501    0  0.44518310978E+02  0.13961950439E+02  0.12688592713E+03  0.21955831703E+03  0.17300000000E+03 0. -1.
         -6    1    1    2    0  503 -0.44518310978E+02 -0.13961950439E+02 -0.23013664491E+03  0.29166537574E+03  0.17300000000E+03 0. -1.
<mgrwt>
<rscale>  2 0.17918096E+03</rscale>
<asrwt>0</asrwt>
<pdfrwt beam="1">  1       21 0.31382537E-01 0.17918096E+03</pdfrwt>
<pdfrwt beam="2">  1       21 0.47267262E-01 0.17918096E+03</pdfrwt>
<totfact> 0.42065349E+04</totfact>
</mgrwt>
</event>
<event>
 4    1  0.4137916E+000  0.2542120E+03  0.7546771E-02  0.1110672E+00
         21   -1    0    0  501  502  0.00000000000E+00  0.00000000000E+00  0.18674300110E+03  0.18674300110E+03  0.00000000000E+00 0.  1.
         21   -1    0    0  502  503 -0.00000000000E+00 -0.00000000000E+00 -0.39889505916E+03  0.39889505916E+03  0.00000000000E+00 0.  1.
          6    1    1    2  501    0  0.18000100673E+03 -0.47899407242E+02  0.49607839128E+00  0.25421243426E+03  0.17300000000E+03 0.  1.
         -6    1    1    2    0  503 -0.18000100673E+03  0.47899407242E+02 -0.21264813645E+03  0.33142562600E+03  0.17300000000E+03 0.  1.
<mgrwt>
<rscale>  2 0.25421195E+03</rscale>
<asrwt>0</asrwt>
<pdfrwt beam="1">  1       21 0.28729693E-01 0.25421195E+03</pdfrwt>
<pdfrwt beam="2">  1       21 0.61368470E-01 0.25421195E+03</pdfrwt>
<totfact> 0.27734882E+04</totfact>
</mgrwt>
</event>
<event>
 4    1  0.4137916E+000  0.2353027E+03  0.7546771E-02  0.1122962E+00
         21   -1    0    0  503  502  0.00000000000E+00  0.00000000000E+00  0.12673995407E+03  0.12673995407E+03  0.00000000000E+00 0. -1.
         21   -1    0    0  501  503 -0.00000000000E+00 -0.00000000000E+00 -0.44884408994E+03  0.44884408994E+03  0.00000000000E+00 0.  1.
          6    1    1    2  501    0 -0.12432336504E+03  0.99910269837E+02 -0.20808152990E+03  0.31411030578E+03  0.17300000000E+03 0.  1.
         -6    1    1    2    0  502  0.12432336504E+03 -0.99910269837E+02 -0.11402260597E+03  0.26147373823E+03  0.17300000000E+03 0. -1.
<mgrwt>
<rscale>  2 0.23530270E+03</rscale>
<asrwt>0</asrwt>
<pdfrwt beam="1">  1       21 0.19498455E-01 0.23530270E+03</pdfrwt>
<pdfrwt beam="2">  1       21 0.69052937E-01 0.23530270E+03</pdfrwt>
<totfact> 0.45283185E+04</totfact>
</mgrwt>
</event>
<event>
 4    1  0.4137916E+000  0.2161881E+03  0.7546771E-02  0.1136757E+00
         21   -1    0    0  501  502  0.00000000000E+00  0.00000000000E+00  0.27122671220E+03  0.27122671220E+03  0.00000000000E+00 0.  1.
         21   -1    0    0  502  503 -0.00000000000E+00 -0.00000000000E+00 -0.18669716776E+03  0.18669716776E+03  0.00000000000E+00 0.  1.
          6    1    1    2  501    0  0.12919611155E+03 -0.10801781904E+02  0.10580627137E+03  0.24069125616E+03  0.17300000000E+03 0.  1.
         -6    1    1    2    0  503 -0.12919611155E+03  0.10801781904E+02 -0.21276726934E+02  0.21723262380E+03  0.17300000000E+03 0.  1.
<mgrwt>
<rscale>  2 0.21618814E+03</rscale>
<asrwt>0</asrwt>
<pdfrwt beam="1">  1       21 0.41727186E-01 0.21618814E+03</pdfrwt>
<pdfrwt beam="2">  1       21 0.28722641E-01 0.21618814E+03</pdfrwt>
<totfact> 0.63445567E+04</totfact>
</mgrwt>
</event>
<event>
 4    1  0.4137916E+000  0.1742322E+03  0.7546771E-02  0.1173505E+00
         21   -1    0    0  501  502  0.00000000000E+00  0.00000000000E+00  0.13609319035E+03  0.13609319035E+03  0.00000000000E+00 0.  1.
         21   -1    0    0  502  503 -0.00000000000E+00 -0.00000000000E+00 -0.22719872724E+03  0.22719872724E+03  0.00000000000E+00 0.  1.
          6    1    1    2  501    0 -0.20643783646E+02 -0.12970392941E+01 -0.21034243995E+02  0.17549725791E+03  0.17300000000E+03 0.  1.
         -6    1    1    2    0  503  0.20643783646E+02  0.12970392941E+01 -0.70071292891E+02  0.18779465967E+03  0.17300000000E+03 0.  1.
<mgrwt>
<rscale>  2 0.17423217E+03</rscale>
<asrwt>0</asrwt>
<pdfrwt beam="1">  1       21 0.20937414E-01 0.17423217E+03</pdfrwt>
<pdfrwt beam="2">  1       21 0.34953650E-01 0.17423217E+03</pdfrwt>
<totfact> 0.16811773E+05</totfact>
</mgrwt>
</event>
<event>
 4    1  0.4137916E+000  0.2674469E+03  0.7546771E-02  0.1102750E+00
         21   -1    0    0  501  502  0.00000000000E+00  0.00000000000E+00  0.12392967520E+03  0.12392967520E+03  0.00000000000E+00 0.  1.
         21   -1    0    0  502  503 -0.00000000000E+00 -0.00000000000E+00 -0.75971926797E+03  0.75971926797E+03  0.00000000000E+00 0.  1.
          6    1    1    2  501    0 -0.20162584007E+03  0.30754577917E+02 -0.10131414882E+03  0.28599367161E+03  0.17300000000E+03 0.  1.
         -6    1    1    2    0  503  0.20162584007E+03 -0.30754577917E+02 -0.53447544395E+03  0.59765527156E+03  0.17300000000E+03 0.  1.
<mgrwt>
<rscale>  2 0.26744686E+03</rscale>
<asrwt>0</asrwt>
<pdfrwt beam="1">  1       21 0.19066104E-01 0.26744686E+03</pdfrwt>
<pdfrwt beam="2">  1       21 0.11687989E+00 0.26744686E+03</pdfrwt>
<totfact> 0.13601095E+04</totfact>
</mgrwt>
</event>
<event>
 4    1  0.4137916E+000  0.1799745E+03  0.7546771E-02  0.1167828E+00
         21   -1    0    0  503  502  0.00000000000E+00  0.00000000000E+00  0.38495645243E+02  0.38495645243E+02  0.00000000000E+00 0.  1.
         21   -1    0    0  501  503 -0.00000000000E+00 -0.00000000000E+00 -0.15908647707E+04  0.15908647707E+04  0.00000000000E+00 0.  1.
          6    1    1    2  501    0 -0.41226475867E+02  0.27608104789E+02 -0.13353517459E+04  0.13474253653E+04  0.17300000000E+03 0.  1.
         -6    1    1    2    0  502  0.41226475867E+02 -0.27608104789E+02 -0.21701737962E+03  0.28193505071E+03  0.17300000000E+03 0.  1.
<mgrwt>
<rscale>  2 0.17997453E+03</rscale>
<asrwt>0</asrwt>
<pdfrwt beam="1">  1       21 0.59224085E-02 0.17997453E+03</pdfrwt>
<pdfrwt beam="2">  1       21 0.24474836E+00 0.17997453E+03</pdfrwt>
<totfact> 0.14566072E+04</totfact>
</mgrwt>
</event>
<event>
 4    1  0.4137916E+000  0.1996058E+03  0.7546771E-02  0.1150072E+00
         21   -1    0    0  503  502  0.00000000000E+00  0.00000000000E+00  0.55049967694E+03  0.55049967694E+03  0.00000000000E+00 0. -1.
         21   -1    0    0  501  503 -0.00000000000E+00 -0.00000000000E+00 -0.13210743971E+03  0.13210743971E+03  0.00000000000E+00 0.  1.
          6    1    1    2  501    0  0.99547437899E+02  0.19476623320E+01 -0.20303427865E+02  0.20063577688E+03  0.17300000000E+03 0.  1.
         -6    1    1    2    0  502 -0.99547437899E+02 -0.19476623320E+01  0.43869566509E+03  0.48197133976E+03  0.17300000000E+03 0. -1.
<mgrwt>
<rscale>  2 0.19960583E+03</rscale>
<asrwt>0</asrwt>
<pdfrwt beam="1">  1       21 0.84692257E-01 0.19960583E+03</pdfrwt>
<pdfrwt beam="2">  1       21 0.20324222E-01 0.19960583E+03</pdfrwt>
<totfact> 0.26955557E+04</totfact>
</mgrwt>
</event>
<event>
 4    1  0.4137916E+000  0.1909561E+03  0.7546771E-02  0.1157602E+00
         21   -1    0    0  501  502  0.00000000000E+00  0.00000000000E+00  0.25772724727E+02  0.25772724727E+02  0.00000000000E+00 0.  1.
         21   -1    0    0  502  503 -0.00000000000E+00 -0.00000000000E+00 -0.24071659763E+04  0.24071659763E+04  0.00000000000E+00 0. -1.
          6    1    1    2  501    0  0.47221168991E+02 -0.65615368679E+02 -0.40965191229E+03  0.45197223880E+03  0.17300000000E+03 0.  1.
         -6    1    1    2    0  503 -0.47221168991E+02  0.65615368679E+02 -0.19717413393E+04  0.19809664622E+04  0.17300000000E+03 0. -1.
<mgrwt>
<rscale>  2 0.19095606E+03</rscale>
<asrwt>0</asrwt>
<pdfrwt beam="1">  1       21 0.39650340E-02 0.19095606E+03</pdfrwt>
<pdfrwt beam="2">  1       21 0.37033328E+00 0.19095606E+03</pdfrwt>
<totfact> 0.52727857E+03</totfact>
</mgrwt>
</event>
<event>
 4    1  0.4137916E+000  0.2338582E+03  0.7546771E-02  0.1123953E+00
         21   -1    0    0  503  502  0.00000000000E+00  0.00000000000E+00  0.12370044076E+03  0.12370044076E+03  0.00000000000E+00 0.  1.
         21   -1    0    0  501  503 -0.00000000000E+00 -0.00000000000E+00 -0.81220114328E+03  0.81220114328E+03  0.00000000000E+00 0. -1.
          6    1    1    2  501    0 -0.14951025837E+03  0.49064619206E+02 -0.66012923078E+03  0.70032867680E+03  0.17300000000E+03 0. -1.
         -6    1    1    2    0  502  0.14951025837E+03 -0.49064619206E+02 -0.28371471735E+02  0.23557290724E+03  0.17300000000E+03 0.  1.
<mgrwt>
<rscale>  2 0.23385819E+03</rscale>
<asrwt>0</asrwt>
<pdfrwt beam="1">  1       21 0.19030837E-01 0.23385819E+03</pdfrwt>
<pdfrwt beam="2">  1       21 0.12495402E+00 0.23385819E+03</pdfrwt>
<totfact> 0.11763706E+04</totfact>
</mgrwt>
</event>
<event>
 4    1  0.4137916E+000  0.1753192E+03  0.7546771E-02  0.1172412E+00
         21   -1    0    0  503  502  0.00000000000E+00  0.00000000000E+00  0.13519694709E+03  0.13519694709E+03  0.00000000000E+00 0.  1.
         21   -1    0    0  501  503 -0.00000000000E+00 -0.00000000000E+00 -0.11408696204E+04  0.11408696204E+04  0.00000000000E+00 0.  1.
          6    1    1    2  501    0  0.13356459407E+02  0.25088565276E+02 -0.10737686310E+04  0.10879870882E+04  0.17300000000E+03 0.  1.
         -6    1    1    2    0  502 -0.13356459407E+02 -0.25088565276E+02  0.68095957637E+02  0.18807947938E+03  0.17300000000E+03 0.  1.
<mgrwt>
<rscale>  2 0.17531923E+03</rscale>
<asrwt>0</asrwt>
<pdfrwt beam="1">  1       21 0.20799530E-01 0.17531923E+03</pdfrwt>
<pdfrwt beam="2">  1       21 0.17551840E+00 0.17531923E+03</pdfrwt>
<totfact> 0.42576873E+03</totfact>
</mgrwt>
</event>
<event>
 4    1  0.4137916E+000  0.1922530E+03  0.7546771E-02  0.1156445E+00
         21   -1    0    0  503  502  0.00000000000E+00  0.00000000000E+00  0.45218276501E+02  0.45218276501E+02  0.00000000000E+00 0.  1.
         21   -1    0    0  501  503 -0.00000000000E+00 -0.00000000000E+00 -0.11008776639E+04  0.11008776639E+04  0.00000000000E+00 0. -1.
          6    1    1    2  501    0 -0.54920442137E+02  0.63371510517E+02 -0.81862308241E+03  0.84089532901E+03  0.17300000000E+03 0. -1.
         -6    1    1    2    0  502  0.54920442137E+02 -0.63371510517E+02 -0.23703630502E+03  0.30520061141E+03  0.17300000000E+03 0.  1.
<mgrwt>
<rscale>  2 0.19225297E+03</rscale>
<asrwt>0</asrwt>
<pdfrwt beam="1">  1       21 0.69566582E-02 0.19225297E+03</pdfrwt>
<pdfrwt beam="2">  1       21 0.16936579E+00 0.19225297E+03</pdfrwt>
<totfact> 0.32971803E+04</totfact>
</mgrwt>
</event>
<event>
 4    1  0.4137916E+000  0.1877661E+03  0.7546771E-02  0.1160492E+00
         21   -1    0    0  503  502  0.00000000000E+00  0.00000000000E+00  0.66374456935E+03  0.66374456935E+03  0.00000000000E+00 0. -1.
         21   -1    0    0  501  503 -0.00000000000E+00 -0.00000000000E+00 -0.78329070895E+02  0.78329070895E+02  0.00000000000E+00 0. -1.
          6    1    1    2  501    0 -0.72599564435E+02 -0.75100957285E+01  0.82203887730E+02  0.20497213823E+03  0.17300000000E+03 0. -1.
         -6    1    1    2    0  502  0.72599564435E+02  0.75100957285E+01  0.50321161073E+03  0.53710150201E+03  0.17300000000E+03 0. -1.
<mgrwt>
<rscale>  2 0.18776607E+03</rscale>
<asrwt>0</asrwt>
<pdfrwt beam="1">  1       21 0.10211455E+00 0.18776607E+03</pdfrwt>
<pdfrwt beam="2">  1       21 0.12050627E-01 0.18776607E+03</pdfrwt>
<totfact> 0.45602178E+04</totfact>
</mgrwt>
</event>
<event>
 4    1  0.4137916E+000  0.1985611E+03  0.7546771E-02  0.1150959E+00
         21   -1    0    0  501  502  0.00000000000E+00  0.00000000000E+00  0.43141154483E+03  0.43141154483E+03  0.00000000000E+00 0.  1.
         21   -1    0    0  502  503 -0.00000000000E+00 -0.00000000000E+00 -0.20533341764E+03  0.20533341764E+03  0.00000000000E+00 0.  1.
          6    1    1    2  501    0 -0.82257052302E+02 -0.52261879294E+02  0.35020433541E+03  0.40257869196E+03  0.17300000000E+03 0.  1.
         -6    1    1    2    0  503  0.82257052302E+02  0.52261879294E+02 -0.12412620821E+03  0.23416627051E+03  0.17300000000E+03 0.  1.
<mgrwt>
<rscale>  2 0.19856114E+03</rscale>
<asrwt>0</asrwt>
<pdfrwt beam="1">  1       21 0.66371007E-01 0.19856114E+03</pdfrwt>
<pdfrwt beam="2">  1       21 0.31589757E-01 0.19856114E+03</pdfrwt>
<totfact> 0.19989638E+04</totfact>
</mgrwt>
</event>
<event>
 4    1  0.4137916E+000  0.1852285E+03  0.7546771E-02  0.1162837E+00
         21   -1    0    0  503  502  0.00000000000E+00  0.00000000000E+00  0.19050032583E+02  0.19050032583E+02  0.00000000000E+00 0.  1.
         21   -1    0    0  501  503 -0.00000000000E+00 -0.00000000000E+00 -0.18155090833E+04  0.18155090833E+04  0.00000000000E+00 0.  1.
          6    1    1    2  501    0 -0.23373430409E+02 -0.61921700128E+02 -0.81630291668E+03  0.83705439846E+03  0.17300000000E+03 0.  1.
         -6    1    1    2    0  502  0.23373430409E+02  0.61921700128E+02 -0.98015613402E+03  0.99750471740E+03  0.17300000000E+03 0.  1.
<mgrwt>
<rscale>  2 0.18522855E+03</rscale>
<asrwt>0</asrwt>
<pdfrwt beam="1">  1       21 0.29307745E-02 0.18522855E+03</pdfrwt>
<pdfrwt beam="2">  1       21 0.27930907E+00 0.18522855E+03</pdfrwt>
<totfact> 0.29738139E+04</totfact>
</mgrwt>
</event>
<event>
 4    1  0.4137916E+000  0.1891842E+03  0.7546771E-02  0.1159199E+00
         21   -1    0    0  501  502  0.00000000000E+00  0.00000000000E+00  0.13765579876E+04  0.13765579876E+04  0.00000000000E+00 0. -1.
         21   -1    0    0  502  503 -0.00000000000E+00 -0.00000000000E+00 -0.26342682246E+02  0.26342682246E+02  0.00000000000E+00 0. -1.
          6    1    1    2  501    0 -0.22005536214E+02  0.73330757057E+02  0.75510031936E+03  0.77843890951E+03  0.17300000000E+03 0. -1.
         -6    1    1    2    0  503  0.22005536214E+02 -0.73330757057E+02  0.59511498595E+03  0.62446176028E+03  0.17300000000E+03 0. -1.
<mgrwt>
<rscale>  2 0.18918415E+03</rscale>
<asrwt>0</asrwt>
<pdfrwt beam="1">  1       21 0.21177810E+00 0.18918415E+03</pdfrwt>
<pdfrwt beam="2">  1       21 0.40527214E-02 0.18918415E+03</pdfrwt>
<totfact> 0.43462948E+04</totfact>
</mgrwt>
</event>
<event>
 4    1  0.4137916E+000  0.1862742E+03  0.7546771E-02  0.1161865E+00
         21   -1    0    0  501  502  0.00000000000E+00  0.00000000000E+00  0.96113845656E+02  0.96113845656E+02  0.00000000000E+00 0. -1.
         21   -1    0    0  502  503 -0.00000000000E+00 -0.00000000000E+00 -0.36697032347E+03  0.36697032347E+03  0.00000000000E+00 0.  1.
          6    1    1    2  501    0  0.65700309610E+02  0.21272840594E+02 -0.10591971520E+03  0.21428264162E+03  0.17300000000E+03 0.  1.
         -6    1    1    2    0  503 -0.65700309610E+02 -0.21272840594E+02 -0.16493676261E+03  0.24880152751E+03  0.17300000000E+03 0. -1.
<mgrwt>
<rscale>  2 0.18627416E+03</rscale>
<asrwt>0</asrwt>
<pdfrwt beam="1">  1       21 0.14786745E-01 0.18627416E+03</pdfrwt>
<pdfrwt beam="2">  1       21 0.56456973E-01 0.18627416E+03</pdfrwt>
<totfact> 0.11908987E+05</totfact>
</mgrwt>
</event>
<event>
 4    1  0.4137916E+000  0.1878843E+03  0.7546771E-02  0.1160384E+00
         21   -1    0    0  503  502  0.00000000000E+00  0.00000000000E+00  0.82832383339E+02  0.82832383339E+02  0.00000000000E+00 0. -1.
         21   -1    0    0  501  503 -0.00000000000E+00 -0.00000000000E+00 -0.30093550206E+04  0.30093550206E+04  0.00000000000E+00 0. -1.
          6    1    1    2  501    0 -0.51019882976E+02  0.52616281287E+02 -0.28957032749E+04  0.29017921976E+04  0.17300000000E+03 0. -1.
         -6    1    1    2    0  502  0.51019882976E+02 -0.52616281287E+02 -0.30819362352E+02  0.19039520638E+03  0.17300000000E+03 0. -1.
<mgrwt>
<rscale>  2 0.18788428E+03</rscale>
<asrwt>0</asrwt>
<pdfrwt beam="1">  1       21 0.12743446E-01 0.18788428E+03</pdfrwt>
<pdfrwt beam="2">  1       21 0.46297762E+00 0.18788428E+03</pdfrwt>
<totfact> 0.18112439E+02</totfact>
</mgrwt>
</event>
<event>
 4    1  0.4137916E+000  0.2208783E+03  0.7546771E-02  0.1133230E+00
         21   -1    0    0  503  502  0.00000000000E+00  0.00000000000E+00  0.33617083558E+03  0.33617083558E+03  0.00000000000E+00 0.  1.
         21   -1    0    0  501  503 -0.00000000000E+00 -0.00000000000E+00 -0.14513879320E+03  0.14513879320E+03  0.00000000000E+00 0.  1.
          6    1    1    2  501    0  0.13626036384E+03 -0.17069019072E+02  0.93285568781E+02  0.23976954667E+03  0.17300000000E+03 0.  1.
         -6    1    1    2    0  502 -0.13626036384E+03  0.17069019072E+02  0.97746473604E+02  0.24154008212E+03  0.17300000000E+03 0.  1.
<mgrwt>
<rscale>  2 0.22087833E+03</rscale>
<asrwt>0</asrwt>
<pdfrwt beam="1">  1       21 0.51718590E-01 0.22087833E+03</pdfrwt>
<pdfrwt beam="2">  1       21 0.22329045E-01 0.22087833E+03</pdfrwt>
<totfact> 0.65817018E+04</totfact>
</mgrwt>
</event>
<event>
 4    1  0.4137916E+000  0.1936288E+03  0.7546771E-02  0.1155228E+00
         21   -1    0    0  501  502  0.00000000000E+00  0.00000000000E+00  0.89188340517E+03  0.89188340517E+03  0.00000000000E+00 0. -1.
         21   -1    0    0  502  503 -0.00000000000E+00 -0.00000000000E+00 -0.17437706300E+03  0.17437706300E+03  0.00000000000E+00 0.  1.
          6    1    1    2  501    0 -0.57154107817E+02 -0.65547932838E+02  0.82319814042E+03  0.84566382324E+03  0.17300000000E+03 0. -1.
         -6    1    1    2    0  503  0.57154107817E+02  0.65547932838E+02 -0.10569179825E+03  0.22059664494E+03  0.17300000000E+03 0.  1.
<mgrwt>
<rscale>  2 0.19362883E+03</rscale>
<asrwt>0</asrwt>
<pdfrwt beam="1">  1       21 0.13721283E+00 0.19362883E+03</pdfrwt>
<pdfrwt beam="2">  1       21 0.26827241E-01 0.19362883E+03</pdfrwt>
<totfact> 0.49827952E+03</totfact>
</mgrwt>
</event>
<event>
 4    1  0.4137916E+000  0.2382698E+03  0.7546771E-02  0.1120951E+00
         21   -1    0    0  503  502  0.00000000000E+00  0.00000000000E+00  0.11127441919E+04  0.11127441919E+04  0.00000000000E+00 0. -1.
         21   -1    0    0  501  503 -0.00000000000E+00 -0.00000000000E+00 -0.18240894639E+03  0.18240894639E+03  0.00000000000E+00 0. -1.
          6    1    1    2  501    0  0.22233030164E+02 -0.16232434272E+03 -0.84432779178E+02  0.25278725061E+03  0.17300000000E+03 0. -1.
         -6    1    1    2    0  502 -0.22233030164E+02  0.16232434272E+03  0.10147680247E+04  0.10423658877E+04  0.17300000000E+03 0. -1.
<mgrwt>
<rscale>  2 0.23826980E+03</rscale>
<asrwt>0</asrwt>
<pdfrwt beam="1">  1       21 0.17119141E+00 0.23826980E+03</pdfrwt>
<pdfrwt beam="2">  1       21 0.28062916E-01 0.23826980E+03</pdfrwt>
<totfact> 0.24385457E+03</totfact>
</mgrwt>
</event>
<event>
 4    1  0.4137916E+000  0.2662186E+03  0.7546771E-02  0.1103464E+00
         21   -1    0    0  503  502  0.00000000000E+00  0.00000000000E+00  0.36532262859E+03  0.36532262859E+03  0.00000000000E+00 0. -1.
         21   -1    0    0  501  503 -0.00000000000E+00 -0.00000000000E+00 -0.20002702890E+03  0.20002702890E+03  0.00000000000E+00 0. -1.
          6    1    1    2  501    0  0.19521244151E+03 -0.53248820658E+02  0.13171820580E+03  0.29702191832E+03  0.17300000000E+03 0. -1.
         -6    1    1    2    0  502 -0.19521244151E+03  0.53248820658E+02  0.33577393887E+02  0.26832773916E+03  0.17300000000E+03 0. -1.
<mgrwt>
<rscale>  2 0.26621858E+03</rscale>
<asrwt>0</asrwt>
<pdfrwt beam="1">  1       21 0.56203481E-01 0.26621858E+03</pdfrwt>
<pdfrwt beam="2">  1       21 0.30773389E-01 0.26621858E+03</pdfrwt>
<totfact> 0.29144866E+04</totfact>
</mgrwt>
</event>
<event>
 4    1  0.4137916E+000  0.1992962E+03  0.7546771E-02  0.1150334E+00
         21   -1    0    0  501  502  0.00000000000E+00  0.00000000000E+00  0.45708485913E+02  0.45708485913E+02  0.00000000000E+00 0. -1.
         21   -1    0    0  502  503 -0.00000000000E+00 -0.00000000000E+00 -0.12507640790E+04  0.12507640790E+04  0.00000000000E+00 0. -1.
          6    1    1    2  501    0 -0.95668936867E+02 -0.25247097118E+02 -0.24437818841E+03  0.31534054666E+03  0.17300000000E+03 0. -1.
         -6    1    1    2    0  503  0.95668936867E+02  0.25247097118E+02 -0.96067740464E+03  0.98113201822E+03  0.17300000000E+03 0. -1.
<mgrwt>
<rscale>  2 0.19929617E+03</rscale>
<asrwt>0</asrwt>
<pdfrwt beam="1">  1       21 0.70320758E-02 0.19929617E+03</pdfrwt>
<pdfrwt beam="2">  1       21 0.19242522E+00 0.19929617E+03</pdfrwt>
<totfact> 0.22454907E+04</totfact>
</mgrwt>
</event>
<event>
 4    1  0.4137916E+000  0.1938940E+03  0.7546771E-02  0.1154995E+00
         21   -1    0    0  501  502  0.00000000000E+00  0.00000000000E+00  0.51128079189E+03  0.51128079189E+03  0.00000000000E+00 0. -1.
         21   -1    0    0  502  503 -0.00000000000E+00 -0.00000000000E+00 -0.73847695963E+02  0.73847695963E+02  0.00000000000E+00 0.  1.
          6    1    1    2  501    0  0.68380951013E+02 -0.54680089088E+02  0.23788277606E+03  0.30689262251E+03  0.17300000000E+03 0.  1.
         -6    1    1    2    0  503 -0.68380951013E+02  0.54680089088E+02  0.19955031986E+03  0.27823586534E+03  0.17300000000E+03 0. -1.
<mgrwt>
<rscale>  2 0.19389396E+03</rscale>
<asrwt>0</asrwt>
<pdfrwt beam="1">  1       21 0.78658581E-01 0.19389396E+03</pdfrwt>
<pdfrwt beam="2">  1       21 0.11361184E-01 0.19389396E+03</pdfrwt>
<totfact> 0.92407638E+04</totfact>
</mgrwt>
</event>
<event>
 4    1  0.4137916E+000  0.2118300E+03  0.7546771E-02  0.1140125E+00
         21   -1    0    0  503  502  0.00000000000E+00  0.00000000000E+00  0.10907686815E+03  0.10907686815E+03  0.00000000000E+00 0.  1.
         21   -1    0    0  501  503 -0.00000000000E+00 -0.00000000000E+00 -0.49891348265E+03  0.49891348265E+03  0.00000000000E+00 0.  1.
          6    1    1    2  501    0 -0.11768921786E+03  0.33048224098E+02 -0.32225206643E+03  0.38564015796E+03  0.17300000000E+03 0.  1.
         -6    1    1    2    0  502  0.11768921786E+03 -0.33048224098E+02 -0.67584548067E+02  0.22235019283E+03  0.17300000000E+03 0.  1.
<mgrwt>
<rscale>  2 0.21182997E+03</rscale>
<asrwt>0</asrwt>
<pdfrwt beam="1">  1       21 0.16781057E-01 0.21182997E+03</pdfrwt>
<pdfrwt beam="2">  1       21 0.76755919E-01 0.21182997E+03</pdfrwt>
<totfact> 0.47776489E+04</totfact>
</mgrwt>
</event>
<event>
 4    1  0.4137916E+000  0.1829078E+03  0.7546771E-02  0.1165018E+00
         21   -1    0    0  501  502  0.00000000000E+00  0.00000000000E+00  0.63536460543E+02  0.63536460543E+02  0.00000000000E+00 0.  1.
         21   -1    0    0  502  503 -0.00000000000E+00 -0.00000000000E+00 -0.52963415442E+03  0.52963415442E+03  0.00000000000E+00 0.  1.
          6    1    1    2  501    0  0.61457846413E+01 -0.59063496075E+02 -0.25567288565E+03  0.31436267542E+03  0.17300000000E+03 0.  1.
         -6    1    1    2    0  503 -0.61457846413E+01  0.59063496075E+02 -0.21042480822E+03  0.27880793955E+03  0.17300000000E+03 0.  1.
<mgrwt>
<rscale>  2 0.18290781E+03</rscale>
<asrwt>0</asrwt>
<pdfrwt beam="1">  1       21 0.97748399E-02 0.18290781E+03</pdfrwt>
<pdfrwt beam="2">  1       21 0.81482179E-01 0.18290781E+03</pdfrwt>
<totfact> 0.11186401E+05</totfact>
</mgrwt>
</event>
<event>
 4    1  0.4137916E+000  0.2028640E+03  0.7546771E-02  0.1147345E+00
         21   -1    0    0  503  502  0.00000000000E+00  0.00000000000E+00  0.77329938223E+02  0.77329938223E+02  0.00000000000E+00 0. -1.
         21   -1    0    0  501  503 -0.00000000000E+00 -0.00000000000E+00 -0.68514738093E+03  0.68514738093E+03  0.00000000000E+00 0. -1.
          6    1    1    2  501    0  0.69183077239E+02  0.80240332043E+02 -0.12377389175E+03  0.23764213713E+03  0.17300000000E+03 0. -1.
         -6    1    1    2    0  502 -0.69183077239E+02 -0.80240332043E+02 -0.48404355096E+03  0.52483518202E+03  0.17300000000E+03 0. -1.
<mgrwt>
<rscale>  2 0.20286402E+03</rscale>
<asrwt>0</asrwt>
<pdfrwt beam="1">  1       21 0.11896914E-01 0.20286402E+03</pdfrwt>
<pdfrwt beam="2">  1       21 0.10540729E+00 0.20286402E+03</pdfrwt>
<totfact> 0.42902053E+04</totfact>
</mgrwt>
</event>
<event>
 4    1  0.4137916E+000  0.1808093E+03  0.7546771E-02  0.1167022E+00
         21   -1    0    0  501  502  0.00000000000E+00  0.00000000000E+00  0.25835841155E+03  0.25835841155E+03  0.00000000000E+00 0. -1.
         21   -1    0    0  502  503 -0.00000000000E+00 -0.00000000000E+00 -0.18734557786E+04  0.18734557786E+04  0.00000000000E+00 0. -1.
          6    1    1    2  501    0 -0.52479863027E+02 -0.29788622500E+01  0.22173226187E+03  0.28610698278E+03  0.17300000000E+03 0. -1.
         -6    1    1    2    0  503  0.52479863027E+02  0.29788622500E+01 -0.18368296289E+04  0.18457072074E+04  0.17300000000E+03 0. -1.
<mgrwt>
<rscale>  2 0.18080932E+03</rscale>
<asrwt>0</asrwt>
<pdfrwt beam="1">  1       21 0.39747449E-01 0.18080932E+03</pdfrwt>
<pdfrwt beam="2">  1       21 0.28822396E+00 0.18080932E+03</pdfrwt>
<totfact> 0.24798233E+02</totfact>
</mgrwt>
</event>
<event>
 4    1  0.4137916E+000  0.2035108E+03  0.7546771E-02  0.1146810E+00
         21   -1    0    0  501  502  0.00000000000E+00  0.00000000000E+00  0.13294106055E+03  0.13294106055E+03  0.00000000000E+00 0. -1.
         21   -1    0    0  502  503 -0.00000000000E+00 -0.00000000000E+00 -0.37234033263E+03  0.37234033263E+03  0.00000000000E+00 0. -1.
          6    1    1    2  501    0  0.10487125667E+03  0.22128148620E+02 -0.17610041318E+02  0.20427126326E+03  0.17300000000E+03 0. -1.
         -6    1    1    2    0  503 -0.10487125667E+03 -0.22128148620E+02 -0.22178923076E+03  0.30101012993E+03  0.17300000000E+03 0. -1.
<mgrwt>
<rscale>  2 0.20351077E+03</rscale>
<asrwt>0</asrwt>
<pdfrwt beam="1">  1       21 0.20452471E-01 0.20351077E+03</pdfrwt>
<pdfrwt beam="2">  1       21 0.57283128E-01 0.20351077E+03</pdfrwt>
<totfact> 0.63022363E+04</totfact>
</mgrwt>
</event>
<event>
 4    1  0.4137916E+000  0.1965584E+03  0.7546771E-02  0.1152676E+00
         21   -1    0    0  503  502  0.00000000000E+00  0.00000000000E+00  0.10803231334E+03  0.10803231334E+03  0.00000000000E+00 0. -1.
         21   -1    0    0  501  503 -0.00000000000E+00 -0.00000000000E+00 -0.43249397233E+03  0.43249397233E+03  0.00000000000E+00 0. -1.
          6    1    1    2  501    0 -0.84790455772E+02 -0.38945781128E+02 -0.27467682458E+03  0.33776108896E+03  0.17300000000E+03 0. -1.
         -6    1    1    2    0  502  0.84790455772E+02  0.38945781128E+02 -0.49784834414E+02  0.20276519671E+03  0.17300000000E+03 0. -1.
<mgrwt>
<rscale>  2 0.19655838E+03</rscale>
<asrwt>0</asrwt>
<pdfrwt beam="1">  1       21 0.16620356E-01 0.19655838E+03</pdfrwt>
<pdfrwt beam="2">  1       21 0.66537534E-01 0.19655838E+03</pdfrwt>
<totfact> 0.67233762E+04</totfact>
</mgrwt>
</event>
<event>
 4    1  0.4137916E+000  0.1943581E+03  0.7546771E-02  0.1154588E+00
         21   -1    0    0  501  502  0.00000000000E+00  0.00000000000E+00  0.68452899790E+03  0.68452899790E+03  0.00000000000E+00 0. -1.
         21   -1    0    0  502  503 -0.00000000000E+00 -0.00000000000E+00 -0.61636554471E+02  0.61636554471E+02  0.00000000000E+00 0. -1.
          6    1    1    2  501    0 -0.60773436978E+02 -0.64440993584E+02  0.43215855996E+03  0.47385237494E+03  0.17300000000E+03 0. -1.
         -6    1    1    2    0  503  0.60773436978E+02  0.64440993584E+02  0.19073388347E+03  0.27231317743E+03  0.17300000000E+03 0. -1.
<mgrwt>
<rscale>  2 0.19435805E+03</rscale>
<asrwt>0</asrwt>
<pdfrwt beam="1">  1       21 0.10531215E+00 0.19435805E+03</pdfrwt>
<pdfrwt beam="2">  1       21 0.94825473E-02 0.19435805E+03</pdfrwt>
<totfact> 0.64595782E+04</totfact>
</mgrwt>
</event>
<event>
 4    1  0.4137916E+000  0.4209169E+03  0.7546771E-02  0.1036768E+00
         21   -1    0    0  503  502  0.00000000000E+00  0.00000000000E+00  0.35899013111E+03  0.35899013111E+03  0.00000000000E+00 0.  1.
         21   -1    0    0  501  503 -0.00000000000E+00 -0.00000000000E+00 -0.51256094656E+03  0.51256094656E+03  0.00000000000E+00 0. -1.
          6    1    1    2  501    0  0.30274667818E+03  0.23576788863E+03  0.71921464007E+01  0.42097835506E+03  0.17300000000E+03 0. -1.
         -6    1    1    2    0  502 -0.30274667818E+03 -0.23576788863E+03 -0.16076296185E+03  0.45057272261E+03  0.17300000000E+03 0.  1.
<mgrwt>
<rscale>  2 0.42091691E+03</rscale>
<asrwt>0</asrwt>
<pdfrwt beam="1">  1       21 0.55229251E-01 0.42091691E+03</pdfrwt>
<pdfrwt beam="2">  1       21 0.78855530E-01 0.42091691E+03</pdfrwt>
<totfact> 0.38841215E+03</totfact>
</mgrwt>
</event>
<event>
 4    1  0.4137916E+000  0.1957684E+03  0.7546771E-02  0.1153359E+00
         21   -1    0    0  503  502  0.00000000000E+00  0.00000000000E+00  0.26759517952E+02  0.26759517952E+02  0.00000000000E+00 0.  1.
         21   -1    0    0  501  503 -0.00000000000E+00 -0.00000000000E+00 -0.15051300060E+04  0.15051300060E+04  0.00000000000E+00 0. -1.
          6    1    1    2  501    0 -0.84427850055E+02  0.35611667825E+02 -0.90777585980E+03  0.92864539217E+03  0.17300000000E+03 0. -1.
         -6    1    1    2    0  502  0.84427850055E+02 -0.35611667825E+02 -0.57059462822E+03  0.60324413176E+03  0.17300000000E+03 0.  1.
<mgrwt>
<rscale>  2 0.19576837E+03</rscale>
<asrwt>0</asrwt>
<pdfrwt beam="1">  1       21 0.41168499E-02 0.19576837E+03</pdfrwt>
<pdfrwt beam="2">  1       21 0.23155841E+00 0.19576837E+03</pdfrwt>
<totfact> 0.31877181E+04</totfact>
</mgrwt>
</event>
<event>
 4    1  0.4137916E+000  0.1933565E+03  0.7546771E-02  0.1155468E+00
         21   -1    0    0  501  502  0.00000000000E+00  0.00000000000E+00  0.15176297663E+03  0.15176297663E+03  0.00000000000E+00 0. -1.
         21   -1    0    0  502  503 -0.00000000000E+00 -0.00000000000E+00 -0.25537056243E+03  0.25537056243E+03  0.00000000000E+00 0.  1.
          6    1    1    2  501    0  0.35854571615E+02  0.78563255423E+02 -0.13543349775E+02  0.19383022915E+03  0.17300000000E+03 0.  1.
         -6    1    1    2    0  503 -0.35854571615E+02 -0.78563255423E+02 -0.90064236026E+02  0.21330330991E+03  0.17300000000E+03 0.  1.
<mgrwt>
<rscale>  2 0.19335650E+03</rscale>
<asrwt>0</asrwt>
<pdfrwt beam="1">  1       21 0.23348150E-01 0.19335650E+03</pdfrwt>
<pdfrwt beam="2">  1       21 0.39287779E-01 0.19335650E+03</pdfrwt>
<totfact> 0.10772299E+05</totfact>
</mgrwt>
</event>
<event>
 4    1  0.4137916E+000  0.1975746E+03  0.7546771E-02  0.1151802E+00
         21   -1    0    0  501  502  0.00000000000E+00  0.00000000000E+00  0.31682235926E+03  0.31682235926E+03  0.00000000000E+00 0.  1.
         21   -1    0    0  502  503 -0.00000000000E+00 -0.00000000000E+00 -0.14997957222E+03  0.14997957222E+03  0.00000000000E+00 0.  1.
          6    1    1    2  501    0  0.14296270962E+02  0.94352292953E+02 -0.15185183649E+02  0.19815733232E+03  0.17300000000E+03 0.  1.
         -6    1    1    2    0  503 -0.14296270962E+02 -0.94352292953E+02  0.18202797068E+03  0.26864459916E+03  0.17300000000E+03 0.  1.
<mgrwt>
<rscale>  2 0.19757464E+03</rscale>
<asrwt>0</asrwt>
<pdfrwt beam="1">  1       21 0.48741901E-01 0.19757464E+03</pdfrwt>
<pdfrwt beam="2">  1       21 0.23073780E-01 0.19757464E+03</pdfrwt>
<totfact> 0.70727193E+04</totfact>
</mgrwt>
</event>
<event>
 4    1  0.4137916E+000  0.1896318E+03  0.7546771E-02  0.1158794E+00
         21   -1    0    0  501  502  0.00000000000E+00  0.00000000000E+00  0.14792225696E+03  0.14792225696E+03  0.00000000000E+00 0. -1.
         21   -1    0    0  502  503 -0.00000000000E+00 -0.00000000000E+00 -0.12794741927E+04  0.12794741927E+04  0.00000000000E+00 0. -1.
          6    1    1    2  501    0  0.35782003457E+02  0.68926463377E+02  0.76551818206E+02  0.20450034229E+03  0.17300000000E+03 0. -1.
         -6    1    1    2    0  503 -0.35782003457E+02 -0.68926463377E+02 -0.12081037540E+04  0.12228961074E+04  0.17300000000E+03 0. -1.
<mgrwt>
<rscale>  2 0.18963177E+03</rscale>
<asrwt>0</asrwt>
<pdfrwt beam="1">  1       21 0.22757270E-01 0.18963177E+03</pdfrwt>
<pdfrwt beam="2">  1       21 0.19684219E+00 0.18963177E+03</pdfrwt>
<totfact> 0.25559213E+03</totfact>
</mgrwt>
</event>
<event>
 4    1  0.4137916E+000  0.2271120E+03  0.7546771E-02  0.1128689E+00
         21   -1    0    0  503  502  0.00000000000E+00  0.00000000000E+00  0.59437122272E+02  0.59437122272E+02  0.00000000000E+00 0. -1.
         21   -1    0    0  501  503 -0.00000000000E+00 -0.00000000000E+00 -0.11339997525E+04  0.11339997525E+04  0.00000000000E+00 0.  1.
          6    1    1    2  501    0  0.10881261102E+03  0.99048773404E+02 -0.82639094523E+03  0.85703082686E+03  0.17300000000E+03 0.  1.
         -6    1    1    2    0  502 -0.10881261102E+03 -0.99048773404E+02 -0.24817168496E+03  0.33640604788E+03  0.17300000000E+03 0. -1.
<mgrwt>
<rscale>  2 0.22711196E+03</rscale>
<asrwt>0</asrwt>
<pdfrwt beam="1">  1       21 0.91441733E-02 0.22711196E+03</pdfrwt>
<pdfrwt beam="2">  1       21 0.17446149E+00 0.22711196E+03</pdfrwt>
<totfact> 0.18425945E+04</totfact>
</mgrwt>
</event>
<event>
 4    1  0.4137916E+000  0.1855880E+03  0.7546771E-02  0.1162502E+00
         21   -1    0    0  503  502  0.00000000000E+00  0.00000000000E+00  0.36898296448E+02  0.36898296448E+02  0.00000000000E+00 0. -1.
         21   -1    0    0  501  503 -0.00000000000E+00 -0.00000000000E+00 -0.15536289428E+04  0.15536289428E+04  0.00000000000E+00 0. -1.
          6    1    1    2  501    0 -0.41771563848E+02  0.52621701121E+02 -0.12608168250E+04  0.12744025946E+04  0.17300000000E+03 0. -1.
         -6    1    1    2    0  502  0.41771563848E+02 -0.52621701121E+02 -0.25591382130E+03  0.31612464458E+03  0.17300000000E+03 0. -1.
<mgrwt>
<rscale>  2 0.18558800E+03</rscale>
<asrwt>0</asrwt>
<pdfrwt beam="1">  1       21 0.56766614E-02 0.18558800E+03</pdfrwt>
<pdfrwt beam="2">  1       21 0.23901982E+00 0.18558800E+03</pdfrwt>
<totfact> 0.16841704E+04</totfact>
</mgrwt>
</event>
<event>
 4    1  0.4137916E+000  0.2053618E+03  0.7546771E-02  0.1145293E+00
         21   -1    0    0  501  502  0.00000000000E+00  0.00000000000E+00  0.19578664993E+03  0.19578664993E+03  0.00000000000E+00 0. -1.
         21   -1    0    0  502  503 -0.00000000000E+00 -0.00000000000E+00 -0.40402997762E+03  0.40402997762E+03  0.00000000000E+00 0.  1.
          6    1    1    2  501    0  0.10944835384E+03  0.16294564781E+02  0.10079681564E+03  0.22876506080E+03  0.17300000000E+03 0. -1.
         -6    1    1    2    0  503 -0.10944835384E+03 -0.16294564781E+02 -0.30904014333E+03  0.37105156675E+03  0.17300000000E+03 0.  1.
<mgrwt>
<rscale>  2 0.20536177E+03</rscale>
<asrwt>0</asrwt>
<pdfrwt beam="1">  1       21 0.30121023E-01 0.20536177E+03</pdfrwt>
<pdfrwt beam="2">  1       21 0.62158458E-01 0.20536177E+03</pdfrwt>
<totfact> 0.25204420E+04</totfact>
</mgrwt>
</event>
<event>
 4    1  0.4137916E+000  0.2050374E+03  0.7546771E-02  0.1145557E+00
         21   -1    0    0  503  502  0.00000000000E+00  0.00000000000E+00  0.73188925872E+03  0.73188925872E+03  0.00000000000E+00 0. -1.
         21   -1    0    0  501  503 -0.00000000000E+00 -0.00000000000E+00 -0.59774274208E+02  0.59774274208E+02  0.00000000000E+00 0. -1.
          6    1    1    2  501    0  0.41463223411E+02  0.10194186827E+03  0.25784969590E+03  0.32943407395E+03  0.17300000000E+03 0. -1.
         -6    1    1    2    0  502 -0.41463223411E+02 -0.10194186827E+03  0.41426528861E+03  0.46222945898E+03  0.17300000000E+03 0. -1.
<mgrwt>
<rscale>  2 0.20503742E+03</rscale>
<asrwt>0</asrwt>
<pdfrwt beam="1">  1       21 0.11259834E+00 0.20503742E+03</pdfrwt>
<pdfrwt beam="2">  1       21 0.91960427E-02 0.20503742E+03</pdfrwt>
<totfact> 0.57684483E+04</totfact>
</mgrwt>
</event>
<event>
 4    1  0.4137916E+000  0.2382498E+03  0.7546771E-02  0.1120964E+00
         21   -1    0    0  501  502  0.00000000000E+00  0.00000000000E+00  0.30444274994E+03  0.30444274994E+03  0.00000000000E+00 0.  1.
         21   -1    0    0  502  503 -0.00000000000E+00 -0.00000000000E+00 -0.31765075871E+03  0.31765075871E+03  0.00000000000E+00 0.  1.
          6    1    1    2  501    0  0.15004883512E+03 -0.65721319017E+02  0.19329982154E+03  0.30680248647E+03  0.17300000000E+03 0.  1.
         -6    1    1    2    0  503 -0.15004883512E+03  0.65721319017E+02 -0.20650783031E+03  0.31529102219E+03  0.17300000000E+03 0.  1.
<mgrwt>
<rscale>  2 0.23824975E+03</rscale>
<asrwt>0</asrwt>
<pdfrwt beam="1">  1       21 0.46837346E-01 0.23824975E+03</pdfrwt>
<pdfrwt beam="2">  1       21 0.48869348E-01 0.23824975E+03</pdfrwt>
<totfact> 0.16984858E+04</totfact>
</mgrwt>
</event>
<event>
 4    1  0.4137916E+000  0.1796703E+03  0.7546771E-02  0.1168123E+00
         21   -1    0    0  503  502  0.00000000000E+00  0.00000000000E+00  0.12998785994E+03  0.12998785994E+03  0.00000000000E+00 0.  1.
         21   -1    0    0  501  503 -0.00000000000E+00 -0.00000000000E+00 -0.26621814132E+03  0.26621814132E+03  0.00000000000E+00 0.  1.
          6    1    1    2  501    0  0.12906223421E+02  0.46752853608E+02 -0.11945011427E+03  0.21575386375E+03  0.17300000000E+03 0.  1.
         -6    1    1    2    0  502 -0.12906223421E+02 -0.46752853608E+02 -0.16780167120E+02  0.18045213751E+03  0.17300000000E+03 0.  1.
<mgrwt>
<rscale>  2 0.17967025E+03</rscale>
<asrwt>0</asrwt>
<pdfrwt beam="1">  1       21 0.19998132E-01 0.17967025E+03</pdfrwt>
<pdfrwt beam="2">  1       21 0.40956637E-01 0.17967025E+03</pdfrwt>
<totfact> 0.13315400E+05</totfact>
</mgrwt>
</event>
<event>
 4    1  0.4137916E+000  0.2025151E+03  0.7546771E-02  0.1147634E+00
         21   -1    0    0  501  502  0.00000000000E+00  0.00000000000E+00  0.35420663338E+03  0.35420663338E+03  0.00000000000E+00 0. -1.
         21   -1    0    0  502  503 -0.00000000000E+00 -0.00000000000E+00 -0.23603125707E+03  0.23603125707E+03  0.00000000000E+00 0. -1.
          6    1    1    2  501    0  0.10497157154E+03  0.80215306093E+01  0.26972982652E+03  0.33729298110E+03  0.17300000000E+03 0. -1.
         -6    1    1    2    0  503 -0.10497157154E+03 -0.80215306093E+01 -0.15155445022E+03  0.25294490935E+03  0.17300000000E+03 0. -1.
<mgrwt>
<rscale>  2 0.20251512E+03</rscale>
<asrwt>0</asrwt>
<pdfrwt beam="1">  1       21 0.54493328E-01 0.20251512E+03</pdfrwt>
<pdfrwt beam="2">  1       21 0.36312501E-01 0.20251512E+03</pdfrwt>
<totfact> 0.23129738E+04</totfact>
</mgrwt>
</event>
<event>
 4    1  0.4137916E+000  0.2254256E+03  0.7546771E-02  0.1129901E+00
         21   -1    0    0  501  502  0.00000000000E+00  0.00000000000E+00  0.12785954941E+04  0.12785954941E+04  0.00000000000E+00 0.  1.
         21   -1    0    0  502  503 -0.00000000000E+00 -0.00000000000E+00 -0.47973506051E+02  0.47973506051E+02  0.00000000000E+00 0.  1.
          6    1    1    2  501    0  0.60398755911E+02  0.13130006227E+03  0.89002546071E+03  0.91812964051E+03  0.17300000000E+03 0.  1.
         -6    1    1    2    0  503 -0.60398755911E+02 -0.13130006227E+03  0.34059652734E+03  0.40843935964E+03  0.17300000000E+03 0.  1.
<mgrwt>
<rscale>  2 0.22542563E+03</rscale>
<asrwt>0</asrwt>
<pdfrwt beam="1">  1       21 0.19670697E+00 0.22542563E+03</pdfrwt>
<pdfrwt beam="2">  1       21 0.73805404E-02 0.22542563E+03</pdfrwt>
<totfact> 0.19004659E+04</totfact>
</mgrwt>
</event>
<event>
 4    1  0.4137916E+000  0.2369196E+03  0.7546771E-02  0.1121862E+00
         21   -1    0    0  501  502  0.00000000000E+00  0.00000000000E+00  0.20759873839E+04  0.20759873839E+04  0.00000000000E+00 0.  1.
         21   -1    0    0  502  503 -0.00000000000E+00 -0.00000000000E+00 -0.40409745514E+02  0.40409745514E+02  0.00000000000E+00 0. -1.
          6    1    1    2  501    0 -0.56341300316E+02  0.15174840432E+03  0.16265055526E+04  0.16436700499E+04  0.17300000000E+03 0.  1.
         -6    1    1    2    0  503  0.56341300316E+02 -0.15174840432E+03  0.40907208587E+03  0.47272707958E+03  0.17300000000E+03 0.  1.
<mgrwt>
<rscale>  2 0.23691965E+03</rscale>
<asrwt>0</asrwt>
<pdfrwt beam="1">  1       21 0.31938259E+00 0.23691965E+03</pdfrwt>
<pdfrwt beam="2">  1       21 0.62168855E-02 0.23691965E+03</pdfrwt>
<totfact> 0.46624311E+03</totfact>
</mgrwt>
</event>
<event>
 4    1  0.4137916E+000  0.2351958E+03  0.7546771E-02  0.1123035E+00
         21   -1    0    0  501  502  0.00000000000E+00  0.00000000000E+00  0.10586713161E+03  0.10586713161E+03  0.00000000000E+00 0. -1.
         21   -1    0    0  502  503 -0.00000000000E+00 -0.00000000000E+00 -0.64078570776E+03  0.64078570776E+03  0.00000000000E+00 0. -1.
          6    1    1    2  501    0  0.15878705726E+03 -0.13218484617E+02 -0.10707096013E+03  0.25842068105E+03  0.17300000000E+03 0. -1.
         -6    1    1    2    0  503 -0.15878705726E+03  0.13218484617E+02 -0.42784761602E+03  0.48823215833E+03  0.17300000000E+03 0. -1.
<mgrwt>
<rscale>  2 0.23519579E+03</rscale>
<asrwt>0</asrwt>
<pdfrwt beam="1">  1       21 0.16287251E-01 0.23519579E+03</pdfrwt>
<pdfrwt beam="2">  1       21 0.98582418E-01 0.23519579E+03</pdfrwt>
<totfact> 0.28001694E+04</totfact>
</mgrwt>
</event>
<event>
 4    1  0.4137916E+000  0.2298008E+03  0.7546771E-02  0.1126780E+00
         21   -1    0    0  503  502  0.00000000000E+00  0.00000000000E+00  0.79339156704E+02  0.79339156704E+02  0.00000000000E+00 0.  1.
         21   -1    0    0  501  503 -0.00000000000E+00 -0.00000000000E+00 -0.72911671277E+03  0.72911671277E+03  0.00000000000E+00 0.  1.
          6    1    1    2  501    0 -0.10361619184E+03 -0.11019577840E+03 -0.44419405341E+03  0.50011676823E+03  0.17300000000E+03 0.  1.
         -6    1    1    2    0  502  0.10361619184E+03  0.11019577840E+03 -0.20558350266E+03  0.30833910124E+03  0.17300000000E+03 0.  1.
<mgrwt>
<rscale>  2 0.22980084E+03</rscale>
<asrwt>0</asrwt>
<pdfrwt beam="1">  1       21 0.12206024E-01 0.22980084E+03</pdfrwt>
<pdfrwt beam="2">  1       21 0.11217180E+00 0.22980084E+03</pdfrwt>
<totfact> 0.34751881E+04</totfact>
</mgrwt>
</event>
<event>
 4    1  0.4137916E+000  0.1953451E+03  0.7546771E-02  0.1153727E+00
         21   -1    0    0  501  502  0.00000000000E+00  0.00000000000E+00  0.11368808798E+04  0.11368808798E+04  0.00000000000E+00 0. -1.
         21   -1    0    0  502  503 -0.00000000000E+00 -0.00000000000E+00 -0.36373498684E+02  0.36373498684E+02  0.00000000000E+00 0.  1.
          6    1    1    2  501    0 -0.89502119912E+02 -0.14835114835E+02  0.71325313689E+03  0.73951994387E+03  0.17300000000E+03 0. -1.
         -6    1    1    2    0  503  0.89502119912E+02  0.14835114835E+02  0.38725424426E+03  0.43373443465E+03  0.17300000000E+03 0. -1.
<mgrwt>
<rscale>  2 0.19534511E+03</rscale>
<asrwt>0</asrwt>
<pdfrwt beam="1">  1       21 0.17490472E+00 0.19534511E+03</pdfrwt>
<pdfrwt beam="2">  1       21 0.55959237E-02 0.19534511E+03</pdfrwt>
<totfact> 0.43734445E+04</totfact>
</mgrwt>
</event>
<event>
 4    1  0.4137916E+000  0.2041166E+03  0.7546771E-02  0.1146312E+00
         21   -1    0    0  501  502  0.00000000000E+00  0.00000000000E+00  0.11099753563E+04  0.11099753563E+04  0.00000000000E+00 0.  1.
         21   -1    0    0  502  503 -0.00000000000E+00 -0.00000000000E+00 -0.52170705523E+02  0.52170705523E+02  0.00000000000E+00 0.  1.
          6    1    1    2  501    0 -0.62743398086E+02 -0.88305358450E+02  0.83666473203E+03  0.86120348592E+03  0.17300000000E+03 0.  1.
         -6    1    1    2    0  503  0.62743398086E+02  0.88305358450E+02  0.22113991878E+03  0.30094257594E+03  0.17300000000E+03 0.  1.
<mgrwt>
<rscale>  2 0.20411656E+03</rscale>
<asrwt>0</asrwt>
<pdfrwt beam="1">  1       21 0.17076542E+00 0.20411656E+03</pdfrwt>
<pdfrwt beam="2">  1       21 0.80262632E-02 0.20411656E+03</pdfrwt>
<totfact> 0.24952587E+04</totfact>
</mgrwt>
</event>
<event>
 4    1  0.4137916E+000  0.2389197E+03  0.7546771E-02  0.1120515E+00
         21   -1    0    0  501  502  0.00000000000E+00  0.00000000000E+00  0.10080659886E+04  0.10080659886E+04  0.00000000000E+00 0.  1.
         21   -1    0    0  502  503 -0.00000000000E+00 -0.00000000000E+00 -0.57341667119E+02  0.57341667119E+02  0.00000000000E+00 0. -1.
          6    1    1    2  501    0  0.16264987202E+03  0.26432121383E+02  0.41584553199E+03  0.47959372847E+03  0.17300000000E+03 0.  1.
         -6    1    1    2    0  503 -0.16264987202E+03 -0.26432121383E+02  0.53487878945E+03  0.58581392721E+03  0.17300000000E+03 0. -1.
<mgrwt>
<rscale>  2 0.23891973E+03</rscale>
<asrwt>0</asrwt>
<pdfrwt beam="1">  1       21 0.15508706E+00 0.23891973E+03</pdfrwt>
<pdfrwt beam="2">  1       21 0.88217957E-02 0.23891973E+03</pdfrwt>
<totfact> 0.26925428E+04</totfact>
</mgrwt>
</event>
<event>
 4    1  0.4137916E+000  0.1949502E+03  0.7546771E-02  0.1154071E+00
         21   -1    0    0  501  502  0.00000000000E+00  0.00000000000E+00  0.29272111727E+02  0.29272111727E+02  0.00000000000E+00 0.  1.
         21   -1    0    0  502  503 -0.00000000000E+00 -0.00000000000E+00 -0.19922491693E+04  0.19922491693E+04  0.00000000000E+00 0.  1.
          6    1    1    2  501    0  0.56689164897E+02 -0.69734762522E+02 -0.38497121874E+03  0.43151875716E+03  0.17300000000E+03 0.  1.
         -6    1    1    2    0  503 -0.56689164897E+02  0.69734762522E+02 -0.15780058389E+04  0.15900025239E+04  0.17300000000E+03 0.  1.
<mgrwt>
<rscale>  2 0.19495025E+03</rscale>
<asrwt>0</asrwt>
<pdfrwt beam="1">  1       21 0.45034022E-02 0.19495025E+03</pdfrwt>
<pdfrwt beam="2">  1       21 0.30649984E+00 0.19495025E+03</pdfrwt>
<totfact> 0.10028532E+04</totfact>
</mgrwt>
</event>
<event>
 4    1  0.4137916E+000  0.1873696E+03  0.7546771E-02  0.1160855E+00
         21   -1    0    0  501  502  0.00000000000E+00  0.00000000000E+00  0.49267456642E+02  0.49267456642E+02  0.00000000000E+00 0. -1.
         21   -1    0    0  502  503 -0.00000000000E+00 -0.00000000000E+00 -0.86933308940E+03  0.86933308940E+03  0.00000000000E+00 0. -1.
          6    1    1    2  501    0  0.34042250375E+01 -0.71880337866E+02 -0.21500286149E+03  0.28519046647E+03  0.17300000000E+03 0. -1.
         -6    1    1    2    0  503 -0.34042250375E+01  0.71880337866E+02 -0.60506277127E+03  0.63341007957E+03  0.17300000000E+03 0. -1.
<mgrwt>
<rscale>  2 0.18736961E+03</rscale>
<asrwt>0</asrwt>
<pdfrwt beam="1">  1       21 0.75796092E-02 0.18736961E+03</pdfrwt>
<pdfrwt beam="2">  1       21 0.13374354E+00 0.18736961E+03</pdfrwt>
<totfact> 0.53170684E+04</totfact>
</mgrwt>
</event>
<event>
 4    1  0.4137916E+000  0.1864784E+03  0.7546771E-02  0.1161676E+00
         21   -1    0    0  503  502  0.00000000000E+00  0.00000000000E+00  0.96503640007E+02  0.96503640007E+02  0.00000000000E+00 0. -1.
         21   -1    0    0  501  503 -0.00000000000E+00 -0.00000000000E+00 -0.49332583530E+03  0.49332583530E+03  0.00000000000E+00 0.  1.
          6    1    1    2  501    0 -0.63318928422E+02 -0.28911964194E+02 -0.35153081178E+03  0.39792976768E+03  0.17300000000E+03 0.  1.
         -6    1    1    2    0  502  0.63318928422E+02  0.28911964194E+02 -0.45291383515E+02  0.19189970764E+03  0.17300000000E+03 0. -1.
<mgrwt>
<rscale>  2 0.18647839E+03</rscale>
<asrwt>0</asrwt>
<pdfrwt beam="1">  1       21 0.14846714E-01 0.18647839E+03</pdfrwt>
<pdfrwt beam="2">  1       21 0.75896281E-01 0.18647839E+03</pdfrwt>
<totfact> 0.62054349E+04</totfact>
</mgrwt>
</event>
<event>
 4    1  0.4137916E+000  0.1841728E+03  0.7546771E-02  0.1163825E+00
         21   -1    0    0  501  502  0.00000000000E+00  0.00000000000E+00  0.46306168724E+03  0.46306168724E+03  0.00000000000E+00 0. -1.
         21   -1    0    0  502  503 -0.00000000000E+00 -0.00000000000E+00 -0.73299423311E+02  0.73299423311E+02  0.00000000000E+00 0.  1.
          6    1    1    2  501    0 -0.15696214118E+02  0.61190259285E+02  0.18797089798E+03  0.26315903453E+03  0.17300000000E+03 0.  1.
         -6    1    1    2    0  503  0.15696214118E+02 -0.61190259285E+02  0.20179136594E+03  0.27320207601E+03  0.17300000000E+03 0. -1.
<mgrwt>
<rscale>  2 0.18417280E+03</rscale>
<asrwt>0</asrwt>
<pdfrwt beam="1">  1       21 0.71240258E-01 0.18417280E+03</pdfrwt>
<pdfrwt beam="2">  1       21 0.11276835E-01 0.18417280E+03</pdfrwt>
<totfact> 0.11723355E+05</totfact>
</mgrwt>
</event>
<event>
 4    1  0.4137916E+000  0.1862481E+03  0.7546771E-02  0.1161890E+00
         21   -1    0    0  501  502  0.00000000000E+00  0.00000000000E+00  0.95900898642E+02  0.95900898642E+02  0.00000000000E+00 0. -1.
         21   -1    0    0  502  503 -0.00000000000E+00 -0.00000000000E+00 -0.53676293783E+03  0.53676293783E+03  0.00000000000E+00 0. -1.
          6    1    1    2  501    0  0.12413132787E+02 -0.67862058451E+02 -0.39781813278E+02  0.19044930431E+03  0.17300000000E+03 0. -1.
         -6    1    1    2    0  503 -0.12413132787E+02  0.67862058451E+02 -0.40108022591E+03  0.44221453216E+03  0.17300000000E+03 0. -1.
<mgrwt>
<rscale>  2 0.18624807E+03</rscale>
<asrwt>0</asrwt>
<pdfrwt beam="1">  1       21 0.14753984E-01 0.18624807E+03</pdfrwt>
<pdfrwt beam="2">  1       21 0.82578915E-01 0.18624807E+03</pdfrwt>
<totfact> 0.51900626E+04</totfact>
</mgrwt>
</event>
<event>
 4    1  0.4137916E+000  0.4677617E+03  0.7546771E-02  0.1022554E+00
         21   -1    0    0  503  502  0.00000000000E+00  0.00000000000E+00  0.52620397926E+03  0.52620397926E+03  0.00000000000E+00 0.  1.
         21   -1    0    0  501  503 -0.00000000000E+00 -0.00000000000E+00 -0.48257068227E+03  0.48257068227E+03  0.00000000000E+00 0. -1.
          6    1    1    2  501    0 -0.31697832775E+03  0.29731591805E+03 -0.16578784140E+03  0.49627273121E+03  0.17300000000E+03 0. -1.
         -6    1    1    2    0  502  0.31697832775E+03 -0.29731591805E+03  0.20942113839E+03  0.51250193033E+03  0.17300000000E+03 0.  1.
<mgrwt>
<rscale>  2 0.46776171E+03</rscale>
<asrwt>0</asrwt>
<pdfrwt beam="1">  1       21 0.80954459E-01 0.46776171E+03</pdfrwt>
<pdfrwt beam="2">  1       21 0.74241643E-01 0.46776171E+03</pdfrwt>
<totfact> 0.18653886E+03</totfact>
</mgrwt>
</event>
<event>
 4    1  0.4137916E+000  0.1969569E+03  0.7546771E-02  0.1152332E+00
         21   -1    0    0  503  502  0.00000000000E+00  0.00000000000E+00  0.54034730821E+03  0.54034730821E+03  0.00000000000E+00 0. -1.
         21   -1    0    0  501  503 -0.00000000000E+00 -0.00000000000E+00 -0.95742349824E+02  0.95742349824E+02  0.00000000000E+00 0. -1.
          6    1    1    2  501    0 -0.73836289647E+02 -0.58405806682E+02  0.63227480996E+02  0.20685683522E+03  0.17300000000E+03 0. -1.
         -6    1    1    2    0  502  0.73836289647E+02  0.58405806682E+02  0.38137747739E+03  0.42923282281E+03  0.17300000000E+03 0. -1.
<mgrwt>
<rscale>  2 0.19695694E+03</rscale>
<asrwt>0</asrwt>
<pdfrwt beam="1">  1       21 0.83130354E-01 0.19695694E+03</pdfrwt>
<pdfrwt beam="2">  1       21 0.14729593E-01 0.19695694E+03</pdfrwt>
<totfact> 0.51008955E+04</totfact>
</mgrwt>
</event>
<event>
 4    1  0.4137916E+000  0.2159044E+03  0.7546771E-02  0.1136974E+00
         21   -1    0    0  503  502  0.00000000000E+00  0.00000000000E+00  0.22026784359E+03  0.22026784359E+03  0.00000000000E+00 0. -1.
         21   -1    0    0  501  503 -0.00000000000E+00 -0.00000000000E+00 -0.21932052310E+03  0.21932052310E+03  0.00000000000E+00 0.  1.
          6    1    1    2  501    0  0.60174863722E+02  0.11430095028E+03 -0.40691192363E+02  0.21970547238E+03  0.17300000000E+03 0.  1.
         -6    1    1    2    0  502 -0.60174863722E+02 -0.11430095028E+03  0.41638512845E+02  0.21988289431E+03  0.17300000000E+03 0. -1.
<mgrwt>
<rscale>  2 0.21590443E+03</rscale>
<asrwt>0</asrwt>
<pdfrwt beam="1">  1       21 0.33887361E-01 0.21590443E+03</pdfrwt>
<pdfrwt beam="2">  1       21 0.33741619E-01 0.21590443E+03</pdfrwt>
<totfact> 0.70268494E+04</totfact>
</mgrwt>
</event>
<event>
 4    1  0.4137916E+000  0.1794307E+03  0.7546771E-02  0.1168355E+00
         21   -1    0    0  503  502  0.00000000000E+00  0.00000000000E+00  0.99392637173E+03  0.99392637173E+03  0.00000000000E+00 0. -1.
         21   -1    0    0  501  503 -0.00000000000E+00 -0.00000000000E+00 -0.36239622821E+02  0.36239622821E+02  0.00000000000E+00 0. -1.
          6    1    1    2  501    0 -0.21535027416E+02 -0.42457233687E+02  0.31101116221E+03  0.35905893265E+03  0.17300000000E+03 0. -1.
         -6    1    1    2    0  502  0.21535027416E+02  0.42457233687E+02  0.64667558670E+03  0.67110706190E+03  0.17300000000E+03 0. -1.
<mgrwt>
<rscale>  2 0.17943069E+03</rscale>
<asrwt>0</asrwt>
<pdfrwt beam="1">  1       21 0.15291173E+00 0.17943069E+03</pdfrwt>
<pdfrwt beam="2">  1       21 0.55753273E-02 0.17943069E+03</pdfrwt>
<totfact> 0.63958182E+04</totfact>
</mgrwt>
</event>
<event>
 4    1  0.4137916E+000  0.2178367E+03  0.7546771E-02  0.1135506E+00
         21   -1    0    0  501  502  0.00000000000E+00  0.00000000000E+00  0.18638913168E+03  0.18638913168E+03  0.00000000000E+00 0.  1.
         21   -1    0    0  502  503 -0.00000000000E+00 -0.00000000000E+00 -0.29320975311E+03  0.29320975311E+03  0.00000000000E+00 0.  1.
          6    1    1    2  501    0 -0.11844161220E+03 -0.59122150997E+02  0.33618419568E+02  0.22041561282E+03  0.17300000000E+03 0.  1.
         -6    1    1    2    0  503  0.11844161220E+03  0.59122150997E+02 -0.14043904099E+03  0.25918327198E+03  0.17300000000E+03 0.  1.
<mgrwt>
<rscale>  2 0.21783674E+03</rscale>
<asrwt>0</asrwt>
<pdfrwt beam="1">  1       21 0.28675251E-01 0.21783674E+03</pdfrwt>
<pdfrwt beam="2">  1       21 0.45109193E-01 0.21783674E+03</pdfrwt>
<totfact> 0.54215758E+04</totfact>
</mgrwt>
</event>
<event>
 4    1  0.4137916E+000  0.1790571E+03  0.7546771E-02  0.1168719E+00
         21   -1    0    0  503  502  0.00000000000E+00  0.00000000000E+00  0.47097900903E+02  0.47097900903E+02  0.00000000000E+00 0.  1.
         21   -1    0    0  501  503 -0.00000000000E+00 -0.00000000000E+00 -0.84405930249E+03  0.84405930249E+03  0.00000000000E+00 0.  1.
          6    1    1    2  501    0  0.22527841976E+02  0.40310580808E+02 -0.59448066697E+03  0.62086126469E+03  0.17300000000E+03 0.  1.
         -6    1    1    2    0  502 -0.22527841976E+02 -0.40310580808E+02 -0.20248073461E+03  0.27029593870E+03  0.17300000000E+03 0.  1.
<mgrwt>
<rscale>  2 0.17905710E+03</rscale>
<asrwt>0</asrwt>
<pdfrwt beam="1">  1       21 0.72458310E-02 0.17905710E+03</pdfrwt>
<pdfrwt beam="2">  1       21 0.12985528E+00 0.17905710E+03</pdfrwt>
<totfact> 0.62197075E+04</totfact>
</mgrwt>
</event>
<event>
 4    1  0.4137916E+000  0.1977692E+03  0.7546771E-02  0.1151635E+00
         21   -1    0    0  503  502  0.00000000000E+00  0.00000000000E+00  0.17730406232E+03  0.17730406232E+03  0.00000000000E+00 0. -1.
         21   -1    0    0  501  503 -0.00000000000E+00 -0.00000000000E+00 -0.27936423332E+03  0.27936423332E+03  0.00000000000E+00 0. -1.
          6    1    1    2  501    0  0.45068170740E+02 -0.84572463543E+02 -0.15575625667E+03  0.25173925617E+03  0.17300000000E+03 0. -1.
         -6    1    1    2    0  502 -0.45068170740E+02  0.84572463543E+02  0.53696085665E+02  0.20492903947E+03  0.17300000000E+03 0. -1.
<mgrwt>
<rscale>  2 0.19776916E+03</rscale>
<asrwt>0</asrwt>
<pdfrwt beam="1">  1       21 0.27277548E-01 0.19776916E+03</pdfrwt>
<pdfrwt beam="2">  1       21 0.42979113E-01 0.19776916E+03</pdfrwt>
<totfact> 0.66557873E+04</totfact>
</mgrwt>
</event>
<event>
 4    1  0.4137916E+000  0.1806740E+03  0.7546771E-02  0.1167152E+00
         21   -1    0    0  503  502  0.00000000000E+00  0.00000000000E+00  0.35137088175E+03  0.35137088175E+03  0.00000000000E+00 0. -1.
         21   -1    0    0  501  503 -0.00000000000E+00 -0.00000000000E+00 -0.23723542529E+03  0.23723542529E+03  0.00000000000E+00 0. -1.
          6    1    1    2  501    0 -0.20300581196E+02 -0.47978793188E+02 -0.17248820197E+03  0.24979042818E+03  0.17300000000E+03 0. -1.
         -6    1    1    2    0  502  0.20300581196E+02  0.47978793188E+02  0.28662365843E+03  0.33881587885E+03  0.17300000000E+03 0. -1.
<mgrwt>
<rscale>  2 0.18067396E+03</rscale>
<asrwt>0</asrwt>
<pdfrwt beam="1">  1       21 0.54057059E-01 0.18067396E+03</pdfrwt>
<pdfrwt beam="2">  1       21 0.36497758E-01 0.18067396E+03</pdfrwt>
<totfact> 0.23583943E+04</totfact>
</mgrwt>
</event>
<event>
 4    1  0.4137916E+000  0.3032624E+03  0.7546771E-02  0.1083621E+00
         21   -1    0    0  501  502  0.00000000000E+00  0.00000000000E+00  0.11997957762E+03  0.11997957762E+03  0.00000000000E+00 0. -1.
         21   -1    0    0  502  503 -0.00000000000E+00 -0.00000000000E+00 -0.98727468301E+03  0.98727468301E+03  0.00000000000E+00 0.  1.
          6    1    1    2  501    0 -0.18910784882E+03 -0.16210284340E+03 -0.17186413108E+03  0.34857623251E+03  0.17300000000E+03 0. -1.
         -6    1    1    2    0  503  0.18910784882E+03  0.16210284340E+03 -0.69543097432E+03  0.75867802812E+03  0.17300000000E+03 0. -1.
<mgrwt>
<rscale>  2 0.30326244E+03</rscale>
<asrwt>0</asrwt>
<pdfrwt beam="1">  1       21 0.18458397E-01 0.30326244E+03</pdfrwt>
<pdfrwt beam="2">  1       21 0.15188841E+00 0.30326244E+03</pdfrwt>
<totfact> 0.72159763E+03</totfact>
</mgrwt>
</event>
<event>
 4    1  0.4137916E+000  0.2422456E+03  0.7546771E-02  0.1118306E+00
         21   -1    0    0  503  502  0.00000000000E+00  0.00000000000E+00  0.70198214172E+03  0.70198214172E+03  0.00000000000E+00 0. -1.
         21   -1    0    0  501  503 -0.00000000000E+00 -0.00000000000E+00 -0.83627467275E+02  0.83627467275E+02  0.00000000000E+00 0. -1.
          6    1    1    2  501    0  0.74585704267E+02 -0.15228555016E+03  0.31679400823E+03  0.39879989935E+03  0.17300000000E+03 0. -1.
         -6    1    1    2    0  502 -0.74585704267E+02  0.15228555016E+03  0.30156066622E+03  0.38680970965E+03  0.17300000000E+03 0. -1.
<mgrwt>
<rscale>  2 0.24224557E+03</rscale>
<asrwt>0</asrwt>
<pdfrwt beam="1">  1       21 0.10799725E+00 0.24224557E+03</pdfrwt>
<pdfrwt beam="2">  1       21 0.12865765E-01 0.24224557E+03</pdfrwt>
<totfact> 0.34456958E+04</totfact>
</mgrwt>
</event>
<event>
 4    1  0.4137916E+000  0.1814761E+03  0.7546771E-02  0.1166382E+00
         21   -1    0    0  503  502  0.00000000000E+00  0.00000000000E+00  0.22368138131E+02  0.22368138131E+02  0.00000000000E+00 0. -1.
         21   -1    0    0  501  503 -0.00000000000E+00 -0.00000000000E+00 -0.15502480122E+04  0.15502480122E+04  0.00000000000E+00 0. -1.
          6    1    1    2  501    0  0.33650799713E+02  0.43268855647E+02 -0.58767131080E+03  0.61505376978E+03  0.17300000000E+03 0. -1.
         -6    1    1    2    0  502 -0.33650799713E+02 -0.43268855647E+02 -0.94020856329E+03  0.95756238056E+03  0.17300000000E+03 0. -1.
<mgrwt>
<rscale>  2 0.18147609E+03</rscale>
<asrwt>0</asrwt>
<pdfrwt beam="1">  1       21 0.34412525E-02 0.18147609E+03</pdfrwt>
<pdfrwt beam="2">  1       21 0.23849966E+00 0.18147609E+03</pdfrwt>
<totfact> 0.39527233E+04</totfact>
</mgrwt>
</event>
<event>
 4    1  0.4137916E+000  0.2006702E+03  0.7546771E-02  0.1149175E+00
         21   -1    0    0  503  502  0.00000000000E+00  0.00000000000E+00  0.31855548432E+03  0.31855548432E+03  0.00000000000E+00 0. -1.
         21   -1    0    0  501  503 -0.00000000000E+00 -0.00000000000E+00 -0.12717430149E+03  0.12717430149E+03  0.00000000000E+00 0.  1.
          6    1    1    2  501    0 -0.87509187950E+02 -0.51784926004E+02  0.78411144623E+02  0.21544568721E+03  0.17300000000E+03 0. -1.
         -6    1    1    2    0  502  0.87509187950E+02  0.51784926004E+02  0.11297003820E+03  0.23028409860E+03  0.17300000000E+03 0. -1.
<mgrwt>
<rscale>  2 0.20067022E+03</rscale>
<asrwt>0</asrwt>
<pdfrwt beam="1">  1       21 0.49008536E-01 0.20067022E+03</pdfrwt>
<pdfrwt beam="2">  1       21 0.19565277E-01 0.20067022E+03</pdfrwt>
<totfact> 0.95225868E+04</totfact>
</mgrwt>
</event>
<event>
 4    1  0.4137916E+000  0.1901894E+03  0.7546771E-02  0.1158291E+00
         21   -1    0    0  503  502  0.00000000000E+00  0.00000000000E+00  0.15695016020E+03  0.15695016020E+03  0.00000000000E+00 0.  1.
         21   -1    0    0  501  503 -0.00000000000E+00 -0.00000000000E+00 -0.33200713085E+03  0.33200713085E+03  0.00000000000E+00 0.  1.
          6    1    1    2  501    0  0.56412518796E+01  0.78811169902E+02 -0.22273059645E+03  0.29288383844E+03  0.17300000000E+03 0.  1.
         -6    1    1    2    0  502 -0.56412518796E+01 -0.78811169902E+02  0.47673625794E+02  0.19607345262E+03  0.17300000000E+03 0.  1.
<mgrwt>
<rscale>  2 0.19018944E+03</rscale>
<asrwt>0</asrwt>
<pdfrwt beam="1">  1       21 0.24146178E-01 0.19018944E+03</pdfrwt>
<pdfrwt beam="2">  1       21 0.51078020E-01 0.19018944E+03</pdfrwt>
<totfact> 0.59046781E+04</totfact>
</mgrwt>
</event>
<event>
 4    1  0.4137916E+000  0.1855783E+03  0.7546771E-02  0.1162511E+00
         21   -1    0    0  503  502  0.00000000000E+00  0.00000000000E+00  0.52384055349E+03  0.52384055349E+03  0.00000000000E+00 0.  1.
         21   -1    0    0  501  503 -0.00000000000E+00 -0.00000000000E+00 -0.91346328987E+02  0.91346328987E+02  0.00000000000E+00 0.  1.
          6    1    1    2  501    0  0.56213671992E+02 -0.36746783885E+02  0.53402874084E+02  0.19310921782E+03  0.17300000000E+03 0.  1.
         -6    1    1    2    0  502 -0.56213671992E+02  0.36746783885E+02  0.37909135042E+03  0.42207766466E+03  0.17300000000E+03 0.  1.
<mgrwt>
<rscale>  2 0.18557829E+03</rscale>
<asrwt>0</asrwt>
<pdfrwt beam="1">  1       21 0.80590853E-01 0.18557829E+03</pdfrwt>
<pdfrwt beam="2">  1       21 0.14053282E-01 0.18557829E+03</pdfrwt>
<totfact> 0.59926001E+04</totfact>
</mgrwt>
</event>
<event>
 4    1  0.4137916E+000  0.3540234E+03  0.7546771E-02  0.1060976E+00
         21   -1    0    0  503  502  0.00000000000E+00  0.00000000000E+00  0.33297043394E+03  0.33297043394E+03  0.00000000000E+00 0.  1.
         21   -1    0    0  501  503 -0.00000000000E+00 -0.00000000000E+00 -0.40284730777E+03  0.40284730777E+03  0.00000000000E+00 0.  1.
          6    1    1    2  501    0  0.20624108062E+03  0.22993075032E+03  0.59315618370E+02  0.35895804193E+03  0.17300000000E+03 0.  1.
         -6    1    1    2    0  502 -0.20624108062E+03 -0.22993075032E+03 -0.12919249220E+03  0.37685969978E+03  0.17300000000E+03 0.  1.
<mgrwt>
<rscale>  2 0.35402335E+03</rscale>
<asrwt>0</asrwt>
<pdfrwt beam="1">  1       21 0.51226221E-01 0.35402335E+03</pdfrwt>
<pdfrwt beam="2">  1       21 0.61976509E-01 0.35402335E+03</pdfrwt>
<totfact> 0.80354467E+03</totfact>
</mgrwt>
</event>
<event>
 4    1  0.4137916E+000  0.2760010E+03  0.7546771E-02  0.1097893E+00
         21   -1    0    0  503  502  0.00000000000E+00  0.00000000000E+00  0.44064663458E+03  0.44064663458E+03  0.00000000000E+00 0.  1.
         21   -1    0    0  501  503 -0.00000000000E+00 -0.00000000000E+00 -0.87040388303E+03  0.87040388303E+03  0.00000000000E+00 0. -1.
          6    1    1    2  501    0 -0.14270737871E+03  0.16087926691E+03 -0.80170590698E+03  0.84788495431E+03  0.17300000000E+03 0. -1.
         -6    1    1    2    0  502  0.14270737871E+03 -0.16087926691E+03  0.37194865853E+03  0.46316556331E+03  0.17300000000E+03 0.  1.
<mgrwt>
<rscale>  2 0.27600097E+03</rscale>
<asrwt>0</asrwt>
<pdfrwt beam="1">  1       21 0.67791790E-01 0.27600097E+03</pdfrwt>
<pdfrwt beam="2">  1       21 0.13390829E+00 0.27600097E+03</pdfrwt>
<totfact> 0.73965318E+02</totfact>
</mgrwt>
</event>
<event>
 4    1  0.4137916E+000  0.1859176E+03  0.7546771E-02  0.1162196E+00
         21   -1    0    0  501  502  0.00000000000E+00  0.00000000000E+00  0.20761651194E+02  0.20761651194E+02  0.00000000000E+00 0. -1.
         21   -1    0    0  502  503 -0.00000000000E+00 -0.00000000000E+00 -0.18561509666E+04  0.18561509666E+04  0.00000000000E+00 0. -1.
          6    1    1    2  501    0  0.67456192047E+02  0.92740506109E+01 -0.61642943857E+03  0.64385603872E+03  0.17300000000E+03 0. -1.
         -6    1    1    2    0  503 -0.67456192047E+02 -0.92740506109E+01 -0.12189598768E+04  0.12330565790E+04  0.17300000000E+03 0. -1.
<mgrwt>
<rscale>  2 0.18591758E+03</rscale>
<asrwt>0</asrwt>
<pdfrwt beam="1">  1       21 0.31941019E-02 0.18591758E+03</pdfrwt>
<pdfrwt beam="2">  1       21 0.28556153E+00 0.18591758E+03</pdfrwt>
<totfact> 0.23726141E+04</totfact>
</mgrwt>
</event>
<event>
 4    1  0.4137916E+000  0.2623613E+03  0.7546771E-02  0.1105733E+00
         21   -1    0    0  501  502  0.00000000000E+00  0.00000000000E+00  0.32273812811E+03  0.32273812811E+03  0.00000000000E+00 0.  1.
         21   -1    0    0  502  503 -0.00000000000E+00 -0.00000000000E+00 -0.32433147597E+03  0.32433147597E+03  0.00000000000E+00 0.  1.
          6    1    1    2  501    0 -0.18749847868E+03 -0.61227040972E+02 -0.19011365866E+03  0.32400097726E+03  0.17300000000E+03 0.  1.
         -6    1    1    2    0  503  0.18749847868E+03  0.61227040972E+02  0.18852031080E+03  0.32306862682E+03  0.17300000000E+03 0.  1.
<mgrwt>
<rscale>  2 0.26236126E+03</rscale>
<asrwt>0</asrwt>
<pdfrwt beam="1">  1       21 0.49652020E-01 0.26236126E+03</pdfrwt>
<pdfrwt beam="2">  1       21 0.49897150E-01 0.26236126E+03</pdfrwt>
<totfact> 0.14221544E+04</totfact>
</mgrwt>
</event>
<event>
 4    1  0.4137916E+000  0.1761404E+03  0.7546771E-02  0.1171592E+00
         21   -1    0    0  503  502  0.00000000000E+00  0.00000000000E+00  0.11396398225E+04  0.11396398225E+04  0.00000000000E+00 0. -1.
         21   -1    0    0  501  503 -0.00000000000E+00 -0.00000000000E+00 -0.84352621670E+02  0.84352621670E+02  0.00000000000E+00 0. -1.
          6    1    1    2  501    0  0.31814029311E+02  0.91823104231E+01  0.23996104015E+02  0.17776743316E+03  0.17300000000E+03 0. -1.
         -6    1    1    2    0  502 -0.31814029311E+02 -0.91823104231E+01  0.10312910968E+04  0.10462250110E+04  0.17300000000E+03 0. -1.
<mgrwt>
<rscale>  2 0.17614042E+03</rscale>
<asrwt>0</asrwt>
<pdfrwt beam="1">  1       21 0.17532919E+00 0.17614042E+03</pdfrwt>
<pdfrwt beam="2">  1       21 0.12977327E-01 0.17614042E+03</pdfrwt>
<totfact> 0.10124312E+04</totfact>
</mgrwt>
</event>
<event>
 4    1  0.4137916E+000  0.2154397E+03  0.7546771E-02  0.1137329E+00
         21   -1    0    0  503  502  0.00000000000E+00  0.00000000000E+00  0.54405634851E+03  0.54405634851E+03  0.00000000000E+00 0.  1.
         21   -1    0    0  501  503 -0.00000000000E+00 -0.00000000000E+00 -0.89809532400E+02  0.89809532400E+02  0.00000000000E+00 0. -1.
          6    1    1    2  501    0  0.12141447122E+03 -0.41758652749E+02  0.15619538888E+03  0.26610384891E+03  0.17300000000E+03 0.  1.
         -6    1    1    2    0  502 -0.12141447122E+03  0.41758652749E+02  0.29805142724E+03  0.36776203200E+03  0.17300000000E+03 0.  1.
<mgrwt>
<rscale>  2 0.21543969E+03</rscale>
<asrwt>0</asrwt>
<pdfrwt beam="1">  1       21 0.83700974E-01 0.21543969E+03</pdfrwt>
<pdfrwt beam="2">  1       21 0.13816852E-01 0.21543969E+03</pdfrwt>
<totfact> 0.55904563E+04</totfact>
</mgrwt>
</event>
<event>
 4    1  0.4137916E+000  0.1742158E+03  0.7546771E-02  0.1173521E+00
         21   -1    0    0  501  502  0.00000000000E+00  0.00000000000E+00  0.50295648255E+03  0.50295648255E+03  0.00000000000E+00 0.  1.
         21   -1    0    0  502  503 -0.00000000000E+00 -0.00000000000E+00 -0.60840140519E+02  0.60840140519E+02  0.00000000000E+00 0.  1.
          6    1    1    2  501    0  0.12209053606E+02  0.16525534836E+02  0.19563980893E+03  0.26196581672E+03  0.17300000000E+03 0. -1.
         -6    1    1    2    0  503 -0.12209053606E+02 -0.16525534836E+02  0.24647653311E+03  0.30183080635E+03  0.17300000000E+03 0. -1.
<mgrwt>
<rscale>  2 0.17421583E+03</rscale>
<asrwt>0</asrwt>
<pdfrwt beam="1">  1       21 0.77377918E-01 0.17421583E+03</pdfrwt>
<pdfrwt beam="2">  1       21 0.93600219E-02 0.17421583E+03</pdfrwt>
<totfact> 0.13607324E+05</totfact>
</mgrwt>
</event>
<event>
 4    1  0.4137916E+000  0.1751439E+03  0.7546771E-02  0.1172587E+00
         21   -1    0    0  501  502  0.00000000000E+00  0.00000000000E+00  0.69656019973E+03  0.69656019973E+03  0.00000000000E+00 0. -1.
         21   -1    0    0  502  503 -0.00000000000E+00 -0.00000000000E+00 -0.58381391321E+02  0.58381391321E+02  0.00000000000E+00 0. -1.
          6    1    1    2  501    0  0.15166076273E+02  0.22723648545E+02  0.50618626281E+03  0.53563038257E+03  0.17300000000E+03 0. -1.
         -6    1    1    2    0  503 -0.15166076273E+02 -0.22723648545E+02  0.13199254560E+03  0.21931120848E+03  0.17300000000E+03 0. -1.
<mgrwt>
<rscale>  2 0.17514387E+03</rscale>
<asrwt>0</asrwt>
<pdfrwt beam="1">  1       21 0.10716310E+00 0.17514387E+03</pdfrwt>
<pdfrwt beam="2">  1       21 0.89817530E-02 0.17514387E+03</pdfrwt>
<totfact> 0.68758264E+04</totfact>
</mgrwt>
</event>
<event>
 4    1  0.4137916E+000  0.2545015E+03  0.7546771E-02  0.1110493E+00
         21   -1    0    0  501  502  0.00000000000E+00  0.00000000000E+00  0.37216517204E+02  0.37216517204E+02  0.00000000000E+00 0. -1.
         21   -1    0    0  502  503 -0.00000000000E+00 -0.00000000000E+00 -0.18722296148E+04  0.18722296148E+04  0.00000000000E+00 0.  1.
          6    1    1    2  501    0  0.14125240419E+03 -0.12202363626E+03 -0.66415027693E+03  0.71124299634E+03  0.17300000000E+03 0. -1.
         -6    1    1    2    0  503 -0.14125240419E+03  0.12202363626E+03 -0.11708628207E+04  0.11982031357E+04  0.17300000000E+03 0.  1.
<mgrwt>
<rscale>  2 0.25450149E+03</rscale>
<asrwt>0</asrwt>
<pdfrwt beam="1">  1       21 0.57256189E-02 0.25450149E+03</pdfrwt>
<pdfrwt beam="2">  1       21 0.28803528E+00 0.25450149E+03</pdfrwt>
<totfact> 0.80616805E+03</totfact>
</mgrwt>
</event>
<event>
 4    1  0.4137916E+000  0.2088325E+03  0.7546771E-02  0.1142494E+00
         21   -1    0    0  503  502  0.00000000000E+00  0.00000000000E+00  0.97891243515E+03  0.97891243515E+03  0.00000000000E+00 0.  1.
         21   -1    0    0  501  503 -0.00000000000E+00 -0.00000000000E+00 -0.64183286510E+02  0.64183286510E+02  0.00000000000E+00 0. -1.
          6    1    1    2  501    0  0.11480255072E+03  0.22413923465E+02  0.74581719594E+03  0.77450261419E+03  0.17300000000E+03 0.  1.
         -6    1    1    2    0  502 -0.11480255072E+03 -0.22413923465E+02  0.16891195270E+03  0.26859310747E+03  0.17300000000E+03 0. -1.
<mgrwt>
<rscale>  2 0.20883249E+03</rscale>
<asrwt>0</asrwt>
<pdfrwt beam="1">  1       21 0.15060190E+00 0.20883249E+03</pdfrwt>
<pdfrwt beam="2">  1       21 0.98743525E-02 0.20883249E+03</pdfrwt>
<totfact> 0.24286695E+04</totfact>
</mgrwt>
</event>
<event>
 4    1  0.4137916E+000  0.2211139E+03  0.7546771E-02  0.1133055E+00
         21   -1    0    0  501  502  0.00000000000E+00  0.00000000000E+00  0.17198620086E+03  0.17198620086E+03  0.00000000000E+00 0. -1.
         21   -1    0    0  502  503 -0.00000000000E+00 -0.00000000000E+00 -0.44045245129E+03  0.44045245129E+03  0.00000000000E+00 0. -1.
          6    1    1    2  501    0 -0.13507211231E+03  0.26793542856E+02  0.48111223996E+02  0.22628755895E+03  0.17300000000E+03 0. -1.
         -6    1    1    2    0  503  0.13507211231E+03 -0.26793542856E+02 -0.31657747443E+03  0.38615109320E+03  0.17300000000E+03 0. -1.
<mgrwt>
<rscale>  2 0.22111393E+03</rscale>
<asrwt>0</asrwt>
<pdfrwt beam="1">  1       21 0.26459416E-01 0.22111393E+03</pdfrwt>
<pdfrwt beam="2">  1       21 0.67761915E-01 0.22111393E+03</pdfrwt>
<totfact> 0.26619918E+04</totfact>
</mgrwt>
</event>
<event>
 4    1  0.4137916E+000  0.1750892E+03  0.7546771E-02  0.1172642E+00
         21   -1    0    0  503  502  0.00000000000E+00  0.00000000000E+00  0.84791887407E+03  0.84791887407E+03  0.00000000000E+00 0. -1.
         21   -1    0    0  501  503 -0.00000000000E+00 -0.00000000000E+00 -0.10213372912E+03  0.10213372912E+03  0.00000000000E+00 0. -1.
          6    1    1    2  501    0 -0.24836513656E+02  0.10506201462E+02 -0.89075816073E+01  0.17531565158E+03  0.17300000000E+03 0. -1.
         -6    1    1    2    0  502  0.24836513656E+02 -0.10506201462E+02  0.75469272656E+03  0.77473695162E+03  0.17300000000E+03 0. -1.
<mgrwt>
<rscale>  2 0.17508921E+03</rscale>
<asrwt>0</asrwt>
<pdfrwt beam="1">  1       21 0.13044905E+00 0.17508921E+03</pdfrwt>
<pdfrwt beam="2">  1       21 0.15712882E-01 0.17508921E+03</pdfrwt>
<totfact> 0.15632722E+04</totfact>
</mgrwt>
</event>
<event>
 4    1  0.4137916E+000  0.2113752E+03  0.7546771E-02  0.1140482E+00
         21   -1    0    0  503  502  0.00000000000E+00  0.00000000000E+00  0.14226486041E+04  0.14226486041E+04  0.00000000000E+00 0. -1.
         21   -1    0    0  501  503 -0.00000000000E+00 -0.00000000000E+00 -0.21150917068E+03  0.21150917068E+03  0.00000000000E+00 0. -1.
          6    1    1    2  501    0 -0.58221078872E+02 -0.10658690452E+03 -0.14841105448E+03  0.25827369849E+03  0.17300000000E+03 0. -1.
         -6    1    1    2    0  502  0.58221078872E+02  0.10658690452E+03  0.13595504879E+04  0.13758840763E+04  0.17300000000E+03 0. -1.
<mgrwt>
<rscale>  2 0.21137517E+03</rscale>
<asrwt>0</asrwt>
<pdfrwt beam="1">  1       21 0.21886901E+00 0.21137517E+03</pdfrwt>
<pdfrwt beam="2">  1       21 0.32539873E-01 0.21137517E+03</pdfrwt>
<totfact> 0.90942366E+02</totfact>
</mgrwt>
</event>
<event>
 4    1  0.4137916E+000  0.1775641E+03  0.7546771E-02  0.1170182E+00
         21   -1    0    0  503  502  0.00000000000E+00  0.00000000000E+00  0.17492023478E+03  0.17492023478E+03  0.00000000000E+00 0. -1.
         21   -1    0    0  501  503 -0.00000000000E+00 -0.00000000000E+00 -0.33500720246E+03  0.33500720246E+03  0.00000000000E+00 0. -1.
          6    1    1    2  501    0 -0.38797045173E+02  0.97359396513E+01 -0.25333597322E+03  0.30936728101E+03  0.17300000000E+03 0. -1.
         -6    1    1    2    0  502  0.38797045173E+02 -0.97359396513E+01  0.93249005535E+02  0.20056015623E+03  0.17300000000E+03 0. -1.
<mgrwt>
<rscale>  2 0.17756407E+03</rscale>
<asrwt>0</asrwt>
<pdfrwt beam="1">  1       21 0.26910805E-01 0.17756407E+03</pdfrwt>
<pdfrwt beam="2">  1       21 0.51539570E-01 0.17756407E+03</pdfrwt>
<totfact> 0.47382580E+04</totfact>
</mgrwt>
</event>
<event>
 4    1  0.4137916E+000  0.1844113E+03  0.7546771E-02  0.1163601E+00
         21   -1    0    0  503  502  0.00000000000E+00  0.00000000000E+00  0.68073420128E+02  0.68073420128E+02  0.00000000000E+00 0.  1.
         21   -1    0    0  501  503 -0.00000000000E+00 -0.00000000000E+00 -0.51261792078E+03  0.51261792078E+03  0.00000000000E+00 0.  1.
          6    1    1    2  501    0  0.63855762336E+02  0.98429876855E+00 -0.26859213006E+03  0.32580555483E+03  0.17300000000E+03 0.  1.
         -6    1    1    2    0  502 -0.63855762336E+02 -0.98429876855E+00 -0.17595237059E+03  0.25488578608E+03  0.17300000000E+03 0.  1.
<mgrwt>
<rscale>  2 0.18441130E+03</rscale>
<asrwt>0</asrwt>
<pdfrwt beam="1">  1       21 0.10472833E-01 0.18441130E+03</pdfrwt>
<pdfrwt beam="2">  1       21 0.78864299E-01 0.18441130E+03</pdfrwt>
<totfact> 0.10655259E+05</totfact>
</mgrwt>
</event>
<event>
 4    1  0.4137916E+000  0.2369380E+03  0.7546771E-02  0.1121850E+00
         21   -1    0    0  503  502  0.00000000000E+00  0.00000000000E+00  0.17245102026E+04  0.17245102026E+04  0.00000000000E+00 0.  1.
         21   -1    0    0  501  503 -0.00000000000E+00 -0.00000000000E+00 -0.50034574440E+02  0.50034574440E+02  0.00000000000E+00 0.  1.
          6    1    1    2  501    0  0.39069515622E+02 -0.15711202468E+03  0.31279232003E+03  0.39240113509E+03  0.17300000000E+03 0.  1.
         -6    1    1    2    0  502 -0.39069515622E+02  0.15711202468E+03  0.13616833081E+04  0.13821436419E+04  0.17300000000E+03 0.  1.
<mgrwt>
<rscale>  2 0.23693800E+03</rscale>
<asrwt>0</asrwt>
<pdfrwt beam="1">  1       21 0.26530922E+00 0.23693800E+03</pdfrwt>
<pdfrwt beam="2">  1       21 0.76976282E-02 0.23693800E+03</pdfrwt>
<totfact> 0.66572602E+03</totfact>
</mgrwt>
</event>
<event>
 4    1  0.4137916E+000  0.3831875E+03  0.7546771E-02  0.1049762E+00
         21   -1    0    0  503  502  0.00000000000E+00  0.00000000000E+00  0.30512407706E+03  0.30512407706E+03  0.00000000000E+00 0.  1.
         21   -1    0    0  501  503 -0.00000000000E+00 -0.00000000000E+00 -0.17018060549E+04  0.17018060549E+04  0.00000000000E+00 0. -1.
          6    1    1    2  501    0  0.10729242659E+03  0.32464136514E+03 -0.15481687595E+04  0.15948853215E+04  0.17300000000E+03 0. -1.
         -6    1    1    2    0  502 -0.10729242659E+03 -0.32464136514E+03  0.15148678172E+03  0.41204481043E+03  0.17300000000E+03 0.  1.
<mgrwt>
<rscale>  2 0.38318753E+03</rscale>
<asrwt>0</asrwt>
<pdfrwt beam="1">  1       21 0.46942165E-01 0.38318753E+03</pdfrwt>
<pdfrwt beam="2">  1       21 0.26181632E+00 0.38318753E+03</pdfrwt>
<totfact> 0.20381280E+02</totfact>
</mgrwt>
</event>
<event>
 4    1  0.4137916E+000  0.1885285E+03  0.7546771E-02  0.1159795E+00
         21   -1    0    0  501  502  0.00000000000E+00  0.00000000000E+00  0.91689453391E+02  0.91689453391E+02  0.00000000000E+00 0.  1.
         21   -1    0    0  502  503 -0.00000000000E+00 -0.00000000000E+00 -0.49868562316E+03  0.49868562316E+03  0.00000000000E+00 0.  1.
          6    1    1    2  501    0  0.56940420647E+02  0.48701022975E+02 -0.64206582161E+02  0.19916196006E+03  0.17300000000E+03 0.  1.
         -6    1    1    2    0  503 -0.56940420647E+02 -0.48701022975E+02 -0.34278958761E+03  0.39121311649E+03  0.17300000000E+03 0.  1.
<mgrwt>
<rscale>  2 0.18852852E+03</rscale>
<asrwt>0</asrwt>
<pdfrwt beam="1">  1       21 0.14106070E-01 0.18852852E+03</pdfrwt>
<pdfrwt beam="2">  1       21 0.76720865E-01 0.18852852E+03</pdfrwt>
<totfact> 0.66405094E+04</totfact>
</mgrwt>
</event>
<event>
 4    1  0.4137916E+000  0.1926386E+03  0.7546771E-02  0.1156103E+00
         21   -1    0    0  501  502  0.00000000000E+00  0.00000000000E+00  0.12884874565E+04  0.12884874565E+04  0.00000000000E+00 0.  1.
         21   -1    0    0  502  503 -0.00000000000E+00 -0.00000000000E+00 -0.78481164026E+02  0.78481164026E+02  0.00000000000E+00 0. -1.
          6    1    1    2  501    0 -0.71697681892E+02 -0.45166953505E+02  0.11488013084E+04  0.11648407863E+04  0.17300000000E+03 0.  1.
         -6    1    1    2    0  503  0.71697681892E+02  0.45166953505E+02  0.61204984037E+02  0.20212783418E+03  0.17300000000E+03 0. -1.
<mgrwt>
<rscale>  2 0.19263855E+03</rscale>
<asrwt>0</asrwt>
<pdfrwt beam="1">  1       21 0.19822882E+00 0.19263855E+03</pdfrwt>
<pdfrwt beam="2">  1       21 0.12074026E-01 0.19263855E+03</pdfrwt>
<totfact> 0.80004927E+03</totfact>
</mgrwt>
</event>
<event>
 4    1  0.4137916E+000  0.2794875E+03  0.7546771E-02  0.1095969E+00
         21   -1    0    0  501  502  0.00000000000E+00  0.00000000000E+00  0.28728114926E+03  0.28728114926E+03  0.00000000000E+00 0.  1.
         21   -1    0    0  502  503 -0.00000000000E+00 -0.00000000000E+00 -0.27221096152E+03  0.27221096152E+03  0.00000000000E+00 0. -1.
          6    1    1    2  501    0 -0.21129320425E+03  0.59493196608E+02  0.16909688386E+02  0.27999856458E+03  0.17300000000E+03 0. -1.
         -6    1    1    2    0  503  0.21129320425E+03 -0.59493196608E+02 -0.18395006450E+01  0.27949354620E+03  0.17300000000E+03 0.  1.
<mgrwt>
<rscale>  2 0.27948749E+03</rscale>
<asrwt>0</asrwt>
<pdfrwt beam="1">  1       21 0.44197100E-01 0.27948749E+03</pdfrwt>
<pdfrwt beam="2">  1       21 0.41878610E-01 0.27948749E+03</pdfrwt>
<totfact> 0.25870891E+04</totfact>
</mgrwt>
</event>
<event>
 4    1  0.4137916E+000  0.1960407E+03  0.7546771E-02  0.1153123E+00
         21   -1    0    0  501  502  0.00000000000E+00  0.00000000000E+00  0.92046665903E+03  0.92046665903E+03  0.00000000000E+00 0.  1.
         21   -1    0    0  502  503 -0.00000000000E+00 -0.00000000000E+00 -0.59642542868E+02  0.59642542868E+02  0.00000000000E+00 0.  1.
          6    1    1    2  501    0  0.11880014579E+02 -0.91443029574E+02  0.69880416260E+03  0.72578179921E+03  0.17300000000E+03 0.  1.
         -6    1    1    2    0  503 -0.11880014579E+02  0.91443029574E+02  0.16201995357E+03  0.25432740269E+03  0.17300000000E+03 0.  1.
<mgrwt>
<rscale>  2 0.19604072E+03</rscale>
<asrwt>0</asrwt>
<pdfrwt beam="1">  1       21 0.14161024E+00 0.19604072E+03</pdfrwt>
<pdfrwt beam="2">  1       21 0.91757765E-02 0.19604072E+03</pdfrwt>
<totfact> 0.32734416E+04</totfact>
</mgrwt>
</event>
<event>
 4    1  0.4137916E+000  0.1761499E+03  0.7546771E-02  0.1171582E+00
         21   -1    0    0  503  502  0.00000000000E+00  0.00000000000E+00  0.38759803507E+03  0.38759803507E+03  0.00000000000E+00 0.  1.
         21   -1    0    0  501  503 -0.00000000000E+00 -0.00000000000E+00 -0.86467987991E+02  0.86467987991E+02  0.00000000000E+00 0.  1.
          6    1    1    2  501    0 -0.76403036569E+01 -0.32270703344E+02  0.86007735481E+02  0.19602577151E+03  0.17300000000E+03 0.  1.
         -6    1    1    2    0  502  0.76403036569E+01  0.32270703344E+02  0.21512231160E+03  0.27804025155E+03  0.17300000000E+03 0.  1.
<mgrwt>
<rscale>  2 0.17614986E+03</rscale>
<asrwt>0</asrwt>
<pdfrwt beam="1">  1       21 0.59630466E-01 0.17614986E+03</pdfrwt>
<pdfrwt beam="2">  1       21 0.13302768E-01 0.17614986E+03</pdfrwt>
<totfact> 0.12879271E+05</totfact>
</mgrwt>
</event>
<event>
 4    1  0.4137916E+000  0.1965279E+03  0.7546771E-02  0.1152702E+00
         21   -1    0    0  503  502  0.00000000000E+00  0.00000000000E+00  0.12249219563E+03  0.12249219563E+03  0.00000000000E+00 0.  1.
         21   -1    0    0  501  503 -0.00000000000E+00 -0.00000000000E+00 -0.31697442434E+03  0.31697442434E+03  0.00000000000E+00 0. -1.
          6    1    1    2  501    0 -0.93241460959E+02  0.47746693242E+00 -0.81325626573E+02  0.21269004573E+03  0.17300000000E+03 0.  1.
         -6    1    1    2    0  502  0.93241460959E+02 -0.47746693242E+00 -0.11315660213E+03  0.22677657424E+03  0.17300000000E+03 0. -1.
<mgrwt>
<rscale>  2 0.19652786E+03</rscale>
<asrwt>0</asrwt>
<pdfrwt beam="1">  1       21 0.18844953E-01 0.19652786E+03</pdfrwt>
<pdfrwt beam="2">  1       21 0.48765296E-01 0.19652786E+03</pdfrwt>
<totfact> 0.10335469E+05</totfact>
</mgrwt>
</event>
<event>
 4    1  0.4137916E+000  0.2004687E+03  0.7546771E-02  0.1149344E+00
         21   -1    0    0  501  502  0.00000000000E+00  0.00000000000E+00  0.86592368095E+03  0.86592368095E+03  0.00000000000E+00 0. -1.
         21   -1    0    0  502  503 -0.00000000000E+00 -0.00000000000E+00 -0.12801210171E+03  0.12801210171E+03  0.00000000000E+00 0. -1.
          6    1    1    2  501    0 -0.61995683144E+02  0.80095085494E+02  0.76573870844E+03  0.79154498107E+03  0.17300000000E+03 0. -1.
         -6    1    1    2    0  503  0.61995683144E+02 -0.80095085494E+02 -0.27827129208E+02  0.20239080159E+03  0.17300000000E+03 0. -1.
<mgrwt>
<rscale>  2 0.20046867E+03</rscale>
<asrwt>0</asrwt>
<pdfrwt beam="1">  1       21 0.13321902E+00 0.20046867E+03</pdfrwt>
<pdfrwt beam="2">  1       21 0.19694170E-01 0.20046867E+03</pdfrwt>
<totfact> 0.95969154E+03</totfact>
</mgrwt>
</event>
<event>
 4    1  0.4137916E+000  0.1916690E+03  0.7546771E-02  0.1156965E+00
         21   -1    0    0  501  502  0.00000000000E+00  0.00000000000E+00  0.84762585004E+02  0.84762585004E+02  0.00000000000E+00 0. -1.
         21   -1    0    0  502  503 -0.00000000000E+00 -0.00000000000E+00 -0.49918536538E+03  0.49918536538E+03  0.00000000000E+00 0. -1.
          6    1    1    2  501    0 -0.58144697087E+02 -0.58542333097E+02 -0.31319594327E+03  0.36719029051E+03  0.17300000000E+03 0. -1.
         -6    1    1    2    0  503  0.58144697087E+02  0.58542333097E+02 -0.10122683711E+03  0.21675765987E+03  0.17300000000E+03 0. -1.
<mgrwt>
<rscale>  2 0.19166901E+03</rscale>
<asrwt>0</asrwt>
<pdfrwt beam="1">  1       21 0.13040398E-01 0.19166901E+03</pdfrwt>
<pdfrwt beam="2">  1       21 0.76797750E-01 0.19166901E+03</pdfrwt>
<totfact> 0.76253467E+04</totfact>
</mgrwt>
</event>
<event>
 4    1  0.4137916E+000  0.2028141E+03  0.7546771E-02  0.1147386E+00
         21   -1    0    0  501  502  0.00000000000E+00  0.00000000000E+00  0.50162145615E+03  0.50162145615E+03  0.00000000000E+00 0. -1.
         21   -1    0    0  502  503 -0.00000000000E+00 -0.00000000000E+00 -0.16238566465E+03  0.16238566465E+03  0.00000000000E+00 0. -1.
          6    1    1    2  501    0 -0.24741559188E+02  0.10291953383E+03  0.40320823898E+03  0.45134295073E+03  0.17300000000E+03 0. -1.
         -6    1    1    2    0  503  0.24741559188E+02 -0.10291953383E+03 -0.63972447477E+02  0.21266417007E+03  0.17300000000E+03 0. -1.
<mgrwt>
<rscale>  2 0.20281414E+03</rscale>
<asrwt>0</asrwt>
<pdfrwt beam="1">  1       21 0.77172531E-01 0.20281414E+03</pdfrwt>
<pdfrwt beam="2">  1       21 0.24982410E-01 0.20281414E+03</pdfrwt>
<totfact> 0.22485086E+04</totfact>
</mgrwt>
</event>
<event>
 4    1  0.4137916E+000  0.1921581E+03  0.7546771E-02  0.1156529E+00
         21   -1    0    0  503  502  0.00000000000E+00  0.00000000000E+00  0.50496250718E+02  0.50496250718E+02  0.00000000000E+00 0. -1.
         21   -1    0    0  501  503 -0.00000000000E+00 -0.00000000000E+00 -0.75195246573E+03  0.75195246573E+03  0.00000000000E+00 0.  1.
          6    1    1    2  501    0  0.64919146672E+02  0.52737533377E+02 -0.41732226004E+03  0.45943727729E+03  0.17300000000E+03 0. -1.
         -6    1    1    2    0  502 -0.64919146672E+02 -0.52737533377E+02 -0.28413395497E+03  0.34301143916E+03  0.17300000000E+03 0. -1.
<mgrwt>
<rscale>  2 0.19215812E+03</rscale>
<asrwt>0</asrwt>
<pdfrwt beam="1">  1       21 0.77686542E-02 0.19215812E+03</pdfrwt>
<pdfrwt beam="2">  1       21 0.11568499E+00 0.19215812E+03</pdfrwt>
<totfact> 0.72991484E+04</totfact>
</mgrwt>
</event>
<event>
 4    1  0.4137916E+000  0.2388917E+03  0.7546771E-02  0.1120533E+00
         21   -1    0    0  503  502  0.00000000000E+00  0.00000000000E+00  0.34519346110E+03  0.34519346110E+03  0.00000000000E+00 0. -1.
         21   -1    0    0  501  503 -0.00000000000E+00 -0.00000000000E+00 -0.19193429944E+03  0.19193429944E+03  0.00000000000E+00 0. -1.
          6    1    1    2  501    0  0.15630021525E+03 -0.52062270902E+02 -0.23366963627E+02  0.24003177358E+03  0.17300000000E+03 0. -1.
         -6    1    1    2    0  502 -0.15630021525E+03  0.52062270902E+02  0.17662612529E+03  0.29709598697E+03  0.17300000000E+03 0. -1.
<mgrwt>
<rscale>  2 0.23889169E+03</rscale>
<asrwt>0</asrwt>
<pdfrwt beam="1">  1       21 0.53106686E-01 0.23889169E+03</pdfrwt>
<pdfrwt beam="2">  1       21 0.29528354E-01 0.23889169E+03</pdfrwt>
<totfact> 0.36078600E+04</totfact>
</mgrwt>
</event>
<event>
 4    1  0.4137916E+000  0.3222330E+03  0.7546771E-02  0.1074626E+00
         21   -1    0    0  501  502  0.00000000000E+00  0.00000000000E+00  0.76409481255E+03  0.76409481255E+03  0.00000000000E+00 0.  1.
         21   -1    0    0  502  503 -0.00000000000E+00 -0.00000000000E+00 -0.24093780380E+03  0.24093780380E+03  0.00000000000E+00 0.  1.
          6    1    1    2  501    0  0.25165385177E+03 -0.10283689634E+03  0.59338723508E+03  0.67523514358E+03  0.17300000000E+03 0.  1.
         -6    1    1    2    0  503 -0.25165385177E+03  0.10283689634E+03 -0.70230226334E+02  0.32979747278E+03  0.17300000000E+03 0.  1.
<mgrwt>
<rscale>  2 0.32223297E+03</rscale>
<asrwt>0</asrwt>
<pdfrwt beam="1">  1       21 0.11755305E+00 0.32223297E+03</pdfrwt>
<pdfrwt beam="2">  1       21 0.37067355E-01 0.32223297E+03</pdfrwt>
<totfact> 0.35813054E+03</totfact>
</mgrwt>
</event>
<event>
 4    1  0.4137916E+000  0.2214880E+03  0.7546771E-02  0.1132779E+00
         21   -1    0    0  503  502  0.00000000000E+00  0.00000000000E+00  0.67277446948E+02  0.67277446948E+02  0.00000000000E+00 0.  1.
         21   -1    0    0  501  503 -0.00000000000E+00 -0.00000000000E+00 -0.23928010276E+04  0.23928010276E+04  0.00000000000E+00 0.  1.
          6    1    1    2  501    0  0.67195906206E+02  0.12088277709E+03 -0.21883988689E+04  0.21995787199E+04  0.17300000000E+03 0.  1.
         -6    1    1    2    0  502 -0.67195906206E+02 -0.12088277709E+03 -0.13712471178E+03  0.26049975468E+03  0.17300000000E+03 0.  1.
<mgrwt>
<rscale>  2 0.22148800E+03</rscale>
<asrwt>0</asrwt>
<pdfrwt beam="1">  1       21 0.10350378E-01 0.22148800E+03</pdfrwt>
<pdfrwt beam="2">  1       21 0.36812318E+00 0.22148800E+03</pdfrwt>
<totfact> 0.10002747E+03</totfact>
</mgrwt>
</event>
<event>
 4    1  0.4137916E+000  0.1911685E+03  0.7546771E-02  0.1157412E+00
         21   -1    0    0  503  502  0.00000000000E+00  0.00000000000E+00  0.26894387806E+03  0.26894387806E+03  0.00000000000E+00 0. -1.
         21   -1    0    0  501  503 -0.00000000000E+00 -0.00000000000E+00 -0.13616110960E+03  0.13616110960E+03  0.00000000000E+00 0. -1.
          6    1    1    2  501    0  0.64801823412E+02 -0.49164027463E+02  0.57266444934E+02  0.19956157854E+03  0.17300000000E+03 0. -1.
         -6    1    1    2    0  502 -0.64801823412E+02  0.49164027463E+02  0.75516323530E+02  0.20554340912E+03  0.17300000000E+03 0. -1.
<mgrwt>
<rscale>  2 0.19116845E+03</rscale>
<asrwt>0</asrwt>
<pdfrwt beam="1">  1       21 0.41375981E-01 0.19116845E+03</pdfrwt>
<pdfrwt beam="2">  1       21 0.20947863E-01 0.19116845E+03</pdfrwt>
<totfact> 0.11912350E+05</totfact>
</mgrwt>
</event>
<event>
 4    1  0.4137916E+000  0.2685658E+03  0.7546771E-02  0.1102103E+00
         21   -1    0    0  501  502  0.00000000000E+00  0.00000000000E+00  0.15868983900E+04  0.15868983900E+04  0.00000000000E+00 0.  1.
         21   -1    0    0  502  503 -0.00000000000E+00 -0.00000000000E+00 -0.78661779402E+02  0.78661779402E+02  0.00000000000E+00 0. -1.
          6    1    1    2  501    0 -0.36773821619E+02  0.20210457051E+03  0.12952238650E+04  0.13227745204E+04  0.17300000000E+03 0.  1.
         -6    1    1    2    0  503  0.36773821619E+02 -0.20210457051E+03  0.21301274564E+03  0.34278564903E+03  0.17300000000E+03 0. -1.
<mgrwt>
<rscale>  2 0.26856577E+03</rscale>
<asrwt>0</asrwt>
<pdfrwt beam="1">  1       21 0.24413819E+00 0.26856577E+03</pdfrwt>
<pdfrwt beam="2">  1       21 0.12101813E-01 0.26856577E+03</pdfrwt>
<totfact> 0.38872491E+03</totfact>
</mgrwt>
</event>
<event>
 4    1  0.4137916E+000  0.2022165E+03  0.7546771E-02  0.1147882E+00
         21   -1    0    0  501  502  0.00000000000E+00  0.00000000000E+00  0.22608684331E+03  0.22608684331E+03  0.00000000000E+00 0. -1.
         21   -1    0    0  502  503 -0.00000000000E+00 -0.00000000000E+00 -0.21043393718E+03  0.21043393718E+03  0.00000000000E+00 0. -1.
          6    1    1    2  501    0  0.10424160350E+03  0.98091105158E+01  0.89639780619E+02  0.22119407953E+03  0.17300000000E+03 0. -1.
         -6    1    1    2    0  503 -0.10424160350E+03 -0.98091105158E+01 -0.73986874485E+02  0.21532670096E+03  0.17300000000E+03 0. -1.
<mgrwt>
<rscale>  2 0.20221654E+03</rscale>
<asrwt>0</asrwt>
<pdfrwt beam="1">  1       21 0.34782591E-01 0.20221654E+03</pdfrwt>
<pdfrwt beam="2">  1       21 0.32374452E-01 0.20221654E+03</pdfrwt>
<totfact> 0.72831609E+04</totfact>
</mgrwt>
</event>
<event>
 4    1  0.4137916E+000  0.2069293E+03  0.7546771E-02  0.1144021E+00
         21   -1    0    0  501  502  0.00000000000E+00  0.00000000000E+00  0.12195352867E+04  0.12195352867E+04  0.00000000000E+00 0. -1.
         21   -1    0    0  502  503 -0.00000000000E+00 -0.00000000000E+00 -0.36019907755E+02  0.36019907755E+02  0.00000000000E+00 0.  1.
          6    1    1    2  501    0 -0.95832281159E+01  0.11313221377E+03  0.49206336013E+03  0.53380341553E+03  0.17300000000E+03 0. -1.
         -6    1    1    2    0  503  0.95832281159E+01 -0.11313221377E+03  0.69145201885E+03  0.72175177896E+03  0.17300000000E+03 0. -1.
<mgrwt>
<rscale>  2 0.20692930E+03</rscale>
<asrwt>0</asrwt>
<pdfrwt beam="1">  1       21 0.18762078E+00 0.20692930E+03</pdfrwt>
<pdfrwt beam="2">  1       21 0.55415252E-02 0.20692930E+03</pdfrwt>
<totfact> 0.36181465E+04</totfact>
</mgrwt>
</event>
<event>
 4    1  0.4137916E+000  0.2162668E+03  0.7546771E-02  0.1136697E+00
         21   -1    0    0  501  502  0.00000000000E+00  0.00000000000E+00  0.92871996822E+02  0.92871996822E+02  0.00000000000E+00 0.  1.
         21   -1    0    0  502  503 -0.00000000000E+00 -0.00000000000E+00 -0.87748042089E+03  0.87748042089E+03  0.00000000000E+00 0.  1.
          6    1    1    2  501    0  0.88924093920E+02  0.94524331540E+02 -0.75609473292E+02  0.22910289432E+03  0.17300000000E+03 0.  1.
         -6    1    1    2    0  503 -0.88924093920E+02 -0.94524331540E+02 -0.70899895077E+03  0.74124952339E+03  0.17300000000E+03 0.  1.
<mgrwt>
<rscale>  2 0.21626683E+03</rscale>
<asrwt>0</asrwt>
<pdfrwt beam="1">  1       21 0.14288000E-01 0.21626683E+03</pdfrwt>
<pdfrwt beam="2">  1       21 0.13499699E+00 0.21626683E+03</pdfrwt>
<totfact> 0.16574715E+04</totfact>
</mgrwt>
</event>
<event>
 4    1  0.4137916E+000  0.1946775E+03  0.7546771E-02  0.1154309E+00
         21   -1    0    0  503  502  0.00000000000E+00  0.00000000000E+00  0.88278752064E+02  0.88278752064E+02  0.00000000000E+00 0. -1.
         21   -1    0    0  501  503 -0.00000000000E+00 -0.00000000000E+00 -0.42954652975E+03  0.42954652975E+03  0.00000000000E+00 0. -1.
          6    1    1    2  501    0  0.83268042098E+02  0.32198989386E+02 -0.16461537289E+03  0.25494619578E+03  0.17300000000E+03 0. -1.
         -6    1    1    2    0  502 -0.83268042098E+02 -0.32198989386E+02 -0.17665240479E+03  0.26287908603E+03  0.17300000000E+03 0. -1.
<mgrwt>
<rscale>  2 0.19467753E+03</rscale>
<asrwt>0</asrwt>
<pdfrwt beam="1">  1       21 0.13581346E-01 0.19467753E+03</pdfrwt>
<pdfrwt beam="2">  1       21 0.66084082E-01 0.19467753E+03</pdfrwt>
<totfact> 0.98677449E+04</totfact>
</mgrwt>
</event>
<event>
 4    1  0.4137916E+000  0.2146159E+03  0.7546771E-02  0.1137962E+00
         21   -1    0    0  503  502  0.00000000000E+00  0.00000000000E+00  0.10168807859E+04  0.10168807859E+04  0.00000000000E+00 0.  1.
         21   -1    0    0  501  503 -0.00000000000E+00 -0.00000000000E+00 -0.15707094738E+03  0.15707094738E+03  0.00000000000E+00 0.  1.
          6    1    1    2  501    0  0.41193632976E+02 -0.12014179724E+03 -0.65255386060E+02  0.22431725803E+03  0.17300000000E+03 0.  1.
         -6    1    1    2    0  502 -0.41193632976E+02  0.12014179724E+03  0.92506522458E+03  0.94963447524E+03  0.17300000000E+03 0.  1.
<mgrwt>
<rscale>  2 0.21461586E+03</rscale>
<asrwt>0</asrwt>
<pdfrwt beam="1">  1       21 0.15644319E+00 0.21461586E+03</pdfrwt>
<pdfrwt beam="2">  1       21 0.24164762E-01 0.21461586E+03</pdfrwt>
<totfact> 0.42410849E+03</totfact>
</mgrwt>
</event>
<event>
 4    1  0.4137916E+000  0.1882631E+03  0.7546771E-02  0.1160037E+00
         21   -1    0    0  501  502  0.00000000000E+00  0.00000000000E+00  0.13331335664E+04  0.13331335664E+04  0.00000000000E+00 0.  1.
         21   -1    0    0  502  503 -0.00000000000E+00 -0.00000000000E+00 -0.29539950866E+02  0.29539950866E+02  0.00000000000E+00 0.  1.
          6    1    1    2  501    0 -0.40764515599E+02 -0.62066383052E+02  0.43634882497E+03  0.47522971149E+03  0.17300000000E+03 0.  1.
         -6    1    1    2    0  503  0.40764515599E+02  0.62066383052E+02  0.86724479057E+03  0.88744380578E+03  0.17300000000E+03 0.  1.
<mgrwt>
<rscale>  2 0.18826306E+03</rscale>
<asrwt>0</asrwt>
<pdfrwt beam="1">  1       21 0.20509743E+00 0.18826306E+03</pdfrwt>
<pdfrwt beam="2">  1       21 0.45446089E-02 0.18826306E+03</pdfrwt>
<totfact> 0.39507248E+04</totfact>
</mgrwt>
</event>
<event>
 4    1  0.4137916E+000  0.2613795E+03  0.7546771E-02  0.1106317E+00
         21   -1    0    0  501  502  0.00000000000E+00  0.00000000000E+00  0.38242254755E+03  0.38242254755E+03  0.00000000000E+00 0. -1.
         21   -1    0    0  502  503 -0.00000000000E+00 -0.00000000000E+00 -0.26807619386E+03  0.26807619386E+03  0.00000000000E+00 0. -1.
          6    1    1    2  501    0 -0.95638239513E+02 -0.17100749830E+03  0.24502837251E+03  0.35827104358E+03  0.17300000000E+03 0. -1.
         -6    1    1    2    0  503  0.95638239513E+02  0.17100749830E+03 -0.13068201882E+03  0.29222769782E+03  0.17300000000E+03 0. -1.
<mgrwt>
<rscale>  2 0.26137949E+03</rscale>
<asrwt>0</asrwt>
<pdfrwt beam="1">  1       21 0.58834238E-01 0.26137949E+03</pdfrwt>
<pdfrwt beam="2">  1       21 0.41242491E-01 0.26137949E+03</pdfrwt>
<totfact> 0.14717561E+04</totfact>
</mgrwt>
</event>
<event>
 4    1  0.4137916E+000  0.1900744E+03  0.7546771E-02  0.1158394E+00
         21   -1    0    0  503  502  0.00000000000E+00  0.00000000000E+00  0.45600408023E+03  0.45600408023E+03  0.00000000000E+00 0. -1.
         21   -1    0    0  501  503 -0.00000000000E+00 -0.00000000000E+00 -0.44637341352E+03  0.44637341352E+03  0.00000000000E+00 0. -1.
          6    1    1    2  501    0 -0.77556638350E+02 -0.13573509460E+02 -0.40437764972E+03  0.44682161530E+03  0.17300000000E+03 0. -1.
         -6    1    1    2    0  502  0.77556638350E+02  0.13573509460E+02  0.41400831643E+03  0.45555587844E+03  0.17300000000E+03 0. -1.
<mgrwt>
<rscale>  2 0.19007439E+03</rscale>
<asrwt>0</asrwt>
<pdfrwt beam="1">  1       21 0.70154474E-01 0.19007439E+03</pdfrwt>
<pdfrwt beam="2">  1       21 0.68672833E-01 0.19007439E+03</pdfrwt>
<totfact> 0.35713777E+03</totfact>
</mgrwt>
</event>
<event>
 4    1  0.4137916E+000  0.1791548E+03  0.7546771E-02  0.1168624E+00
         21   -1    0    0  503  502  0.00000000000E+00  0.00000000000E+00  0.50894482985E+03  0.50894482985E+03  0.00000000000E+00 0. -1.
         21   -1    0    0  501  503 -0.00000000000E+00 -0.00000000000E+00 -0.80952103298E+02  0.80952103298E+02  0.00000000000E+00 0.  1.
          6    1    1    2  501    0 -0.20515139847E+02 -0.41792077204E+02  0.75350847776E+02  0.19435585646E+03  0.17300000000E+03 0.  1.
         -6    1    1    2    0  502  0.20515139847E+02  0.41792077204E+02  0.35264187878E+03  0.39554107669E+03  0.17300000000E+03 0. -1.
<mgrwt>
<rscale>  2 0.17915482E+03</rscale>
<asrwt>0</asrwt>
<pdfrwt beam="1">  1       21 0.78299203E-01 0.17915482E+03</pdfrwt>
<pdfrwt beam="2">  1       21 0.12454170E-01 0.17915482E+03</pdfrwt>
<totfact> 0.79716014E+04</totfact>
</mgrwt>
</event>
<event>
 4    1  0.4137916E+000  0.1851420E+03  0.7546771E-02  0.1162917E+00
         21   -1    0    0  503  502  0.00000000000E+00  0.00000000000E+00  0.44822080907E+02  0.44822080907E+02  0.00000000000E+00 0. -1.
         21   -1    0    0  501  503 -0.00000000000E+00 -0.00000000000E+00 -0.13294230179E+04  0.13294230179E+04  0.00000000000E+00 0. -1.
          6    1    1    2  501    0 -0.13193867112E+02  0.64610204760E+02 -0.10901191787E+04  0.11057293432E+04  0.17300000000E+03 0. -1.
         -6    1    1    2    0  502  0.13193867112E+02 -0.64610204760E+02 -0.19448175829E+03  0.26851575558E+03  0.17300000000E+03 0. -1.
<mgrwt>
<rscale>  2 0.18514199E+03</rscale>
<asrwt>0</asrwt>
<pdfrwt beam="1">  1       21 0.68957052E-02 0.18514199E+03</pdfrwt>
<pdfrwt beam="2">  1       21 0.20452660E+00 0.18514199E+03</pdfrwt>
<totfact> 0.19616675E+04</totfact>
</mgrwt>
</event>
<event>
 4    1  0.4137916E+000  0.2002831E+03  0.7546771E-02  0.1149500E+00
         21   -1    0    0  503  502  0.00000000000E+00  0.00000000000E+00  0.58808347327E+02  0.58808347327E+02  0.00000000000E+00 0. -1.
         21   -1    0    0  501  503 -0.00000000000E+00 -0.00000000000E+00 -0.70459807017E+03  0.70459807017E+03  0.00000000000E+00 0. -1.
          6    1    1    2  501    0  0.49539237916E+02  0.87921428262E+02 -0.39109806160E+03  0.43939846088E+03  0.17300000000E+03 0. -1.
         -6    1    1    2    0  502 -0.49539237916E+02 -0.87921428262E+02 -0.25469166124E+03  0.32400795661E+03  0.17300000000E+03 0. -1.
<mgrwt>
<rscale>  2 0.20028308E+03</rscale>
<asrwt>0</asrwt>
<pdfrwt beam="1">  1       21 0.90474382E-02 0.20028308E+03</pdfrwt>
<pdfrwt beam="2">  1       21 0.10839970E+00 0.20028308E+03</pdfrwt>
<totfact> 0.65245841E+04</totfact>
</mgrwt>
</event>
<event>
 4    1  0.4137916E+000  0.2609394E+03  0.7546771E-02  0.1106580E+00
         21   -1    0    0  501  502  0.00000000000E+00  0.00000000000E+00  0.23863882948E+03  0.23863882948E+03  0.00000000000E+00 0. -1.
         21   -1    0    0  502  503 -0.00000000000E+00 -0.00000000000E+00 -0.91910291096E+03  0.91910291096E+03  0.00000000000E+00 0. -1.
          6    1    1    2  501    0  0.19108676949E+03  0.40573824739E+02  0.14046174975E+03  0.29634252457E+03  0.17300000000E+03 0. -1.
         -6    1    1    2    0  503 -0.19108676949E+03 -0.40573824739E+02 -0.82092583122E+03  0.86139921587E+03  0.17300000000E+03 0. -1.
<mgrwt>
<rscale>  2 0.26093943E+03</rscale>
<asrwt>0</asrwt>
<pdfrwt beam="1">  1       21 0.36713666E-01 0.26093943E+03</pdfrwt>
<pdfrwt beam="2">  1       21 0.14140045E+00 0.26093943E+03</pdfrwt>
<totfact> 0.23611197E+03</totfact>
</mgrwt>
</event>
<event>
 4    1  0.4137916E+000  0.2003821E+03  0.7546771E-02  0.1149417E+00
         21   -1    0    0  501  502  0.00000000000E+00  0.00000000000E+00  0.30188515748E+02  0.30188515748E+02  0.00000000000E+00 0. -1.
         21   -1    0    0  502  503 -0.00000000000E+00 -0.00000000000E+00 -0.15385394300E+04  0.15385394300E+04  0.00000000000E+00 0.  1.
          6    1    1    2  501    0  0.25031991893E+02  0.97966173051E+02 -0.46545341662E+03  0.50675423504E+03  0.17300000000E+03 0. -1.
         -6    1    1    2    0  503 -0.25031991893E+02 -0.97966173051E+02 -0.10428974976E+04  0.10619737107E+04  0.17300000000E+03 0.  1.
<mgrwt>
<rscale>  2 0.20038206E+03</rscale>
<asrwt>0</asrwt>
<pdfrwt beam="1">  1       21 0.46443870E-02 0.20038206E+03</pdfrwt>
<pdfrwt beam="2">  1       21 0.23669838E+00 0.20038206E+03</pdfrwt>
<totfact> 0.24142456E+04</totfact>
</mgrwt>
</event>
<event>
 4    1  0.4137916E+000  0.2968873E+03  0.7546771E-02  0.1086807E+00
         21   -1    0    0  503  502  0.00000000000E+00  0.00000000000E+00  0.21758184774E+03  0.21758184774E+03  0.00000000000E+00 0. -1.
         21   -1    0    0  501  503 -0.00000000000E+00 -0.00000000000E+00 -0.46010217661E+03  0.46010217661E+03  0.00000000000E+00 0. -1.
          6    1    1    2  501    0  0.24077511194E+03 -0.15504937439E+02 -0.41036676335E+01  0.29691564072E+03  0.17300000000E+03 0. -1.
         -6    1    1    2    0  502 -0.24077511194E+03  0.15504937439E+02 -0.23841666124E+03  0.38076838363E+03  0.17300000000E+03 0. -1.
<mgrwt>
<rscale>  2 0.29688728E+03</rscale>
<asrwt>0</asrwt>
<pdfrwt beam="1">  1       21 0.33474130E-01 0.29688728E+03</pdfrwt>
<pdfrwt beam="2">  1       21 0.70784950E-01 0.29688728E+03</pdfrwt>
<totfact> 0.14704736E+04</totfact>
</mgrwt>
</event>
<event>
 4    1  0.4137916E+000  0.2136802E+03  0.7546771E-02  0.1138684E+00
         21   -1    0    0  503  502  0.00000000000E+00  0.00000000000E+00  0.30364565715E+03  0.30364565715E+03  0.00000000000E+00 0. -1.
         21   -1    0    0  501  503 -0.00000000000E+00 -0.00000000000E+00 -0.18338489218E+03  0.18338489218E+03  0.00000000000E+00 0.  1.
          6    1    1    2  501    0  0.12388126359E+03 -0.19587761748E+02 -0.43192920335E+02  0.21800200973E+03  0.17300000000E+03 0. -1.
         -6    1    1    2    0  502 -0.12388126359E+03  0.19587761748E+02  0.16345368531E+03  0.26902853960E+03  0.17300000000E+03 0. -1.
<mgrwt>
<rscale>  2 0.21368025E+03</rscale>
<asrwt>0</asrwt>
<pdfrwt beam="1">  1       21 0.46714716E-01 0.21368025E+03</pdfrwt>
<pdfrwt beam="2">  1       21 0.28213060E-01 0.21368025E+03</pdfrwt>
<totfact> 0.52152916E+04</totfact>
</mgrwt>
</event>
<event>
 4    1  0.4137916E+000  0.2439938E+03  0.7546771E-02  0.1117161E+00
         21   -1    0    0  501  502  0.00000000000E+00  0.00000000000E+00  0.29944338794E+03  0.29944338794E+03  0.00000000000E+00 0. -1.
         21   -1    0    0  502  503 -0.00000000000E+00 -0.00000000000E+00 -0.23110317421E+03  0.23110317421E+03  0.00000000000E+00 0. -1.
          6    1    1    2  501    0 -0.17205802953E+03 -0.12007674859E+00  0.13332897244E+03  0.27804603007E+03  0.17300000000E+03 0. -1.
         -6    1    1    2    0  503  0.17205802953E+03  0.12007674859E+00 -0.64988758715E+02  0.25250053209E+03  0.17300000000E+03 0. -1.
<mgrwt>
<rscale>  2 0.24399381E+03</rscale>
<asrwt>0</asrwt>
<pdfrwt beam="1">  1       21 0.46068214E-01 0.24399381E+03</pdfrwt>
<pdfrwt beam="2">  1       21 0.35554334E-01 0.24399381E+03</pdfrwt>
<totfact> 0.33578648E+04</totfact>
</mgrwt>
</event>
<event>
 4    1  0.4137916E+000  0.1835763E+03  0.7546771E-02  0.1164386E+00
         21   -1    0    0  501  502  0.00000000000E+00  0.00000000000E+00  0.47527724773E+02  0.47527724773E+02  0.00000000000E+00 0.  1.
         21   -1    0    0  502  503 -0.00000000000E+00 -0.00000000000E+00 -0.15161681323E+04  0.15161681323E+04  0.00000000000E+00 0.  1.
          6    1    1    2  501    0  0.47722460020E+02  0.38650027679E+02 -0.16387614909E+03  0.24608057638E+03  0.17300000000E+03 0.  1.
         -6    1    1    2    0  503 -0.47722460020E+02 -0.38650027679E+02 -0.13047642584E+04  0.13176152807E+04  0.17300000000E+03 0.  1.
<mgrwt>
<rscale>  2 0.18357630E+03</rscale>
<asrwt>0</asrwt>
<pdfrwt beam="1">  1       21 0.73119562E-02 0.18357630E+03</pdfrwt>
<pdfrwt beam="2">  1       21 0.23325668E+00 0.18357630E+03</pdfrwt>
<totfact> 0.11823808E+04</totfact>
</mgrwt>
</event>
<event>
 4    1  0.4137916E+000  0.2024718E+03  0.7546771E-02  0.1147670E+00
         21   -1    0    0  501  502  0.00000000000E+00  0.00000000000E+00  0.11886955473E+03  0.11886955473E+03  0.00000000000E+00 0.  1.
         21   -1    0    0  502  503 -0.00000000000E+00 -0.00000000000E+00 -0.35048358751E+03  0.35048358751E+03  0.00000000000E+00 0.  1.
          6    1    1    2  501    0  0.57148176609E+02 -0.88317074588E+02 -0.86113189603E+02  0.22002341052E+03  0.17300000000E+03 0. -1.
         -6    1    1    2    0  503 -0.57148176609E+02  0.88317074588E+02 -0.14550084318E+03  0.24932973172E+03  0.17300000000E+03 0. -1.
<mgrwt>
<rscale>  2 0.20247178E+03</rscale>
<asrwt>0</asrwt>
<pdfrwt beam="1">  1       21 0.18287624E-01 0.20247178E+03</pdfrwt>
<pdfrwt beam="2">  1       21 0.53920551E-01 0.20247178E+03</pdfrwt>
<totfact> 0.88311877E+04</totfact>
</mgrwt>
</event>
<event>
 4    1  0.4137916E+000  0.1825724E+03  0.7546771E-02  0.1165336E+00
         21   -1    0    0  503  502  0.00000000000E+00  0.00000000000E+00  0.52995892216E+03  0.52995892216E+03  0.00000000000E+00 0.  1.
         21   -1    0    0  501  503 -0.00000000000E+00 -0.00000000000E+00 -0.25091893702E+03  0.25091893702E+03  0.00000000000E+00 0.  1.
          6    1    1    2  501    0  0.53318895128E+02  0.23680714845E+02 -0.19845998458E+03  0.26966469237E+03  0.17300000000E+03 0.  1.
         -6    1    1    2    0  502 -0.53318895128E+02 -0.23680714845E+02  0.47749996972E+03  0.51121316680E+03  0.17300000000E+03 0.  1.
<mgrwt>
<rscale>  2 0.18257240E+03</rscale>
<asrwt>0</asrwt>
<pdfrwt beam="1">  1       21 0.81532142E-01 0.18257240E+03</pdfrwt>
<pdfrwt beam="2">  1       21 0.38602913E-01 0.18257240E+03</pdfrwt>
<totfact> 0.85873737E+03</totfact>
</mgrwt>
</event>
<event>
 4    1  0.4137916E+000  0.1794075E+03  0.7546771E-02  0.1168378E+00
         21   -1    0    0  503  502  0.00000000000E+00  0.00000000000E+00  0.35509728142E+03  0.35509728142E+03  0.00000000000E+00 0. -1.
         21   -1    0    0  501  503 -0.00000000000E+00 -0.00000000000E+00 -0.10536408882E+03  0.10536408882E+03  0.00000000000E+00 0. -1.
          6    1    1    2  501    0 -0.46759375154E+02  0.84616457954E+01  0.21092409189E+03  0.27690433574E+03  0.17300000000E+03 0. -1.
         -6    1    1    2    0  502  0.46759375154E+02 -0.84616457954E+01  0.38809100715E+02  0.18355703450E+03  0.17300000000E+03 0. -1.
<mgrwt>
<rscale>  2 0.17940747E+03</rscale>
<asrwt>0</asrwt>
<pdfrwt beam="1">  1       21 0.54630350E-01 0.17940747E+03</pdfrwt>
<pdfrwt beam="2">  1       21 0.16209860E-01 0.17940747E+03</pdfrwt>
<totfact> 0.10825021E+05</totfact>
</mgrwt>
</event>
<event>
 4    1  0.4137916E+000  0.4025259E+03  0.7546771E-02  0.1042909E+00
         21   -1    0    0  501  502  0.00000000000E+00  0.00000000000E+00  0.44100782144E+03  0.44100782144E+03  0.00000000000E+00 0. -1.
         21   -1    0    0  502  503 -0.00000000000E+00 -0.00000000000E+00 -0.58177200401E+03  0.58177200401E+03  0.00000000000E+00 0.  1.
          6    1    1    2  501    0 -0.32802029747E+03  0.15652733585E+03  0.24004372539E+03  0.46866631255E+03  0.17300000000E+03 0. -1.
         -6    1    1    2    0  503  0.32802029747E+03 -0.15652733585E+03 -0.38080790796E+03  0.55411351291E+03  0.17300000000E+03 0.  1.
<mgrwt>
<rscale>  2 0.40252593E+03</rscale>
<asrwt>0</asrwt>
<pdfrwt beam="1">  1       21 0.67847358E-01 0.40252593E+03</pdfrwt>
<pdfrwt beam="2">  1       21 0.89503384E-01 0.40252593E+03</pdfrwt>
<totfact> 0.18543531E+03</totfact>
</mgrwt>
</event>
<event>
 4    1  0.4137916E+000  0.1920459E+03  0.7546771E-02  0.1156629E+00
         21   -1    0    0  503  502  0.00000000000E+00  0.00000000000E+00  0.58206861207E+03  0.58206861207E+03  0.00000000000E+00 0. -1.
         21   -1    0    0  501  503 -0.00000000000E+00 -0.00000000000E+00 -0.14814824846E+03  0.14814824846E+03  0.00000000000E+00 0. -1.
          6    1    1    2  501    0  0.82954841309E+02 -0.84337826848E+01 -0.59246166875E+02  0.20097697051E+03  0.17300000000E+03 0. -1.
         -6    1    1    2    0  502 -0.82954841309E+02  0.84337826848E+01  0.49316653048E+03  0.52923989001E+03  0.17300000000E+03 0. -1.
<mgrwt>
<rscale>  2 0.19204592E+03</rscale>
<asrwt>0</asrwt>
<pdfrwt beam="1">  1       21 0.89549016E-01 0.19204592E+03</pdfrwt>
<pdfrwt beam="2">  1       21 0.22792039E-01 0.19204592E+03</pdfrwt>
<totfact> 0.19199312E+04</totfact>
</mgrwt>
</event>
<event>
 4    1  0.4137916E+000  0.2394081E+03  0.7546771E-02  0.1120188E+00
         21   -1    0    0  503  502  0.00000000000E+00  0.00000000000E+00  0.28966276516E+03  0.28966276516E+03  0.00000000000E+00 0. -1.
         21   -1    0    0  501  503 -0.00000000000E+00 -0.00000000000E+00 -0.20676364838E+03  0.20676364838E+03  0.00000000000E+00 0. -1.
          6    1    1    2  501    0  0.16441813643E+03 -0.18813046175E+02  0.92921457836E+02  0.25680858946E+03  0.17300000000E+03 0. -1.
         -6    1    1    2    0  502 -0.16441813643E+03  0.18813046175E+02 -0.10022341055E+02  0.23961782408E+03  0.17300000000E+03 0. -1.
<mgrwt>
<rscale>  2 0.23940813E+03</rscale>
<asrwt>0</asrwt>
<pdfrwt beam="1">  1       21 0.44563502E-01 0.23940813E+03</pdfrwt>
<pdfrwt beam="2">  1       21 0.31809792E-01 0.23940813E+03</pdfrwt>
<totfact> 0.44949920E+04</totfact>
</mgrwt>
</event>
<event>
 4    1  0.4137916E+000  0.2213596E+03  0.7546771E-02  0.1132873E+00
         21   -1    0    0  503  502  0.00000000000E+00  0.00000000000E+00  0.51361427901E+03  0.51361427901E+03  0.00000000000E+00 0.  1.
         21   -1    0    0  501  503 -0.00000000000E+00 -0.00000000000E+00 -0.14454377694E+03  0.14454377694E+03  0.00000000000E+00 0.  1.
          6    1    1    2  501    0  0.13754215513E+03 -0.12378748832E+02 -0.73421367839E+01  0.22148134195E+03  0.17300000000E+03 0.  1.
         -6    1    1    2    0  502 -0.13754215513E+03  0.12378748832E+02  0.37641263886E+03  0.43667671400E+03  0.17300000000E+03 0.  1.
<mgrwt>
<rscale>  2 0.22135961E+03</rscale>
<asrwt>0</asrwt>
<pdfrwt beam="1">  1       21 0.79017580E-01 0.22135961E+03</pdfrwt>
<pdfrwt beam="2">  1       21 0.22237504E-01 0.22135961E+03</pdfrwt>
<totfact> 0.26328267E+04</totfact>
</mgrwt>
</event>
<event>
 4    1  0.4137916E+000  0.1838225E+03  0.7546771E-02  0.1164154E+00
         21   -1    0    0  501  502  0.00000000000E+00  0.00000000000E+00  0.81416656422E+02  0.81416656422E+02  0.00000000000E+00 0.  1.
         21   -1    0    0  502  503 -0.00000000000E+00 -0.00000000000E+00 -0.66917395118E+03  0.66917395118E+03  0.00000000000E+00 0.  1.
          6    1    1    2  501    0 -0.61813617566E+02  0.63857032485E+01 -0.62597688986E+02  0.19418849397E+03  0.17300000000E+03 0.  1.
         -6    1    1    2    0  503  0.61813617566E+02 -0.63857032485E+01 -0.52515960577E+03  0.55640211363E+03  0.17300000000E+03 0.  1.
<mgrwt>
<rscale>  2 0.18382247E+03</rscale>
<asrwt>0</asrwt>
<pdfrwt beam="1">  1       21 0.12525640E-01 0.18382247E+03</pdfrwt>
<pdfrwt beam="2">  1       21 0.10294984E+00 0.18382247E+03</pdfrwt>
<totfact> 0.41817430E+04</totfact>
</mgrwt>
</event>
<event>
 4    1  0.4137916E+000  0.2819652E+03  0.7546771E-02  0.1094620E+00
         21   -1    0    0  503  502  0.00000000000E+00  0.00000000000E+00  0.52680252783E+03  0.52680252783E+03  0.00000000000E+00 0. -1.
         21   -1    0    0  501  503 -0.00000000000E+00 -0.00000000000E+00 -0.39891819645E+03  0.39891819645E+03  0.00000000000E+00 0.  1.
          6    1    1    2  501    0  0.83643317433E+02  0.20634714326E+03 -0.30100792380E+03  0.41244407896E+03  0.17300000000E+03 0.  1.
         -6    1    1    2    0  502 -0.83643317433E+02 -0.20634714326E+03  0.42889225518E+03  0.51327664532E+03  0.17300000000E+03 0. -1.
<mgrwt>
<rscale>  2 0.28196515E+03</rscale>
<asrwt>0</asrwt>
<pdfrwt beam="1">  1       21 0.81046543E-01 0.28196515E+03</pdfrwt>
<pdfrwt beam="2">  1       21 0.61372030E-01 0.28196515E+03</pdfrwt>
<totfact> 0.30937148E+03</totfact>
</mgrwt>
</event>
<event>
 4    1  0.4137916E+000  0.2098315E+03  0.7546771E-02  0.1141699E+00
         21   -1    0    0  501  502  0.00000000000E+00  0.00000000000E+00  0.42546830657E+03  0.42546830657E+03  0.00000000000E+00 0. -1.
         21   -1    0    0  502  503 -0.00000000000E+00 -0.00000000000E+00 -0.13446184217E+03  0.13446184217E+03  0.00000000000E+00 0. -1.
          6    1    1    2  501    0  0.71544713199E+02 -0.94771373820E+02  0.27988127475E+03  0.34980392685E+03  0.17300000000E+03 0. -1.
         -6    1    1    2    0  503 -0.71544713199E+02  0.94771373820E+02  0.11125189650E+02  0.21012622189E+03  0.17300000000E+03 0. -1.
<mgrwt>
<rscale>  2 0.20983150E+03</rscale>
<asrwt>0</asrwt>
<pdfrwt beam="1">  1       21 0.65456662E-01 0.20983150E+03</pdfrwt>
<pdfrwt beam="2">  1       21 0.20686437E-01 0.20983150E+03</pdfrwt>
<totfact> 0.46120483E+04</totfact>
</mgrwt>
</event>
<event>
 4    1  0.4137916E+000  0.1944739E+03  0.7546771E-02  0.1154487E+00
         21   -1    0    0  503  502  0.00000000000E+00  0.00000000000E+00  0.50944943342E+02  0.50944943342E+02  0.00000000000E+00 0. -1.
         21   -1    0    0  501  503 -0.00000000000E+00 -0.00000000000E+00 -0.79727826789E+03  0.79727826789E+03  0.00000000000E+00 0.  1.
          6    1    1    2  501    0 -0.68706551771E+01 -0.88565744450E+02 -0.48446440313E+03  0.52204008936E+03  0.17300000000E+03 0. -1.
         -6    1    1    2    0  502  0.68706551771E+01  0.88565744450E+02 -0.26186892141E+03  0.32618312187E+03  0.17300000000E+03 0. -1.
<mgrwt>
<rscale>  2 0.19447390E+03</rscale>
<asrwt>0</asrwt>
<pdfrwt beam="1">  1       21 0.78376834E-02 0.19447390E+03</pdfrwt>
<pdfrwt beam="2">  1       21 0.12265820E+00 0.19447390E+03</pdfrwt>
<totfact> 0.62136434E+04</totfact>
</mgrwt>
</event>
<event>
 4    1  0.4137916E+000  0.2613317E+03  0.7546771E-02  0.1106346E+00
         21   -1    0    0  503  502  0.00000000000E+00  0.00000000000E+00  0.34963929580E+03  0.34963929580E+03  0.00000000000E+00 0. -1.
         21   -1    0    0  501  503 -0.00000000000E+00 -0.00000000000E+00 -0.34444351802E+03  0.34444351802E+03  0.00000000000E+00 0.  1.
          6    1    1    2  501    0 -0.11960350116E+03  0.15511375140E+03 -0.22574316633E+03  0.34533208728E+03  0.17300000000E+03 0.  1.
         -6    1    1    2    0  502  0.11960350116E+03 -0.15511375140E+03  0.23093894410E+03  0.34875072654E+03  0.17300000000E+03 0. -1.
<mgrwt>
<rscale>  2 0.26133173E+03</rscale>
<asrwt>0</asrwt>
<pdfrwt beam="1">  1       21 0.53790661E-01 0.26133173E+03</pdfrwt>
<pdfrwt beam="2">  1       21 0.52991310E-01 0.26133173E+03</pdfrwt>
<totfact> 0.10583453E+04</totfact>
</mgrwt>
</event>
<event>
 4    1  0.4137916E+000  0.1933683E+03  0.7546771E-02  0.1155458E+00
         21   -1    0    0  503  502  0.00000000000E+00  0.00000000000E+00  0.31003172017E+03  0.31003172017E+03  0.00000000000E+00 0. -1.
         21   -1    0    0  501  503 -0.00000000000E+00 -0.00000000000E+00 -0.12936664025E+03  0.12936664025E+03  0.00000000000E+00 0. -1.
          6    1    1    2  501    0  0.30261734938E+02 -0.80910724754E+02  0.33156430300E+02  0.19619038420E+03  0.17300000000E+03 0. -1.
         -6    1    1    2    0  502 -0.30261734938E+02  0.80910724754E+02  0.14750864962E+03  0.24320797622E+03  0.17300000000E+03 0. -1.
<mgrwt>
<rscale>  2 0.19336835E+03</rscale>
<asrwt>0</asrwt>
<pdfrwt beam="1">  1       21 0.47697187E-01 0.19336835E+03</pdfrwt>
<pdfrwt beam="2">  1       21 0.19902560E-01 0.19336835E+03</pdfrwt>
<totfact> 0.97877872E+04</totfact>
</mgrwt>
</event>
<event>
 4    1  0.4137916E+000  0.1881336E+03  0.7546771E-02  0.1160156E+00
         21   -1    0    0  501  502  0.00000000000E+00  0.00000000000E+00  0.22369699638E+03  0.22369699638E+03  0.00000000000E+00 0.  1.
         21   -1    0    0  502  503 -0.00000000000E+00 -0.00000000000E+00 -0.17849536913E+03  0.17849536913E+03  0.00000000000E+00 0.  1.
          6    1    1    2  501    0 -0.73669364095E+02 -0.61711514899E+01 -0.45168128366E+02  0.19347976157E+03  0.17300000000E+03 0.  1.
         -6    1    1    2    0  503  0.73669364095E+02  0.61711514899E+01  0.90369755615E+02  0.20871260395E+03  0.17300000000E+03 0.  1.
<mgrwt>
<rscale>  2 0.18813362E+03</rscale>
<asrwt>0</asrwt>
<pdfrwt beam="1">  1       21 0.34414922E-01 0.18813362E+03</pdfrwt>
<pdfrwt beam="2">  1       21 0.27460826E-01 0.18813362E+03</pdfrwt>
<totfact> 0.10310373E+05</totfact>
</mgrwt>
</event>
<event>
 4    1  0.4137916E+000  0.1942827E+03  0.7546771E-02  0.1154654E+00
         21   -1    0    0  503  502  0.00000000000E+00  0.00000000000E+00  0.21894316797E+04  0.21894316797E+04  0.00000000000E+00 0.  1.
         21   -1    0    0  501  503 -0.00000000000E+00 -0.00000000000E+00 -0.19397539245E+02  0.19397539245E+02  0.00000000000E+00 0. -1.
          6    1    1    2  501    0  0.57317375221E+01  0.88226560948E+02  0.14533488960E+04  0.14662771881E+04  0.17300000000E+03 0.  1.
         -6    1    1    2    0  502 -0.57317375221E+01 -0.88226560948E+02  0.71668524440E+03  0.74255203077E+03  0.17300000000E+03 0. -1.
<mgrwt>
<rscale>  2 0.19428273E+03</rscale>
<asrwt>0</asrwt>
<pdfrwt beam="1">  1       21 0.33683545E+00 0.19428273E+03</pdfrwt>
<pdfrwt beam="2">  1       21 0.29842385E-02 0.19428273E+03</pdfrwt>
<totfact> 0.13310568E+04</totfact>
</mgrwt>
</event>
<event>
 4    1  0.4137916E+000  0.2151541E+03  0.7546771E-02  0.1137548E+00
         21   -1    0    0  503  502  0.00000000000E+00  0.00000000000E+00  0.19125790174E+04  0.19125790174E+04  0.00000000000E+00 0. -1.
         21   -1    0    0  501  503 -0.00000000000E+00 -0.00000000000E+00 -0.41874821067E+02  0.41874821067E+02  0.00000000000E+00 0.  1.
          6    1    1    2  501    0 -0.88504447375E+02  0.92353926168E+02  0.30052961329E+03  0.36960699851E+03  0.17300000000E+03 0. -1.
         -6    1    1    2    0  502  0.88504447375E+02 -0.92353926168E+02  0.15701745830E+04  0.15848468399E+04  0.17300000000E+03 0.  1.
<mgrwt>
<rscale>  2 0.21515410E+03</rscale>
<asrwt>0</asrwt>
<pdfrwt beam="1">  1       21 0.29424286E+00 0.21515410E+03</pdfrwt>
<pdfrwt beam="2">  1       21 0.64422816E-02 0.21515410E+03</pdfrwt>
<totfact> 0.62772948E+03</totfact>
</mgrwt>
</event>
<event>
 4    1  0.4137916E+000  0.1746403E+03  0.7546771E-02  0.1173093E+00
         21   -1    0    0  501  502  0.00000000000E+00  0.00000000000E+00  0.21977500994E+03  0.21977500994E+03  0.00000000000E+00 0. -1.
         21   -1    0    0  502  503 -0.00000000000E+00 -0.00000000000E+00 -0.17712650173E+03  0.17712650173E+03  0.00000000000E+00 0. -1.
          6    1    1    2  501    0  0.69165028529E+01  0.22855970220E+02 -0.71018600432E+02  0.18852818090E+03  0.17300000000E+03 0. -1.
         -6    1    1    2    0  503 -0.69165028529E+01 -0.22855970220E+02  0.11366710865E+03  0.20837333077E+03  0.17300000000E+03 0. -1.
<mgrwt>
<rscale>  2 0.17464030E+03</rscale>
<asrwt>0</asrwt>
<pdfrwt beam="1">  1       21 0.33811540E-01 0.17464030E+03</pdfrwt>
<pdfrwt beam="2">  1       21 0.27250231E-01 0.17464030E+03</pdfrwt>
<totfact> 0.10891034E+05</totfact>
</mgrwt>
</event>
<event>
 4    1  0.4137916E+000  0.1991359E+03  0.7546771E-02  0.1150470E+00
         21   -1    0    0  501  502  0.00000000000E+00  0.00000000000E+00  0.23447686825E+03  0.23447686825E+03  0.00000000000E+00 0.  1.
         21   -1    0    0  502  503 -0.00000000000E+00 -0.00000000000E+00 -0.17396606277E+03  0.17396606277E+03  0.00000000000E+00 0. -1.
          6    1    1    2  501    0  0.17014966850E+02  0.97142247306E+02  0.64334469310E+02  0.20927027799E+03  0.17300000000E+03 0. -1.
         -6    1    1    2    0  503 -0.17014966850E+02 -0.97142247306E+02 -0.38236638285E+01  0.19917265303E+03  0.17300000000E+03 0. -1.
<mgrwt>
<rscale>  2 0.19913595E+03</rscale>
<asrwt>0</asrwt>
<pdfrwt beam="1">  1       21 0.36073364E-01 0.19913595E+03</pdfrwt>
<pdfrwt beam="2">  1       21 0.26764010E-01 0.19913595E+03</pdfrwt>
<totfact> 0.98243374E+04</totfact>
</mgrwt>
</event>
<event>
 4    1  0.4137916E+000  0.1756123E+03  0.7546771E-02  0.1172118E+00
         21   -1    0    0  501  502  0.00000000000E+00  0.00000000000E+00  0.10351949752E+03  0.10351949752E+03  0.00000000000E+00 0.  1.
         21   -1    0    0  502  503 -0.00000000000E+00 -0.00000000000E+00 -0.30784932072E+03  0.30784932072E+03  0.00000000000E+00 0.  1.
          6    1    1    2  501    0 -0.26036583398E+02 -0.15257130614E+02 -0.65210143555E+02  0.18732871251E+03  0.17300000000E+03 0.  1.
         -6    1    1    2    0  503  0.26036583398E+02  0.15257130614E+02 -0.13911967965E+03  0.22404010573E+03  0.17300000000E+03 0.  1.
<mgrwt>
<rscale>  2 0.17561231E+03</rscale>
<asrwt>0</asrwt>
<pdfrwt beam="1">  1       21 0.15926077E-01 0.17561231E+03</pdfrwt>
<pdfrwt beam="2">  1       21 0.47361434E-01 0.17561231E+03</pdfrwt>
<totfact> 0.15079928E+05</totfact>
</mgrwt>
</event>
<event>
 4    1  0.4137916E+000  0.2992949E+03  0.7546771E-02  0.1085594E+00
         21   -1    0    0  503  502  0.00000000000E+00  0.00000000000E+00  0.75516820475E+03  0.75516820475E+03  0.00000000000E+00 0.  1.
         21   -1    0    0  501  503 -0.00000000000E+00 -0.00000000000E+00 -0.14371126298E+03  0.14371126298E+03  0.00000000000E+00 0.  1.
          6    1    1    2  501    0 -0.23209490164E+03 -0.76028784957E+02  0.11792890840E+03  0.32169029663E+03  0.17300000000E+03 0.  1.
         -6    1    1    2    0  502  0.23209490164E+03  0.76028784957E+02  0.49352803337E+03  0.57718917109E+03  0.17300000000E+03 0.  1.
<mgrwt>
<rscale>  2 0.29929487E+03</rscale>
<asrwt>0</asrwt>
<pdfrwt beam="1">  1       21 0.11617972E+00 0.29929487E+03</pdfrwt>
<pdfrwt beam="2">  1       21 0.22109425E-01 0.29929487E+03</pdfrwt>
<totfact> 0.10274538E+04</totfact>
</mgrwt>
</event>
<event>
 4    1  0.4137916E+000  0.1770430E+03  0.7546771E-02  0.1170696E+00
         21   -1    0    0  503  502  0.00000000000E+00  0.00000000000E+00  0.70779148238E+03  0.70779148238E+03  0.00000000000E+00 0.  1.
         21   -1    0    0  501  503 -0.00000000000E+00 -0.00000000000E+00 -0.69857788489E+02  0.69857788489E+02  0.00000000000E+00 0.  1.
          6    1    1    2  501    0  0.13029039835E+01  0.37596700627E+02  0.83711536633E+02  0.19583623470E+03  0.17300000000E+03 0.  1.
         -6    1    1    2    0  502 -0.13029039835E+01 -0.37596700627E+02  0.55422215726E+03  0.58181303617E+03  0.17300000000E+03 0.  1.
<mgrwt>
<rscale>  2 0.17704296E+03</rscale>
<asrwt>0</asrwt>
<pdfrwt beam="1">  1       21 0.10889099E+00 0.17704296E+03</pdfrwt>
<pdfrwt beam="2">  1       21 0.10747353E-01 0.17704296E+03</pdfrwt>
<totfact> 0.48189459E+04</totfact>
</mgrwt>
</event>
<event>
 4    1  0.4137916E+000  0.2982676E+03  0.7546771E-02  0.1086110E+00
         21   -1    0    0  501  502  0.00000000000E+00  0.00000000000E+00  0.56612605126E+03  0.56612605126E+03  0.00000000000E+00 0.  1.
         21   -1    0    0  502  503 -0.00000000000E+00 -0.00000000000E+00 -0.36238338921E+03  0.36238338921E+03  0.00000000000E+00 0. -1.
          6    1    1    2  501    0  0.41723232478E+02 -0.23936113282E+03  0.45125455100E+03  0.54091981830E+03  0.17300000000E+03 0.  1.
         -6    1    1    2    0  503 -0.41723232478E+02  0.23936113282E+03 -0.24751188895E+03  0.38758962216E+03  0.17300000000E+03 0. -1.
<mgrwt>
<rscale>  2 0.29826763E+03</rscale>
<asrwt>0</asrwt>
<pdfrwt beam="1">  1       21 0.87096315E-01 0.29826763E+03</pdfrwt>
<pdfrwt beam="2">  1       21 0.55751291E-01 0.29826763E+03</pdfrwt>
<totfact> 0.31948051E+03</totfact>
</mgrwt>
</event>
<event>
 4    1  0.4137916E+000  0.1733394E+03  0.7546771E-02  0.1174409E+00
         21   -1    0    0  501  502  0.00000000000E+00  0.00000000000E+00  0.70387382946E+03  0.70387382946E+03  0.00000000000E+00 0.  1.
         21   -1    0    0  502  503 -0.00000000000E+00 -0.00000000000E+00 -0.48725683528E+02  0.48725683528E+02  0.00000000000E+00 0.  1.
          6    1    1    2  501    0 -0.10827454052E+02  0.55164896249E+00  0.46004238597E+03  0.49161523061E+03  0.17300000000E+03 0.  1.
         -6    1    1    2    0  503  0.10827454052E+02 -0.55164896249E+00  0.19510575996E+03  0.26098428237E+03  0.17300000000E+03 0.  1.
<mgrwt>
<rscale>  2 0.17333937E+03</rscale>
<asrwt>0</asrwt>
<pdfrwt beam="1">  1       21 0.10828827E+00 0.17333937E+03</pdfrwt>
<pdfrwt beam="2">  1       21 0.74962595E-02 0.17333937E+03</pdfrwt>
<totfact> 0.91910679E+04</totfact>
</mgrwt>
</event>
<event>
 4    1  0.4137916E+000  0.1897864E+03  0.7546771E-02  0.1158654E+00
         21   -1    0    0  503  502  0.00000000000E+00  0.00000000000E+00  0.30175145383E+02  0.30175145383E+02  0.00000000000E+00 0. -1.
         21   -1    0    0  501  503 -0.00000000000E+00 -0.00000000000E+00 -0.14681142614E+04  0.14681142614E+04  0.00000000000E+00 0. -1.
          6    1    1    2  501    0  0.66887774916E+02  0.40198282217E+02 -0.10428766459E+04  0.10600049882E+04  0.17300000000E+03 0. -1.
         -6    1    1    2    0  502 -0.66887774916E+02 -0.40198282217E+02 -0.39506247010E+03  0.43828441863E+03  0.17300000000E+03 0. -1.
<mgrwt>
<rscale>  2 0.18978640E+03</rscale>
<asrwt>0</asrwt>
<pdfrwt beam="1">  1       21 0.46423309E-02 0.18978640E+03</pdfrwt>
<pdfrwt beam="2">  1       21 0.22586369E+00 0.18978640E+03</pdfrwt>
<totfact> 0.28317870E+04</totfact>
</mgrwt>
</event>
<event>
 4    1  0.4137916E+000  0.3965010E+03  0.7546771E-02  0.1044998E+00
         21   -1    0    0  501  502  0.00000000000E+00  0.00000000000E+00  0.66780744664E+03  0.66780744664E+03  0.00000000000E+00 0.  1.
         21   -1    0    0  502  503 -0.00000000000E+00 -0.00000000000E+00 -0.34620565984E+03  0.34620565984E+03  0.00000000000E+00 0. -1.
          6    1    1    2  501    0  0.11512063312E+03 -0.33768519097E+03  0.44761114195E+03  0.59797055342E+03  0.17300000000E+03 0.  1.
         -6    1    1    2    0  503 -0.11512063312E+03  0.33768519097E+03 -0.12600935516E+03  0.41604255306E+03  0.17300000000E+03 0. -1.
<mgrwt>
<rscale>  2 0.39650101E+03</rscale>
<asrwt>0</asrwt>
<pdfrwt beam="1">  1       21 0.10273961E+00 0.39650101E+03</pdfrwt>
<pdfrwt beam="2">  1       21 0.53262409E-01 0.39650101E+03</pdfrwt>
<totfact> 0.22677422E+03</totfact>
</mgrwt>
</event>
<event>
 4    1  0.4137916E+000  0.1932229E+03  0.7546771E-02  0.1155586E+00
         21   -1    0    0  503  502  0.00000000000E+00  0.00000000000E+00  0.12839618795E+03  0.12839618795E+03  0.00000000000E+00 0.  1.
         21   -1    0    0  501  503 -0.00000000000E+00 -0.00000000000E+00 -0.47206995974E+03  0.47206995974E+03  0.00000000000E+00 0.  1.
          6    1    1    2  501    0 -0.82767227539E+02 -0.23572364248E+02 -0.35789215622E+03  0.40672086963E+03  0.17300000000E+03 0.  1.
         -6    1    1    2    0  502  0.82767227539E+02  0.23572364248E+02  0.14218384432E+02  0.19374527805E+03  0.17300000000E+03 0.  1.
<mgrwt>
<rscale>  2 0.19322285E+03</rscale>
<asrwt>0</asrwt>
<pdfrwt beam="1">  1       21 0.19753260E-01 0.19322285E+03</pdfrwt>
<pdfrwt beam="2">  1       21 0.72626147E-01 0.19322285E+03</pdfrwt>
<totfact> 0.40339632E+04</totfact>
</mgrwt>
</event>
<event>
 4    1  0.4137916E+000  0.1832017E+03  0.7546771E-02  0.1164740E+00
         21   -1    0    0  501  502  0.00000000000E+00  0.00000000000E+00  0.67141514834E+03  0.67141514834E+03  0.00000000000E+00 0.  1.
         21   -1    0    0  502  503 -0.00000000000E+00 -0.00000000000E+00 -0.77712122046E+02  0.77712122046E+02  0.00000000000E+00 0.  1.
          6    1    1    2  501    0  0.54105568711E+02 -0.26578802001E+02  0.52057338196E+03  0.55186908890E+03  0.17300000000E+03 0.  1.
         -6    1    1    2    0  503 -0.54105568711E+02  0.26578802001E+02  0.73129644334E+02  0.19725818148E+03  0.17300000000E+03 0.  1.
<mgrwt>
<rscale>  2 0.18320165E+03</rscale>
<asrwt>0</asrwt>
<pdfrwt beam="1">  1       21 0.10329463E+00 0.18320165E+03</pdfrwt>
<pdfrwt beam="2">  1       21 0.11955712E-01 0.18320165E+03</pdfrwt>
<totfact> 0.45104576E+04</totfact>
</mgrwt>
</event>
<event>
 4    1  0.4137916E+000  0.2329084E+03  0.7546771E-02  0.1124609E+00
         21   -1    0    0  503  502  0.00000000000E+00  0.00000000000E+00  0.15297419087E+03  0.15297419087E+03  0.00000000000E+00 0. -1.
         21   -1    0    0  501  503 -0.00000000000E+00 -0.00000000000E+00 -0.37987790870E+03  0.37987790870E+03  0.00000000000E+00 0.  1.
          6    1    1    2  501    0  0.31607922153E+02  0.15270317127E+03 -0.44740051874E+02  0.23716659019E+03  0.17300000000E+03 0. -1.
         -6    1    1    2    0  502 -0.31607922153E+02 -0.15270317127E+03 -0.18216366596E+03  0.29568550938E+03  0.17300000000E+03 0. -1.
<mgrwt>
<rscale>  2 0.23290839E+03</rscale>
<asrwt>0</asrwt>
<pdfrwt beam="1">  1       21 0.23534491E-01 0.23290839E+03</pdfrwt>
<pdfrwt beam="2">  1       21 0.58442755E-01 0.23290839E+03</pdfrwt>
<totfact> 0.45702118E+04</totfact>
</mgrwt>
</event>
<event>
 4    1  0.4137916E+000  0.1924108E+03  0.7546771E-02  0.1156305E+00
         21   -1    0    0  503  502  0.00000000000E+00  0.00000000000E+00  0.75093640750E+02  0.75093640750E+02  0.00000000000E+00 0. -1.
         21   -1    0    0  501  503 -0.00000000000E+00 -0.00000000000E+00 -0.54527236632E+03  0.54527236632E+03  0.00000000000E+00 0. -1.
          6    1    1    2  501    0  0.53040647718E+02  0.65418621763E+02 -0.13905949965E+03  0.23740145498E+03  0.17300000000E+03 0. -1.
         -6    1    1    2    0  502 -0.53040647718E+02 -0.65418621763E+02 -0.33111922593E+03  0.38296455209E+03  0.17300000000E+03 0. -1.
<mgrwt>
<rscale>  2 0.19241078E+03</rscale>
<asrwt>0</asrwt>
<pdfrwt beam="1">  1       21 0.11552868E-01 0.19241078E+03</pdfrwt>
<pdfrwt beam="2">  1       21 0.83888058E-01 0.19241078E+03</pdfrwt>
<totfact> 0.77562491E+04</totfact>
</mgrwt>
</event>
<event>
 4    1  0.4137916E+000  0.1741509E+03  0.7546771E-02  0.1173587E+00
         21   -1    0    0  503  502  0.00000000000E+00  0.00000000000E+00  0.11090368413E+03  0.11090368413E+03  0.00000000000E+00 0. -1.
         21   -1    0    0  501  503 -0.00000000000E+00 -0.00000000000E+00 -0.28318236751E+03  0.28318236751E+03  0.00000000000E+00 0. -1.
          6    1    1    2  501    0 -0.98599069439E+01  0.17387619743E+02 -0.49643141926E+02  0.18108834481E+03  0.17300000000E+03 0. -1.
         -6    1    1    2    0  502  0.98599069439E+01 -0.17387619743E+02 -0.12263554146E+03  0.21299770683E+03  0.17300000000E+03 0. -1.
<mgrwt>
<rscale>  2 0.17415093E+03</rscale>
<asrwt>0</asrwt>
<pdfrwt beam="1">  1       21 0.17062106E-01 0.17415093E+03</pdfrwt>
<pdfrwt beam="2">  1       21 0.43566517E-01 0.17415093E+03</pdfrwt>
<totfact> 0.15784603E+05</totfact>
</mgrwt>
</event>
<event>
 4    1  0.4137916E+000  0.3205863E+03  0.7546771E-02  0.1075380E+00
         21   -1    0    0  503  502  0.00000000000E+00  0.00000000000E+00  0.43067128420E+03  0.43067128420E+03  0.00000000000E+00 0.  1.
         21   -1    0    0  501  503 -0.00000000000E+00 -0.00000000000E+00 -0.39981594398E+03  0.39981594398E+03  0.00000000000E+00 0.  1.
          6    1    1    2  501    0  0.22638527826E+03  0.14695670890E+03 -0.24821911324E+03  0.40544826635E+03  0.17300000000E+03 0.  1.
         -6    1    1    2    0  502 -0.22638527826E+03 -0.14695670890E+03  0.27907445346E+03  0.42503896184E+03  0.17300000000E+03 0.  1.
<mgrwt>
<rscale>  2 0.32058629E+03</rscale>
<asrwt>0</asrwt>
<pdfrwt beam="1">  1       21 0.66257121E-01 0.32058629E+03</pdfrwt>
<pdfrwt beam="2">  1       21 0.61510145E-01 0.32058629E+03</pdfrwt>
<totfact> 0.47466273E+03</totfact>
</mgrwt>
</event>
<event>
 4    1  0.4137916E+000  0.1865704E+03  0.7546771E-02  0.1161591E+00
         21   -1    0    0  501  502  0.00000000000E+00  0.00000000000E+00  0.64610446109E+03  0.64610446109E+03  0.00000000000E+00 0. -1.
         21   -1    0    0  502  503 -0.00000000000E+00 -0.00000000000E+00 -0.64564972917E+02  0.64564972917E+02  0.00000000000E+00 0. -1.
          6    1    1    2  501    0  0.42645282541E+02  0.55325370438E+02  0.43535992783E+03  0.47365259790E+03  0.17300000000E+03 0. -1.
         -6    1    1    2    0  503 -0.42645282541E+02 -0.55325370438E+02  0.14617956035E+03  0.23701683611E+03  0.17300000000E+03 0. -1.
<mgrwt>
<rscale>  2 0.18657041E+03</rscale>
<asrwt>0</asrwt>
<pdfrwt beam="1">  1       21 0.99400682E-01 0.18657041E+03</pdfrwt>
<pdfrwt beam="2">  1       21 0.99330732E-02 0.18657041E+03</pdfrwt>
<totfact> 0.68568156E+04</totfact>
</mgrwt>
</event>
<event>
 4    1  0.4137916E+000  0.2454018E+03  0.7546771E-02  0.1116246E+00
         21   -1    0    0  503  502  0.00000000000E+00  0.00000000000E+00  0.15003906014E+03  0.15003906014E+03  0.00000000000E+00 0.  1.
         21   -1    0    0  501  503 -0.00000000000E+00 -0.00000000000E+00 -0.48757100548E+03  0.48757100548E+03  0.00000000000E+00 0.  1.
          6    1    1    2  501    0  0.15276953055E+03  0.83393863008E+02 -0.30281000521E+03  0.38976398642E+03  0.17300000000E+03 0.  1.
         -6    1    1    2    0  502 -0.15276953055E+03 -0.83393863008E+02 -0.34721940126E+02  0.24784607921E+03  0.17300000000E+03 0.  1.
<mgrwt>
<rscale>  2 0.24540185E+03</rscale>
<asrwt>0</asrwt>
<pdfrwt beam="1">  1       21 0.23082932E-01 0.24540185E+03</pdfrwt>
<pdfrwt beam="2">  1       21 0.75010925E-01 0.24540185E+03</pdfrwt>
<totfact> 0.27256091E+04</totfact>
</mgrwt>
</event>
<event>
 4    1  0.4137916E+000  0.3209732E+03  0.7546771E-02  0.1075202E+00
         21   -1    0    0  501  502  0.00000000000E+00  0.00000000000E+00  0.68889215300E+03  0.68889215300E+03  0.00000000000E+00 0.  1.
         21   -1    0    0  502  503 -0.00000000000E+00 -0.00000000000E+00 -0.16755553635E+03  0.16755553635E+03  0.00000000000E+00 0. -1.
          6    1    1    2  501    0  0.27023799650E+03 -0.81391206495E+01  0.40104484126E+03  0.51367381161E+03  0.17300000000E+03 0. -1.
         -6    1    1    2    0  503 -0.27023799650E+03  0.81391206495E+01  0.12029177539E+03  0.34277387775E+03  0.17300000000E+03 0.  1.
<mgrwt>
<rscale>  2 0.32097324E+03</rscale>
<asrwt>0</asrwt>
<pdfrwt beam="1">  1       21 0.10598341E+00 0.32097324E+03</pdfrwt>
<pdfrwt beam="2">  1       21 0.25777775E-01 0.32097324E+03</pdfrwt>
<totfact> 0.94949753E+03</totfact>
</mgrwt>
</event>
<event>
 4    1  0.4137916E+000  0.2100321E+03  0.7546771E-02  0.1141541E+00
         21   -1    0    0  503  502  0.00000000000E+00  0.00000000000E+00  0.32490255489E+03  0.32490255489E+03  0.00000000000E+00 0.  1.
         21   -1    0    0  501  503 -0.00000000000E+00 -0.00000000000E+00 -0.21186469381E+03  0.21186469381E+03  0.00000000000E+00 0.  1.
          6    1    1    2  501    0 -0.86083634913E+02 -0.82304985708E+02  0.21735775115E+03  0.30225468542E+03  0.17300000000E+03 0.  1.
         -6    1    1    2    0  502  0.86083634913E+02  0.82304985708E+02 -0.10431989008E+03  0.23451256328E+03  0.17300000000E+03 0.  1.
<mgrwt>
<rscale>  2 0.21003215E+03</rscale>
<asrwt>0</asrwt>
<pdfrwt beam="1">  1       21 0.49985009E-01 0.21003215E+03</pdfrwt>
<pdfrwt beam="2">  1       21 0.32594568E-01 0.21003215E+03</pdfrwt>
<totfact> 0.34221888E+04</totfact>
</mgrwt>
</event>
<event>
 4    1  0.4137916E+000  0.2214099E+03  0.7546771E-02  0.1132836E+00
         21   -1    0    0  503  502  0.00000000000E+00  0.00000000000E+00  0.21529308766E+03  0.21529308766E+03  0.00000000000E+00 0.  1.
         21   -1    0    0  501  503 -0.00000000000E+00 -0.00000000000E+00 -0.46897023174E+03  0.46897023174E+03  0.00000000000E+00 0.  1.
          6    1    1    2  501    0  0.98347277850E+02  0.97062650772E+02 -0.37223714916E+03  0.43310834724E+03  0.17300000000E+03 0.  1.
         -6    1    1    2    0  502 -0.98347277850E+02 -0.97062650772E+02  0.11856000508E+03  0.25115497216E+03  0.17300000000E+03 0.  1.
<mgrwt>
<rscale>  2 0.22140990E+03</rscale>
<asrwt>0</asrwt>
<pdfrwt beam="1">  1       21 0.33122014E-01 0.22140990E+03</pdfrwt>
<pdfrwt beam="2">  1       21 0.72149266E-01 0.22140990E+03</pdfrwt>
<totfact> 0.14941736E+04</totfact>
</mgrwt>
</event>
<event>
 4    1  0.4137916E+000  0.1764641E+03  0.7546771E-02  0.1171270E+00
         21   -1    0    0  503  502  0.00000000000E+00  0.00000000000E+00  0.20980005334E+03  0.20980005334E+03  0.00000000000E+00 0.  1.
         21   -1    0    0  501  503 -0.00000000000E+00 -0.00000000000E+00 -0.15058737515E+03  0.15058737515E+03  0.00000000000E+00 0.  1.
          6    1    1    2  501    0  0.30592317461E+02 -0.16573887670E+02  0.80136991324E+01  0.17664598216E+03  0.17300000000E+03 0.  1.
         -6    1    1    2    0  502 -0.30592317461E+02  0.16573887670E+02  0.51198979062E+02  0.18374144632E+03  0.17300000000E+03 0.  1.
<mgrwt>
<rscale>  2 0.17646411E+03</rscale>
<asrwt>0</asrwt>
<pdfrwt beam="1">  1       21 0.32276931E-01 0.17646411E+03</pdfrwt>
<pdfrwt beam="2">  1       21 0.23167288E-01 0.17646411E+03</pdfrwt>
<totfact> 0.16248485E+05</totfact>
</mgrwt>
</event>
<event>
 4    1  0.4137916E+000  0.2235351E+03  0.7546771E-02  0.1131275E+00
         21   -1    0    0  501  502  0.00000000000E+00  0.00000000000E+00  0.90942987297E+03  0.90942987297E+03  0.00000000000E+00 0.  1.
         21   -1    0    0  502  503 -0.00000000000E+00 -0.00000000000E+00 -0.69073893611E+02  0.69073893611E+02  0.00000000000E+00 0. -1.
          6    1    1    2  501    0  0.13368559166E+03 -0.46552165645E+02  0.64145747574E+03  0.67929053779E+03  0.17300000000E+03 0.  1.
         -6    1    1    2    0  503 -0.13368559166E+03  0.46552165645E+02  0.19889850361E+03  0.29921322879E+03  0.17300000000E+03 0. -1.
<mgrwt>
<rscale>  2 0.22353510E+03</rscale>
<asrwt>0</asrwt>
<pdfrwt beam="1">  1       21 0.13991228E+00 0.22353510E+03</pdfrwt>
<pdfrwt beam="2">  1       21 0.10626753E-01 0.22353510E+03</pdfrwt>
<totfact> 0.25630137E+04</totfact>
</mgrwt>
</event>
<event>
 4    1  0.4137916E+000  0.1762059E+03  0.7546771E-02  0.1171526E+00
         21   -1    0    0  501  502  0.00000000000E+00  0.00000000000E+00  0.76051484407E+03  0.76051484407E+03  0.00000000000E+00 0. -1.
         21   -1    0    0  502  503 -0.00000000000E+00 -0.00000000000E+00 -0.52568463945E+02  0.52568463945E+02  0.00000000000E+00 0. -1.
          6    1    1    2  501    0 -0.32070565693E+02 -0.95400466679E+01  0.54611770425E+03  0.57384064040E+03  0.17300000000E+03 0. -1.
         -6    1    1    2    0  503  0.32070565693E+02  0.95400466679E+01  0.16182867587E+03  0.23924266762E+03  0.17300000000E+03 0. -1.
<mgrwt>
<rscale>  2 0.17620594E+03</rscale>
<asrwt>0</asrwt>
<pdfrwt beam="1">  1       21 0.11700228E+00 0.17620594E+03</pdfrwt>
<pdfrwt beam="2">  1       21 0.80874566E-02 0.17620594E+03</pdfrwt>
<totfact> 0.66712247E+04</totfact>
</mgrwt>
</event>
<event>
 4    1  0.4137916E+000  0.2477728E+03  0.7546771E-02  0.1114720E+00
         21   -1    0    0  503  502  0.00000000000E+00  0.00000000000E+00  0.94048451181E+02  0.94048451181E+02  0.00000000000E+00 0.  1.
         21   -1    0    0  501  503 -0.00000000000E+00 -0.00000000000E+00 -0.65698579589E+03  0.65698579589E+03  0.00000000000E+00 0.  1.
          6    1    1    2  501    0  0.70310217082E+02  0.16284604792E+03 -0.25136324508E+03  0.35295161556E+03  0.17300000000E+03 0.  1.
         -6    1    1    2    0  502 -0.70310217082E+02 -0.16284604792E+03 -0.31157409962E+03  0.39808263150E+03  0.17300000000E+03 0.  1.
<mgrwt>
<rscale>  2 0.24777280E+03</rscale>
<asrwt>0</asrwt>
<pdfrwt beam="1">  1       21 0.14468992E-01 0.24777280E+03</pdfrwt>
<pdfrwt beam="2">  1       21 0.10107474E+00 0.24777280E+03</pdfrwt>
<totfact> 0.32583105E+04</totfact>
</mgrwt>
</event>
<event>
 4    1  0.4137916E+000  0.2378089E+03  0.7546771E-02  0.1121261E+00
         21   -1    0    0  501  502  0.00000000000E+00  0.00000000000E+00  0.15425855157E+03  0.15425855157E+03  0.00000000000E+00 0.  1.
         21   -1    0    0  502  503 -0.00000000000E+00 -0.00000000000E+00 -0.39453010369E+03  0.39453010369E+03  0.00000000000E+00 0.  1.
          6    1    1    2  501    0 -0.15369215216E+03  0.54797613675E+02 -0.47143483245E+02  0.24243672187E+03  0.17300000000E+03 0.  1.
         -6    1    1    2    0  503  0.15369215216E+03 -0.54797613675E+02 -0.19312806888E+03  0.30635193338E+03  0.17300000000E+03 0.  1.
<mgrwt>
<rscale>  2 0.23780886E+03</rscale>
<asrwt>0</asrwt>
<pdfrwt beam="1">  1       21 0.23732085E-01 0.23780886E+03</pdfrwt>
<pdfrwt beam="2">  1       21 0.60696938E-01 0.23780886E+03</pdfrwt>
<totfact> 0.41367370E+04</totfact>
</mgrwt>
</event>
<event>
 4    1  0.4137916E+000  0.1831568E+03  0.7546771E-02  0.1164782E+00
         21   -1    0    0  501  502  0.00000000000E+00  0.00000000000E+00  0.52319418336E+02  0.52319418336E+02  0.00000000000E+00 0. -1.
         21   -1    0    0  502  503 -0.00000000000E+00 -0.00000000000E+00 -0.78638079349E+03  0.78638079349E+03  0.00000000000E+00 0. -1.
          6    1    1    2  501    0  0.38838236346E+02  0.45923775409E+02 -0.18683764203E+03  0.26163850296E+03  0.17300000000E+03 0. -1.
         -6    1    1    2    0  503 -0.38838236346E+02 -0.45923775409E+02 -0.54722373312E+03  0.57706170887E+03  0.17300000000E+03 0. -1.
<mgrwt>
<rscale>  2 0.18315677E+03</rscale>
<asrwt>0</asrwt>
<pdfrwt beam="1">  1       21 0.80491410E-02 0.18315677E+03</pdfrwt>
<pdfrwt beam="2">  1       21 0.12098166E+00 0.18315677E+03</pdfrwt>
<totfact> 0.61733238E+04</totfact>
</mgrwt>
</event>
<event>
 4    1  0.4137916E+000  0.4007297E+03  0.7546771E-02  0.1043527E+00
         21   -1    0    0  503  502  0.00000000000E+00  0.00000000000E+00  0.78818237469E+03  0.78818237469E+03  0.00000000000E+00 0. -1.
         21   -1    0    0  501  503 -0.00000000000E+00 -0.00000000000E+00 -0.42679015643E+03  0.42679015643E+03  0.00000000000E+00 0.  1.
          6    1    1    2  501    0 -0.29317578378E+03 -0.21143134384E+03 -0.25847176352E+03  0.47685627383E+03  0.17300000000E+03 0.  1.
         -6    1    1    2    0  502  0.29317578378E+03  0.21143134384E+03  0.61986398179E+03  0.73811625729E+03  0.17300000000E+03 0. -1.
<mgrwt>
<rscale>  2 0.40072965E+03</rscale>
<asrwt>0</asrwt>
<pdfrwt beam="1">  1       21 0.12125883E+00 0.40072965E+03</pdfrwt>
<pdfrwt beam="2">  1       21 0.65660024E-01 0.40072965E+03</pdfrwt>
<totfact> 0.95029052E+02</totfact>
</mgrwt>
</event>
<event>
 4    1  0.4137916E+000  0.1827118E+03  0.7546771E-02  0.1165204E+00
         21   -1    0    0  503  502  0.00000000000E+00  0.00000000000E+00  0.57281523062E+02  0.57281523062E+02  0.00000000000E+00 0.  1.
         21   -1    0    0  501  503 -0.00000000000E+00 -0.00000000000E+00 -0.59804110642E+03  0.59804110642E+03  0.00000000000E+00 0. -1.
          6    1    1    2  501    0 -0.44047107779E+02  0.38916219161E+02 -0.21807026523E+03  0.28449650331E+03  0.17300000000E+03 0. -1.
         -6    1    1    2    0  502  0.44047107779E+02 -0.38916219161E+02 -0.32268931813E+03  0.37082612617E+03  0.17300000000E+03 0. -1.
<mgrwt>
<rscale>  2 0.18271185E+03</rscale>
<asrwt>0</asrwt>
<pdfrwt beam="1">  1       21 0.88125417E-02 0.18271185E+03</pdfrwt>
<pdfrwt beam="2">  1       21 0.92006327E-01 0.18271185E+03</pdfrwt>
<totfact> 0.10157492E+05</totfact>
</mgrwt>
</event>
<event>
 4    1  0.4137916E+000  0.2052068E+03  0.7546771E-02  0.1145419E+00
         21   -1    0    0  501  502  0.00000000000E+00  0.00000000000E+00  0.68894483667E+02  0.68894483667E+02  0.00000000000E+00 0. -1.
         21   -1    0    0  502  503 -0.00000000000E+00 -0.00000000000E+00 -0.16154412233E+04  0.16154412233E+04  0.00000000000E+00 0. -1.
          6    1    1    2  501    0 -0.10128896048E+03 -0.43833710886E+02 -0.10927460658E+03  0.23248825211E+03  0.17300000000E+03 0. -1.
         -6    1    1    2    0  503  0.10128896048E+03  0.43833710886E+02 -0.14372721331E+04  0.14518474549E+04  0.17300000000E+03 0. -1.
<mgrwt>
<rscale>  2 0.20520684E+03</rscale>
<asrwt>0</asrwt>
<pdfrwt beam="1">  1       21 0.10599153E-01 0.20520684E+03</pdfrwt>
<pdfrwt beam="2">  1       21 0.24852939E+00 0.20520684E+03</pdfrwt>
<totfact> 0.49026612E+03</totfact>
</mgrwt>
</event>
<event>
 4    1  0.4137916E+000  0.2411400E+03  0.7546771E-02  0.1119036E+00
         21   -1    0    0  503  502  0.00000000000E+00  0.00000000000E+00  0.56783500814E+03  0.56783500814E+03  0.00000000000E+00 0.  1.
         21   -1    0    0  501  503 -0.00000000000E+00 -0.00000000000E+00 -0.20216350696E+03  0.20216350696E+03  0.00000000000E+00 0.  1.
          6    1    1    2  501    0  0.11405357568E+03 -0.12333397431E+03 -0.87613634402E+02  0.25656312338E+03  0.17300000000E+03 0.  1.
         -6    1    1    2    0  502 -0.11405357568E+03  0.12333397431E+03  0.45328513558E+03  0.51343539173E+03  0.17300000000E+03 0.  1.
<mgrwt>
<rscale>  2 0.24113997E+03</rscale>
<asrwt>0</asrwt>
<pdfrwt beam="1">  1       21 0.87359231E-01 0.24113997E+03</pdfrwt>
<pdfrwt beam="2">  1       21 0.31102078E-01 0.24113997E+03</pdfrwt>
<totfact> 0.10836940E+04</totfact>
</mgrwt>
</event>
<event>
 4    1  0.4137916E+000  0.2830108E+03  0.7546771E-02  0.1094056E+00
         21   -1    0    0  501  502  0.00000000000E+00  0.00000000000E+00  0.98704049032E+03  0.98704049032E+03  0.00000000000E+00 0. -1.
         21   -1    0    0  502  503 -0.00000000000E+00 -0.00000000000E+00 -0.81215714801E+02  0.81215714801E+02  0.00000000000E+00 0. -1.
          6    1    1    2  501    0 -0.28330311844E+02 -0.22217894035E+03  0.43734319576E+03  0.52092625100E+03  0.17300000000E+03 0. -1.
         -6    1    1    2    0  503  0.28330311844E+02  0.22217894035E+03  0.46848157976E+03  0.54732995412E+03  0.17300000000E+03 0. -1.
<mgrwt>
<rscale>  2 0.28301076E+03</rscale>
<asrwt>0</asrwt>
<pdfrwt beam="1">  1       21 0.15185237E+00 0.28301076E+03</pdfrwt>
<pdfrwt beam="2">  1       21 0.12494726E-01 0.28301076E+03</pdfrwt>
<totfact> 0.14959619E+04</totfact>
</mgrwt>
</event>
<event>
 4    1  0.4137916E+000  0.2997502E+03  0.7546771E-02  0.1085366E+00
         21   -1    0    0  501  502  0.00000000000E+00  0.00000000000E+00  0.11264781582E+03  0.11264781582E+03  0.00000000000E+00 0.  1.
         21   -1    0    0  502  503 -0.00000000000E+00 -0.00000000000E+00 -0.82981909563E+03  0.82981909563E+03  0.00000000000E+00 0.  1.
          6    1    1    2  501    0 -0.10267408593E+02 -0.24457256359E+03 -0.45141081570E+03  0.54186887996E+03  0.17300000000E+03 0.  1.
         -6    1    1    2    0  503  0.10267408593E+02  0.24457256359E+03 -0.26576046412E+03  0.40059803149E+03  0.17300000000E+03 0.  1.
<mgrwt>
<rscale>  2 0.29975016E+03</rscale>
<asrwt>0</asrwt>
<pdfrwt beam="1">  1       21 0.17330434E-01 0.29975016E+03</pdfrwt>
<pdfrwt beam="2">  1       21 0.12766447E+00 0.29975016E+03</pdfrwt>
<totfact> 0.12813404E+04</totfact>
</mgrwt>
</event>
<event>
 4    1  0.4137916E+000  0.2021255E+03  0.7546771E-02  0.1147958E+00
         21   -1    0    0  501  502  0.00000000000E+00  0.00000000000E+00  0.21739963878E+03  0.21739963878E+03  0.00000000000E+00 0. -1.
         21   -1    0    0  502  503 -0.00000000000E+00 -0.00000000000E+00 -0.14713515792E+04  0.14713515792E+04  0.00000000000E+00 0.  1.
          6    1    1    2  501    0  0.34136905545E+02  0.98794686987E+02  0.16163542610E+03  0.25880635515E+03  0.17300000000E+03 0. -1.
         -6    1    1    2    0  503 -0.34136905545E+02 -0.98794686987E+02 -0.14155873665E+04  0.14299448628E+04  0.17300000000E+03 0.  1.
<mgrwt>
<rscale>  2 0.20212550E+03</rscale>
<asrwt>0</asrwt>
<pdfrwt beam="1">  1       21 0.33446098E-01 0.20212550E+03</pdfrwt>
<pdfrwt beam="2">  1       21 0.22636178E+00 0.20212550E+03</pdfrwt>
<totfact> 0.78316832E+02</totfact>
</mgrwt>
</event>
<event>
 4    1  0.4137916E+000  0.2707672E+03  0.7546771E-02  0.1100841E+00
         21   -1    0    0  501  502  0.00000000000E+00  0.00000000000E+00  0.21633270784E+03  0.21633270784E+03  0.00000000000E+00 0. -1.
         21   -1    0    0  502  503 -0.00000000000E+00 -0.00000000000E+00 -0.34579761639E+03  0.34579761639E+03  0.00000000000E+00 0. -1.
          6    1    1    2  501    0  0.15816608828E+03 -0.13553370448E+03 -0.25033130959E+02  0.27192196339E+03  0.17300000000E+03 0. -1.
         -6    1    1    2    0  503 -0.15816608828E+03  0.13553370448E+03 -0.10443177759E+03  0.29020836084E+03  0.17300000000E+03 0. -1.
<mgrwt>
<rscale>  2 0.27076724E+03</rscale>
<asrwt>0</asrwt>
<pdfrwt beam="1">  1       21 0.33281955E-01 0.27076724E+03</pdfrwt>
<pdfrwt beam="2">  1       21 0.53199633E-01 0.27076724E+03</pdfrwt>
<totfact> 0.28003668E+04</totfact>
</mgrwt>
</event>
<event>
 4    1  0.4137916E+000  0.1758761E+03  0.7546771E-02  0.1171855E+00
         21   -1    0    0  503  502  0.00000000000E+00  0.00000000000E+00  0.42265117670E+03  0.42265117670E+03  0.00000000000E+00 0.  1.
         21   -1    0    0  501  503 -0.00000000000E+00 -0.00000000000E+00 -0.34626277642E+03  0.34626277642E+03  0.00000000000E+00 0.  1.
          6    1    1    2  501    0  0.95432847759E+01 -0.30204497051E+02 -0.30322408824E+03  0.35053849092E+03  0.17300000000E+03 0.  1.
         -6    1    1    2    0  502 -0.95432847759E+01  0.30204497051E+02  0.37961248852E+03  0.41837546220E+03  0.17300000000E+03 0.  1.
<mgrwt>
<rscale>  2 0.17587605E+03</rscale>
<asrwt>0</asrwt>
<pdfrwt beam="1">  1       21 0.65023257E-01 0.17587605E+03</pdfrwt>
<pdfrwt beam="2">  1       21 0.53271197E-01 0.17587605E+03</pdfrwt>
<totfact> 0.73578905E+03</totfact>
</mgrwt>
</event>
<event>
 4    1  0.4137916E+000  0.2752025E+03  0.7546771E-02  0.1098338E+00
         21   -1    0    0  503  502  0.00000000000E+00  0.00000000000E+00  0.16031422926E+03  0.16031422926E+03  0.00000000000E+00 0.  1.
         21   -1    0    0  501  503 -0.00000000000E+00 -0.00000000000E+00 -0.49292619535E+03  0.49292619535E+03  0.00000000000E+00 0. -1.
          6    1    1    2  501    0  0.72462909021E+02  0.20138660300E+03 -0.23291645931E+03  0.36053642545E+03  0.17300000000E+03 0.  1.
         -6    1    1    2    0  502 -0.72462909021E+02 -0.20138660300E+03 -0.99695506777E+02  0.29270399916E+03  0.17300000000E+03 0.  1.
<mgrwt>
<rscale>  2 0.27520254E+03</rscale>
<asrwt>0</asrwt>
<pdfrwt beam="1">  1       21 0.24663728E-01 0.27520254E+03</pdfrwt>
<pdfrwt beam="2">  1       21 0.75834799E-01 0.27520254E+03</pdfrwt>
<totfact> 0.23117735E+04</totfact>
</mgrwt>
</event>
<event>
 4    1  0.4137916E+000  0.2287224E+03  0.7546771E-02  0.1127542E+00
         21   -1    0    0  503  502  0.00000000000E+00  0.00000000000E+00  0.31332361077E+03  0.31332361077E+03  0.00000000000E+00 0. -1.
         21   -1    0    0  501  503 -0.00000000000E+00 -0.00000000000E+00 -0.19142350289E+03  0.19142350289E+03  0.00000000000E+00 0. -1.
          6    1    1    2  501    0  0.48904836211E+02  0.14139756779E+03 -0.29262005302E+02  0.23058668682E+03  0.17300000000E+03 0. -1.
         -6    1    1    2    0  502 -0.48904836211E+02 -0.14139756779E+03  0.15116211318E+03  0.27416042684E+03  0.17300000000E+03 0. -1.
<mgrwt>
<rscale>  2 0.22872244E+03</rscale>
<asrwt>0</asrwt>
<pdfrwt beam="1">  1       21 0.48203632E-01 0.22872244E+03</pdfrwt>
<pdfrwt beam="2">  1       21 0.29449770E-01 0.22872244E+03</pdfrwt>
<totfact> 0.44645306E+04</totfact>
</mgrwt>
</event>
<event>
 4    1  0.4137916E+000  0.1833265E+03  0.7546771E-02  0.1164622E+00
         21   -1    0    0  503  502  0.00000000000E+00  0.00000000000E+00  0.89985665547E+02  0.89985665547E+02  0.00000000000E+00 0. -1.
         21   -1    0    0  501  503 -0.00000000000E+00 -0.00000000000E+00 -0.56756815990E+03  0.56756815990E+03  0.00000000000E+00 0. -1.
          6    1    1    2  501    0  0.14462723178E+02  0.58910492456E+02 -0.43104828523E+03  0.46841353597E+03  0.17300000000E+03 0. -1.
         -6    1    1    2    0  502 -0.14462723178E+02 -0.58910492456E+02 -0.46534209121E+02  0.18914028947E+03  0.17300000000E+03 0. -1.
<mgrwt>
<rscale>  2 0.18332653E+03</rscale>
<asrwt>0</asrwt>
<pdfrwt beam="1">  1       21 0.13843948E-01 0.18332653E+03</pdfrwt>
<pdfrwt beam="2">  1       21 0.87318180E-01 0.18332653E+03</pdfrwt>
<totfact> 0.51347818E+04</totfact>
</mgrwt>
</event>
<event>
 4    1  0.4137916E+000  0.2044253E+03  0.7546771E-02  0.1146058E+00
         21   -1    0    0  503  502  0.00000000000E+00  0.00000000000E+00  0.27697795489E+02  0.27697795489E+02  0.00000000000E+00 0.  1.
         21   -1    0    0  501  503 -0.00000000000E+00 -0.00000000000E+00 -0.15371136927E+04  0.15371136927E+04  0.00000000000E+00 0. -1.
          6    1    1    2  501    0  0.10780292833E+03  0.15467117851E+02 -0.86094586276E+03  0.88488275026E+03  0.17300000000E+03 0. -1.
         -6    1    1    2    0  502 -0.10780292833E+03 -0.15467117851E+02 -0.64847003445E+03  0.67992873794E+03  0.17300000000E+03 0. -1.
<mgrwt>
<rscale>  2 0.20442530E+03</rscale>
<asrwt>0</asrwt>
<pdfrwt beam="1">  1       21 0.42611994E-02 0.20442530E+03</pdfrwt>
<pdfrwt beam="2">  1       21 0.23647902E+00 0.20442530E+03</pdfrwt>
<totfact> 0.27913273E+04</totfact>
</mgrwt>
</event>
<event>
 4    1  0.4137916E+000  0.1997531E+03  0.7546771E-02  0.1149947E+00
         21   -1    0    0  503  502  0.00000000000E+00  0.00000000000E+00  0.14363209042E+04  0.14363209042E+04  0.00000000000E+00 0.  1.
         21   -1    0    0  501  503 -0.00000000000E+00 -0.00000000000E+00 -0.56108267945E+02  0.56108267945E+02  0.00000000000E+00 0.  1.
          6    1    1    2  501    0  0.82575641973E+02 -0.56156582977E+02  0.15988315960E+03  0.25585918624E+03  0.17300000000E+03 0.  1.
         -6    1    1    2    0  502 -0.82575641973E+02  0.56156582977E+02  0.12203294767E+04  0.12365699859E+04  0.17300000000E+03 0.  1.
<mgrwt>
<rscale>  2 0.19975309E+03</rscale>
<asrwt>0</asrwt>
<pdfrwt beam="1">  1       21 0.22097242E+00 0.19975309E+03</pdfrwt>
<pdfrwt beam="2">  1       21 0.86320423E-02 0.19975309E+03</pdfrwt>
<totfact> 0.10362980E+04</totfact>
</mgrwt>
</event>
<event>
 4    1  0.4137916E+000  0.1905193E+03  0.7546771E-02  0.1157994E+00
         21   -1    0    0  503  502  0.00000000000E+00  0.00000000000E+00  0.46334218983E+02  0.46334218983E+02  0.00000000000E+00 0. -1.
         21   -1    0    0  501  503 -0.00000000000E+00 -0.00000000000E+00 -0.94464656460E+03  0.94464656460E+03  0.00000000000E+00 0. -1.
          6    1    1    2  501    0  0.79803368072E+02 -0.12988528468E+00 -0.65387801785E+03  0.68106832011E+03  0.17300000000E+03 0. -1.
         -6    1    1    2    0  502 -0.79803368072E+02  0.12988528468E+00 -0.24443432776E+03  0.30991246347E+03  0.17300000000E+03 0. -1.
<mgrwt>
<rscale>  2 0.19051928E+03</rscale>
<asrwt>0</asrwt>
<pdfrwt beam="1">  1       21 0.71283415E-02 0.19051928E+03</pdfrwt>
<pdfrwt beam="2">  1       21 0.14533024E+00 0.19051928E+03</pdfrwt>
<totfact> 0.47660341E+04</totfact>
</mgrwt>
</event>
<event>
 4    1  0.4137916E+000  0.3338981E+03  0.7546771E-02  0.1069425E+00
         21   -1    0    0  503  502  0.00000000000E+00  0.00000000000E+00  0.14405929476E+03  0.14405929476E+03  0.00000000000E+00 0. -1.
         21   -1    0    0  501  503 -0.00000000000E+00 -0.00000000000E+00 -0.10132612851E+04  0.10132612851E+04  0.00000000000E+00 0.  1.
          6    1    1    2  501    0 -0.19237803847E+03  0.21106778450E+03 -0.15335445110E+03  0.36743095544E+03  0.17300000000E+03 0. -1.
         -6    1    1    2    0  502  0.19237803847E+03 -0.21106778450E+03 -0.71584753920E+03  0.78988962439E+03  0.17300000000E+03 0.  1.
<mgrwt>
<rscale>  2 0.33389807E+03</rscale>
<asrwt>0</asrwt>
<pdfrwt beam="1">  1       21 0.22162969E-01 0.33389807E+03</pdfrwt>
<pdfrwt beam="2">  1       21 0.15588635E+00 0.33389807E+03</pdfrwt>
<totfact> 0.46853850E+03</totfact>
</mgrwt>
</event>
<event>
 4    1  0.4137916E+000  0.2268807E+03  0.7546771E-02  0.1128855E+00
         21   -1    0    0  503  502  0.00000000000E+00  0.00000000000E+00  0.61180029621E+03  0.61180029621E+03  0.00000000000E+00 0. -1.
         21   -1    0    0  501  503 -0.00000000000E+00 -0.00000000000E+00 -0.24021641968E+03  0.24021641968E+03  0.00000000000E+00 0. -1.
          6    1    1    2  501    0 -0.71277203313E+01  0.14661193533E+03 -0.15759992432E+03  0.27624735315E+03  0.17300000000E+03 0. -1.
         -6    1    1    2    0  502  0.71277203313E+01 -0.14661193533E+03  0.52918380085E+03  0.57576936273E+03  0.17300000000E+03 0. -1.
<mgrwt>
<rscale>  2 0.22688073E+03</rscale>
<asrwt>0</asrwt>
<pdfrwt beam="1">  1       21 0.94123122E-01 0.22688073E+03</pdfrwt>
<pdfrwt beam="2">  1       21 0.36956372E-01 0.22688073E+03</pdfrwt>
<totfact> 0.65224365E+03</totfact>
</mgrwt>
</event>
<event>
 4    1  0.4137916E+000  0.2100103E+03  0.7546771E-02  0.1141558E+00
         21   -1    0    0  501  502  0.00000000000E+00  0.00000000000E+00  0.88275562240E+02  0.88275562240E+02  0.00000000000E+00 0. -1.
         21   -1    0    0  502  503 -0.00000000000E+00 -0.00000000000E+00 -0.59394318667E+03  0.59394318667E+03  0.00000000000E+00 0. -1.
          6    1    1    2  501    0  0.76372026679E+02  0.91337973322E+02 -0.11689969599E+03  0.24035359525E+03  0.17300000000E+03 0. -1.
         -6    1    1    2    0  503 -0.76372026679E+02 -0.91337973322E+02 -0.38876792845E+03  0.44186515366E+03  0.17300000000E+03 0. -1.
<mgrwt>
<rscale>  2 0.21001027E+03</rscale>
<asrwt>0</asrwt>
<pdfrwt beam="1">  1       21 0.13580855E-01 0.21001027E+03</pdfrwt>
<pdfrwt beam="2">  1       21 0.91375877E-01 0.21001027E+03</pdfrwt>
<totfact> 0.47229351E+04</totfact>
</mgrwt>
</event>
<event>
 4    1  0.4137916E+000  0.2061622E+03  0.7546771E-02  0.1144642E+00
         21   -1    0    0  501  502  0.00000000000E+00  0.00000000000E+00  0.69493186241E+02  0.69493186241E+02  0.00000000000E+00 0. -1.
         21   -1    0    0  502  503 -0.00000000000E+00 -0.00000000000E+00 -0.90520924336E+03  0.90520924336E+03  0.00000000000E+00 0. -1.
          6    1    1    2  501    0  0.85315980774E+02 -0.72767129335E+02 -0.14030658156E+03  0.24937684038E+03  0.17300000000E+03 0. -1.
         -6    1    1    2    0  503 -0.85315980774E+02  0.72767129335E+02 -0.69540947555E+03  0.72532558922E+03  0.17300000000E+03 0. -1.
<mgrwt>
<rscale>  2 0.20616225E+03</rscale>
<asrwt>0</asrwt>
<pdfrwt beam="1">  1       21 0.10691260E-01 0.20616225E+03</pdfrwt>
<pdfrwt beam="2">  1       21 0.13926296E+00 0.20616225E+03</pdfrwt>
<totfact> 0.25928995E+04</totfact>
</mgrwt>
</event>
<event>
 4    1  0.4137916E+000  0.2312886E+03  0.7546771E-02  0.1125736E+00
         21   -1    0    0  501  502  0.00000000000E+00  0.00000000000E+00  0.71205948094E+02  0.71205948094E+02  0.00000000000E+00 0. -1.
         21   -1    0    0  502  503 -0.00000000000E+00 -0.00000000000E+00 -0.11917942413E+04  0.11917942413E+04  0.00000000000E+00 0. -1.
          6    1    1    2  501    0  0.14372682138E+03 -0.53926053774E+02 -0.17635626255E+03  0.29085382892E+03  0.17300000000E+03 0. -1.
         -6    1    1    2    0  503 -0.14372682138E+03  0.53926053774E+02 -0.94423203062E+03  0.97214636044E+03  0.17300000000E+03 0. -1.
<mgrwt>
<rscale>  2 0.23128860E+03</rscale>
<asrwt>0</asrwt>
<pdfrwt beam="1">  1       21 0.10954763E-01 0.23128860E+03</pdfrwt>
<pdfrwt beam="2">  1       21 0.18335294E+00 0.23128860E+03</pdfrwt>
<totfact> 0.11583200E+04</totfact>
</mgrwt>
</event>
<event>
 4    1  0.4137916E+000  0.1855161E+03  0.7546771E-02  0.1162569E+00
         21   -1    0    0  503  502  0.00000000000E+00  0.00000000000E+00  0.62983149336E+02  0.62983149336E+02  0.00000000000E+00 0. -1.
         21   -1    0    0  501  503 -0.00000000000E+00 -0.00000000000E+00 -0.10320822795E+04  0.10320822795E+04  0.00000000000E+00 0. -1.
          6    1    1    2  501    0 -0.61873589077E+02 -0.25668616236E+02 -0.86013888841E+03  0.87991768152E+03  0.17300000000E+03 0. -1.
         -6    1    1    2    0  502  0.61873589077E+02  0.25668616236E+02 -0.10896024171E+03  0.21514774728E+03  0.17300000000E+03 0. -1.
<mgrwt>
<rscale>  2 0.18551609E+03</rscale>
<asrwt>0</asrwt>
<pdfrwt beam="1">  1       21 0.96897148E-02 0.18551609E+03</pdfrwt>
<pdfrwt beam="2">  1       21 0.15878190E+00 0.18551609E+03</pdfrwt>
<totfact> 0.22147336E+04</totfact>
</mgrwt>
</event>
<event>
 4    1  0.4137916E+000  0.2084976E+03  0.7546771E-02  0.1142761E+00
         21   -1    0    0  503  502  0.00000000000E+00  0.00000000000E+00  0.39392543784E+03  0.39392543784E+03  0.00000000000E+00 0.  1.
         21   -1    0    0  501  503 -0.00000000000E+00 -0.00000000000E+00 -0.36362900666E+03  0.36362900666E+03  0.00000000000E+00 0.  1.
          6    1    1    2  501    0 -0.86579453863E+02 -0.77757650236E+02 -0.30097089343E+03  0.36613485588E+03  0.17300000000E+03 0.  1.
         -6    1    1    2    0  502  0.86579453863E+02  0.77757650236E+02  0.33126732461E+03  0.39141958862E+03  0.17300000000E+03 0.  1.
<mgrwt>
<rscale>  2 0.20849761E+03</rscale>
<asrwt>0</asrwt>
<pdfrwt beam="1">  1       21 0.60603913E-01 0.20849761E+03</pdfrwt>
<pdfrwt beam="2">  1       21 0.55942924E-01 0.20849761E+03</pdfrwt>
<totfact> 0.75442738E+03</totfact>
</mgrwt>
</event>
<event>
 4    1  0.4137916E+000  0.2207106E+03  0.7546771E-02  0.1133354E+00
         21   -1    0    0  501  502  0.00000000000E+00  0.00000000000E+00  0.57802416733E+03  0.57802416733E+03  0.00000000000E+00 0.  1.
         21   -1    0    0  502  503 -0.00000000000E+00 -0.00000000000E+00 -0.93066218942E+02  0.93066218942E+02  0.00000000000E+00 0.  1.
          6    1    1    2  501    0  0.13464392733E+03  0.25596135548E+02  0.34560602202E+03  0.41006910610E+03  0.17300000000E+03 0.  1.
         -6    1    1    2    0  503 -0.13464392733E+03 -0.25596135548E+02  0.13935192637E+03  0.26102128017E+03  0.17300000000E+03 0.  1.
<mgrwt>
<rscale>  2 0.22071056E+03</rscale>
<asrwt>0</asrwt>
<pdfrwt beam="1">  1       21 0.88926793E-01 0.22071056E+03</pdfrwt>
<pdfrwt beam="2">  1       21 0.14317880E-01 0.22071056E+03</pdfrwt>
<totfact> 0.45468386E+04</totfact>
</mgrwt>
</event>
<event>
 4    1  0.4137916E+000  0.1776401E+03  0.7546771E-02  0.1170107E+00
         21   -1    0    0  501  502  0.00000000000E+00  0.00000000000E+00  0.41536145602E+03  0.41536145602E+03  0.00000000000E+00 0.  1.
         21   -1    0    0  502  503 -0.00000000000E+00 -0.00000000000E+00 -0.11739220940E+03  0.11739220940E+03  0.00000000000E+00 0.  1.
          6    1    1    2  501    0 -0.11354498121E+02  0.38704907755E+02  0.30721177644E+03  0.35487331555E+03  0.17300000000E+03 0.  1.
         -6    1    1    2    0  503  0.11354498121E+02 -0.38704907755E+02 -0.92425298107E+01  0.17788034987E+03  0.17300000000E+03 0.  1.
<mgrwt>
<rscale>  2 0.17764007E+03</rscale>
<asrwt>0</asrwt>
<pdfrwt beam="1">  1       21 0.63901762E-01 0.17764007E+03</pdfrwt>
<pdfrwt beam="2">  1       21 0.18060340E-01 0.17764007E+03</pdfrwt>
<totfact> 0.63531710E+04</totfact>
</mgrwt>
</event>
<event>
 4    1  0.4137916E+000  0.1794577E+03  0.7546771E-02  0.1168329E+00
         21   -1    0    0  501  502  0.00000000000E+00  0.00000000000E+00  0.18855723890E+03  0.18855723890E+03  0.00000000000E+00 0.  1.
         21   -1    0    0  502  503 -0.00000000000E+00 -0.00000000000E+00 -0.17689371832E+03  0.17689371832E+03  0.00000000000E+00 0.  1.
          6    1    1    2  501    0 -0.35003084449E+02 -0.32417038296E+02  0.39753477396E+02  0.18380810444E+03  0.17300000000E+03 0.  1.
         -6    1    1    2    0  503  0.35003084449E+02  0.32417038296E+02 -0.28089956807E+02  0.18164285278E+03  0.17300000000E+03 0.  1.
<mgrwt>
<rscale>  2 0.17945774E+03</rscale>
<asrwt>0</asrwt>
<pdfrwt beam="1">  1       21 0.29008806E-01 0.17945774E+03</pdfrwt>
<pdfrwt beam="2">  1       21 0.27214418E-01 0.17945774E+03</pdfrwt>
<totfact> 0.14705348E+05</totfact>
</mgrwt>
</event>
<event>
 4    1  0.4137916E+000  0.3439394E+03  0.7546771E-02  0.1065130E+00
         21   -1    0    0  501  502  0.00000000000E+00  0.00000000000E+00  0.86820637662E+02  0.86820637662E+02  0.00000000000E+00 0.  1.
         21   -1    0    0  502  503 -0.00000000000E+00 -0.00000000000E+00 -0.13755989538E+04  0.13755989538E+04  0.00000000000E+00 0. -1.
          6    1    1    2  501    0 -0.41306777563E+02 -0.29437908413E+03 -0.57307271363E+03  0.66836115248E+03  0.17300000000E+03 0. -1.
         -6    1    1    2    0  503  0.41306777563E+02  0.29437908413E+03 -0.71570560251E+03  0.79405843897E+03  0.17300000000E+03 0.  1.
<mgrwt>
<rscale>  2 0.34393938E+03</rscale>
<asrwt>0</asrwt>
<pdfrwt beam="1">  1       21 0.13357021E-01 0.34393938E+03</pdfrwt>
<pdfrwt beam="2">  1       21 0.21163060E+00 0.34393938E+03</pdfrwt>
<totfact> 0.49298028E+03</totfact>
</mgrwt>
</event>
<event>
 4    1  0.4137916E+000  0.2371967E+03  0.7546771E-02  0.1121675E+00
         21   -1    0    0  503  502  0.00000000000E+00  0.00000000000E+00  0.95846469510E+03  0.95846469510E+03  0.00000000000E+00 0.  1.
         21   -1    0    0  501  503 -0.00000000000E+00 -0.00000000000E+00 -0.65589271606E+02  0.65589271606E+02  0.00000000000E+00 0.  1.
          6    1    1    2  501    0 -0.95429896294E+02  0.13124942062E+03  0.28049812207E+03  0.36734380627E+03  0.17300000000E+03 0.  1.
         -6    1    1    2    0  502  0.95429896294E+02 -0.13124942062E+03  0.61237730142E+03  0.65671016043E+03  0.17300000000E+03 0.  1.
<mgrwt>
<rscale>  2 0.23719670E+03</rscale>
<asrwt>0</asrwt>
<pdfrwt beam="1">  1       21 0.14745610E+00 0.23719670E+03</pdfrwt>
<pdfrwt beam="2">  1       21 0.10090658E-01 0.23719670E+03</pdfrwt>
<totfact> 0.24302644E+04</totfact>
</mgrwt>
</event>
<event>
 4    1  0.4137916E+000  0.1791204E+03  0.7546771E-02  0.1168657E+00
         21   -1    0    0  503  502  0.00000000000E+00  0.00000000000E+00  0.10846891433E+03  0.10846891433E+03  0.00000000000E+00 0.  1.
         21   -1    0    0  501  503 -0.00000000000E+00 -0.00000000000E+00 -0.44605680689E+03  0.44605680689E+03  0.00000000000E+00 0.  1.
          6    1    1    2  501    0  0.23809443400E+02  0.39852360141E+02 -0.32972026505E+03  0.37523266567E+03  0.17300000000E+03 0.  1.
         -6    1    1    2    0  502 -0.23809443400E+02 -0.39852360141E+02 -0.78676275076E+01  0.17929305554E+03  0.17300000000E+03 0.  1.
<mgrwt>
<rscale>  2 0.17912035E+03</rscale>
<asrwt>0</asrwt>
<pdfrwt beam="1">  1       21 0.16687526E-01 0.17912035E+03</pdfrwt>
<pdfrwt beam="2">  1       21 0.68624123E-01 0.17912035E+03</pdfrwt>
<totfact> 0.62862197E+04</totfact>
</mgrwt>
</event>
<event>
 4    1  0.4137916E+000  0.1785810E+03  0.7546771E-02  0.1169183E+00
         21   -1    0    0  503  502  0.00000000000E+00  0.00000000000E+00  0.11216941889E+04  0.11216941889E+04  0.00000000000E+00 0.  1.
         21   -1    0    0  501  503 -0.00000000000E+00 -0.00000000000E+00 -0.11883186953E+03  0.11883186953E+03  0.00000000000E+00 0.  1.
          6    1    1    2  501    0 -0.23033198656E+02  0.37836917895E+02 -0.39566205513E+02  0.18291157759E+03  0.17300000000E+03 0.  1.
         -6    1    1    2    0  502  0.23033198656E+02 -0.37836917895E+02  0.10424285249E+04  0.10576144808E+04  0.17300000000E+03 0.  1.
<mgrwt>
<rscale>  2 0.17858096E+03</rscale>
<asrwt>0</asrwt>
<pdfrwt beam="1">  1       21 0.17256833E+00 0.17858096E+03</pdfrwt>
<pdfrwt beam="2">  1       21 0.18281827E-01 0.17858096E+03</pdfrwt>
<totfact> 0.56549982E+03</totfact>
</mgrwt>
</event>
<event>
 4    1  0.4137916E+000  0.1946425E+03  0.7546771E-02  0.1154339E+00
         21   -1    0    0  503  502  0.00000000000E+00  0.00000000000E+00  0.20433285354E+02  0.20433285354E+02  0.00000000000E+00 0. -1.
         21   -1    0    0  501  503 -0.00000000000E+00 -0.00000000000E+00 -0.18812637584E+04  0.18812637584E+04  0.00000000000E+00 0.  1.
          6    1    1    2  501    0  0.81016606570E+02  0.37323109692E+02 -0.10446357693E+04  0.10626145093E+04  0.17300000000E+03 0.  1.
         -6    1    1    2    0  502 -0.81016606570E+02 -0.37323109692E+02 -0.81619470378E+03  0.83908253440E+03  0.17300000000E+03 0. -1.
<mgrwt>
<rscale>  2 0.19464251E+03</rscale>
<asrwt>0</asrwt>
<pdfrwt beam="1">  1       21 0.31435823E-02 0.19464251E+03</pdfrwt>
<pdfrwt beam="2">  1       21 0.28942520E+00 0.19464251E+03</pdfrwt>
<totfact> 0.22952151E+04</totfact>
</mgrwt>
</event>
<event>
 4    1  0.4137916E+000  0.1787013E+03  0.7546771E-02  0.1169066E+00
         21   -1    0    0  503  502  0.00000000000E+00  0.00000000000E+00  0.38545603108E+03  0.38545603108E+03  0.00000000000E+00 0. -1.
         21   -1    0    0  501  503 -0.00000000000E+00 -0.00000000000E+00 -0.26876792640E+03  0.26876792640E+03  0.00000000000E+00 0. -1.
          6    1    1    2  501    0 -0.44578999781E+02 -0.42282612946E+01 -0.21371989046E+03  0.27858635464E+03  0.17300000000E+03 0. -1.
         -6    1    1    2    0  502  0.44578999781E+02  0.42282612946E+01  0.33040799514E+03  0.37563760284E+03  0.17300000000E+03 0. -1.
<mgrwt>
<rscale>  2 0.17870133E+03</rscale>
<asrwt>0</asrwt>
<pdfrwt beam="1">  1       21 0.59300928E-01 0.17870133E+03</pdfrwt>
<pdfrwt beam="2">  1       21 0.41348912E-01 0.17870133E+03</pdfrwt>
<totfact> 0.15099564E+04</totfact>
</mgrwt>
</event>
<event>
 4    1  0.4137916E+000  0.2177596E+03  0.7546771E-02  0.1135564E+00
         21   -1    0    0  501  502  0.00000000000E+00  0.00000000000E+00  0.46331585462E+02  0.46331585462E+02  0.00000000000E+00 0. -1.
         21   -1    0    0  502  503 -0.00000000000E+00 -0.00000000000E+00 -0.10531693473E+04  0.10531693473E+04  0.00000000000E+00 0. -1.
          6    1    1    2  501    0 -0.96005321356E+02  0.90957158427E+02 -0.41110812799E+03  0.46521943134E+03  0.17300000000E+03 0. -1.
         -6    1    1    2    0  503  0.96005321356E+02 -0.90957158427E+02 -0.59572963381E+03  0.63428150138E+03  0.17300000000E+03 0. -1.
<mgrwt>
<rscale>  2 0.21775956E+03</rscale>
<asrwt>0</asrwt>
<pdfrwt beam="1">  1       21 0.71279351E-02 0.21775956E+03</pdfrwt>
<pdfrwt beam="2">  1       21 0.16202608E+00 0.21775956E+03</pdfrwt>
<totfact> 0.35123287E+04</totfact>
</mgrwt>
</event>
<event>
 4    1  0.4137916E+000  0.2367386E+03  0.7546771E-02  0.1121985E+00
         21   -1    0    0  501  502  0.00000000000E+00  0.00000000000E+00  0.34949864377E+03  0.34949864377E+03  0.00000000000E+00 0. -1.
         21   -1    0    0  502  503 -0.00000000000E+00 -0.00000000000E+00 -0.16440766034E+03  0.16440766034E+03  0.00000000000E+00 0.  1.
          6    1    1    2  501    0  0.11291524277E+03  0.11561269102E+03  0.52221365830E+02  0.24242981958E+03  0.17300000000E+03 0.  1.
         -6    1    1    2    0  503 -0.11291524277E+03 -0.11561269102E+03  0.13286961759E+03  0.27147648453E+03  0.17300000000E+03 0. -1.
<mgrwt>
<rscale>  2 0.23673856E+03</rscale>
<asrwt>0</asrwt>
<pdfrwt beam="1">  1       21 0.53769022E-01 0.23673856E+03</pdfrwt>
<pdfrwt beam="2">  1       21 0.25293486E-01 0.23673856E+03</pdfrwt>
<totfact> 0.47483878E+04</totfact>
</mgrwt>
</event>
<event>
 4    1  0.4137916E+000  0.1847913E+03  0.7546771E-02  0.1163245E+00
         21   -1    0    0  501  502  0.00000000000E+00  0.00000000000E+00  0.43382270972E+03  0.43382270972E+03  0.00000000000E+00 0.  1.
         21   -1    0    0  502  503 -0.00000000000E+00 -0.00000000000E+00 -0.78981337387E+02  0.78981337387E+02  0.00000000000E+00 0.  1.
          6    1    1    2  501    0 -0.56177319739E+02  0.32602783007E+02  0.19234360826E+03  0.26672813191E+03  0.17300000000E+03 0.  1.
         -6    1    1    2    0  503  0.56177319739E+02 -0.32602783007E+02  0.16249776408E+03  0.24607591520E+03  0.17300000000E+03 0.  1.
<mgrwt>
<rscale>  2 0.18479132E+03</rscale>
<asrwt>0</asrwt>
<pdfrwt beam="1">  1       21 0.66741954E-01 0.18479132E+03</pdfrwt>
<pdfrwt beam="2">  1       21 0.12150975E-01 0.18479132E+03</pdfrwt>
<totfact> 0.11839282E+05</totfact>
</mgrwt>
</event>
<event>
 4    1  0.4137916E+000  0.1886271E+03  0.7546771E-02  0.1159705E+00
         21   -1    0    0  503  502  0.00000000000E+00  0.00000000000E+00  0.60718516089E+02  0.60718516089E+02  0.00000000000E+00 0.  1.
         21   -1    0    0  501  503 -0.00000000000E+00 -0.00000000000E+00 -0.92670490922E+03  0.92670490922E+03  0.00000000000E+00 0.  1.
          6    1    1    2  501    0  0.34188058235E+02 -0.66950551516E+02 -0.73235805897E+03  0.75625956273E+03  0.17300000000E+03 0.  1.
         -6    1    1    2    0  502 -0.34188058235E+02  0.66950551516E+02 -0.13362833416E+03  0.23116386258E+03  0.17300000000E+03 0.  1.
<mgrwt>
<rscale>  2 0.18862714E+03</rscale>
<asrwt>0</asrwt>
<pdfrwt beam="1">  1       21 0.93413106E-02 0.18862714E+03</pdfrwt>
<pdfrwt beam="2">  1       21 0.14256998E+00 0.18862714E+03</pdfrwt>
<totfact> 0.31310406E+04</totfact>
</mgrwt>
</event>
<event>
 4    1  0.4137916E+000  0.1825007E+03  0.7546771E-02  0.1165405E+00
         21   -1    0    0  501  502  0.00000000000E+00  0.00000000000E+00  0.28809421680E+04  0.28809421680E+04  0.00000000000E+00 0.  1.
         21   -1    0    0  502  503 -0.00000000000E+00 -0.00000000000E+00 -0.14641849224E+02  0.14641849224E+02  0.00000000000E+00 0.  1.
          6    1    1    2  501    0 -0.39541975346E+02 -0.42590342828E+02  0.20972678950E+04  0.21051933708E+04  0.17300000000E+03 0.  1.
         -6    1    1    2    0  503  0.39541975346E+02  0.42590342828E+02  0.76903242379E+03  0.79039064643E+03  0.17300000000E+03 0.  1.
<mgrwt>
<rscale>  2 0.18250070E+03</rscale>
<asrwt>0</asrwt>
<pdfrwt beam="1">  1       21 0.44322142E+00 0.18250070E+03</pdfrwt>
<pdfrwt beam="2">  1       21 0.22525945E-02 0.18250070E+03</pdfrwt>
<totfact> 0.47461009E+03</totfact>
</mgrwt>
</event>
<event>
 4    1  0.4137916E+000  0.1917479E+03  0.7546771E-02  0.1156894E+00
         21   -1    0    0  503  502  0.00000000000E+00  0.00000000000E+00  0.39626796176E+03  0.39626796176E+03  0.00000000000E+00 0. -1.
         21   -1    0    0  501  503 -0.00000000000E+00 -0.00000000000E+00 -0.10916304882E+03  0.10916304882E+03  0.00000000000E+00 0. -1.
          6    1    1    2  501    0  0.75004493504E+02  0.34822290165E+02  0.45661983377E+02  0.19710982386E+03  0.17300000000E+03 0. -1.
         -6    1    1    2    0  502 -0.75004493504E+02 -0.34822290165E+02  0.24144292956E+03  0.30832118671E+03  0.17300000000E+03 0. -1.
<mgrwt>
<rscale>  2 0.19174792E+03</rscale>
<asrwt>0</asrwt>
<pdfrwt beam="1">  1       21 0.60964301E-01 0.19174792E+03</pdfrwt>
<pdfrwt beam="2">  1       21 0.16794315E-01 0.19174792E+03</pdfrwt>
<totfact> 0.79915241E+04</totfact>
</mgrwt>
</event>
<event>
 4    1  0.4137916E+000  0.2014005E+03  0.7546771E-02  0.1148563E+00
         21   -1    0    0  501  502  0.00000000000E+00  0.00000000000E+00  0.27428703605E+03  0.27428703605E+03  0.00000000000E+00 0. -1.
         21   -1    0    0  502  503 -0.00000000000E+00 -0.00000000000E+00 -0.17622113912E+03  0.17622113912E+03  0.00000000000E+00 0. -1.
          6    1    1    2  501    0 -0.68821943284E+02 -0.76790019966E+02 -0.41297790738E+02  0.20559103717E+03  0.17300000000E+03 0. -1.
         -6    1    1    2    0  503  0.68821943284E+02  0.76790019966E+02  0.13936368767E+03  0.24491713800E+03  0.17300000000E+03 0. -1.
<mgrwt>
<rscale>  2 0.20140051E+03</rscale>
<asrwt>0</asrwt>
<pdfrwt beam="1">  1       21 0.42198005E-01 0.20140051E+03</pdfrwt>
<pdfrwt beam="2">  1       21 0.27110945E-01 0.20140051E+03</pdfrwt>
<totfact> 0.69800856E+04</totfact>
</mgrwt>
</event>
<event>
 4    1  0.4137916E+000  0.2531451E+03  0.7546771E-02  0.1111333E+00
         21   -1    0    0  503  502  0.00000000000E+00  0.00000000000E+00  0.45795316539E+03  0.45795316539E+03  0.00000000000E+00 0.  1.
         21   -1    0    0  501  503 -0.00000000000E+00 -0.00000000000E+00 -0.15693119489E+03  0.15693119489E+03  0.00000000000E+00 0. -1.
          6    1    1    2  501    0  0.16854254099E+03  0.75808010568E+02  0.49325300566E+02  0.25790585078E+03  0.17300000000E+03 0. -1.
         -6    1    1    2    0  502 -0.16854254099E+03 -0.75808010568E+02  0.25169666994E+03  0.35697850950E+03  0.17300000000E+03 0. -1.
<mgrwt>
<rscale>  2 0.25314510E+03</rscale>
<asrwt>0</asrwt>
<pdfrwt beam="1">  1       21 0.70454333E-01 0.25314510E+03</pdfrwt>
<pdfrwt beam="2">  1       21 0.24143261E-01 0.25314510E+03</pdfrwt>
<totfact> 0.28676136E+04</totfact>
</mgrwt>
</event>
<event>
 4    1  0.4137916E+000  0.1988644E+03  0.7546771E-02  0.1150701E+00
         21   -1    0    0  501  502  0.00000000000E+00  0.00000000000E+00  0.80052045254E+02  0.80052045254E+02  0.00000000000E+00 0. -1.
         21   -1    0    0  502  503 -0.00000000000E+00 -0.00000000000E+00 -0.10913647721E+04  0.10913647721E+04  0.00000000000E+00 0. -1.
          6    1    1    2  501    0  0.83740706053E+02 -0.51044567747E+02 -0.72334904212E+02  0.21161141773E+03  0.17300000000E+03 0. -1.
         -6    1    1    2    0  503 -0.83740706053E+02  0.51044567747E+02 -0.93897782259E+03  0.95980539958E+03  0.17300000000E+03 0. -1.
<mgrwt>
<rscale>  2 0.19886441E+03</rscale>
<asrwt>0</asrwt>
<pdfrwt beam="1">  1       21 0.12315699E-01 0.19886441E+03</pdfrwt>
<pdfrwt beam="2">  1       21 0.16790227E+00 0.19886441E+03</pdfrwt>
<totfact> 0.12308883E+04</totfact>
</mgrwt>
</event>
<event>
 4    1  0.4137916E+000  0.1730836E+03  0.7546771E-02  0.1174670E+00
         21   -1    0    0  501  502  0.00000000000E+00  0.00000000000E+00  0.45907823669E+02  0.45907823669E+02  0.00000000000E+00 0. -1.
         21   -1    0    0  502  503 -0.00000000000E+00 -0.00000000000E+00 -0.65353225900E+03  0.65353225900E+03  0.00000000000E+00 0. -1.
          6    1    1    2  501    0 -0.48101996699E+01  0.24062244658E+01 -0.31725294612E+03  0.36139640253E+03  0.17300000000E+03 0.  1.
         -6    1    1    2    0  503  0.48101996699E+01 -0.24062244658E+01 -0.29037148921E+03  0.33804368014E+03  0.17300000000E+03 0.  1.
<mgrwt>
<rscale>  2 0.17308359E+03</rscale>
<asrwt>0</asrwt>
<pdfrwt beam="1">  1       21 0.70627429E-02 0.17308359E+03</pdfrwt>
<pdfrwt beam="2">  1       21 0.10054341E+00 0.17308359E+03</pdfrwt>
<totfact> 0.12164899E+05</totfact>
</mgrwt>
</event>
<event>
 4    1  0.4137916E+000  0.2209812E+03  0.7546771E-02  0.1133154E+00
         21   -1    0    0  503  502  0.00000000000E+00  0.00000000000E+00  0.41789949093E+03  0.41789949093E+03  0.00000000000E+00 0. -1.
         21   -1    0    0  501  503 -0.00000000000E+00 -0.00000000000E+00 -0.13667972301E+03  0.13667972301E+03  0.00000000000E+00 0.  1.
          6    1    1    2  501    0 -0.13365395126E+03  0.32254135202E+02  0.34998758344E+02  0.22373560515E+03  0.17300000000E+03 0.  1.
         -6    1    1    2    0  502  0.13365395126E+03 -0.32254135202E+02  0.24622100958E+03  0.33084360880E+03  0.17300000000E+03 0. -1.
<mgrwt>
<rscale>  2 0.22098124E+03</rscale>
<asrwt>0</asrwt>
<pdfrwt beam="1">  1       21 0.64292229E-01 0.22098124E+03</pdfrwt>
<pdfrwt beam="2">  1       21 0.21027650E-01 0.22098124E+03</pdfrwt>
<totfact> 0.46265982E+04</totfact>
</mgrwt>
</event>
<event>
 4    1  0.4137916E+000  0.1918287E+03  0.7546771E-02  0.1156822E+00
         21   -1    0    0  501  502  0.00000000000E+00  0.00000000000E+00  0.25556004614E+03  0.25556004614E+03  0.00000000000E+00 0. -1.
         21   -1    0    0  502  503 -0.00000000000E+00 -0.00000000000E+00 -0.14437030872E+03  0.14437030872E+03  0.00000000000E+00 0. -1.
          6    1    1    2  501    0 -0.16156443141E+02 -0.81290873627E+02  0.65850389017E+02  0.20281644540E+03  0.17300000000E+03 0. -1.
         -6    1    1    2    0  503  0.16156443141E+02  0.81290873627E+02  0.45339348398E+02  0.19711390946E+03  0.17300000000E+03 0. -1.
<mgrwt>
<rscale>  2 0.19182867E+03</rscale>
<asrwt>0</asrwt>
<pdfrwt beam="1">  1       21 0.39316930E-01 0.19182867E+03</pdfrwt>
<pdfrwt beam="2">  1       21 0.22210817E-01 0.19182867E+03</pdfrwt>
<totfact> 0.11828026E+05</totfact>
</mgrwt>
</event>
<event>
 4    1  0.4137916E+000  0.2147071E+03  0.7546771E-02  0.1137892E+00
         21   -1    0    0  501  502  0.00000000000E+00  0.00000000000E+00  0.31056568001E+03  0.31056568001E+03  0.00000000000E+00 0.  1.
         21   -1    0    0  502  503 -0.00000000000E+00 -0.00000000000E+00 -0.26923685933E+03  0.26923685933E+03  0.00000000000E+00 0.  1.
          6    1    1    2  501    0  0.12378404866E+03  0.29114085929E+02  0.21485040744E+03  0.30374301355E+03  0.17300000000E+03 0.  1.
         -6    1    1    2    0  503 -0.12378404866E+03 -0.29114085929E+02 -0.17352158677E+03  0.27605952579E+03  0.17300000000E+03 0.  1.
<mgrwt>
<rscale>  2 0.21470706E+03</rscale>
<asrwt>0</asrwt>
<pdfrwt beam="1">  1       21 0.47779335E-01 0.21470706E+03</pdfrwt>
<pdfrwt beam="2">  1       21 0.41421055E-01 0.21470706E+03</pdfrwt>
<totfact> 0.23208781E+04</totfact>
</mgrwt>
</event>
<event>
 4    1  0.4137916E+000  0.1748263E+03  0.7546771E-02  0.1172906E+00
         21   -1    0    0  503  502  0.00000000000E+00  0.00000000000E+00  0.18339814892E+02  0.18339814892E+02  0.00000000000E+00 0. -1.
         21   -1    0    0  501  503 -0.00000000000E+00 -0.00000000000E+00 -0.18211474345E+04  0.18211474345E+04  0.00000000000E+00 0. -1.
          6    1    1    2  501    0  0.16841267463E+02 -0.18751177252E+02 -0.11693787087E+04  0.11823750671E+04  0.17300000000E+03 0. -1.
         -6    1    1    2    0  502 -0.16841267463E+02  0.18751177252E+02 -0.63342891082E+03  0.65711218220E+03  0.17300000000E+03 0. -1.
<mgrwt>
<rscale>  2 0.17482630E+03</rscale>
<asrwt>0</asrwt>
<pdfrwt beam="1">  1       21 0.28215090E-02 0.17482630E+03</pdfrwt>
<pdfrwt beam="2">  1       21 0.28017662E+00 0.17482630E+03</pdfrwt>
<totfact> 0.31609809E+04</totfact>
</mgrwt>
</event>
<event>
 4    1  0.4137916E+000  0.1804473E+03  0.7546771E-02  0.1167371E+00
         21   -1    0    0  503  502  0.00000000000E+00  0.00000000000E+00  0.51506221317E+03  0.51506221317E+03  0.00000000000E+00 0.  1.
         21   -1    0    0  501  503 -0.00000000000E+00 -0.00000000000E+00 -0.15142395307E+03  0.15142395307E+03  0.00000000000E+00 0.  1.
          6    1    1    2  501    0  0.68724013252E+01  0.50843007110E+02 -0.72519670884E+02  0.19447453288E+03  0.17300000000E+03 0.  1.
         -6    1    1    2    0  502 -0.68724013252E+01 -0.50843007110E+02  0.43615793099E+03  0.47201163337E+03  0.17300000000E+03 0.  1.
<mgrwt>
<rscale>  2 0.18044734E+03</rscale>
<asrwt>0</asrwt>
<pdfrwt beam="1">  1       21 0.79240340E-01 0.18044734E+03</pdfrwt>
<pdfrwt beam="2">  1       21 0.23295993E-01 0.18044734E+03</pdfrwt>
<totfact> 0.24517313E+04</totfact>
</mgrwt>
</event>
<event>
 4    1  0.4137916E+000  0.1819890E+03  0.7546771E-02  0.1165892E+00
         21   -1    0    0  501  502  0.00000000000E+00  0.00000000000E+00  0.53032138098E+03  0.53032138098E+03  0.00000000000E+00 0.  1.
         21   -1    0    0  502  503 -0.00000000000E+00 -0.00000000000E+00 -0.72037049658E+02  0.72037049658E+02  0.00000000000E+00 0.  1.
          6    1    1    2  501    0  0.12713519077E+02  0.55039704754E+02  0.33899931858E+03  0.38476036784E+03  0.17300000000E+03 0.  1.
         -6    1    1    2    0  503 -0.12713519077E+02 -0.55039704754E+02  0.11928501275E+03  0.21759806280E+03  0.17300000000E+03 0.  1.
<mgrwt>
<rscale>  2 0.18198902E+03</rscale>
<asrwt>0</asrwt>
<pdfrwt beam="1">  1       21 0.81587902E-01 0.18198902E+03</pdfrwt>
<pdfrwt beam="2">  1       21 0.11082623E-01 0.18198902E+03</pdfrwt>
<totfact> 0.89350978E+04</totfact>
</mgrwt>
</event>
<event>
 4    1  0.4137916E+000  0.2176813E+03  0.7546771E-02  0.1135624E+00
         21   -1    0    0  501  502  0.00000000000E+00  0.00000000000E+00  0.49449426963E+03  0.49449426963E+03  0.00000000000E+00 0. -1.
         21   -1    0    0  502  503 -0.00000000000E+00 -0.00000000000E+00 -0.12535300791E+03  0.12535300791E+03  0.00000000000E+00 0. -1.
          6    1    1    2  501    0  0.12027663468E+03 -0.54677843623E+02  0.33498907584E+03  0.39950321196E+03  0.17300000000E+03 0. -1.
         -6    1    1    2    0  503 -0.12027663468E+03  0.54677843623E+02  0.34152185878E+02  0.22034406557E+03  0.17300000000E+03 0. -1.
<mgrwt>
<rscale>  2 0.21768127E+03</rscale>
<asrwt>0</asrwt>
<pdfrwt beam="1">  1       21 0.76076040E-01 0.21768127E+03</pdfrwt>
<pdfrwt beam="2">  1       21 0.19285078E-01 0.21768127E+03</pdfrwt>
<totfact> 0.37556249E+04</totfact>
</mgrwt>
</event>
<event>
 4    1  0.4137916E+000  0.1773968E+03  0.7546771E-02  0.1170346E+00
         21   -1    0    0  501  502  0.00000000000E+00  0.00000000000E+00  0.81968740246E+02  0.81968740246E+02  0.00000000000E+00 0.  1.
         21   -1    0    0  502  503 -0.00000000000E+00 -0.00000000000E+00 -0.41024209967E+03  0.41024209967E+03  0.00000000000E+00 0.  1.
          6    1    1    2  501    0 -0.18098137446E+02  0.34829281996E+02 -0.10180010417E+03  0.20453088440E+03  0.17300000000E+03 0.  1.
         -6    1    1    2    0  503  0.18098137446E+02 -0.34829281996E+02 -0.22647325525E+03  0.28767995552E+03  0.17300000000E+03 0.  1.
<mgrwt>
<rscale>  2 0.17739679E+03</rscale>
<asrwt>0</asrwt>
<pdfrwt beam="1">  1       21 0.12610576E-01 0.17739679E+03</pdfrwt>
<pdfrwt beam="2">  1       21 0.63114168E-01 0.17739679E+03</pdfrwt>
<totfact> 0.12541538E+05</totfact>
</mgrwt>
</event>
<event>
 4    1  0.4137916E+000  0.1856458E+03  0.7546771E-02  0.1162448E+00
         21   -1    0    0  503  502  0.00000000000E+00  0.00000000000E+00  0.38998007541E+03  0.38998007541E+03  0.00000000000E+00 0. -1.
         21   -1    0    0  501  503 -0.00000000000E+00 -0.00000000000E+00 -0.17060936792E+03  0.17060936792E+03  0.00000000000E+00 0. -1.
          6    1    1    2  501    0  0.58047422489E+02 -0.34144495530E+02 -0.84913870760E+02  0.20414385928E+03  0.17300000000E+03 0. -1.
         -6    1    1    2    0  502 -0.58047422489E+02  0.34144495530E+02  0.30428457825E+03  0.35644558405E+03  0.17300000000E+03 0. -1.
<mgrwt>
<rscale>  2 0.18564576E+03</rscale>
<asrwt>0</asrwt>
<pdfrwt beam="1">  1       21 0.59996935E-01 0.18564576E+03</pdfrwt>
<pdfrwt beam="2">  1       21 0.26247595E-01 0.18564576E+03</pdfrwt>
<totfact> 0.35888541E+04</totfact>
</mgrwt>
</event>
<event>
 4    1  0.4137916E+000  0.3114964E+03  0.7546771E-02  0.1079631E+00
         21   -1    0    0  501  502  0.00000000000E+00  0.00000000000E+00  0.34852712847E+03  0.34852712847E+03  0.00000000000E+00 0.  1.
         21   -1    0    0  502  503 -0.00000000000E+00 -0.00000000000E+00 -0.52621724290E+03  0.52621724290E+03  0.00000000000E+00 0. -1.
          6    1    1    2  501    0  0.24639819571E+03  0.79930711437E+02  0.21130213930E+03  0.37640215668E+03  0.17300000000E+03 0. -1.
         -6    1    1    2    0  503 -0.24639819571E+03 -0.79930711437E+02 -0.38899225374E+03  0.49834221469E+03  0.17300000000E+03 0.  1.
<mgrwt>
<rscale>  2 0.31149637E+03</rscale>
<asrwt>0</asrwt>
<pdfrwt beam="1">  1       21 0.53619558E-01 0.31149637E+03</pdfrwt>
<pdfrwt beam="2">  1       21 0.80956499E-01 0.31149637E+03</pdfrwt>
<totfact> 0.40830293E+03</totfact>
</mgrwt>
</event>
<event>
 4    1  0.4137916E+000  0.1799201E+03  0.7546771E-02  0.1167880E+00
         21   -1    0    0  501  502  0.00000000000E+00  0.00000000000E+00  0.38372768251E+02  0.38372768251E+02  0.00000000000E+00 0.  1.
         21   -1    0    0  502  503 -0.00000000000E+00 -0.00000000000E+00 -0.95209485555E+03  0.95209485555E+03  0.00000000000E+00 0.  1.
          6    1    1    2  501    0 -0.39690845662E+02 -0.29442645526E+02 -0.62403805670E+03  0.64945725711E+03  0.17300000000E+03 0.  1.
         -6    1    1    2    0  503  0.39690845662E+02  0.29442645526E+02 -0.28968403060E+03  0.34101036669E+03  0.17300000000E+03 0.  1.
<mgrwt>
<rscale>  2 0.17992007E+03</rscale>
<asrwt>0</asrwt>
<pdfrwt beam="1">  1       21 0.59035030E-02 0.17992007E+03</pdfrwt>
<pdfrwt beam="2">  1       21 0.14647613E+00 0.17992007E+03</pdfrwt>
<totfact> 0.64926420E+04</totfact>
</mgrwt>
</event>
<event>
 4    1  0.4137916E+000  0.2033097E+03  0.7546771E-02  0.1146976E+00
         21   -1    0    0  501  502  0.00000000000E+00  0.00000000000E+00  0.14893180598E+03  0.14893180598E+03  0.00000000000E+00 0.  1.
         21   -1    0    0  502  503 -0.00000000000E+00 -0.00000000000E+00 -0.28948667634E+03  0.28948667634E+03  0.00000000000E+00 0.  1.
          6    1    1    2  501    0 -0.10321806416E+03 -0.27419858983E+02 -0.11480546231E+03  0.23348471387E+03  0.17300000000E+03 0.  1.
         -6    1    1    2    0  503  0.10321806416E+03  0.27419858983E+02 -0.25749408058E+02  0.20493376845E+03  0.17300000000E+03 0.  1.
<mgrwt>
<rscale>  2 0.20330966E+03</rscale>
<asrwt>0</asrwt>
<pdfrwt beam="1">  1       21 0.22912586E-01 0.20330966E+03</pdfrwt>
<pdfrwt beam="2">  1       21 0.44536411E-01 0.20330966E+03</pdfrwt>
<totfact> 0.86143249E+04</totfact>
</mgrwt>
</event>
<event>
 4    1  0.4137916E+000  0.1882745E+03  0.7546771E-02  0.1160027E+00
         21   -1    0    0  501  502  0.00000000000E+00  0.00000000000E+00  0.35945541183E+03  0.35945541183E+03  0.00000000000E+00 0. -1.
         21   -1    0    0  502  503 -0.00000000000E+00 -0.00000000000E+00 -0.10045809379E+03  0.10045809379E+03  0.00000000000E+00 0. -1.
          6    1    1    2  501    0  0.27304433235E+02  0.69085130027E+02  0.16065605562E+03  0.24750283932E+03  0.17300000000E+03 0. -1.
         -6    1    1    2    0  503 -0.27304433235E+02 -0.69085130027E+02  0.98341262413E+02  0.21241066630E+03  0.17300000000E+03 0. -1.
<mgrwt>
<rscale>  2 0.18827450E+03</rscale>
<asrwt>0</asrwt>
<pdfrwt beam="1">  1       21 0.55300832E-01 0.18827450E+03</pdfrwt>
<pdfrwt beam="2">  1       21 0.15455092E-01 0.18827450E+03</pdfrwt>
<totfact> 0.11472407E+05</totfact>
</mgrwt>
</event>
<event>
 4    1  0.4137916E+000  0.1956112E+03  0.7546771E-02  0.1153496E+00
         21   -1    0    0  503  502  0.00000000000E+00  0.00000000000E+00  0.39081210033E+03  0.39081210033E+03  0.00000000000E+00 0.  1.
         21   -1    0    0  501  503 -0.00000000000E+00 -0.00000000000E+00 -0.10764532378E+03  0.10764532378E+03  0.00000000000E+00 0. -1.
          6    1    1    2  501    0 -0.80569742520E+02  0.42932971754E+02  0.66625900164E+02  0.20664639858E+03  0.17300000000E+03 0. -1.
         -6    1    1    2    0  502  0.80569742520E+02 -0.42932971754E+02  0.21654087639E+03  0.29181102553E+03  0.17300000000E+03 0.  1.
<mgrwt>
<rscale>  2 0.19561115E+03</rscale>
<asrwt>0</asrwt>
<pdfrwt beam="1">  1       21 0.60124938E-01 0.19561115E+03</pdfrwt>
<pdfrwt beam="2">  1       21 0.16560819E-01 0.19561115E+03</pdfrwt>
<totfact> 0.84339173E+04</totfact>
</mgrwt>
</event>
<event>
 4    1  0.4137916E+000  0.1870306E+03  0.7546771E-02  0.1161167E+00
         21   -1    0    0  501  502  0.00000000000E+00  0.00000000000E+00  0.28519223961E+03  0.28519223961E+03  0.00000000000E+00 0. -1.
         21   -1    0    0  502  503 -0.00000000000E+00 -0.00000000000E+00 -0.17407427283E+03  0.17407427283E+03  0.00000000000E+00 0. -1.
          6    1    1    2  501    0  0.31123795580E+02 -0.63896523368E+02  0.18036268327E+03  0.25982908588E+03  0.17300000000E+03 0. -1.
         -6    1    1    2    0  503 -0.31123795580E+02  0.63896523368E+02 -0.69244716491E+02  0.19943742656E+03  0.17300000000E+03 0. -1.
<mgrwt>
<rscale>  2 0.18703063E+03</rscale>
<asrwt>0</asrwt>
<pdfrwt beam="1">  1       21 0.43875729E-01 0.18703063E+03</pdfrwt>
<pdfrwt beam="2">  1       21 0.26780657E-01 0.18703063E+03</pdfrwt>
<totfact> 0.66419747E+04</totfact>
</mgrwt>
</event>
<event>
 4    1  0.4137916E+000  0.1770487E+03  0.7546771E-02  0.1170690E+00
         21   -1    0    0  501  502  0.00000000000E+00  0.00000000000E+00  0.18618032721E+04  0.18618032721E+04  0.00000000000E+00 0. -1.
         21   -1    0    0  502  503 -0.00000000000E+00 -0.00000000000E+00 -0.36213652648E+02  0.36213652648E+02  0.00000000000E+00 0. -1.
          6    1    1    2  501    0 -0.19422620136E+02 -0.32249237845E+02  0.16069856759E+04  0.16167093784E+04  0.17300000000E+03 0. -1.
         -6    1    1    2    0  503  0.19422620136E+02  0.32249237845E+02  0.21860394350E+03  0.28130754634E+03  0.17300000000E+03 0. -1.
<mgrwt>
<rscale>  2 0.17704873E+03</rscale>
<asrwt>0</asrwt>
<pdfrwt beam="1">  1       21 0.28643120E+00 0.17704873E+03</pdfrwt>
<pdfrwt beam="2">  1       21 0.55713326E-02 0.17704873E+03</pdfrwt>
<totfact> 0.93018434E+03</totfact>
</mgrwt>
</event>
<event>
 4    1  0.4137916E+000  0.2355900E+03  0.7546771E-02  0.1122766E+00
         21   -1    0    0  501  502  0.00000000000E+00  0.00000000000E+00  0.75542986866E+03  0.75542986866E+03  0.00000000000E+00 0.  1.
         21   -1    0    0  502  503 -0.00000000000E+00 -0.00000000000E+00 -0.16018097177E+03  0.16018097177E+03  0.00000000000E+00 0. -1.
          6    1    1    2  501    0  0.15984259880E+03  0.48993873264E+01  0.63445263276E+03  0.67678120808E+03  0.17300000000E+03 0.  1.
         -6    1    1    2    0  503 -0.15984259880E+03 -0.48993873264E+01 -0.39203735875E+02  0.23882963236E+03  0.17300000000E+03 0. -1.
<mgrwt>
<rscale>  2 0.23559003E+03</rscale>
<asrwt>0</asrwt>
<pdfrwt beam="1">  1       21 0.11621998E+00 0.23559003E+03</pdfrwt>
<pdfrwt beam="2">  1       21 0.24643227E-01 0.23559003E+03</pdfrwt>
<totfact> 0.86357832E+03</totfact>
</mgrwt>
</event>
<event>
 4    1  0.4137916E+000  0.1856940E+03  0.7546771E-02  0.1162403E+00
         21   -1    0    0  501  502  0.00000000000E+00  0.00000000000E+00  0.44463187993E+03  0.44463187993E+03  0.00000000000E+00 0. -1.
         21   -1    0    0  502  503 -0.00000000000E+00 -0.00000000000E+00 -0.24503982317E+03  0.24503982317E+03  0.00000000000E+00 0.  1.
          6    1    1    2  501    0 -0.59293736579E+02 -0.32210551447E+02  0.38488812940E+03  0.42734194619E+03  0.17300000000E+03 0. -1.
         -6    1    1    2    0  503  0.59293736579E+02  0.32210551447E+02 -0.18529607265E+03  0.26232975691E+03  0.17300000000E+03 0.  1.
<mgrwt>
<rscale>  2 0.18569401E+03</rscale>
<asrwt>0</asrwt>
<pdfrwt beam="1">  1       21 0.68404905E-01 0.18569401E+03</pdfrwt>
<pdfrwt beam="2">  1       21 0.37698434E-01 0.18569401E+03</pdfrwt>
<totfact> 0.13288278E+04</totfact>
</mgrwt>
</event>
<event>
 4    1  0.4137916E+000  0.2344385E+03  0.7546771E-02  0.1123554E+00
         21   -1    0    0  503  502  0.00000000000E+00  0.00000000000E+00  0.40208841627E+03  0.40208841627E+03  0.00000000000E+00 0. -1.
         21   -1    0    0  501  503 -0.00000000000E+00 -0.00000000000E+00 -0.13695183163E+03  0.13695183163E+03  0.00000000000E+00 0.  1.
          6    1    1    2  501    0  0.12947842566E+03 -0.90927161865E+02  0.14435601682E+03  0.27531812703E+03  0.17300000000E+03 0. -1.
         -6    1    1    2    0  502 -0.12947842566E+03  0.90927161865E+02  0.12078056782E+03  0.26372212088E+03  0.17300000000E+03 0.  1.
<mgrwt>
<rscale>  2 0.23443850E+03</rscale>
<asrwt>0</asrwt>
<pdfrwt beam="1">  1       21 0.61859756E-01 0.23443850E+03</pdfrwt>
<pdfrwt beam="2">  1       21 0.21069513E-01 0.23443850E+03</pdfrwt>
<totfact> 0.49828405E+04</totfact>
</mgrwt>
</event>
<event>
 4    1  0.4137916E+000  0.2159919E+03  0.7546771E-02  0.1136907E+00
         21   -1    0    0  501  502  0.00000000000E+00  0.00000000000E+00  0.54779238100E+03  0.54779238100E+03  0.00000000000E+00 0. -1.
         21   -1    0    0  502  503 -0.00000000000E+00 -0.00000000000E+00 -0.86515586483E+02  0.86515586483E+02  0.00000000000E+00 0. -1.
          6    1    1    2  501    0 -0.40237674166E+02  0.12290000699E+03  0.27027161311E+03  0.34597576070E+03  0.17300000000E+03 0. -1.
         -6    1    1    2    0  503  0.40237674166E+02 -0.12290000699E+03  0.19100518141E+03  0.28833220678E+03  0.17300000000E+03 0. -1.
<mgrwt>
<rscale>  2 0.21599186E+03</rscale>
<asrwt>0</asrwt>
<pdfrwt beam="1">  1       21 0.84275749E-01 0.21599186E+03</pdfrwt>
<pdfrwt beam="2">  1       21 0.13310091E-01 0.21599186E+03</pdfrwt>
<totfact> 0.58874461E+04</totfact>
</mgrwt>
</event>
<event>
 4    1  0.4137916E+000  0.1788375E+03  0.7546771E-02  0.1168933E+00
         21   -1    0    0  501  502  0.00000000000E+00  0.00000000000E+00  0.10735097785E+03  0.10735097785E+03  0.00000000000E+00 0. -1.
         21   -1    0    0  502  503 -0.00000000000E+00 -0.00000000000E+00 -0.42551433796E+03  0.42551433796E+03  0.00000000000E+00 0. -1.
          6    1    1    2  501    0 -0.15142959612E+02  0.42714687416E+02 -0.13189310825E+02  0.17932320449E+03  0.17300000000E+03 0.  1.
         -6    1    1    2    0  503  0.15142959612E+02 -0.42714687416E+02 -0.30497404928E+03  0.35354211133E+03  0.17300000000E+03 0.  1.
<mgrwt>
<rscale>  2 0.17883751E+03</rscale>
<asrwt>0</asrwt>
<pdfrwt beam="1">  1       21 0.16515535E-01 0.17883751E+03</pdfrwt>
<pdfrwt beam="2">  1       21 0.65463743E-01 0.17883751E+03</pdfrwt>
<totfact> 0.71023785E+04</totfact>
</mgrwt>
</event>
<event>
 4    1  0.4137916E+000  0.1743004E+03  0.7546771E-02  0.1173436E+00
         21   -1    0    0  501  502  0.00000000000E+00  0.00000000000E+00  0.56022170686E+03  0.56022170686E+03  0.00000000000E+00 0.  1.
         21   -1    0    0  502  503 -0.00000000000E+00 -0.00000000000E+00 -0.12692606546E+03  0.12692606546E+03  0.00000000000E+00 0.  1.
          6    1    1    2  501    0 -0.21167291532E+02  0.18952968003E+01  0.47666445595E+03  0.50753290529E+03  0.17300000000E+03 0.  1.
         -6    1    1    2    0  503  0.21167291532E+02 -0.18952968003E+01 -0.43368814553E+02  0.17961486703E+03  0.17300000000E+03 0.  1.
<mgrwt>
<rscale>  2 0.17430045E+03</rscale>
<asrwt>0</asrwt>
<pdfrwt beam="1">  1       21 0.86187954E-01 0.17430045E+03</pdfrwt>
<pdfrwt beam="2">  1       21 0.19527087E-01 0.17430045E+03</pdfrwt>
<totfact> 0.28311840E+04</totfact>
</mgrwt>
</event>
<event>
 4    1  0.4137916E+000  0.3635757E+03  0.7546771E-02  0.1057177E+00
         21   -1    0    0  501  502  0.00000000000E+00  0.00000000000E+00  0.24590013985E+03  0.24590013985E+03  0.00000000000E+00 0.  1.
         21   -1    0    0  502  503 -0.00000000000E+00 -0.00000000000E+00 -0.12619877192E+04  0.12619877192E+04  0.00000000000E+00 0. -1.
          6    1    1    2  501    0  0.29990960638E+03  0.11096187511E+03  0.63181615281E+02  0.36902469597E+03  0.17300000000E+03 0.  1.
         -6    1    1    2    0  503 -0.29990960638E+03 -0.11096187511E+03 -0.10792691946E+04  0.11388631631E+04  0.17300000000E+03 0. -1.
<mgrwt>
<rscale>  2 0.36357573E+03</rscale>
<asrwt>0</asrwt>
<pdfrwt beam="1">  1       21 0.37830791E-01 0.36357573E+03</pdfrwt>
<pdfrwt beam="2">  1       21 0.19415195E+00 0.36357573E+03</pdfrwt>
<totfact> 0.85984802E+02</totfact>
</mgrwt>
</event>
<event>
 4    1  0.4137916E+000  0.2259690E+03  0.7546771E-02  0.1129510E+00
         21   -1    0    0  501  502  0.00000000000E+00  0.00000000000E+00  0.36041674260E+03  0.36041674260E+03  0.00000000000E+00 0. -1.
         21   -1    0    0  502  503 -0.00000000000E+00 -0.00000000000E+00 -0.17820477287E+03  0.17820477287E+03  0.00000000000E+00 0. -1.
          6    1    1    2  501    0  0.14526133182E+03  0.56697894957E+01  0.21303812535E+03  0.31055956576E+03  0.17300000000E+03 0. -1.
         -6    1    1    2    0  503 -0.14526133182E+03 -0.56697894957E+01 -0.30826155622E+02  0.22806194971E+03  0.17300000000E+03 0. -1.
<mgrwt>
<rscale>  2 0.22596903E+03</rscale>
<asrwt>0</asrwt>
<pdfrwt beam="1">  1       21 0.55448729E-01 0.22596903E+03</pdfrwt>
<pdfrwt beam="2">  1       21 0.27416119E-01 0.22596903E+03</pdfrwt>
<totfact> 0.38263166E+04</totfact>
</mgrwt>
</event>
<event>
 4    1  0.4137916E+000  0.2377271E+03  0.7546771E-02  0.1121316E+00
         21   -1    0    0  503  502  0.00000000000E+00  0.00000000000E+00  0.24560157923E+03  0.24560157923E+03  0.00000000000E+00 0.  1.
         21   -1    0    0  501  503 -0.00000000000E+00 -0.00000000000E+00 -0.31153348647E+03  0.31153348647E+03  0.00000000000E+00 0.  1.
          6    1    1    2  501    0 -0.13081806980E+03 -0.97323114473E+02 -0.17538440576E+03  0.29542147142E+03  0.17300000000E+03 0.  1.
         -6    1    1    2    0  502  0.13081806980E+03  0.97323114473E+02  0.10945249851E+03  0.26171359427E+03  0.17300000000E+03 0.  1.
<mgrwt>
<rscale>  2 0.23772706E+03</rscale>
<asrwt>0</asrwt>
<pdfrwt beam="1">  1       21 0.37784858E-01 0.23772706E+03</pdfrwt>
<pdfrwt beam="2">  1       21 0.47928229E-01 0.23772706E+03</pdfrwt>
<totfact> 0.27450380E+04</totfact>
</mgrwt>
</event>
<event>
 4    1  0.4137916E+000  0.2196866E+03  0.7546771E-02  0.1134117E+00
         21   -1    0    0  503  502  0.00000000000E+00  0.00000000000E+00  0.61160211522E+03  0.61160211522E+03  0.00000000000E+00 0.  1.
         21   -1    0    0  501  503 -0.00000000000E+00 -0.00000000000E+00 -0.11655185608E+04  0.11655185608E+04  0.00000000000E+00 0. -1.
          6    1    1    2  501    0 -0.79351460852E+02  0.10971111549E+03 -0.11349115690E+04  0.11559785693E+04  0.17300000000E+03 0. -1.
         -6    1    1    2    0  502  0.79351460852E+02 -0.10971111549E+03  0.58099512347E+03  0.62114210668E+03  0.17300000000E+03 0.  1.
<mgrwt>
<rscale>  2 0.21968656E+03</rscale>
<asrwt>0</asrwt>
<pdfrwt beam="1">  1       21 0.94092633E-01 0.21968656E+03</pdfrwt>
<pdfrwt beam="2">  1       21 0.17931055E+00 0.21968656E+03</pdfrwt>
<totfact> 0.16839390E+02</totfact>
</mgrwt>
</event>
<event>
 4    1  0.4137916E+000  0.1878535E+03  0.7546771E-02  0.1160412E+00
         21   -1    0    0  503  502  0.00000000000E+00  0.00000000000E+00  0.84597234989E+03  0.84597234989E+03  0.00000000000E+00 0.  1.
         21   -1    0    0  501  503 -0.00000000000E+00 -0.00000000000E+00 -0.42297791361E+02  0.42297791361E+02  0.00000000000E+00 0.  1.
          6    1    1    2  501    0  0.23327477594E+02 -0.69395728868E+02  0.34966208916E+03  0.39692885382E+03  0.17300000000E+03 0.  1.
         -6    1    1    2    0  502 -0.23327477594E+02  0.69395728868E+02  0.45401246936E+03  0.49134128743E+03  0.17300000000E+03 0.  1.
<mgrwt>
<rscale>  2 0.18785350E+03</rscale>
<asrwt>0</asrwt>
<pdfrwt beam="1">  1       21 0.13014958E+00 0.18785350E+03</pdfrwt>
<pdfrwt beam="2">  1       21 0.65073531E-02 0.18785350E+03</pdfrwt>
<totfact> 0.74105039E+04</totfact>
</mgrwt>
</event>
<event>
 4    1  0.4137916E+000  0.2144705E+03  0.7546771E-02  0.1138074E+00
         21   -1    0    0  501  502  0.00000000000E+00  0.00000000000E+00  0.15960501231E+03  0.15960501231E+03  0.00000000000E+00 0. -1.
         21   -1    0    0  502  503 -0.00000000000E+00 -0.00000000000E+00 -0.31947717458E+03  0.31947717458E+03  0.00000000000E+00 0.  1.
          6    1    1    2  501    0  0.61261669422E+02 -0.11097564258E+03 -0.49813485963E+01  0.21452831799E+03  0.17300000000E+03 0. -1.
         -6    1    1    2    0  503 -0.61261669422E+02  0.11097564258E+03 -0.15489081367E+03  0.26455386890E+03  0.17300000000E+03 0.  1.
<mgrwt>
<rscale>  2 0.21447048E+03</rscale>
<asrwt>0</asrwt>
<pdfrwt beam="1">  1       21 0.24554618E-01 0.21447048E+03</pdfrwt>
<pdfrwt beam="2">  1       21 0.49150334E-01 0.21447048E+03</pdfrwt>
<totfact> 0.61286652E+04</totfact>
</mgrwt>
</event>
<event>
 4    1  0.4137916E+000  0.3526461E+03  0.7546771E-02  0.1061534E+00
         21   -1    0    0  501  502  0.00000000000E+00  0.00000000000E+00  0.78073754958E+03  0.78073754958E+03  0.00000000000E+00 0.  1.
         21   -1    0    0  502  503 -0.00000000000E+00 -0.00000000000E+00 -0.47764049495E+03  0.47764049495E+03  0.00000000000E+00 0. -1.
          6    1    1    2  501    0 -0.30637063665E+03 -0.23818743111E+02  0.66522202838E+03  0.75291410304E+03  0.17300000000E+03 0.  1.
         -6    1    1    2    0  503  0.30637063665E+03  0.23818743111E+02 -0.36212497375E+03  0.50546394148E+03  0.17300000000E+03 0. -1.
<mgrwt>
<rscale>  2 0.35264614E+03</rscale>
<asrwt>0</asrwt>
<pdfrwt beam="1">  1       21 0.12011347E+00 0.35264614E+03</pdfrwt>
<pdfrwt beam="2">  1       21 0.73483153E-01 0.35264614E+03</pdfrwt>
<totfact> 0.77565619E+02</totfact>
</mgrwt>
</event>
<event>
 4    1  0.4137916E+000  0.1926084E+03  0.7546771E-02  0.1156130E+00
         21   -1    0    0  501  502  0.00000000000E+00  0.00000000000E+00  0.13382472792E+04  0.13382472792E+04  0.00000000000E+00 0. -1.
         21   -1    0    0  502  503 -0.00000000000E+00 -0.00000000000E+00 -0.31137105104E+02  0.31137105104E+02  0.00000000000E+00 0. -1.
          6    1    1    2  501    0 -0.84482154821E+02  0.56358442550E+01  0.88033300391E+03  0.90115714223E+03  0.17300000000E+03 0. -1.
         -6    1    1    2    0  503  0.84482154821E+02 -0.56358442550E+01  0.42677717015E+03  0.46822724204E+03  0.17300000000E+03 0. -1.
<mgrwt>
<rscale>  2 0.19260840E+03</rscale>
<asrwt>0</asrwt>
<pdfrwt beam="1">  1       21 0.20588415E+00 0.19260840E+03</pdfrwt>
<pdfrwt beam="2">  1       21 0.47903249E-02 0.19260840E+03</pdfrwt>
<totfact> 0.35625919E+04</totfact>
</mgrwt>
</event>
<event>
 4    1  0.4137916E+000  0.1774945E+03  0.7546771E-02  0.1170250E+00
         21   -1    0    0  503  502  0.00000000000E+00  0.00000000000E+00  0.16259891181E+03  0.16259891181E+03  0.00000000000E+00 0.  1.
         21   -1    0    0  501  503 -0.00000000000E+00 -0.00000000000E+00 -0.19381740880E+03  0.19381740880E+03  0.00000000000E+00 0.  1.
          6    1    1    2  501    0  0.52813429499E+01  0.39336982186E+02 -0.18816730273E+02  0.17848910356E+03  0.17300000000E+03 0.  1.
         -6    1    1    2    0  502 -0.52813429499E+01 -0.39336982186E+02 -0.12401766709E+02  0.17792721705E+03  0.17300000000E+03 0.  1.
<mgrwt>
<rscale>  2 0.17749448E+03</rscale>
<asrwt>0</asrwt>
<pdfrwt beam="1">  1       21 0.25015217E-01 0.17749448E+03</pdfrwt>
<pdfrwt beam="2">  1       21 0.29818063E-01 0.17749448E+03</pdfrwt>
<totfact> 0.16390974E+05</totfact>
</mgrwt>
</event>
<event>
 4    1  0.4137916E+000  0.1762429E+03  0.7546771E-02  0.1171489E+00
         21   -1    0    0  501  502  0.00000000000E+00  0.00000000000E+00  0.32121489143E+02  0.32121489143E+02  0.00000000000E+00 0. -1.
         21   -1    0    0  502  503 -0.00000000000E+00 -0.00000000000E+00 -0.10073389123E+04  0.10073389123E+04  0.00000000000E+00 0. -1.
          6    1    1    2  501    0 -0.12264225305E+02 -0.31339410253E+02 -0.38360779154E+03  0.42215697032E+03  0.17300000000E+03 0. -1.
         -6    1    1    2    0  503  0.12264225305E+02  0.31339410253E+02 -0.59160963160E+03  0.61730343111E+03  0.17300000000E+03 0. -1.
<mgrwt>
<rscale>  2 0.17624293E+03</rscale>
<asrwt>0</asrwt>
<pdfrwt beam="1">  1       21 0.49417685E-02 0.17624293E+03</pdfrwt>
<pdfrwt beam="2">  1       21 0.15497519E+00 0.17624293E+03</pdfrwt>
<totfact> 0.75882315E+04</totfact>
</mgrwt>
</event>
<event>
 4    1  0.4137916E+000  0.3408190E+03  0.7546771E-02  0.1066448E+00
         21   -1    0    0  501  502  0.00000000000E+00  0.00000000000E+00  0.29834982898E+03  0.29834982898E+03  0.00000000000E+00 0. -1.
         21   -1    0    0  502  503 -0.00000000000E+00 -0.00000000000E+00 -0.52285890821E+03  0.52285890821E+03  0.00000000000E+00 0.  1.
          6    1    1    2  501    0 -0.95398153129E+01 -0.29349199179E+03  0.95243217999E+02  0.35387685414E+03  0.17300000000E+03 0. -1.
         -6    1    1    2    0  503  0.95398153129E+01  0.29349199179E+03 -0.31975229723E+03  0.46733188304E+03  0.17300000000E+03 0.  1.
<mgrwt>
<rscale>  2 0.34081895E+03</rscale>
<asrwt>0</asrwt>
<pdfrwt beam="1">  1       21 0.45899974E-01 0.34081895E+03</pdfrwt>
<pdfrwt beam="2">  1       21 0.80439832E-01 0.34081895E+03</pdfrwt>
<totfact> 0.56726915E+03</totfact>
</mgrwt>
</event>
<event>
 4    1  0.4137916E+000  0.2908366E+03  0.7546771E-02  0.1089913E+00
         21   -1    0    0  501  502  0.00000000000E+00  0.00000000000E+00  0.11790549377E+03  0.11790549377E+03  0.00000000000E+00 0.  1.
         21   -1    0    0  502  503 -0.00000000000E+00 -0.00000000000E+00 -0.78129867733E+03  0.78129867733E+03  0.00000000000E+00 0. -1.
          6    1    1    2  501    0  0.47398598348E+02  0.22893302442E+03 -0.20312361657E+03  0.35474661436E+03  0.17300000000E+03 0.  1.
         -6    1    1    2    0  503 -0.47398598348E+02 -0.22893302442E+03 -0.46026956699E+03  0.54445755674E+03  0.17300000000E+03 0. -1.
<mgrwt>
<rscale>  2 0.29083665E+03</rscale>
<asrwt>0</asrwt>
<pdfrwt beam="1">  1       21 0.18139307E-01 0.29083665E+03</pdfrwt>
<pdfrwt beam="2">  1       21 0.12019979E+00 0.29083665E+03</pdfrwt>
<totfact> 0.13765475E+04</totfact>
</mgrwt>
</event>
<event>
 4    1  0.4137916E+000  0.1794549E+03  0.7546771E-02  0.1168332E+00
         21   -1    0    0  501  502  0.00000000000E+00  0.00000000000E+00  0.31270525528E+02  0.31270525528E+02  0.00000000000E+00 0.  1.
         21   -1    0    0  502  503 -0.00000000000E+00 -0.00000000000E+00 -0.15039934343E+04  0.15039934343E+04  0.00000000000E+00 0.  1.
          6    1    1    2  501    0 -0.40000147402E+02 -0.25981795766E+02 -0.11673674172E+04  0.11810803327E+04  0.17300000000E+03 0.  1.
         -6    1    1    2    0  503  0.40000147402E+02  0.25981795766E+02 -0.30535549154E+03  0.35418362712E+03  0.17300000000E+03 0.  1.
<mgrwt>
<rscale>  2 0.17945491E+03</rscale>
<asrwt>0</asrwt>
<pdfrwt beam="1">  1       21 0.48108502E-02 0.17945491E+03</pdfrwt>
<pdfrwt beam="2">  1       21 0.23138360E+00 0.17945491E+03</pdfrwt>
<totfact> 0.24902806E+04</totfact>
</mgrwt>
</event>
<event>
 4    1  0.4137916E+000  0.1791341E+03  0.7546771E-02  0.1168644E+00
         21   -1    0    0  501  502  0.00000000000E+00  0.00000000000E+00  0.43794562124E+02  0.43794562124E+02  0.00000000000E+00 0. -1.
         21   -1    0    0  502  503 -0.00000000000E+00 -0.00000000000E+00 -0.78933944196E+03  0.78933944196E+03  0.00000000000E+00 0. -1.
          6    1    1    2  501    0  0.20502028168E+02  0.41709648524E+02 -0.26120265896E+03  0.31672678603E+03  0.17300000000E+03 0. -1.
         -6    1    1    2    0  503 -0.20502028168E+02 -0.41709648524E+02 -0.48434222088E+03  0.51640721806E+03  0.17300000000E+03 0. -1.
<mgrwt>
<rscale>  2 0.17913411E+03</rscale>
<asrwt>0</asrwt>
<pdfrwt beam="1">  1       21 0.67376252E-02 0.17913411E+03</pdfrwt>
<pdfrwt beam="2">  1       21 0.12143683E+00 0.17913411E+03</pdfrwt>
<totfact> 0.83355106E+04</totfact>
</mgrwt>
</event>
<event>
 4    1  0.4137916E+000  0.2040750E+03  0.7546771E-02  0.1146346E+00
         21   -1    0    0  503  502  0.00000000000E+00  0.00000000000E+00  0.10184928820E+03  0.10184928820E+03  0.00000000000E+00 0. -1.
         21   -1    0    0  501  503 -0.00000000000E+00 -0.00000000000E+00 -0.52588102497E+03  0.52588102497E+03  0.00000000000E+00 0.  1.
          6    1    1    2  501    0 -0.92391249851E+02 -0.56404306270E+02 -0.36004578860E+03  0.41385934652E+03  0.17300000000E+03 0.  1.
         -6    1    1    2    0  502  0.92391249851E+02  0.56404306270E+02 -0.63985948176E+02  0.21387096666E+03  0.17300000000E+03 0. -1.
<mgrwt>
<rscale>  2 0.20407496E+03</rscale>
<asrwt>0</asrwt>
<pdfrwt beam="1">  1       21 0.15669121E-01 0.20407496E+03</pdfrwt>
<pdfrwt beam="2">  1       21 0.80904774E-01 0.20407496E+03</pdfrwt>
<totfact> 0.48293744E+04</totfact>
</mgrwt>
</event>
<event>
 4    1  0.4137916E+000  0.1939787E+03  0.7546771E-02  0.1154921E+00
         21   -1    0    0  501  502  0.00000000000E+00  0.00000000000E+00  0.12759674809E+04  0.12759674809E+04  0.00000000000E+00 0.  1.
         21   -1    0    0  502  503 -0.00000000000E+00 -0.00000000000E+00 -0.29824238657E+02  0.29824238657E+02  0.00000000000E+00 0.  1.
          6    1    1    2  501    0 -0.81420702323E+02 -0.32701718592E+02  0.55390981351E+03  0.58689335885E+03  0.17300000000E+03 0.  1.
         -6    1    1    2    0  503  0.81420702323E+02  0.32701718592E+02  0.69223342875E+03  0.71889836072E+03  0.17300000000E+03 0.  1.
<mgrwt>
<rscale>  2 0.19397869E+03</rscale>
<asrwt>0</asrwt>
<pdfrwt beam="1">  1       21 0.19630265E+00 0.19397869E+03</pdfrwt>
<pdfrwt beam="2">  1       21 0.45883454E-02 0.19397869E+03</pdfrwt>
<totfact> 0.44087992E+04</totfact>
</mgrwt>
</event>
<event>
 4    1  0.4137916E+000  0.2082071E+03  0.7546771E-02  0.1142994E+00
         21   -1    0    0  501  502  0.00000000000E+00  0.00000000000E+00  0.50769204994E+02  0.50769204994E+02  0.00000000000E+00 0.  1.
         21   -1    0    0  502  503 -0.00000000000E+00 -0.00000000000E+00 -0.12121000815E+04  0.12121000815E+04  0.00000000000E+00 0.  1.
          6    1    1    2  501    0 -0.81891884601E+02  0.81944690818E+02 -0.23739117690E+03  0.31576064351E+03  0.17300000000E+03 0.  1.
         -6    1    1    2    0  503  0.81891884601E+02 -0.81944690818E+02 -0.92393969958E+03  0.94710864296E+03  0.17300000000E+03 0.  1.
<mgrwt>
<rscale>  2 0.20820714E+03</rscale>
<asrwt>0</asrwt>
<pdfrwt beam="1">  1       21 0.78106477E-02 0.20820714E+03</pdfrwt>
<pdfrwt beam="2">  1       21 0.18647692E+00 0.20820714E+03</pdfrwt>
<totfact> 0.20359938E+04</totfact>
</mgrwt>
</event>
<event>
 4    1  0.4137916E+000  0.1767849E+03  0.7546771E-02  0.1170951E+00
         21   -1    0    0  501  502  0.00000000000E+00  0.00000000000E+00  0.19055633442E+03  0.19055633442E+03  0.00000000000E+00 0. -1.
         21   -1    0    0  502  503 -0.00000000000E+00 -0.00000000000E+00 -0.33261181844E+03  0.33261181844E+03  0.00000000000E+00 0. -1.
          6    1    1    2  501    0 -0.93390197241E+01  0.35166396974E+02  0.11521325720E+03  0.21101418768E+03  0.17300000000E+03 0. -1.
         -6    1    1    2    0  503  0.93390197241E+01 -0.35166396974E+02 -0.25726874122E+03  0.31215396518E+03  0.17300000000E+03 0. -1.
<mgrwt>
<rscale>  2 0.17678488E+03</rscale>
<asrwt>0</asrwt>
<pdfrwt beam="1">  1       21 0.29316359E-01 0.17678488E+03</pdfrwt>
<pdfrwt beam="2">  1       21 0.51171048E-01 0.17678488E+03</pdfrwt>
<totfact> 0.40787143E+04</totfact>
</mgrwt>
</event>
<event>
 4    1  0.4137916E+000  0.1815883E+03  0.7546771E-02  0.1166275E+00
         21   -1    0    0  501  502  0.00000000000E+00  0.00000000000E+00  0.68913560006E+02  0.68913560006E+02  0.00000000000E+00 0.  1.
         21   -1    0    0  502  503 -0.00000000000E+00 -0.00000000000E+00 -0.72253736310E+03  0.72253736310E+03  0.00000000000E+00 0.  1.
          6    1    1    2  501    0 -0.34037990089E+02 -0.43436351891E+02 -0.96825155513E+02  0.20578972806E+03  0.17300000000E+03 0.  1.
         -6    1    1    2    0  503  0.34037990089E+02  0.43436351891E+02 -0.55679864758E+03  0.58566119505E+03  0.17300000000E+03 0.  1.
<mgrwt>
<rscale>  2 0.18158827E+03</rscale>
<asrwt>0</asrwt>
<pdfrwt beam="1">  1       21 0.10602086E-01 0.18158827E+03</pdfrwt>
<pdfrwt beam="2">  1       21 0.11115960E+00 0.18158827E+03</pdfrwt>
<totfact> 0.46854879E+04</totfact>
</mgrwt>
</event>
<event>
 4    1  0.4137916E+000  0.1778585E+03  0.7546771E-02  0.1169892E+00
         21   -1    0    0  501  502  0.00000000000E+00  0.00000000000E+00  0.35957144445E+03  0.35957144445E+03  0.00000000000E+00 0.  1.
         21   -1    0    0  502  503 -0.00000000000E+00 -0.00000000000E+00 -0.92510568987E+02  0.92510568987E+02  0.00000000000E+00 0.  1.
          6    1    1    2  501    0 -0.41175283411E+02  0.30381762139E+01  0.18357565922E+03  0.25560449358E+03  0.17300000000E+03 0.  1.
         -6    1    1    2    0  503  0.41175283411E+02 -0.30381762139E+01  0.83485216242E+02  0.19647751986E+03  0.17300000000E+03 0.  1.
<mgrwt>
<rscale>  2 0.17785847E+03</rscale>
<asrwt>0</asrwt>
<pdfrwt beam="1">  1       21 0.55318683E-01 0.17785847E+03</pdfrwt>
<pdfrwt beam="2">  1       21 0.14232395E-01 0.17785847E+03</pdfrwt>
<totfact> 0.13365758E+05</totfact>
</mgrwt>
</event>
<event>
 4    1  0.4137916E+000  0.1885298E+03  0.7546771E-02  0.1159794E+00
         21   -1    0    0  501  502  0.00000000000E+00  0.00000000000E+00  0.17173896190E+03  0.17173896190E+03  0.00000000000E+00 0. -1.
         21   -1    0    0  502  503 -0.00000000000E+00 -0.00000000000E+00 -0.35546842984E+03  0.35546842984E+03  0.00000000000E+00 0. -1.
          6    1    1    2  501    0  0.53440666308E+02 -0.52522356541E+02  0.78517011631E+02  0.20422640345E+03  0.17300000000E+03 0. -1.
         -6    1    1    2    0  503 -0.53440666308E+02  0.52522356541E+02 -0.26224647956E+03  0.32298098829E+03  0.17300000000E+03 0. -1.
<mgrwt>
<rscale>  2 0.18852985E+03</rscale>
<asrwt>0</asrwt>
<pdfrwt beam="1">  1       21 0.26421379E-01 0.18852985E+03</pdfrwt>
<pdfrwt beam="2">  1       21 0.54687450E-01 0.18852985E+03</pdfrwt>
<totfact> 0.43101628E+04</totfact>
</mgrwt>
</event>
<event>
 4    1  0.4137916E+000  0.1730385E+03  0.7546771E-02  0.1174716E+00
         21   -1    0    0  503  502  0.00000000000E+00  0.00000000000E+00  0.38945990113E+02  0.38945990113E+02  0.00000000000E+00 0. -1.
         21   -1    0    0  501  503 -0.00000000000E+00 -0.00000000000E+00 -0.16502453263E+04  0.16502453263E+04  0.00000000000E+00 0. -1.
          6    1    1    2  501    0  0.61781252900E+00  0.35981444807E+01 -0.14229097039E+04  0.14333926028E+04  0.17300000000E+03 0. -1.
         -6    1    1    2    0  502 -0.61781252900E+00 -0.35981444807E+01 -0.18838963235E+03  0.25579871367E+03  0.17300000000E+03 0. -1.
<mgrwt>
<rscale>  2 0.17303852E+03</rscale>
<asrwt>0</asrwt>
<pdfrwt beam="1">  1       21 0.59916904E-02 0.17303852E+03</pdfrwt>
<pdfrwt beam="2">  1       21 0.25388391E+00 0.17303852E+03</pdfrwt>
<totfact> 0.12710883E+04</totfact>
</mgrwt>
</event>
<event>
 4    1  0.4137916E+000  0.2010308E+03  0.7546771E-02  0.1148872E+00
         21   -1    0    0  503  502  0.00000000000E+00  0.00000000000E+00  0.12626739650E+03  0.12626739650E+03  0.00000000000E+00 0. -1.
         21   -1    0    0  501  503 -0.00000000000E+00 -0.00000000000E+00 -0.54666495531E+03  0.54666495531E+03  0.00000000000E+00 0. -1.
          6    1    1    2  501    0  0.69447745758E+02  0.75242202864E+02 -0.42682633987E+03  0.47179879492E+03  0.17300000000E+03 0. -1.
         -6    1    1    2    0  502 -0.69447745758E+02 -0.75242202864E+02  0.64287810563E+01  0.20113355689E+03  0.17300000000E+03 0. -1.
<mgrwt>
<rscale>  2 0.20103079E+03</rscale>
<asrwt>0</asrwt>
<pdfrwt beam="1">  1       21 0.19425753E-01 0.20103079E+03</pdfrwt>
<pdfrwt beam="2">  1       21 0.84102301E-01 0.20103079E+03</pdfrwt>
<totfact> 0.29780178E+04</totfact>
</mgrwt>
</event>
<event>
 4    1  0.4137916E+000  0.1941766E+03  0.7546771E-02  0.1154747E+00
         21   -1    0    0  503  502  0.00000000000E+00  0.00000000000E+00  0.16176537172E+03  0.16176537172E+03  0.00000000000E+00 0. -1.
         21   -1    0    0  501  503 -0.00000000000E+00 -0.00000000000E+00 -0.26895528813E+03  0.26895528813E+03  0.00000000000E+00 0. -1.
          6    1    1    2  501    0  0.62458872837E+02  0.62245073376E+02 -0.13224747416E+03  0.23493393620E+03  0.17300000000E+03 0. -1.
         -6    1    1    2    0  502 -0.62458872837E+02 -0.62245073376E+02  0.25057557752E+02  0.19578672365E+03  0.17300000000E+03 0. -1.
<mgrwt>
<rscale>  2 0.19417662E+03</rscale>
<asrwt>0</asrwt>
<pdfrwt beam="1">  1       21 0.24886981E-01 0.19417662E+03</pdfrwt>
<pdfrwt beam="2">  1       21 0.41377736E-01 0.19417662E+03</pdfrwt>
<totfact> 0.85879418E+04</totfact>
</mgrwt>
</event>
<event>
 4    1  0.4137916E+000  0.2264022E+03  0.7546771E-02  0.1129198E+00
         21   -1    0    0  501  502  0.00000000000E+00  0.00000000000E+00  0.73140348658E+02  0.73140348658E+02  0.00000000000E+00 0.  1.
         21   -1    0    0  502  503 -0.00000000000E+00 -0.00000000000E+00 -0.71184471964E+03  0.71184471964E+03  0.00000000000E+00 0. -1.
          6    1    1    2  501    0 -0.11012789715E+03  0.95920865916E+02 -0.27049925310E+03  0.35274326666E+03  0.17300000000E+03 0. -1.
         -6    1    1    2    0  503  0.11012789715E+03 -0.95920865916E+02 -0.36820511788E+03  0.43224180163E+03  0.17300000000E+03 0.  1.
<mgrwt>
<rscale>  2 0.22640222E+03</rscale>
<asrwt>0</asrwt>
<pdfrwt beam="1">  1       21 0.11252361E-01 0.22640222E+03</pdfrwt>
<pdfrwt beam="2">  1       21 0.10951457E+00 0.22640222E+03</pdfrwt>
<totfact> 0.42698771E+04</totfact>
</mgrwt>
</event>
<event>
 4    1  0.4137916E+000  0.1979070E+03  0.7546771E-02  0.1151517E+00
         21   -1    0    0  501  502  0.00000000000E+00  0.00000000000E+00  0.62787394759E+02  0.62787394759E+02  0.00000000000E+00 0. -1.
         21   -1    0    0  502  503 -0.00000000000E+00 -0.00000000000E+00 -0.62691984408E+03  0.62691984408E+03  0.00000000000E+00 0. -1.
          6    1    1    2  501    0 -0.77747200551E+02  0.56511508054E+02 -0.30636869235E+03  0.36473134413E+03  0.17300000000E+03 0. -1.
         -6    1    1    2    0  503  0.77747200551E+02 -0.56511508054E+02 -0.25776375697E+03  0.32497589471E+03  0.17300000000E+03 0. -1.
<mgrwt>
<rscale>  2 0.19790699E+03</rscale>
<asrwt>0</asrwt>
<pdfrwt beam="1">  1       21 0.96595993E-02 0.19790699E+03</pdfrwt>
<pdfrwt beam="2">  1       21 0.96449206E-01 0.19790699E+03</pdfrwt>
<totfact> 0.76932767E+04</totfact>
</mgrwt>
</event>
<event>
 4    1  0.4137916E+000  0.2327044E+03  0.7546771E-02  0.1124751E+00
         21   -1    0    0  503  502  0.00000000000E+00  0.00000000000E+00  0.53100140194E+02  0.53100140194E+02  0.00000000000E+00 0.  1.
         21   -1    0    0  501  503 -0.00000000000E+00 -0.00000000000E+00 -0.11144832935E+04  0.11144832935E+04  0.00000000000E+00 0.  1.
          6    1    1    2  501    0  0.15562223537E+03  0.20098577184E+01 -0.36052799979E+03  0.42910576587E+03  0.17300000000E+03 0.  1.
         -6    1    1    2    0  502 -0.15562223537E+03 -0.20098577184E+01 -0.70085515351E+03  0.73847766783E+03  0.17300000000E+03 0.  1.
<mgrwt>
<rscale>  2 0.23270436E+03</rscale>
<asrwt>0</asrwt>
<pdfrwt beam="1">  1       21 0.81692519E-02 0.23270436E+03</pdfrwt>
<pdfrwt beam="2">  1       21 0.17145898E+00 0.23270436E+03</pdfrwt>
<totfact> 0.23494344E+04</totfact>
</mgrwt>
</event>
<event>
 4    1  0.4137916E+000  0.1754869E+03  0.7546771E-02  0.1172244E+00
         21   -1    0    0  503  502  0.00000000000E+00  0.00000000000E+00  0.21782746666E+03  0.21782746666E+03  0.00000000000E+00 0.  1.
         21   -1    0    0  501  503 -0.00000000000E+00 -0.00000000000E+00 -0.19046131797E+03  0.19046131797E+03  0.00000000000E+00 0.  1.
          6    1    1    2  501    0  0.26243084332E+02 -0.13339596298E+02 -0.89952409106E+02  0.19719807354E+03  0.17300000000E+03 0.  1.
         -6    1    1    2    0  502 -0.26243084332E+02  0.13339596298E+02  0.11731855779E+03  0.21109071109E+03  0.17300000000E+03 0.  1.
<mgrwt>
<rscale>  2 0.17548688E+03</rscale>
<asrwt>0</asrwt>
<pdfrwt beam="1">  1       21 0.33511918E-01 0.17548688E+03</pdfrwt>
<pdfrwt beam="2">  1       21 0.29301741E-01 0.17548688E+03</pdfrwt>
<totfact> 0.96308642E+04</totfact>
</mgrwt>
</event>
<event>
 4    1  0.4137916E+000  0.2263984E+03  0.7546771E-02  0.1129201E+00
         21   -1    0    0  501  502  0.00000000000E+00  0.00000000000E+00  0.32164051380E+03  0.32164051380E+03  0.00000000000E+00 0. -1.
         21   -1    0    0  502  503 -0.00000000000E+00 -0.00000000000E+00 -0.35057389746E+03  0.35057389746E+03  0.00000000000E+00 0.  1.
          6    1    1    2  501    0  0.95326733945E+02 -0.11063484302E+03  0.23376035171E+03  0.32542304271E+03  0.17300000000E+03 0. -1.
         -6    1    1    2    0  503 -0.95326733945E+02  0.11063484302E+03 -0.26269373538E+03  0.34679136855E+03  0.17300000000E+03 0.  1.
<mgrwt>
<rscale>  2 0.22639844E+03</rscale>
<asrwt>0</asrwt>
<pdfrwt beam="1">  1       21 0.49483156E-01 0.22639844E+03</pdfrwt>
<pdfrwt beam="2">  1       21 0.53934446E-01 0.22639844E+03</pdfrwt>
<totfact> 0.12391074E+04</totfact>
</mgrwt>
</event>
<event>
 4    1  0.4137916E+000  0.2072763E+03  0.7546771E-02  0.1143741E+00
         21   -1    0    0  501  502  0.00000000000E+00  0.00000000000E+00  0.11240429505E+03  0.11240429505E+03  0.00000000000E+00 0. -1.
         21   -1    0    0  502  503 -0.00000000000E+00 -0.00000000000E+00 -0.12663279630E+04  0.12663279630E+04  0.00000000000E+00 0. -1.
          6    1    1    2  501    0  0.10403596645E+03  0.47021174940E+02 -0.95341589471E+00  0.20727851362E+03  0.17300000000E+03 0. -1.
         -6    1    1    2    0  503 -0.10403596645E+03 -0.47021174940E+02 -0.11529702520E+04  0.11714537444E+04  0.17300000000E+03 0. -1.
<mgrwt>
<rscale>  2 0.20727632E+03</rscale>
<asrwt>0</asrwt>
<pdfrwt beam="1">  1       21 0.17292969E-01 0.20727632E+03</pdfrwt>
<pdfrwt beam="2">  1       21 0.19481968E+00 0.20727632E+03</pdfrwt>
<totfact> 0.43260308E+03</totfact>
</mgrwt>
</event>
<event>
 4    1  0.4137916E+000  0.1890208E+03  0.7546771E-02  0.1159347E+00
         21   -1    0    0  503  502  0.00000000000E+00  0.00000000000E+00  0.53948990394E+02  0.53948990394E+02  0.00000000000E+00 0. -1.
         21   -1    0    0  501  503 -0.00000000000E+00 -0.00000000000E+00 -0.69126094906E+03  0.69126094906E+03  0.00000000000E+00 0. -1.
          6    1    1    2  501    0 -0.62718924472E+02  0.43199553786E+02 -0.39496037137E+03  0.43786134779E+03  0.17300000000E+03 0. -1.
         -6    1    1    2    0  502  0.62718924472E+02 -0.43199553786E+02 -0.24235158730E+03  0.30734859167E+03  0.17300000000E+03 0. -1.
<mgrwt>
<rscale>  2 0.18902081E+03</rscale>
<asrwt>0</asrwt>
<pdfrwt beam="1">  1       21 0.82998447E-02 0.18902081E+03</pdfrwt>
<pdfrwt beam="2">  1       21 0.10634784E+00 0.18902081E+03</pdfrwt>
<totfact> 0.79876211E+04</totfact>
</mgrwt>
</event>
<event>
 4    1  0.4137916E+000  0.2008597E+03  0.7546771E-02  0.1149016E+00
         21   -1    0    0  501  502  0.00000000000E+00  0.00000000000E+00  0.33792250072E+03  0.33792250072E+03  0.00000000000E+00 0. -1.
         21   -1    0    0  502  503 -0.00000000000E+00 -0.00000000000E+00 -0.11949294244E+03  0.11949294244E+03  0.00000000000E+00 0.  1.
          6    1    1    2  501    0  0.92687057730E+02  0.42716949879E+02  0.11592172939E+03  0.23191049097E+03  0.17300000000E+03 0. -1.
         -6    1    1    2    0  503 -0.92687057730E+02 -0.42716949879E+02  0.10250782889E+03  0.22550495219E+03  0.17300000000E+03 0.  1.
<mgrwt>
<rscale>  2 0.20085972E+03</rscale>
<asrwt>0</asrwt>
<pdfrwt beam="1">  1       21 0.51988077E-01 0.20085972E+03</pdfrwt>
<pdfrwt beam="2">  1       21 0.18383530E-01 0.20085972E+03</pdfrwt>
<totfact> 0.94509516E+04</totfact>
</mgrwt>
</event>
<event>
 4    1  0.4137916E+000  0.1735765E+03  0.7546771E-02  0.1174169E+00
         21   -1    0    0  501  502  0.00000000000E+00  0.00000000000E+00  0.13275814400E+03  0.13275814400E+03  0.00000000000E+00 0.  1.
         21   -1    0    0  502  503 -0.00000000000E+00 -0.00000000000E+00 -0.30255489833E+03  0.30255489833E+03  0.00000000000E+00 0.  1.
          6    1    1    2  501    0  0.97950841250E+01  0.10191133283E+02  0.23909112095E+02  0.17521543457E+03  0.17300000000E+03 0.  1.
         -6    1    1    2    0  503 -0.97950841250E+01 -0.10191133283E+02 -0.19370586644E+03  0.26009760776E+03  0.17300000000E+03 0.  1.
<mgrwt>
<rscale>  2 0.17357650E+03</rscale>
<asrwt>0</asrwt>
<pdfrwt beam="1">  1       21 0.20424330E-01 0.17357650E+03</pdfrwt>
<pdfrwt beam="2">  1       21 0.46546906E-01 0.17357650E+03</pdfrwt>
<totfact> 0.98825659E+04</totfact>
</mgrwt>
</event>
<event>
 4    1  0.4137916E+000  0.2486399E+03  0.7546771E-02  0.1114167E+00
         21   -1    0    0  503  502  0.00000000000E+00  0.00000000000E+00  0.10487527362E+03  0.10487527362E+03  0.00000000000E+00 0.  1.
         21   -1    0    0  501  503 -0.00000000000E+00 -0.00000000000E+00 -0.63698285858E+03  0.63698285858E+03  0.00000000000E+00 0.  1.
          6    1    1    2  501    0 -0.14364869655E+03 -0.10610305184E+03 -0.36734924427E+03  0.44358457243E+03  0.17300000000E+03 0.  1.
         -6    1    1    2    0  502  0.14364869655E+03  0.10610305184E+03 -0.16475834069E+03  0.29827355977E+03  0.17300000000E+03 0.  1.
<mgrwt>
<rscale>  2 0.24863991E+03</rscale>
<asrwt>0</asrwt>
<pdfrwt beam="1">  1       21 0.16134658E-01 0.24863991E+03</pdfrwt>
<pdfrwt beam="2">  1       21 0.97997362E-01 0.24863991E+03</pdfrwt>
<totfact> 0.28711926E+04</totfact>
</mgrwt>
</event>
<event>
 4    1  0.4137916E+000  0.1898511E+03  0.7546771E-02  0.1158596E+00
         21   -1    0    0  503  502  0.00000000000E+00  0.00000000000E+00  0.12845207462E+03  0.12845207462E+03  0.00000000000E+00 0.  1.
         21   -1    0    0  501  503 -0.00000000000E+00 -0.00000000000E+00 -0.35759485457E+03  0.35759485457E+03  0.00000000000E+00 0. -1.
          6    1    1    2  501    0 -0.75823468923E+02 -0.19111225645E+02 -0.18028016175E+01  0.18985965206E+03  0.17300000000E+03 0.  1.
         -6    1    1    2    0  502  0.75823468923E+02  0.19111225645E+02 -0.22733997833E+03  0.29618727713E+03  0.17300000000E+03 0. -1.
<mgrwt>
<rscale>  2 0.18985109E+03</rscale>
<asrwt>0</asrwt>
<pdfrwt beam="1">  1       21 0.19761858E-01 0.18985109E+03</pdfrwt>
<pdfrwt beam="2">  1       21 0.55014593E-01 0.18985109E+03</pdfrwt>
<totfact> 0.73675439E+04</totfact>
</mgrwt>
</event>
<event>
 4    1  0.4137916E+000  0.1745050E+03  0.7546771E-02  0.1173230E+00
         21   -1    0    0  503  502  0.00000000000E+00  0.00000000000E+00  0.12867351761E+03  0.12867351761E+03  0.00000000000E+00 0.  1.
         21   -1    0    0  501  503 -0.00000000000E+00 -0.00000000000E+00 -0.31814822855E+03  0.31814822855E+03  0.00000000000E+00 0.  1.
          6    1    1    2  501    0 -0.22314271742E+02 -0.50071947282E+01 -0.20780397833E+03  0.27135676172E+03  0.17300000000E+03 0.  1.
         -6    1    1    2    0  502  0.22314271742E+02  0.50071947282E+01  0.18329267392E+02  0.17546498444E+03  0.17300000000E+03 0.  1.
<mgrwt>
<rscale>  2 0.17450501E+03</rscale>
<asrwt>0</asrwt>
<pdfrwt beam="1">  1       21 0.19795926E-01 0.17450501E+03</pdfrwt>
<pdfrwt beam="2">  1       21 0.48945881E-01 0.17450501E+03</pdfrwt>
<totfact> 0.94389995E+04</totfact>
</mgrwt>
</event>
<event>
 4    1  0.4137916E+000  0.2553672E+03  0.7546771E-02  0.1109959E+00
         21   -1    0    0  503  502  0.00000000000E+00  0.00000000000E+00  0.17538968793E+03  0.17538968793E+03  0.00000000000E+00 0. -1.
         21   -1    0    0  501  503 -0.00000000000E+00 -0.00000000000E+00 -0.53987439450E+03  0.53987439450E+03  0.00000000000E+00 0. -1.
          6    1    1    2  501    0 -0.98174664482E+02 -0.16014099732E+03 -0.38177882408E+03  0.45931195748E+03  0.17300000000E+03 0. -1.
         -6    1    1    2    0  502  0.98174664482E+02  0.16014099732E+03  0.17294117503E+02  0.25595212495E+03  0.17300000000E+03 0. -1.
<mgrwt>
<rscale>  2 0.25536719E+03</rscale>
<asrwt>0</asrwt>
<pdfrwt beam="1">  1       21 0.26983029E-01 0.25536719E+03</pdfrwt>
<pdfrwt beam="2">  1       21 0.83057598E-01 0.25536719E+03</pdfrwt>
<totfact> 0.15946820E+04</totfact>
</mgrwt>
</event>
<event>
 4    1  0.4137916E+000  0.1732515E+03  0.7546771E-02  0.1174499E+00
         21   -1    0    0  501  502  0.00000000000E+00  0.00000000000E+00  0.16619178536E+04  0.16619178536E+04  0.00000000000E+00 0.  1.
         21   -1    0    0  502  503 -0.00000000000E+00 -0.00000000000E+00 -0.19973203311E+02  0.19973203311E+02  0.00000000000E+00 0.  1.
          6    1    1    2  501    0  0.92880505430E+01 -0.89770267346E+00  0.56077726221E+03  0.58693032939E+03  0.17300000000E+03 0.  1.
         -6    1    1    2    0  503 -0.92880505430E+01  0.89770267346E+00  0.10811673881E+04  0.10949607275E+04  0.17300000000E+03 0.  1.
<mgrwt>
<rscale>  2 0.17325148E+03</rscale>
<asrwt>0</asrwt>
<pdfrwt beam="1">  1       21 0.25567956E+00 0.17325148E+03</pdfrwt>
<pdfrwt beam="2">  1       21 0.30728018E-02 0.17325148E+03</pdfrwt>
<totfact> 0.38068094E+04</totfact>
</mgrwt>
</event>
<event>
 4    1  0.4137916E+000  0.3186285E+03  0.7546771E-02  0.1076282E+00
         21   -1    0    0  501  502  0.00000000000E+00  0.00000000000E+00  0.34875700632E+03  0.34875700632E+03  0.00000000000E+00 0.  1.
         21   -1    0    0  502  503 -0.00000000000E+00 -0.00000000000E+00 -0.30369467081E+03  0.30369467081E+03  0.00000000000E+00 0. -1.
          6    1    1    2  501    0 -0.26016380283E+03  0.62529408317E+02 -0.43895946728E+02  0.32163797249E+03  0.17300000000E+03 0.  1.
         -6    1    1    2    0  503  0.26016380283E+03 -0.62529408317E+02  0.88958282238E+02  0.33081370465E+03  0.17300000000E+03 0. -1.
<mgrwt>
<rscale>  2 0.31862852E+03</rscale>
<asrwt>0</asrwt>
<pdfrwt beam="1">  1       21 0.53654924E-01 0.31862852E+03</pdfrwt>
<pdfrwt beam="2">  1       21 0.46722257E-01 0.31862852E+03</pdfrwt>
<totfact> 0.13511772E+04</totfact>
</mgrwt>
</event>
<event>
 4    1  0.4137916E+000  0.2243295E+03  0.7546771E-02  0.1130696E+00
         21   -1    0    0  501  502  0.00000000000E+00  0.00000000000E+00  0.15724738420E+03  0.15724738420E+03  0.00000000000E+00 0. -1.
         21   -1    0    0  502  503 -0.00000000000E+00 -0.00000000000E+00 -0.35374127892E+03  0.35374127892E+03  0.00000000000E+00 0. -1.
          6    1    1    2  501    0 -0.94698877842E+02  0.10689642938E+03 -0.17712068378E+03  0.28582417795E+03  0.17300000000E+03 0. -1.
         -6    1    1    2    0  503  0.94698877842E+02 -0.10689642938E+03 -0.19373210946E+02  0.22516448517E+03  0.17300000000E+03 0. -1.
<mgrwt>
<rscale>  2 0.22432950E+03</rscale>
<asrwt>0</asrwt>
<pdfrwt beam="1">  1       21 0.24191905E-01 0.22432950E+03</pdfrwt>
<pdfrwt beam="2">  1       21 0.54421735E-01 0.22432950E+03</pdfrwt>
<totfact> 0.50675683E+04</totfact>
</mgrwt>
</event>
<event>
 4    1  0.4137916E+000  0.2013184E+03  0.7546771E-02  0.1148631E+00
         21   -1    0    0  501  502  0.00000000000E+00  0.00000000000E+00  0.13846497400E+03  0.13846497400E+03  0.00000000000E+00 0.  1.
         21   -1    0    0  502  503 -0.00000000000E+00 -0.00000000000E+00 -0.29595124705E+03  0.29595124705E+03  0.00000000000E+00 0. -1.
          6    1    1    2  501    0  0.21809265991E+02 -0.10062031973E+03 -0.55986904486E+02  0.20895843199E+03  0.17300000000E+03 0. -1.
         -6    1    1    2    0  503 -0.21809265991E+02  0.10062031973E+03 -0.10149936857E+03  0.22545778905E+03  0.17300000000E+03 0.  1.
<mgrwt>
<rscale>  2 0.20131839E+03</rscale>
<asrwt>0</asrwt>
<pdfrwt beam="1">  1       21 0.21302304E-01 0.20131839E+03</pdfrwt>
<pdfrwt beam="2">  1       21 0.45530961E-01 0.20131839E+03</pdfrwt>
<totfact> 0.94537575E+04</totfact>
</mgrwt>
</event>
<event>
 4    1  0.4137916E+000  0.1825205E+03  0.7546771E-02  0.1165386E+00
         21   -1    0    0  501  502  0.00000000000E+00  0.00000000000E+00  0.77862322128E+03  0.77862322128E+03  0.00000000000E+00 0.  1.
         21   -1    0    0  502  503 -0.00000000000E+00 -0.00000000000E+00 -0.54357956510E+02  0.54357956510E+02  0.00000000000E+00 0.  1.
          6    1    1    2  501    0 -0.15773665893E+02 -0.55999350715E+02  0.55430350730E+03  0.58358042635E+03  0.17300000000E+03 0.  1.
         -6    1    1    2    0  503  0.15773665893E+02  0.55999350715E+02  0.16996175747E+03  0.24940075144E+03  0.17300000000E+03 0.  1.
<mgrwt>
<rscale>  2 0.18252051E+03</rscale>
<asrwt>0</asrwt>
<pdfrwt beam="1">  1       21 0.11978818E+00 0.18252051E+03</pdfrwt>
<pdfrwt beam="2">  1       21 0.83627631E-02 0.18252051E+03</pdfrwt>
<totfact> 0.59213319E+04</totfact>
</mgrwt>
</event>
<event>
 4    1  0.4137916E+000  0.2150383E+03  0.7546771E-02  0.1137637E+00
         21   -1    0    0  503  502  0.00000000000E+00  0.00000000000E+00  0.84773166690E+03  0.84773166690E+03  0.00000000000E+00 0. -1.
         21   -1    0    0  501  503 -0.00000000000E+00 -0.00000000000E+00 -0.68765325820E+03  0.68765325820E+03  0.00000000000E+00 0. -1.
          6    1    1    2  501    0 -0.29478160147E+02  0.12427187748E+03 -0.65657608562E+03  0.69089334754E+03  0.17300000000E+03 0. -1.
         -6    1    1    2    0  502  0.29478160147E+02 -0.12427187748E+03  0.81665449432E+03  0.84449157755E+03  0.17300000000E+03 0. -1.
<mgrwt>
<rscale>  2 0.21503828E+03</rscale>
<asrwt>0</asrwt>
<pdfrwt beam="1">  1       21 0.13042026E+00 0.21503828E+03</pdfrwt>
<pdfrwt beam="2">  1       21 0.10579281E+00 0.21503828E+03</pdfrwt>
<totfact> 0.29978327E+02</totfact>
</mgrwt>
</event>
<event>
 4    1  0.4137916E+000  0.2822960E+03  0.7546771E-02  0.1094442E+00
         21   -1    0    0  501  502  0.00000000000E+00  0.00000000000E+00  0.13068942009E+03  0.13068942009E+03  0.00000000000E+00 0. -1.
         21   -1    0    0  502  503 -0.00000000000E+00 -0.00000000000E+00 -0.15789566550E+04  0.15789566550E+04  0.00000000000E+00 0.  1.
          6    1    1    2  501    0 -0.22109188152E+03  0.29671391914E+02 -0.54412599699E+02  0.28749216090E+03  0.17300000000E+03 0. -1.
         -6    1    1    2    0  503  0.22109188152E+03 -0.29671391914E+02 -0.13938546352E+04  0.14221539142E+04  0.17300000000E+03 0.  1.
<mgrwt>
<rscale>  2 0.28229596E+03</rscale>
<asrwt>0</asrwt>
<pdfrwt beam="1">  1       21 0.20106065E-01 0.28229596E+03</pdfrwt>
<pdfrwt beam="2">  1       21 0.24291641E+00 0.28229596E+03</pdfrwt>
<totfact> 0.15348210E+03</totfact>
</mgrwt>
</event>
<event>
 4    1  0.4137916E+000  0.1957118E+03  0.7546771E-02  0.1153408E+00
         21   -1    0    0  501  502  0.00000000000E+00  0.00000000000E+00  0.48184994046E+02  0.48184994046E+02  0.00000000000E+00 0. -1.
         21   -1    0    0  502  503 -0.00000000000E+00 -0.00000000000E+00 -0.14033533532E+04  0.14033533532E+04  0.00000000000E+00 0. -1.
          6    1    1    2  501    0 -0.39633862961E+02  0.82481955393E+02 -0.19970045203E+03  0.27961292280E+03  0.17300000000E+03 0. -1.
         -6    1    1    2    0  503  0.39633862961E+02 -0.82481955393E+02 -0.11554679072E+04  0.11719254245E+04  0.17300000000E+03 0. -1.
<mgrwt>
<rscale>  2 0.19571182E+03</rscale>
<asrwt>0</asrwt>
<pdfrwt beam="1">  1       21 0.74130758E-02 0.19571182E+03</pdfrwt>
<pdfrwt beam="2">  1       21 0.21590052E+00 0.19571182E+03</pdfrwt>
<totfact> 0.14568455E+04</totfact>
</mgrwt>
</event>
<event>
 4    1  0.4137916E+000  0.2002269E+03  0.7546771E-02  0.1149548E+00
         21   -1    0    0  503  502  0.00000000000E+00  0.00000000000E+00  0.42567819524E+04  0.42567819524E+04  0.00000000000E+00 0. -1.
         21   -1    0    0  501  503 -0.00000000000E+00 -0.00000000000E+00 -0.42862046331E+02  0.42862046331E+02  0.00000000000E+00 0.  1.
          6    1    1    2  501    0 -0.20244852375E+01  0.10078554122E+03  0.20796079716E+03  0.28868411285E+03  0.17300000000E+03 0.  1.
         -6    1    1    2    0  502  0.20244852375E+01 -0.10078554122E+03  0.40059591089E+04  0.40109598859E+04  0.17300000000E+03 0. -1.
<mgrwt>
<rscale>  2 0.20022693E+03</rscale>
<asrwt>0</asrwt>
<pdfrwt beam="1">  1       21 0.65488920E+00 0.20022693E+03</pdfrwt>
<pdfrwt beam="2">  1       21 0.65941643E-02 0.20022693E+03</pdfrwt>
<totfact> 0.20290389E+01</totfact>
</mgrwt>
</event>
<event>
 4    1  0.4137916E+000  0.1852577E+03  0.7546771E-02  0.1162809E+00
         21   -1    0    0  501  502  0.00000000000E+00  0.00000000000E+00  0.36572605063E+02  0.36572605063E+02  0.00000000000E+00 0. -1.
         21   -1    0    0  502  503 -0.00000000000E+00 -0.00000000000E+00 -0.20580084186E+04  0.20580084186E+04  0.00000000000E+00 0.  1.
          6    1    1    2  501    0 -0.62189076074E+02 -0.22889535504E+02 -0.23826311774E+03  0.30181074417E+03  0.17300000000E+03 0. -1.
         -6    1    1    2    0  503  0.62189076074E+02  0.22889535504E+02 -0.17831726958E+04  0.17927702795E+04  0.17300000000E+03 0.  1.
<mgrwt>
<rscale>  2 0.18525769E+03</rscale>
<asrwt>0</asrwt>
<pdfrwt beam="1">  1       21 0.56265531E-02 0.18525769E+03</pdfrwt>
<pdfrwt beam="2">  1       21 0.31661677E+00 0.18525769E+03</pdfrwt>
<totfact> 0.60787977E+03</totfact>
</mgrwt>
</event>
<event>
 4    1  0.4137916E+000  0.2627783E+03  0.7546771E-02  0.1105485E+00
         21   -1    0    0  503  502  0.00000000000E+00  0.00000000000E+00  0.87431490850E+03  0.87431490850E+03  0.00000000000E+00 0. -1.
         21   -1    0    0  501  503 -0.00000000000E+00 -0.00000000000E+00 -0.96662361254E+02  0.96662361254E+02  0.00000000000E+00 0.  1.
          6    1    1    2  501    0 -0.13002462564E+03  0.14905380957E+03  0.18117536246E+03  0.31918169337E+03  0.17300000000E+03 0.  1.
         -6    1    1    2    0  502  0.13002462564E+03 -0.14905380957E+03  0.59647718478E+03  0.65179557638E+03  0.17300000000E+03 0.  1.
<mgrwt>
<rscale>  2 0.26277831E+03</rscale>
<asrwt>0</asrwt>
<pdfrwt beam="1">  1       21 0.13450998E+00 0.26277831E+03</pdfrwt>
<pdfrwt beam="2">  1       21 0.14871133E-01 0.26277831E+03</pdfrwt>
<totfact> 0.15142714E+04</totfact>
</mgrwt>
</event>
<event>
 4    1  0.4137916E+000  0.2071463E+03  0.7546771E-02  0.1143846E+00
         21   -1    0    0  501  502  0.00000000000E+00  0.00000000000E+00  0.59297000628E+03  0.59297000628E+03  0.00000000000E+00 0. -1.
         21   -1    0    0  502  503 -0.00000000000E+00 -0.00000000000E+00 -0.13453157682E+03  0.13453157682E+03  0.00000000000E+00 0.  1.
          6    1    1    2  501    0  0.87368434549E+02 -0.73125570374E+02  0.47649086410E+03  0.51957014538E+03  0.17300000000E+03 0. -1.
         -6    1    1    2    0  503 -0.87368434549E+02  0.73125570374E+02 -0.18052434641E+02  0.20793143773E+03  0.17300000000E+03 0.  1.
<mgrwt>
<rscale>  2 0.20714631E+03</rscale>
<asrwt>0</asrwt>
<pdfrwt beam="1">  1       21 0.91226153E-01 0.20714631E+03</pdfrwt>
<pdfrwt beam="2">  1       21 0.20697166E-01 0.20714631E+03</pdfrwt>
<totfact> 0.21851332E+04</totfact>
</mgrwt>
</event>
<event>
 4    1  0.4137916E+000  0.1798287E+03  0.7546771E-02  0.1167969E+00
         21   -1    0    0  501  502  0.00000000000E+00  0.00000000000E+00  0.75161085073E+03  0.75161085073E+03  0.00000000000E+00 0. -1.
         21   -1    0    0  502  503 -0.00000000000E+00 -0.00000000000E+00 -0.68407173131E+02  0.68407173131E+02  0.00000000000E+00 0. -1.
          6    1    1    2  501    0  0.27927697404E+02  0.40365730995E+02  0.59135078345E+03  0.61808906931E+03  0.17300000000E+03 0. -1.
         -6    1    1    2    0  503 -0.27927697404E+02 -0.40365730995E+02  0.91852894154E+02  0.20192895455E+03  0.17300000000E+03 0. -1.
<mgrwt>
<rscale>  2 0.17982866E+03</rscale>
<asrwt>0</asrwt>
<pdfrwt beam="1">  1       21 0.11563243E+00 0.17982866E+03</pdfrwt>
<pdfrwt beam="2">  1       21 0.10524181E-01 0.17982866E+03</pdfrwt>
<totfact> 0.43176887E+04</totfact>
</mgrwt>
</event>
<event>
 4    1  0.4137916E+000  0.1984728E+03  0.7546771E-02  0.1151034E+00
         21   -1    0    0  503  502  0.00000000000E+00  0.00000000000E+00  0.14964812058E+03  0.14964812058E+03  0.00000000000E+00 0.  1.
         21   -1    0    0  501  503 -0.00000000000E+00 -0.00000000000E+00 -0.47503289170E+03  0.47503289170E+03  0.00000000000E+00 0.  1.
          6    1    1    2  501    0 -0.97185720116E+02  0.41692554054E+01 -0.37125446246E+03  0.42097662973E+03  0.17300000000E+03 0.  1.
         -6    1    1    2    0  502  0.97185720116E+02 -0.41692554054E+01  0.45869691339E+02  0.20370438255E+03  0.17300000000E+03 0.  1.
<mgrwt>
<rscale>  2 0.19847279E+03</rscale>
<asrwt>0</asrwt>
<pdfrwt beam="1">  1       21 0.23022788E-01 0.19847279E+03</pdfrwt>
<pdfrwt beam="2">  1       21 0.73081983E-01 0.19847279E+03</pdfrwt>
<totfact> 0.29742065E+04</totfact>
</mgrwt>
</event>
<event>
 4    1  0.4137916E+000  0.1975031E+03  0.7546771E-02  0.1151863E+00
         21   -1    0    0  503  502  0.00000000000E+00  0.00000000000E+00  0.23503144562E+03  0.23503144562E+03  0.00000000000E+00 0.  1.
         21   -1    0    0  501  503 -0.00000000000E+00 -0.00000000000E+00 -0.19632405915E+03  0.19632405915E+03  0.00000000000E+00 0.  1.
          6    1    1    2  501    0  0.92022941007E+02  0.24703471702E+02 -0.65456460237E+02  0.20806737220E+03  0.17300000000E+03 0.  1.
         -6    1    1    2    0  502 -0.92022941007E+02 -0.24703471702E+02  0.10416384671E+03  0.22328813257E+03  0.17300000000E+03 0.  1.
<mgrwt>
<rscale>  2 0.19750312E+03</rscale>
<asrwt>0</asrwt>
<pdfrwt beam="1">  1       21 0.36158684E-01 0.19750312E+03</pdfrwt>
<pdfrwt beam="2">  1       21 0.30203701E-01 0.19750312E+03</pdfrwt>
<totfact> 0.77406196E+04</totfact>
</mgrwt>
</event>
<event>
 4    1  0.4137916E+000  0.3082154E+03  0.7546771E-02  0.1081204E+00
         21   -1    0    0  503  502  0.00000000000E+00  0.00000000000E+00  0.21068117262E+04  0.21068117262E+04  0.00000000000E+00 0.  1.
         21   -1    0    0  501  503 -0.00000000000E+00 -0.00000000000E+00 -0.45098089660E+02  0.45098089660E+02  0.00000000000E+00 0.  1.
          6    1    1    2  501    0 -0.48241415864E+02  0.25048058390E+03  0.10450043719E+04  0.10895094743E+04  0.17300000000E+03 0.  1.
         -6    1    1    2    0  502  0.48241415864E+02 -0.25048058390E+03  0.10167092646E+04  0.10624003416E+04  0.17300000000E+03 0.  1.
<mgrwt>
<rscale>  2 0.30821544E+03</rscale>
<asrwt>0</asrwt>
<pdfrwt beam="1">  1       21 0.32412481E+00 0.30821544E+03</pdfrwt>
<pdfrwt beam="2">  1       21 0.69381692E-02 0.30821544E+03</pdfrwt>
<totfact> 0.33976291E+03</totfact>
</mgrwt>
</event>
<event>
 4    1  0.4137916E+000  0.2191361E+03  0.7546771E-02  0.1134529E+00
         21   -1    0    0  501  502  0.00000000000E+00  0.00000000000E+00  0.90366186420E+02  0.90366186420E+02  0.00000000000E+00 0. -1.
         21   -1    0    0  502  503 -0.00000000000E+00 -0.00000000000E+00 -0.53544558336E+03  0.53544558336E+03  0.00000000000E+00 0.  1.
          6    1    1    2  501    0  0.60611807618E+02 -0.12007426022E+03 -0.19534212440E+03  0.29356288041E+03  0.17300000000E+03 0.  1.
         -6    1    1    2    0  503 -0.60611807618E+02  0.12007426022E+03 -0.24973727253E+03  0.33224888936E+03  0.17300000000E+03 0.  1.
<mgrwt>
<rscale>  2 0.21913607E+03</rscale>
<asrwt>0</asrwt>
<pdfrwt beam="1">  1       21 0.13902490E-01 0.21913607E+03</pdfrwt>
<pdfrwt beam="2">  1       21 0.82376243E-01 0.21913607E+03</pdfrwt>
<totfact> 0.57237064E+04</totfact>
</mgrwt>
</event>
<event>
 4    1  0.4137916E+000  0.2883151E+03  0.7546771E-02  0.1091232E+00
         21   -1    0    0  501  502  0.00000000000E+00  0.00000000000E+00  0.58838216283E+03  0.58838216283E+03  0.00000000000E+00 0. -1.
         21   -1    0    0  502  503 -0.00000000000E+00 -0.00000000000E+00 -0.15619866704E+03  0.15619866704E+03  0.00000000000E+00 0.  1.
          6    1    1    2  501    0 -0.22508180667E+03  0.50346681820E+02  0.33115417526E+03  0.43907709557E+03  0.17300000000E+03 0. -1.
         -6    1    1    2    0  503  0.22508180667E+03 -0.50346681820E+02  0.10102932053E+03  0.30550373430E+03  0.17300000000E+03 0.  1.
<mgrwt>
<rscale>  2 0.28831512E+03</rscale>
<asrwt>0</asrwt>
<pdfrwt beam="1">  1       21 0.90520332E-01 0.28831512E+03</pdfrwt>
<pdfrwt beam="2">  1       21 0.24030564E-01 0.28831512E+03</pdfrwt>
<totfact> 0.16082136E+04</totfact>
</mgrwt>
</event>
<event>
 4    1  0.4137916E+000  0.1786998E+03  0.7546771E-02  0.1169067E+00
         21   -1    0    0  503  502  0.00000000000E+00  0.00000000000E+00  0.23373248955E+03  0.23373248955E+03  0.00000000000E+00 0.  1.
         21   -1    0    0  501  503 -0.00000000000E+00 -0.00000000000E+00 -0.26023414204E+03  0.26023414204E+03  0.00000000000E+00 0.  1.
          6    1    1    2  501    0  0.24200312630E+02  0.37669085253E+02 -0.18347115467E+03  0.25611575451E+03  0.17300000000E+03 0.  1.
         -6    1    1    2    0  502 -0.24200312630E+02 -0.37669085253E+02  0.15696950217E+03  0.23785087708E+03  0.17300000000E+03 0.  1.
<mgrwt>
<rscale>  2 0.17869979E+03</rscale>
<asrwt>0</asrwt>
<pdfrwt beam="1">  1       21 0.35958845E-01 0.17869979E+03</pdfrwt>
<pdfrwt beam="2">  1       21 0.40036022E-01 0.17869979E+03</pdfrwt>
<totfact> 0.45144293E+04</totfact>
</mgrwt>
</event>
<event>
 4    1  0.4137916E+000  0.2480821E+03  0.7546771E-02  0.1114523E+00
         21   -1    0    0  503  502  0.00000000000E+00  0.00000000000E+00  0.78673339293E+02  0.78673339293E+02  0.00000000000E+00 0. -1.
         21   -1    0    0  501  503 -0.00000000000E+00 -0.00000000000E+00 -0.86566506103E+03  0.86566506103E+03  0.00000000000E+00 0.  1.
          6    1    1    2  501    0 -0.17682986938E+03  0.18626237583E+02 -0.54003767150E+03  0.59429405691E+03  0.17300000000E+03 0.  1.
         -6    1    1    2    0  502  0.17682986938E+03 -0.18626237583E+02 -0.24695405024E+03  0.35004434342E+03  0.17300000000E+03 0.  1.
<mgrwt>
<rscale>  2 0.24808212E+03</rscale>
<asrwt>0</asrwt>
<pdfrwt beam="1">  1       21 0.12103591E-01 0.24808212E+03</pdfrwt>
<pdfrwt beam="2">  1       21 0.13317924E+00 0.24808212E+03</pdfrwt>
<totfact> 0.22752715E+04</totfact>
</mgrwt>
</event>
<event>
 4    1  0.4137916E+000  0.1970601E+03  0.7546771E-02  0.1152243E+00
         21   -1    0    0  503  502  0.00000000000E+00  0.00000000000E+00  0.33403154289E+03  0.33403154289E+03  0.00000000000E+00 0.  1.
         21   -1    0    0  501  503 -0.00000000000E+00 -0.00000000000E+00 -0.15833669144E+03  0.15833669144E+03  0.00000000000E+00 0.  1.
          6    1    1    2  501    0 -0.79636893929E+02  0.50612556229E+02 -0.39069191344E+02  0.20089566306E+03  0.17300000000E+03 0.  1.
         -6    1    1    2    0  502  0.79636893929E+02 -0.50612556229E+02  0.21476404280E+03  0.29147257127E+03  0.17300000000E+03 0.  1.
<mgrwt>
<rscale>  2 0.19706006E+03</rscale>
<asrwt>0</asrwt>
<pdfrwt beam="1">  1       21 0.51389468E-01 0.19706006E+03</pdfrwt>
<pdfrwt beam="2">  1       21 0.24359491E-01 0.19706006E+03</pdfrwt>
<totfact> 0.57149736E+04</totfact>
</mgrwt>
</event>
<event>
 4    1  0.4137916E+000  0.1818478E+03  0.7546771E-02  0.1166027E+00
         21   -1    0    0  501  502  0.00000000000E+00  0.00000000000E+00  0.29761163493E+03  0.29761163493E+03  0.00000000000E+00 0. -1.
         21   -1    0    0  502  503 -0.00000000000E+00 -0.00000000000E+00 -0.12593151209E+03  0.12593151209E+03  0.00000000000E+00 0. -1.
          6    1    1    2  501    0 -0.52772220753E+02 -0.18834160809E+02  0.15848364721E+03  0.24121712072E+03  0.17300000000E+03 0. -1.
         -6    1    1    2    0  503  0.52772220753E+02  0.18834160809E+02  0.13196475624E+02  0.18232602630E+03  0.17300000000E+03 0. -1.
<mgrwt>
<rscale>  2 0.18184783E+03</rscale>
<asrwt>0</asrwt>
<pdfrwt beam="1">  1       21 0.45786405E-01 0.18184783E+03</pdfrwt>
<pdfrwt beam="2">  1       21 0.19374079E-01 0.18184783E+03</pdfrwt>
<totfact> 0.11244183E+05</totfact>
</mgrwt>
</event>
<event>
 4    1  0.4137916E+000  0.1952306E+03  0.7546771E-02  0.1153827E+00
         21   -1    0    0  501  502  0.00000000000E+00  0.00000000000E+00  0.51562301537E+02  0.51562301537E+02  0.00000000000E+00 0.  1.
         21   -1    0    0  502  503 -0.00000000000E+00 -0.00000000000E+00 -0.76095389777E+03  0.76095389777E+03  0.00000000000E+00 0.  1.
          6    1    1    2  501    0 -0.54184193795E+02 -0.72457169966E+02 -0.28600965515E+03  0.34628960593E+03  0.17300000000E+03 0.  1.
         -6    1    1    2    0  503  0.54184193795E+02  0.72457169966E+02 -0.42338194108E+03  0.46622659337E+03  0.17300000000E+03 0.  1.
<mgrwt>
<rscale>  2 0.19523055E+03</rscale>
<asrwt>0</asrwt>
<pdfrwt beam="1">  1       21 0.79326623E-02 0.19523055E+03</pdfrwt>
<pdfrwt beam="2">  1       21 0.11706982E+00 0.19523055E+03</pdfrwt>
<totfact> 0.68267161E+04</totfact>
</mgrwt>
</event>
<event>
 4    1  0.4137916E+000  0.1904137E+03  0.7546771E-02  0.1158089E+00
         21   -1    0    0  501  502  0.00000000000E+00  0.00000000000E+00  0.13896316735E+03  0.13896316735E+03  0.00000000000E+00 0.  1.
         21   -1    0    0  502  503 -0.00000000000E+00 -0.00000000000E+00 -0.32720571585E+03  0.32720571585E+03  0.00000000000E+00 0.  1.
          6    1    1    2  501    0  0.58783302443E+02  0.53599267395E+02  0.10792933864E+02  0.19071928464E+03  0.17300000000E+03 0.  1.
         -6    1    1    2    0  503 -0.58783302443E+02 -0.53599267395E+02 -0.19903548236E+03  0.27544959857E+03  0.17300000000E+03 0.  1.
<mgrwt>
<rscale>  2 0.19041365E+03</rscale>
<asrwt>0</asrwt>
<pdfrwt beam="1">  1       21 0.21378949E-01 0.19041365E+03</pdfrwt>
<pdfrwt beam="2">  1       21 0.50339341E-01 0.19041365E+03</pdfrwt>
<totfact> 0.76611900E+04</totfact>
</mgrwt>
</event>
<event>
 4    1  0.4137916E+000  0.1780916E+03  0.7546771E-02  0.1169663E+00
         21   -1    0    0  503  502  0.00000000000E+00  0.00000000000E+00  0.16596584291E+03  0.16596584291E+03  0.00000000000E+00 0. -1.
         21   -1    0    0  501  503 -0.00000000000E+00 -0.00000000000E+00 -0.20042474437E+03  0.20042474437E+03  0.00000000000E+00 0. -1.
          6    1    1    2  501    0 -0.15112144451E+02  0.39487364676E+02 -0.56736904482E+02  0.18691095529E+03  0.17300000000E+03 0.  1.
         -6    1    1    2    0  502  0.15112144451E+02 -0.39487364676E+02  0.22278003025E+02  0.17947963199E+03  0.17300000000E+03 0.  1.
<mgrwt>
<rscale>  2 0.17809163E+03</rscale>
<asrwt>0</asrwt>
<pdfrwt beam="1">  1       21 0.25533207E-01 0.17809163E+03</pdfrwt>
<pdfrwt beam="2">  1       21 0.30834576E-01 0.17809163E+03</pdfrwt>
<totfact> 0.14763532E+05</totfact>
</mgrwt>
</event>
<event>
 4    1  0.4137916E+000  0.1902590E+03  0.7546771E-02  0.1158228E+00
         21   -1    0    0  503  502  0.00000000000E+00  0.00000000000E+00  0.21385432030E+04  0.21385432030E+04  0.00000000000E+00 0. -1.
         21   -1    0    0  501  503 -0.00000000000E+00 -0.00000000000E+00 -0.50268677555E+02  0.50268677555E+02  0.00000000000E+00 0. -1.
          6    1    1    2  501    0 -0.41520998332E+02  0.67420344649E+02  0.15283432613E+03  0.24404267540E+03  0.17300000000E+03 0. -1.
         -6    1    1    2    0  502  0.41520998332E+02 -0.67420344649E+02  0.19354401993E+04  0.19447692052E+04  0.17300000000E+03 0. -1.
<mgrwt>
<rscale>  2 0.19025902E+03</rscale>
<asrwt>0</asrwt>
<pdfrwt beam="1">  1       21 0.32900658E+00 0.19025902E+03</pdfrwt>
<pdfrwt beam="2">  1       21 0.77336444E-02 0.19025902E+03</pdfrwt>
<totfact> 0.29629380E+03</totfact>
</mgrwt>
</event>
<event>
 4    1  0.4137916E+000  0.1883795E+03  0.7546771E-02  0.1159931E+00
         21   -1    0    0  503  502  0.00000000000E+00  0.00000000000E+00  0.81206764452E+02  0.81206764452E+02  0.00000000000E+00 0.  1.
         21   -1    0    0  501  503 -0.00000000000E+00 -0.00000000000E+00 -0.53654933821E+03  0.53654933821E+03  0.00000000000E+00 0. -1.
          6    1    1    2  501    0  0.31704766233E+02 -0.67473365582E+02 -0.94621227692E+02  0.21080802640E+03  0.17300000000E+03 0.  1.
         -6    1    1    2    0  502 -0.31704766233E+02  0.67473365582E+02 -0.36072134606E+03  0.40694807626E+03  0.17300000000E+03 0. -1.
<mgrwt>
<rscale>  2 0.18837953E+03</rscale>
<asrwt>0</asrwt>
<pdfrwt beam="1">  1       21 0.12493348E-01 0.18837953E+03</pdfrwt>
<pdfrwt beam="2">  1       21 0.82546053E-01 0.18837953E+03</pdfrwt>
<totfact> 0.70071733E+04</totfact>
</mgrwt>
</event>
<event>
 4    1  0.4137916E+000  0.2183147E+03  0.7546771E-02  0.1135146E+00
         21   -1    0    0  501  502  0.00000000000E+00  0.00000000000E+00  0.14977130239E+03  0.14977130239E+03  0.00000000000E+00 0. -1.
         21   -1    0    0  502  503 -0.00000000000E+00 -0.00000000000E+00 -0.49516513380E+03  0.49516513380E+03  0.00000000000E+00 0. -1.
          6    1    1    2  501    0  0.11556826918E+03 -0.66153488486E+02  0.20065477814E+02  0.21923487925E+03  0.17300000000E+03 0. -1.
         -6    1    1    2    0  503 -0.11556826918E+03  0.66153488486E+02 -0.36545930923E+03  0.42570155694E+03  0.17300000000E+03 0. -1.
<mgrwt>
<rscale>  2 0.21831470E+03</rscale>
<asrwt>0</asrwt>
<pdfrwt beam="1">  1       21 0.23041739E-01 0.21831470E+03</pdfrwt>
<pdfrwt beam="2">  1       21 0.76179252E-01 0.21831470E+03</pdfrwt>
<totfact> 0.26772506E+04</totfact>
</mgrwt>
</event>
<event>
 4    1  0.4137916E+000  0.2231166E+03  0.7546771E-02  0.1131581E+00
         21   -1    0    0  501  502  0.00000000000E+00  0.00000000000E+00  0.21991394681E+03  0.21991394681E+03  0.00000000000E+00 0.  1.
         21   -1    0    0  502  503 -0.00000000000E+00 -0.00000000000E+00 -0.23395313566E+03  0.23395313566E+03  0.00000000000E+00 0. -1.
          6    1    1    2  501    0  0.87737405721E+02  0.11024587989E+03 -0.47887051614E+02  0.22819766894E+03  0.17300000000E+03 0. -1.
         -6    1    1    2    0  503 -0.87737405721E+02 -0.11024587989E+03  0.33847862762E+02  0.22566941354E+03  0.17300000000E+03 0. -1.
<mgrwt>
<rscale>  2 0.22311658E+03</rscale>
<asrwt>0</asrwt>
<pdfrwt beam="1">  1       21 0.33832915E-01 0.22311658E+03</pdfrwt>
<pdfrwt beam="2">  1       21 0.35992790E-01 0.22311658E+03</pdfrwt>
<totfact> 0.61803682E+04</totfact>
</mgrwt>
</event>
<event>
 4    1  0.4137916E+000  0.2877481E+03  0.7546771E-02  0.1091531E+00
         21   -1    0    0  501  502  0.00000000000E+00  0.00000000000E+00  0.35576860132E+03  0.35576860132E+03  0.00000000000E+00 0. -1.
         21   -1    0    0  502  503 -0.00000000000E+00 -0.00000000000E+00 -0.85088782141E+03  0.85088782141E+03  0.00000000000E+00 0.  1.
          6    1    1    2  501    0  0.12668773169E+03  0.19188581381E+03  0.26668086343E+03  0.39232337405E+03  0.17300000000E+03 0. -1.
         -6    1    1    2    0  503 -0.12668773169E+03 -0.19188581381E+03 -0.76180008353E+03  0.81433304867E+03  0.17300000000E+03 0.  1.
<mgrwt>
<rscale>  2 0.28774806E+03</rscale>
<asrwt>0</asrwt>
<pdfrwt beam="1">  1       21 0.54733632E-01 0.28774806E+03</pdfrwt>
<pdfrwt beam="2">  1       21 0.13090582E+00 0.28774806E+03</pdfrwt>
<totfact> 0.12378487E+03</totfact>
</mgrwt>
</event>
<event>
 4    1  0.4137916E+000  0.1846875E+03  0.7546771E-02  0.1163342E+00
         21   -1    0    0  501  502  0.00000000000E+00  0.00000000000E+00  0.14548332348E+03  0.14548332348E+03  0.00000000000E+00 0. -1.
         21   -1    0    0  502  503 -0.00000000000E+00 -0.00000000000E+00 -0.25196195894E+03  0.25196195894E+03  0.00000000000E+00 0. -1.
          6    1    1    2  501    0 -0.63998770299E+02 -0.91984889456E+01 -0.10562002893E+03  0.21275583496E+03  0.17300000000E+03 0. -1.
         -6    1    1    2    0  503  0.63998770299E+02  0.91984889456E+01 -0.85860652682E+00  0.18468944746E+03  0.17300000000E+03 0. -1.
<mgrwt>
<rscale>  2 0.18468745E+03</rscale>
<asrwt>0</asrwt>
<pdfrwt beam="1">  1       21 0.22382050E-01 0.18468745E+03</pdfrwt>
<pdfrwt beam="2">  1       21 0.38763378E-01 0.18468745E+03</pdfrwt>
<totfact> 0.12024637E+05</totfact>
</mgrwt>
</event>
<event>
 4    1  0.4137916E+000  0.2379068E+03  0.7546771E-02  0.1121195E+00
         21   -1    0    0  503  502  0.00000000000E+00  0.00000000000E+00  0.37905195485E+03  0.37905195485E+03  0.00000000000E+00 0.  1.
         21   -1    0    0  501  503 -0.00000000000E+00 -0.00000000000E+00 -0.22902752496E+03  0.22902752496E+03  0.00000000000E+00 0.  1.
          6    1    1    2  501    0 -0.14742531520E+03  0.70259791371E+02 -0.10435327042E+03  0.25978696444E+03  0.17300000000E+03 0.  1.
         -6    1    1    2    0  502  0.14742531520E+03 -0.70259791371E+02  0.25437770031E+03  0.34829251537E+03  0.17300000000E+03 0.  1.
<mgrwt>
<rscale>  2 0.23790683E+03</rscale>
<asrwt>0</asrwt>
<pdfrwt beam="1">  1       21 0.58315685E-01 0.23790683E+03</pdfrwt>
<pdfrwt beam="2">  1       21 0.35235004E-01 0.23790683E+03</pdfrwt>
<totfact> 0.20855900E+04</totfact>
</mgrwt>
</event>
<event>
 4    1  0.4137916E+000  0.2212436E+03  0.7546771E-02  0.1132959E+00
         21   -1    0    0  503  502  0.00000000000E+00  0.00000000000E+00  0.89838489988E+02  0.89838489988E+02  0.00000000000E+00 0.  1.
         21   -1    0    0  501  503 -0.00000000000E+00 -0.00000000000E+00 -0.98370952286E+03  0.98370952286E+03  0.00000000000E+00 0.  1.
          6    1    1    2  501    0 -0.98949416143E+02 -0.96066429242E+02 -0.80546052555E+03  0.83529360347E+03  0.17300000000E+03 0.  1.
         -6    1    1    2    0  502  0.98949416143E+02  0.96066429242E+02 -0.88410507324E+02  0.23825440938E+03  0.17300000000E+03 0.  1.
<mgrwt>
<rscale>  2 0.22124363E+03</rscale>
<asrwt>0</asrwt>
<pdfrwt beam="1">  1       21 0.13821306E-01 0.22124363E+03</pdfrwt>
<pdfrwt beam="2">  1       21 0.15133993E+00 0.22124363E+03</pdfrwt>
<totfact> 0.13024240E+04</totfact>
</mgrwt>
</event>
<event>
 4    1  0.4137916E+000  0.1824087E+03  0.7546771E-02  0.1165492E+00
         21   -1    0    0  501  502  0.00000000000E+00  0.00000000000E+00  0.43354286165E+03  0.43354286165E+03  0.00000000000E+00 0.  1.
         21   -1    0    0  502  503 -0.00000000000E+00 -0.00000000000E+00 -0.82310371560E+02  0.82310371560E+02  0.00000000000E+00 0. -1.
          6    1    1    2  501    0 -0.53364640685E+02  0.22274385451E+02  0.10855768907E+03  0.21226800272E+03  0.17300000000E+03 0. -1.
         -6    1    1    2    0  503  0.53364640685E+02 -0.22274385451E+02  0.24267480102E+03  0.30358523049E+03  0.17300000000E+03 0.  1.
<mgrwt>
<rscale>  2 0.18240870E+03</rscale>
<asrwt>0</asrwt>
<pdfrwt beam="1">  1       21 0.66698901E-01 0.18240870E+03</pdfrwt>
<pdfrwt beam="2">  1       21 0.12663134E-01 0.18240870E+03</pdfrwt>
<totfact> 0.11020484E+05</totfact>
</mgrwt>
</event>
<event>
 4    1  0.4137916E+000  0.2580847E+03  0.7546771E-02  0.1108299E+00
         21   -1    0    0  501  502  0.00000000000E+00  0.00000000000E+00  0.25194726081E+03  0.25194726081E+03  0.00000000000E+00 0. -1.
         21   -1    0    0  502  503 -0.00000000000E+00 -0.00000000000E+00 -0.38819912154E+03  0.38819912154E+03  0.00000000000E+00 0.  1.
          6    1    1    2  501    0 -0.14183837658E+02  0.19099091664E+03  0.11264580998E+03  0.28159685722E+03  0.17300000000E+03 0. -1.
         -6    1    1    2    0  503  0.14183837658E+02 -0.19099091664E+03 -0.24889767071E+03  0.35854952513E+03  0.17300000000E+03 0.  1.
<mgrwt>
<rscale>  2 0.25808470E+03</rscale>
<asrwt>0</asrwt>
<pdfrwt beam="1">  1       21 0.38761117E-01 0.25808470E+03</pdfrwt>
<pdfrwt beam="2">  1       21 0.59722941E-01 0.25808470E+03</pdfrwt>
<totfact> 0.16192336E+04</totfact>
</mgrwt>
</event>
<event>
 4    1  0.4137916E+000  0.3545215E+03  0.7546771E-02  0.1060774E+00
         21   -1    0    0  503  502  0.00000000000E+00  0.00000000000E+00  0.45250310438E+03  0.45250310438E+03  0.00000000000E+00 0.  1.
         21   -1    0    0  501  503 -0.00000000000E+00 -0.00000000000E+00 -0.60906881170E+03  0.60906881170E+03  0.00000000000E+00 0. -1.
          6    1    1    2  501    0  0.56436463274E+02  0.30425549675E+03 -0.46975901112E+03  0.58852273551E+03  0.17300000000E+03 0. -1.
         -6    1    1    2    0  502 -0.56436463274E+02 -0.30425549675E+03  0.31319330380E+03  0.47304918056E+03  0.17300000000E+03 0.  1.
<mgrwt>
<rscale>  2 0.35452148E+03</rscale>
<asrwt>0</asrwt>
<pdfrwt beam="1">  1       21 0.69615863E-01 0.35452148E+03</pdfrwt>
<pdfrwt beam="2">  1       21 0.93702893E-01 0.35452148E+03</pdfrwt>
<totfact> 0.16061045E+03</totfact>
</mgrwt>
</event>
<event>
 4    1  0.4137916E+000  0.3837342E+03  0.7546771E-02  0.1049562E+00
         21   -1    0    0  501  502  0.00000000000E+00  0.00000000000E+00  0.43404476220E+03  0.43404476220E+03  0.00000000000E+00 0.  1.
         21   -1    0    0  502  503 -0.00000000000E+00 -0.00000000000E+00 -0.37818314313E+03  0.37818314313E+03  0.00000000000E+00 0. -1.
          6    1    1    2  501    0  0.32815128480E+03  0.98181910632E+02  0.15822570998E+03  0.41507508790E+03  0.17300000000E+03 0. -1.
         -6    1    1    2    0  503 -0.32815128480E+03 -0.98181910632E+02 -0.10236409091E+03  0.39715281744E+03  0.17300000000E+03 0. -1.
<mgrwt>
<rscale>  2 0.38373422E+03</rscale>
<asrwt>0</asrwt>
<pdfrwt beam="1">  1       21 0.66776117E-01 0.38373422E+03</pdfrwt>
<pdfrwt beam="2">  1       21 0.58182022E-01 0.38373422E+03</pdfrwt>
<totfact> 0.51254455E+03</totfact>
</mgrwt>
</event>
<event>
 4    1  0.4137916E+000  0.2204862E+03  0.7546771E-02  0.1133521E+00
         21   -1    0    0  503  502  0.00000000000E+00  0.00000000000E+00  0.28021288974E+03  0.28021288974E+03  0.00000000000E+00 0.  1.
         21   -1    0    0  501  503 -0.00000000000E+00 -0.00000000000E+00 -0.18265936914E+03  0.18265936914E+03  0.00000000000E+00 0.  1.
          6    1    1    2  501    0 -0.84924599136E+02  0.10711203775E+03 -0.30765355557E+01  0.22050768975E+03  0.17300000000E+03 0.  1.
         -6    1    1    2    0  502  0.84924599136E+02 -0.10711203775E+03  0.10063005615E+03  0.24236456913E+03  0.17300000000E+03 0.  1.
<mgrwt>
<rscale>  2 0.22048623E+03</rscale>
<asrwt>0</asrwt>
<pdfrwt beam="1">  1       21 0.43109676E-01 0.22048623E+03</pdfrwt>
<pdfrwt beam="2">  1       21 0.28101441E-01 0.22048623E+03</pdfrwt>
<totfact> 0.61820666E+04</totfact>
</mgrwt>
</event>
<event>
 4    1  0.4137916E+000  0.1884491E+03  0.7546771E-02  0.1159868E+00
         21   -1    0    0  503  502  0.00000000000E+00  0.00000000000E+00  0.15439154463E+03  0.15439154463E+03  0.00000000000E+00 0. -1.
         21   -1    0    0  501  503 -0.00000000000E+00 -0.00000000000E+00 -0.34962649489E+03  0.34962649489E+03  0.00000000000E+00 0. -1.
          6    1    1    2  501    0  0.55501340125E+02 -0.50036736492E+02 -0.24501565273E+03  0.30910474574E+03  0.17300000000E+03 0. -1.
         -6    1    1    2    0  502 -0.55501340125E+02  0.50036736492E+02  0.49780702466E+02  0.19491329378E+03  0.17300000000E+03 0. -1.
<mgrwt>
<rscale>  2 0.18844913E+03</rscale>
<asrwt>0</asrwt>
<pdfrwt beam="1">  1       21 0.23752546E-01 0.18844913E+03</pdfrwt>
<pdfrwt beam="2">  1       21 0.53788691E-01 0.18844913E+03</pdfrwt>
<totfact> 0.54695937E+04</totfact>
</mgrwt>
</event>
<event>
 4    1  0.4137916E+000  0.3954528E+03  0.7546771E-02  0.1045366E+00
         21   -1    0    0  503  502  0.00000000000E+00  0.00000000000E+00  0.24331749135E+03  0.24331749135E+03  0.00000000000E+00 0.  1.
         21   -1    0    0  501  503 -0.00000000000E+00 -0.00000000000E+00 -0.19301152696E+04  0.19301152696E+04  0.00000000000E+00 0. -1.
          6    1    1    2  501    0  0.93264538962E+02  0.34315546329E+03  0.44128942586E+02  0.39790741358E+03  0.17300000000E+03 0.  1.
         -6    1    1    2    0  502 -0.93264538962E+02 -0.34315546329E+03 -0.17309267209E+04  0.17755253474E+04  0.17300000000E+03 0. -1.
<mgrwt>
<rscale>  2 0.39545284E+03</rscale>
<asrwt>0</asrwt>
<pdfrwt beam="1">  1       21 0.37433460E-01 0.39545284E+03</pdfrwt>
<pdfrwt beam="2">  1       21 0.29694081E+00 0.39545284E+03</pdfrwt>
<totfact> 0.19867534E+02</totfact>
</mgrwt>
</event>
<event>
 4    1  0.4137916E+000  0.1945945E+03  0.7546771E-02  0.1154381E+00
         21   -1    0    0  503  502  0.00000000000E+00  0.00000000000E+00  0.32886020659E+03  0.32886020659E+03  0.00000000000E+00 0. -1.
         21   -1    0    0  501  503 -0.00000000000E+00 -0.00000000000E+00 -0.12159662833E+03  0.12159662833E+03  0.00000000000E+00 0.  1.
          6    1    1    2  501    0 -0.84491752544E+02 -0.28269565491E+02  0.51757220408E+02  0.20135996237E+03  0.17300000000E+03 0.  1.
         -6    1    1    2    0  502  0.84491752544E+02  0.28269565491E+02  0.15550635786E+03  0.24909687255E+03  0.17300000000E+03 0.  1.
<mgrwt>
<rscale>  2 0.19459451E+03</rscale>
<asrwt>0</asrwt>
<pdfrwt beam="1">  1       21 0.50593877E-01 0.19459451E+03</pdfrwt>
<pdfrwt beam="2">  1       21 0.18707174E-01 0.19459451E+03</pdfrwt>
<totfact> 0.97114915E+04</totfact>
</mgrwt>
</event>
<event>
 4    1  0.4137916E+000  0.2159227E+03  0.7546771E-02  0.1136960E+00
         21   -1    0    0  503  502  0.00000000000E+00  0.00000000000E+00  0.30752523741E+03  0.30752523741E+03  0.00000000000E+00 0.  1.
         21   -1    0    0  501  503 -0.00000000000E+00 -0.00000000000E+00 -0.45583275462E+03  0.45583275462E+03  0.00000000000E+00 0.  1.
          6    1    1    2  501    0 -0.12346336905E+03 -0.38084011194E+02 -0.38596687139E+03  0.44225899789E+03  0.17300000000E+03 0.  1.
         -6    1    1    2    0  502  0.12346336905E+03  0.38084011194E+02  0.23765935418E+03  0.32109899414E+03  0.17300000000E+03 0.  1.
<mgrwt>
<rscale>  2 0.21592266E+03</rscale>
<asrwt>0</asrwt>
<pdfrwt beam="1">  1       21 0.47311575E-01 0.21592266E+03</pdfrwt>
<pdfrwt beam="2">  1       21 0.70128115E-01 0.21592266E+03</pdfrwt>
<totfact> 0.77588841E+03</totfact>
</mgrwt>
</event>
<event>
 4    1  0.4137916E+000  0.3521444E+03  0.7546771E-02  0.1061738E+00
         21   -1    0    0  503  502  0.00000000000E+00  0.00000000000E+00  0.80515531895E+03  0.80515531895E+03  0.00000000000E+00 0. -1.
         21   -1    0    0  501  503 -0.00000000000E+00 -0.00000000000E+00 -0.16985025506E+03  0.16985025506E+03  0.00000000000E+00 0. -1.
          6    1    1    2  501    0 -0.25939157647E+03  0.16368470413E+03  0.16879800284E+03  0.39051048394E+03  0.17300000000E+03 0. -1.
         -6    1    1    2    0  502  0.25939157647E+03 -0.16368470413E+03  0.46650706105E+03  0.58449509007E+03  0.17300000000E+03 0. -1.
<mgrwt>
<rscale>  2 0.35214439E+03</rscale>
<asrwt>0</asrwt>
<pdfrwt beam="1">  1       21 0.12387005E+00 0.35214439E+03</pdfrwt>
<pdfrwt beam="2">  1       21 0.26130809E-01 0.35214439E+03</pdfrwt>
<totfact> 0.61901322E+03</totfact>
</mgrwt>
</event>
<event>
 4    1  0.4137916E+000  0.2671158E+03  0.7546771E-02  0.1102942E+00
         21   -1    0    0  501  502  0.00000000000E+00  0.00000000000E+00  0.54651714634E+02  0.54651714634E+02  0.00000000000E+00 0. -1.
         21   -1    0    0  502  503 -0.00000000000E+00 -0.00000000000E+00 -0.13575685388E+04  0.13575685388E+04  0.00000000000E+00 0.  1.
          6    1    1    2  501    0 -0.12768960481E+03  0.15848411808E+03 -0.78967092006E+03  0.83362522325E+03  0.17300000000E+03 0. -1.
         -6    1    1    2    0  503  0.12768960481E+03 -0.15848411808E+03 -0.51324590406E+03  0.57859503013E+03  0.17300000000E+03 0. -1.
<mgrwt>
<rscale>  2 0.26711580E+03</rscale>
<asrwt>0</asrwt>
<pdfrwt beam="1">  1       21 0.84079566E-02 0.26711580E+03</pdfrwt>
<pdfrwt beam="2">  1       21 0.20885669E+00 0.26711580E+03</pdfrwt>
<totfact> 0.12299610E+04</totfact>
</mgrwt>
</event>
<event>
 4    1  0.4137916E+000  0.1776561E+03  0.7546771E-02  0.1170091E+00
         21   -1    0    0  501  502  0.00000000000E+00  0.00000000000E+00  0.20044860192E+04  0.20044860192E+04  0.00000000000E+00 0.  1.
         21   -1    0    0  502  503 -0.00000000000E+00 -0.00000000000E+00 -0.28530885958E+02  0.28530885958E+02  0.00000000000E+00 0.  1.
          6    1    1    2  501    0 -0.32365793420E+02 -0.24189838746E+02  0.16684488356E+04  0.16778805708E+04  0.17300000000E+03 0. -1.
         -6    1    1    2    0  503  0.32365793420E+02  0.24189838746E+02  0.30750629761E+03  0.35513633431E+03  0.17300000000E+03 0. -1.
<mgrwt>
<rscale>  2 0.17765611E+03</rscale>
<asrwt>0</asrwt>
<pdfrwt beam="1">  1       21 0.30838235E+00 0.17765611E+03</pdfrwt>
<pdfrwt beam="2">  1       21 0.43893687E-02 0.17765611E+03</pdfrwt>
<totfact> 0.10414923E+04</totfact>
</mgrwt>
</event>
<event>
 4    1  0.4137916E+000  0.2486372E+03  0.7546771E-02  0.1114169E+00
         21   -1    0    0  503  502  0.00000000000E+00  0.00000000000E+00  0.11212330856E+04  0.11212330856E+04  0.00000000000E+00 0. -1.
         21   -1    0    0  501  503 -0.00000000000E+00 -0.00000000000E+00 -0.20124461651E+03  0.20124461651E+03  0.00000000000E+00 0. -1.
          6    1    1    2  501    0 -0.66321966389E+02 -0.16580969738E+03 -0.10342794619E+03  0.26929129028E+03  0.17300000000E+03 0. -1.
         -6    1    1    2    0  502  0.66321966389E+02  0.16580969738E+03  0.10234164153E+04  0.10531864119E+04  0.17300000000E+03 0. -1.
<mgrwt>
<rscale>  2 0.24863720E+03</rscale>
<asrwt>0</asrwt>
<pdfrwt beam="1">  1       21 0.17249739E+00 0.24863720E+03</pdfrwt>
<pdfrwt beam="2">  1       21 0.30960711E-01 0.24863720E+03</pdfrwt>
<totfact> 0.19539936E+03</totfact>
</mgrwt>
</event>
<event>
 4    1  0.4137916E+000  0.2238636E+03  0.7546771E-02  0.1131035E+00
         21   -1    0    0  501  502  0.00000000000E+00  0.00000000000E+00  0.38394420552E+03  0.38394420552E+03  0.00000000000E+00 0. -1.
         21   -1    0    0  502  503 -0.00000000000E+00 -0.00000000000E+00 -0.17183681411E+03  0.17183681411E+03  0.00000000000E+00 0. -1.
          6    1    1    2  501    0  0.70586543915E+02 -0.12330219433E+03  0.24230632318E+03  0.32988974758E+03  0.17300000000E+03 0. -1.
         -6    1    1    2    0  503 -0.70586543915E+02  0.12330219433E+03 -0.30198931770E+02  0.22589127205E+03  0.17300000000E+03 0. -1.
<mgrwt>
<rscale>  2 0.22386356E+03</rscale>
<asrwt>0</asrwt>
<pdfrwt beam="1">  1       21 0.59068339E-01 0.22386356E+03</pdfrwt>
<pdfrwt beam="2">  1       21 0.26436433E-01 0.22386356E+03</pdfrwt>
<totfact> 0.35893406E+04</totfact>
</mgrwt>
</event>
<event>
 4    1  0.4137916E+000  0.1918500E+03  0.7546771E-02  0.1156803E+00
         21   -1    0    0  503  502  0.00000000000E+00  0.00000000000E+00  0.64442022645E+03  0.64442022645E+03  0.00000000000E+00 0. -1.
         21   -1    0    0  501  503 -0.00000000000E+00 -0.00000000000E+00 -0.62801281970E+02  0.62801281970E+02  0.00000000000E+00 0.  1.
          6    1    1    2  501    0 -0.57804728355E+02  0.59464423170E+02  0.39720786762E+03  0.44111279095E+03  0.17300000000E+03 0. -1.
         -6    1    1    2    0  502  0.57804728355E+02 -0.59464423170E+02  0.18441107686E+03  0.26610871747E+03  0.17300000000E+03 0.  1.
<mgrwt>
<rscale>  2 0.19184995E+03</rscale>
<asrwt>0</asrwt>
<pdfrwt beam="1">  1       21 0.99141569E-01 0.19184995E+03</pdfrwt>
<pdfrwt beam="2">  1       21 0.96617361E-02 0.19184995E+03</pdfrwt>
<totfact> 0.72275975E+04</totfact>
</mgrwt>
</event>
<event>
 4    1  0.4137916E+000  0.2617148E+03  0.7546771E-02  0.1106117E+00
         21   -1    0    0  503  502  0.00000000000E+00  0.00000000000E+00  0.84162937609E+03  0.84162937609E+03  0.00000000000E+00 0. -1.
         21   -1    0    0  501  503 -0.00000000000E+00 -0.00000000000E+00 -0.12127041250E+03  0.12127041250E+03  0.00000000000E+00 0.  1.
          6    1    1    2  501    0  0.15451888633E+03 -0.12120040517E+03  0.63629426154E+03  0.68801526997E+03  0.17300000000E+03 0. -1.
         -6    1    1    2    0  502 -0.15451888633E+03  0.12120040517E+03  0.84064702048E+02  0.27488451862E+03  0.17300000000E+03 0.  1.
<mgrwt>
<rscale>  2 0.26171478E+03</rscale>
<asrwt>0</asrwt>
<pdfrwt beam="1">  1       21 0.12948144E+00 0.26171478E+03</pdfrwt>
<pdfrwt beam="2">  1       21 0.18656987E-01 0.26171478E+03</pdfrwt>
<totfact> 0.10979189E+04</totfact>
</mgrwt>
</event>
<event>
 4    1  0.4137916E+000  0.1750132E+03  0.7546771E-02  0.1172718E+00
         21   -1    0    0  501  502  0.00000000000E+00  0.00000000000E+00  0.35214759019E+03  0.35214759019E+03  0.00000000000E+00 0.  1.
         21   -1    0    0  502  503 -0.00000000000E+00 -0.00000000000E+00 -0.12695902501E+03  0.12695902501E+03  0.00000000000E+00 0.  1.
          6    1    1    2  501    0  0.78969232442E+01 -0.25263512088E+02  0.24702218652E+03  0.30273679504E+03  0.17300000000E+03 0.  1.
         -6    1    1    2    0  503 -0.78969232442E+01  0.25263512088E+02 -0.21833621338E+02  0.17636982015E+03  0.17300000000E+03 0.  1.
<mgrwt>
<rscale>  2 0.17501316E+03</rscale>
<asrwt>0</asrwt>
<pdfrwt beam="1">  1       21 0.54176552E-01 0.17501316E+03</pdfrwt>
<pdfrwt beam="2">  1       21 0.19532158E-01 0.17501316E+03</pdfrwt>
<totfact> 0.78262237E+04</totfact>
</mgrwt>
</event>
<event>
 4    1  0.4137916E+000  0.2689451E+03  0.7546771E-02  0.1101885E+00
         21   -1    0    0  503  502  0.00000000000E+00  0.00000000000E+00  0.12164261812E+03  0.12164261812E+03  0.00000000000E+00 0. -1.
         21   -1    0    0  501  503 -0.00000000000E+00 -0.00000000000E+00 -0.66494014179E+03  0.66494014179E+03  0.00000000000E+00 0.  1.
          6    1    1    2  501    0 -0.31619619203E+02 -0.20347641503E+03 -0.14375335648E+03  0.30495324116E+03  0.17300000000E+03 0. -1.
         -6    1    1    2    0  502  0.31619619203E+02  0.20347641503E+03 -0.39954416719E+03  0.48162951875E+03  0.17300000000E+03 0. -1.
<mgrwt>
<rscale>  2 0.26894507E+03</rscale>
<asrwt>0</asrwt>
<pdfrwt beam="1">  1       21 0.18714250E-01 0.26894507E+03</pdfrwt>
<pdfrwt beam="2">  1       21 0.10229848E+00 0.26894507E+03</pdfrwt>
<totfact> 0.19486564E+04</totfact>
</mgrwt>
</event>
<event>
 4    1  0.4137916E+000  0.2404044E+03  0.7546771E-02  0.1119524E+00
         21   -1    0    0  503  502  0.00000000000E+00  0.00000000000E+00  0.79461832095E+02  0.79461832095E+02  0.00000000000E+00 0.  1.
         21   -1    0    0  501  503 -0.00000000000E+00 -0.00000000000E+00 -0.89750553572E+03  0.89750553572E+03  0.00000000000E+00 0. -1.
          6    1    1    2  501    0 -0.11060141089E+03 -0.12503042337E+03 -0.62173347681E+03  0.66659342559E+03  0.17300000000E+03 0.  1.
         -6    1    1    2    0  502  0.11060141089E+03  0.12503042337E+03 -0.19631022682E+03  0.31037394222E+03  0.17300000000E+03 0. -1.
<mgrwt>
<rscale>  2 0.24040441E+03</rscale>
<asrwt>0</asrwt>
<pdfrwt beam="1">  1       21 0.12224897E-01 0.24040441E+03</pdfrwt>
<pdfrwt beam="2">  1       21 0.13807778E+00 0.24040441E+03</pdfrwt>
<totfact> 0.20446895E+04</totfact>
</mgrwt>
</event>
<event>
 4    1  0.4137916E+000  0.1890665E+03  0.7546771E-02  0.1159306E+00
         21   -1    0    0  503  502  0.00000000000E+00  0.00000000000E+00  0.68984466989E+02  0.68984466989E+02  0.00000000000E+00 0. -1.
         21   -1    0    0  501  503 -0.00000000000E+00 -0.00000000000E+00 -0.57088351863E+03  0.57088351863E+03  0.00000000000E+00 0.  1.
          6    1    1    2  501    0 -0.76350422015E+01 -0.75887081841E+02 -0.15373748542E+03  0.24368290355E+03  0.17300000000E+03 0. -1.
         -6    1    1    2    0  502  0.76350422015E+01  0.75887081841E+02 -0.34816156622E+03  0.39618508206E+03  0.17300000000E+03 0.  1.
<mgrwt>
<rscale>  2 0.18906650E+03</rscale>
<asrwt>0</asrwt>
<pdfrwt beam="1">  1       21 0.10612995E-01 0.18906650E+03</pdfrwt>
<pdfrwt beam="2">  1       21 0.87828236E-01 0.18906650E+03</pdfrwt>
<totfact> 0.81304460E+04</totfact>
</mgrwt>
</event>
<event>
 4    1  0.4137916E+000  0.2117617E+03  0.7546771E-02  0.1140178E+00
         21   -1    0    0  503  502  0.00000000000E+00  0.00000000000E+00  0.13417758240E+03  0.13417758240E+03  0.00000000000E+00 0. -1.
         21   -1    0    0  501  503 -0.00000000000E+00 -0.00000000000E+00 -0.41030955753E+03  0.41030955753E+03  0.00000000000E+00 0. -1.
          6    1    1    2  501    0 -0.48272045339E+02 -0.11217762509E+03 -0.25531335099E+03  0.33170456301E+03  0.17300000000E+03 0. -1.
         -6    1    1    2    0  502  0.48272045339E+02  0.11217762509E+03 -0.20818624147E+02  0.21278257693E+03  0.17300000000E+03 0. -1.
<mgrwt>
<rscale>  2 0.21176168E+03</rscale>
<asrwt>0</asrwt>
<pdfrwt beam="1">  1       21 0.20642705E-01 0.21176168E+03</pdfrwt>
<pdfrwt beam="2">  1       21 0.63124547E-01 0.21176168E+03</pdfrwt>
<totfact> 0.50063995E+04</totfact>
</mgrwt>
</event>
<event>
 4    1  0.4137916E+000  0.1841646E+03  0.7546771E-02  0.1163832E+00
         21   -1    0    0  503  502  0.00000000000E+00  0.00000000000E+00  0.14768160788E+03  0.14768160788E+03  0.00000000000E+00 0. -1.
         21   -1    0    0  501  503 -0.00000000000E+00 -0.00000000000E+00 -0.23746948579E+03  0.23746948579E+03  0.00000000000E+00 0.  1.
          6    1    1    2  501    0 -0.51265298154E+02  0.36870830306E+02 -0.99716546531E+01  0.18443433200E+03  0.17300000000E+03 0. -1.
         -6    1    1    2    0  502  0.51265298154E+02 -0.36870830306E+02 -0.79816223255E+02  0.20071676167E+03  0.17300000000E+03 0.  1.
<mgrwt>
<rscale>  2 0.18416457E+03</rscale>
<asrwt>0</asrwt>
<pdfrwt beam="1">  1       21 0.22720248E-01 0.18416457E+03</pdfrwt>
<pdfrwt beam="2">  1       21 0.36533767E-01 0.18416457E+03</pdfrwt>
<totfact> 0.13162303E+05</totfact>
</mgrwt>
</event>
<event>
 4    1  0.4137916E+000  0.2189925E+03  0.7546771E-02  0.1134636E+00
         21   -1    0    0  501  502  0.00000000000E+00  0.00000000000E+00  0.54209615727E+03  0.54209615727E+03  0.00000000000E+00 0.  1.
         21   -1    0    0  502  503 -0.00000000000E+00 -0.00000000000E+00 -0.92370378502E+02  0.92370378502E+02  0.00000000000E+00 0.  1.
          6    1    1    2  501    0  0.79186471593E+02  0.10843528658E+03  0.29007431196E+03  0.36345675825E+03  0.17300000000E+03 0.  1.
         -6    1    1    2    0  503 -0.79186471593E+02 -0.10843528658E+03  0.15965146681E+03  0.27100977752E+03  0.17300000000E+03 0.  1.
<mgrwt>
<rscale>  2 0.21899249E+03</rscale>
<asrwt>0</asrwt>
<pdfrwt beam="1">  1       21 0.83399407E-01 0.21899249E+03</pdfrwt>
<pdfrwt beam="2">  1       21 0.14210828E-01 0.21899249E+03</pdfrwt>
<totfact> 0.53474983E+04</totfact>
</mgrwt>
</event>
<event>
 4    1  0.4137916E+000  0.1842911E+03  0.7546771E-02  0.1163714E+00
         21   -1    0    0  503  502  0.00000000000E+00  0.00000000000E+00  0.91354264576E+02  0.91354264576E+02  0.00000000000E+00 0.  1.
         21   -1    0    0  501  503 -0.00000000000E+00 -0.00000000000E+00 -0.67966257532E+03  0.67966257532E+03  0.00000000000E+00 0.  1.
          6    1    1    2  501    0 -0.28751067113E+02  0.56635557955E+02 -0.55362193582E+03  0.58348989546E+03  0.17300000000E+03 0.  1.
         -6    1    1    2    0  502  0.28751067113E+02 -0.56635557955E+02 -0.34686374928E+02  0.18752694444E+03  0.17300000000E+03 0.  1.
<mgrwt>
<rscale>  2 0.18429110E+03</rscale>
<asrwt>0</asrwt>
<pdfrwt beam="1">  1       21 0.14054502E-01 0.18429110E+03</pdfrwt>
<pdfrwt beam="2">  1       21 0.10456348E+00 0.18429110E+03</pdfrwt>
<totfact> 0.32733932E+04</totfact>
</mgrwt>
</event>
<event>
 4    1  0.4137916E+000  0.2454642E+03  0.7546771E-02  0.1116205E+00
         21   -1    0    0  503  502  0.00000000000E+00  0.00000000000E+00  0.98678850195E+03  0.98678850195E+03  0.00000000000E+00 0.  1.
         21   -1    0    0  501  503 -0.00000000000E+00 -0.00000000000E+00 -0.63093671573E+02  0.63093671573E+02  0.00000000000E+00 0. -1.
          6    1    1    2  501    0  0.89231888863E+02  0.14953706431E+03  0.36758738645E+03  0.44201035087E+03  0.17300000000E+03 0. -1.
         -6    1    1    2    0  502 -0.89231888863E+02 -0.14953706431E+03  0.55610744392E+03  0.60787182266E+03  0.17300000000E+03 0.  1.
<mgrwt>
<rscale>  2 0.24546418E+03</rscale>
<asrwt>0</asrwt>
<pdfrwt beam="1">  1       21 0.15181360E+00 0.24546418E+03</pdfrwt>
<pdfrwt beam="2">  1       21 0.97067194E-02 0.24546418E+03</pdfrwt>
<totfact> 0.23991853E+04</totfact>
</mgrwt>
</event>
<event>
 4    1  0.4137916E+000  0.2021161E+03  0.7546771E-02  0.1147966E+00
         21   -1    0    0  503  502  0.00000000000E+00  0.00000000000E+00  0.74882754439E+03  0.74882754439E+03  0.00000000000E+00 0.  1.
         21   -1    0    0  501  503 -0.00000000000E+00 -0.00000000000E+00 -0.55873269065E+02  0.55873269065E+02  0.00000000000E+00 0.  1.
          6    1    1    2  501    0  0.10441127760E+03 -0.44930615704E+01  0.28463155225E+03  0.34909314377E+03  0.17300000000E+03 0.  1.
         -6    1    1    2    0  502 -0.10441127760E+03  0.44930615704E+01  0.40832272308E+03  0.45560766969E+03  0.17300000000E+03 0.  1.
<mgrwt>
<rscale>  2 0.20211606E+03</rscale>
<asrwt>0</asrwt>
<pdfrwt beam="1">  1       21 0.11520423E+00 0.20211606E+03</pdfrwt>
<pdfrwt beam="2">  1       21 0.85958881E-02 0.20211606E+03</pdfrwt>
<totfact> 0.61503477E+04</totfact>
</mgrwt>
</event>
<event>
 4    1  0.4137916E+000  0.2438512E+03  0.7546771E-02  0.1117254E+00
         21   -1    0    0  501  502  0.00000000000E+00  0.00000000000E+00  0.28712778800E+03  0.28712778800E+03  0.00000000000E+00 0.  1.
         21   -1    0    0  502  503 -0.00000000000E+00 -0.00000000000E+00 -0.24156280508E+03  0.24156280508E+03  0.00000000000E+00 0.  1.
          6    1    1    2  501    0  0.15530972225E+03 -0.73575034926E+02  0.12263264771E+03  0.27295084149E+03  0.17300000000E+03 0.  1.
         -6    1    1    2    0  503 -0.15530972225E+03  0.73575034926E+02 -0.77067664787E+02  0.25573975159E+03  0.17300000000E+03 0.  1.
<mgrwt>
<rscale>  2 0.24385118E+03</rscale>
<asrwt>0</asrwt>
<pdfrwt beam="1">  1       21 0.44173506E-01 0.24385118E+03</pdfrwt>
<pdfrwt beam="2">  1       21 0.37163508E-01 0.24385118E+03</pdfrwt>
<totfact> 0.33513743E+04</totfact>
</mgrwt>
</event>
<event>
 4    1  0.4137916E+000  0.1801213E+03  0.7546771E-02  0.1167686E+00
         21   -1    0    0  503  502  0.00000000000E+00  0.00000000000E+00  0.10185424130E+03  0.10185424130E+03  0.00000000000E+00 0. -1.
         21   -1    0    0  501  503 -0.00000000000E+00 -0.00000000000E+00 -0.33432009978E+03  0.33432009978E+03  0.00000000000E+00 0. -1.
          6    1    1    2  501    0  0.32880548240E+01  0.50038756427E+02 -0.16362804841E+03  0.24334713205E+03  0.17300000000E+03 0. -1.
         -6    1    1    2    0  502 -0.32880548240E+01 -0.50038756427E+02 -0.68837810069E+02  0.19282720904E+03  0.17300000000E+03 0. -1.
<mgrwt>
<rscale>  2 0.18012132E+03</rscale>
<asrwt>0</asrwt>
<pdfrwt beam="1">  1       21 0.15669883E-01 0.18012132E+03</pdfrwt>
<pdfrwt beam="2">  1       21 0.51433861E-01 0.18012132E+03</pdfrwt>
<totfact> 0.13067033E+05</totfact>
</mgrwt>
</event>
<event>
 4    1  0.4137916E+000  0.2180152E+03  0.7546771E-02  0.1135371E+00
         21   -1    0    0  501  502  0.00000000000E+00  0.00000000000E+00  0.13207804455E+03  0.13207804455E+03  0.00000000000E+00 0. -1.
         21   -1    0    0  502  503 -0.00000000000E+00 -0.00000000000E+00 -0.36327756092E+03  0.36327756092E+03  0.00000000000E+00 0. -1.
          6    1    1    2  501    0 -0.12781801243E+03 -0.35555564219E+02 -0.13959506610E+03  0.25887723911E+03  0.17300000000E+03 0. -1.
         -6    1    1    2    0  503  0.12781801243E+03  0.35555564219E+02 -0.91604450266E+02  0.23647836636E+03  0.17300000000E+03 0. -1.
<mgrwt>
<rscale>  2 0.21801523E+03</rscale>
<asrwt>0</asrwt>
<pdfrwt beam="1">  1       21 0.20319699E-01 0.21801523E+03</pdfrwt>
<pdfrwt beam="2">  1       21 0.55888855E-01 0.21801523E+03</pdfrwt>
<totfact> 0.66806544E+04</totfact>
</mgrwt>
</event>
<event>
 4    1  0.4137916E+000  0.1785492E+03  0.7546771E-02  0.1169215E+00
         21   -1    0    0  503  502  0.00000000000E+00  0.00000000000E+00  0.21801523861E+03  0.21801523861E+03  0.00000000000E+00 0.  1.
         21   -1    0    0  501  503 -0.00000000000E+00 -0.00000000000E+00 -0.25307232928E+03  0.25307232928E+03  0.00000000000E+00 0.  1.
          6    1    1    2  501    0 -0.78656647045E+01  0.43462020342E+02 -0.17057601021E+03  0.24693317143E+03  0.17300000000E+03 0.  1.
         -6    1    1    2    0  502  0.78656647045E+01 -0.43462020342E+02  0.13551891955E+03  0.22415439645E+03  0.17300000000E+03 0.  1.
<mgrwt>
<rscale>  2 0.17854920E+03</rscale>
<asrwt>0</asrwt>
<pdfrwt beam="1">  1       21 0.33540806E-01 0.17854920E+03</pdfrwt>
<pdfrwt beam="2">  1       21 0.38934204E-01 0.17854920E+03</pdfrwt>
<totfact> 0.54810214E+04</totfact>
</mgrwt>
</event>
<event>
 4    1  0.4137916E+000  0.2368700E+03  0.7546771E-02  0.1121896E+00
         21   -1    0    0  503  502  0.00000000000E+00  0.00000000000E+00  0.63533429366E+03  0.63533429366E+03  0.00000000000E+00 0.  1.
         21   -1    0    0  501  503 -0.00000000000E+00 -0.00000000000E+00 -0.18258023688E+03  0.18258023688E+03  0.00000000000E+00 0. -1.
          6    1    1    2  501    0  0.15199292239E+03 -0.55466582620E+02 -0.67479031000E+02  0.24629415314E+03  0.17300000000E+03 0. -1.
         -6    1    1    2    0  502 -0.15199292239E+03  0.55466582620E+02  0.52023308778E+03  0.57162037740E+03  0.17300000000E+03 0.  1.
<mgrwt>
<rscale>  2 0.23686999E+03</rscale>
<asrwt>0</asrwt>
<pdfrwt beam="1">  1       21 0.97743736E-01 0.23686999E+03</pdfrwt>
<pdfrwt beam="2">  1       21 0.28089268E-01 0.23686999E+03</pdfrwt>
<totfact> 0.10192285E+04</totfact>
</mgrwt>
</event>
<event>
 4    1  0.4137916E+000  0.2153267E+03  0.7546771E-02  0.1137416E+00
         21   -1    0    0  501  502  0.00000000000E+00  0.00000000000E+00  0.59905241185E+02  0.59905241185E+02  0.00000000000E+00 0.  1.
         21   -1    0    0  502  503 -0.00000000000E+00 -0.00000000000E+00 -0.85084208968E+03  0.85084208968E+03  0.00000000000E+00 0.  1.
          6    1    1    2  501    0  0.10638074132E+03  0.71552318068E+02 -0.25860322785E+03  0.33651333673E+03  0.17300000000E+03 0.  1.
         -6    1    1    2    0  503 -0.10638074132E+03 -0.71552318068E+02 -0.53233362065E+03  0.57423399413E+03  0.17300000000E+03 0.  1.
<mgrwt>
<rscale>  2 0.21532672E+03</rscale>
<asrwt>0</asrwt>
<pdfrwt beam="1">  1       21 0.92161909E-02 0.21532672E+03</pdfrwt>
<pdfrwt beam="2">  1       21 0.13089878E+00 0.21532672E+03</pdfrwt>
<totfact> 0.39299752E+04</totfact>
</mgrwt>
</event>
<event>
 4    1  0.4137916E+000  0.2585504E+03  0.7546771E-02  0.1108017E+00
         21   -1    0    0  501  502  0.00000000000E+00  0.00000000000E+00  0.28722754092E+04  0.28722754092E+04  0.00000000000E+00 0.  1.
         21   -1    0    0  502  503 -0.00000000000E+00 -0.00000000000E+00 -0.23273687648E+02  0.23273687648E+02  0.00000000000E+00 0. -1.
          6    1    1    2  501    0  0.89222504186E+02 -0.17017248114E+03  0.14263758552E+04  0.14496194014E+04  0.17300000000E+03 0.  1.
         -6    1    1    2    0  503 -0.89222504186E+02  0.17017248114E+03  0.14226258663E+04  0.14459296954E+04  0.17300000000E+03 0. -1.
<mgrwt>
<rscale>  2 0.25855044E+03</rscale>
<asrwt>0</asrwt>
<pdfrwt beam="1">  1       21 0.44188824E+00 0.25855044E+03</pdfrwt>
<pdfrwt beam="2">  1       21 0.35805696E-02 0.25855044E+03</pdfrwt>
<totfact> 0.20385667E+03</totfact>
</mgrwt>
</event>
<event>
 4    1  0.4137916E+000  0.1752739E+03  0.7546771E-02  0.1172457E+00
         21   -1    0    0  501  502  0.00000000000E+00  0.00000000000E+00  0.29659478321E+03  0.29659478321E+03  0.00000000000E+00 0.  1.
         21   -1    0    0  502  503 -0.00000000000E+00 -0.00000000000E+00 -0.31808773238E+03  0.31808773238E+03  0.00000000000E+00 0.  1.
          6    1    1    2  501    0  0.27020840335E+02  0.78626547092E+01  0.24164230423E+03  0.29851624804E+03  0.17300000000E+03 0.  1.
         -6    1    1    2    0  503 -0.27020840335E+02 -0.78626547092E+01 -0.26313525340E+03  0.31616626755E+03  0.17300000000E+03 0.  1.
<mgrwt>
<rscale>  2 0.17527392E+03</rscale>
<asrwt>0</asrwt>
<pdfrwt beam="1">  1       21 0.45629967E-01 0.17527392E+03</pdfrwt>
<pdfrwt beam="2">  1       21 0.48936574E-01 0.17527392E+03</pdfrwt>
<totfact> 0.18547324E+04</totfact>
</mgrwt>
</event>
<event>
 4    1  0.4137916E+000  0.1853366E+03  0.7546771E-02  0.1162736E+00
         21   -1    0    0  503  502  0.00000000000E+00  0.00000000000E+00  0.76794702077E+03  0.76794702077E+03  0.00000000000E+00 0. -1.
         21   -1    0    0  501  503 -0.00000000000E+00 -0.00000000000E+00 -0.54647679007E+02  0.54647679007E+02  0.00000000000E+00 0. -1.
          6    1    1    2  501    0 -0.25359476136E+01  0.66439514078E+02  0.18142589253E+03  0.25935495858E+03  0.17300000000E+03 0. -1.
         -6    1    1    2    0  502  0.25359476136E+01 -0.66439514078E+02  0.53187344923E+03  0.56323974119E+03  0.17300000000E+03 0. -1.
<mgrwt>
<rscale>  2 0.18533656E+03</rscale>
<asrwt>0</asrwt>
<pdfrwt beam="1">  1       21 0.11814569E+00 0.18533656E+03</pdfrwt>
<pdfrwt beam="2">  1       21 0.84073358E-02 0.18533656E+03</pdfrwt>
<totfact> 0.60616196E+04</totfact>
</mgrwt>
</event>
<event>
 4    1  0.4137916E+000  0.2072267E+03  0.7546771E-02  0.1143781E+00
         21   -1    0    0  503  502  0.00000000000E+00  0.00000000000E+00  0.78734788268E+03  0.78734788268E+03  0.00000000000E+00 0. -1.
         21   -1    0    0  501  503 -0.00000000000E+00 -0.00000000000E+00 -0.13541360329E+03  0.13541360329E+03  0.00000000000E+00 0. -1.
          6    1    1    2  501    0  0.44181420166E+02 -0.10517563897E+03 -0.30589428978E+02  0.20947225612E+03  0.17300000000E+03 0. -1.
         -6    1    1    2    0  502 -0.44181420166E+02  0.10517563897E+03  0.68252370838E+03  0.71328922985E+03  0.17300000000E+03 0. -1.
<mgrwt>
<rscale>  2 0.20722672E+03</rscale>
<asrwt>0</asrwt>
<pdfrwt beam="1">  1       21 0.12113044E+00 0.20722672E+03</pdfrwt>
<pdfrwt beam="2">  1       21 0.20832862E-01 0.20722672E+03</pdfrwt>
<totfact> 0.10921085E+04</totfact>
</mgrwt>
</event>
<event>
 4    1  0.4137916E+000  0.1961103E+03  0.7546771E-02  0.1153063E+00
         21   -1    0    0  501  502  0.00000000000E+00  0.00000000000E+00  0.77406590499E+02  0.77406590499E+02  0.00000000000E+00 0.  1.
         21   -1    0    0  502  503 -0.00000000000E+00 -0.00000000000E+00 -0.49687762639E+03  0.49687762639E+03  0.00000000000E+00 0.  1.
          6    1    1    2  501    0  0.35533909777E+01  0.92290932381E+02 -0.21198485503E+03  0.28878507848E+03  0.17300000000E+03 0. -1.
         -6    1    1    2    0  503 -0.35533909777E+01 -0.92290932381E+02 -0.20748618085E+03  0.28549913841E+03  0.17300000000E+03 0. -1.
<mgrwt>
<rscale>  2 0.19611028E+03</rscale>
<asrwt>0</asrwt>
<pdfrwt beam="1">  1       21 0.11908706E-01 0.19611028E+03</pdfrwt>
<pdfrwt beam="2">  1       21 0.76442715E-01 0.19611028E+03</pdfrwt>
<totfact> 0.90505526E+04</totfact>
</mgrwt>
</event>
<event>
 4    1  0.4137916E+000  0.1971000E+03  0.7546771E-02  0.1152209E+00
         21   -1    0    0  501  502  0.00000000000E+00  0.00000000000E+00  0.86924093475E+03  0.86924093475E+03  0.00000000000E+00 0.  1.
         21   -1    0    0  502  503 -0.00000000000E+00 -0.00000000000E+00 -0.45856488693E+02  0.45856488693E+02  0.00000000000E+00 0.  1.
          6    1    1    2  501    0  0.20510613185E+02 -0.92188519241E+02  0.48459462263E+03  0.52314468038E+03  0.17300000000E+03 0.  1.
         -6    1    1    2    0  503 -0.20510613185E+02  0.92188519241E+02  0.33878982343E+03  0.39195274306E+03  0.17300000000E+03 0.  1.
<mgrwt>
<rscale>  2 0.19710000E+03</rscale>
<asrwt>0</asrwt>
<pdfrwt beam="1">  1       21 0.13372936E+00 0.19710000E+03</pdfrwt>
<pdfrwt beam="2">  1       21 0.70548451E-02 0.19710000E+03</pdfrwt>
<totfact> 0.59913194E+04</totfact>
</mgrwt>
</event>
<event>
 4    1  0.4137916E+000  0.2260159E+03  0.7546771E-02  0.1129476E+00
         21   -1    0    0  503  502  0.00000000000E+00  0.00000000000E+00  0.50304740201E+02  0.50304740201E+02  0.00000000000E+00 0.  1.
         21   -1    0    0  501  503 -0.00000000000E+00 -0.00000000000E+00 -0.24761934242E+04  0.24761934242E+04  0.00000000000E+00 0. -1.
          6    1    1    2  501    0 -0.14173115572E+03  0.32656943455E+02 -0.21831861628E+04  0.21948542134E+04  0.17300000000E+03 0. -1.
         -6    1    1    2    0  502  0.14173115572E+03 -0.32656943455E+02 -0.24270252115E+03  0.33164395099E+03  0.17300000000E+03 0.  1.
<mgrwt>
<rscale>  2 0.22601592E+03</rscale>
<asrwt>0</asrwt>
<pdfrwt beam="1">  1       21 0.77391919E-02 0.22601592E+03</pdfrwt>
<pdfrwt beam="2">  1       21 0.38095278E+00 0.22601592E+03</pdfrwt>
<totfact> 0.13855480E+03</totfact>
</mgrwt>
</event>
<event>
 4    1  0.4137916E+000  0.2260915E+03  0.7546771E-02  0.1129421E+00
         21   -1    0    0  503  502  0.00000000000E+00  0.00000000000E+00  0.99476281212E+02  0.99476281212E+02  0.00000000000E+00 0.  1.
         21   -1    0    0  501  503 -0.00000000000E+00 -0.00000000000E+00 -0.70702893788E+03  0.70702893788E+03  0.00000000000E+00 0.  1.
          6    1    1    2  501    0  0.98858709253E+02 -0.10684240720E+03 -0.92999914487E+02  0.24447152895E+03  0.17300000000E+03 0.  1.
         -6    1    1    2    0  502 -0.98858709253E+02  0.10684240720E+03 -0.51455274218E+03  0.56203369015E+03  0.17300000000E+03 0.  1.
<mgrwt>
<rscale>  2 0.22609145E+03</rscale>
<asrwt>0</asrwt>
<pdfrwt beam="1">  1       21 0.15304043E-01 0.22609145E+03</pdfrwt>
<pdfrwt beam="2">  1       21 0.10877368E+00 0.22609145E+03</pdfrwt>
<totfact> 0.24893848E+04</totfact>
</mgrwt>
</event>
<event>
 4    1  0.4137916E+000  0.2599760E+03  0.7546771E-02  0.1107158E+00
         21   -1    0    0  503  502  0.00000000000E+00  0.00000000000E+00  0.13860845595E+03  0.13860845595E+03  0.00000000000E+00 0.  1.
         21   -1    0    0  501  503 -0.00000000000E+00 -0.00000000000E+00 -0.55858859970E+03  0.55858859970E+03  0.00000000000E+00 0.  1.
          6    1    1    2  501    0 -0.17128985031E+03 -0.91204737089E+02 -0.33424938034E+03  0.42345031012E+03  0.17300000000E+03 0.  1.
         -6    1    1    2    0  502  0.17128985031E+03  0.91204737089E+02 -0.85730763411E+02  0.27374674552E+03  0.17300000000E+03 0.  1.
<mgrwt>
<rscale>  2 0.25997599E+03</rscale>
<asrwt>0</asrwt>
<pdfrwt beam="1">  1       21 0.21324378E-01 0.25997599E+03</pdfrwt>
<pdfrwt beam="2">  1       21 0.85936706E-01 0.25997599E+03</pdfrwt>
<totfact> 0.23083919E+04</totfact>
</mgrwt>
</event>
<event>
 4    1  0.4137916E+000  0.2778355E+03  0.7546771E-02  0.1096877E+00
         21   -1    0    0  503  502  0.00000000000E+00  0.00000000000E+00  0.86024256911E+02  0.86024256911E+02  0.00000000000E+00 0.  1.
         21   -1    0    0  501  503 -0.00000000000E+00 -0.00000000000E+00 -0.13243391538E+04  0.13243391538E+04  0.00000000000E+00 0.  1.
          6    1    1    2  501    0  0.73308953471E+02  0.20466897467E+03 -0.21873594969E+03  0.35360713729E+03  0.17300000000E+03 0.  1.
         -6    1    1    2    0  502 -0.73308953471E+02 -0.20466897467E+03 -0.10195789472E+04  0.10567562734E+04  0.17300000000E+03 0.  1.
<mgrwt>
<rscale>  2 0.27783555E+03</rscale>
<asrwt>0</asrwt>
<pdfrwt beam="1">  1       21 0.13234502E-01 0.27783555E+03</pdfrwt>
<pdfrwt beam="2">  1       21 0.20374447E+00 0.27783555E+03</pdfrwt>
<totfact> 0.58562304E+03</totfact>
</mgrwt>
</event>
<event>
 4    1  0.4137916E+000  0.2864375E+03  0.7546771E-02  0.1092224E+00
         21   -1    0    0  501  502  0.00000000000E+00  0.00000000000E+00  0.83248506077E+02  0.83248506077E+02  0.00000000000E+00 0. -1.
         21   -1    0    0  502  503 -0.00000000000E+00 -0.00000000000E+00 -0.10128969775E+04  0.10128969775E+04  0.00000000000E+00 0. -1.
          6    1    1    2  501    0  0.19772286804E+03  0.11411894196E+03 -0.55486192529E+03  0.62443432129E+03  0.17300000000E+03 0. -1.
         -6    1    1    2    0  503 -0.19772286804E+03 -0.11411894196E+03 -0.37478654610E+03  0.47171116226E+03  0.17300000000E+03 0. -1.
<mgrwt>
<rscale>  2 0.28643754E+03</rscale>
<asrwt>0</asrwt>
<pdfrwt beam="1">  1       21 0.12807462E-01 0.28643754E+03</pdfrwt>
<pdfrwt beam="2">  1       21 0.15583031E+00 0.28643754E+03</pdfrwt>
<totfact> 0.13319181E+04</totfact>
</mgrwt>
</event>
<event>
 4    1  0.4137916E+000  0.2084016E+03  0.7546771E-02  0.1142838E+00
         21   -1    0    0  501  502  0.00000000000E+00  0.00000000000E+00  0.15962292475E+03  0.15962292475E+03  0.00000000000E+00 0. -1.
         21   -1    0    0  502  503 -0.00000000000E+00 -0.00000000000E+00 -0.28069573813E+03  0.28069573813E+03  0.00000000000E+00 0. -1.
          6    1    1    2  501    0 -0.53527377056E+02 -0.10313602238E+03 -0.99093589505E+02  0.23076125907E+03  0.17300000000E+03 0. -1.
         -6    1    1    2    0  503  0.53527377056E+02  0.10313602238E+03 -0.21979223873E+02  0.20955740380E+03  0.17300000000E+03 0. -1.
<mgrwt>
<rscale>  2 0.20840158E+03</rscale>
<asrwt>0</asrwt>
<pdfrwt beam="1">  1       21 0.24557373E-01 0.20840158E+03</pdfrwt>
<pdfrwt beam="2">  1       21 0.43183959E-01 0.20840158E+03</pdfrwt>
<totfact> 0.80256688E+04</totfact>
</mgrwt>
</event>
<event>
 4    1  0.4137916E+000  0.2823629E+03  0.7546771E-02  0.1094405E+00
         21   -1    0    0  501  502  0.00000000000E+00  0.00000000000E+00  0.10745803976E+04  0.10745803976E+04  0.00000000000E+00 0.  1.
         21   -1    0    0  502  503 -0.00000000000E+00 -0.00000000000E+00 -0.82918400353E+02  0.82918400353E+02  0.00000000000E+00 0. -1.
          6    1    1    2  501    0  0.72677135747E+02 -0.21099251032E+03  0.68354676457E+03  0.73957081123E+03  0.17300000000E+03 0.  1.
         -6    1    1    2    0  503 -0.72677135747E+02  0.21099251032E+03  0.30811523265E+03  0.41792798669E+03  0.17300000000E+03 0. -1.
<mgrwt>
<rscale>  2 0.28236290E+03</rscale>
<asrwt>0</asrwt>
<pdfrwt beam="1">  1       21 0.16532005E+00 0.28236290E+03</pdfrwt>
<pdfrwt beam="2">  1       21 0.12756678E-01 0.28236290E+03</pdfrwt>
<totfact> 0.11431340E+04</totfact>
</mgrwt>
</event>
<event>
 4    1  0.4137916E+000  0.1874595E+03  0.7546771E-02  0.1160773E+00
         21   -1    0    0  501  502  0.00000000000E+00  0.00000000000E+00  0.73329984532E+03  0.73329984532E+03  0.00000000000E+00 0. -1.
         21   -1    0    0  502  503 -0.00000000000E+00 -0.00000000000E+00 -0.62230504383E+02  0.62230504383E+02  0.00000000000E+00 0.  1.
          6    1    1    2  501    0 -0.16755819877E+02  0.70223238881E+02  0.52626730109E+03  0.55865761695E+03  0.17300000000E+03 0. -1.
         -6    1    1    2    0  503  0.16755819877E+02 -0.70223238881E+02  0.14480203985E+03  0.23687273275E+03  0.17300000000E+03 0.  1.
<mgrwt>
<rscale>  2 0.18745949E+03</rscale>
<asrwt>0</asrwt>
<pdfrwt beam="1">  1       21 0.11281535E+00 0.18745949E+03</pdfrwt>
<pdfrwt beam="2">  1       21 0.95739243E-02 0.18745949E+03</pdfrwt>
<totfact> 0.53965021E+04</totfact>
</mgrwt>
</event>
<event>
 4    1  0.4137916E+000  0.5144871E+03  0.7546771E-02  0.1010065E+00
         21   -1    0    0  501  502  0.00000000000E+00  0.00000000000E+00  0.30012798054E+03  0.30012798054E+03  0.00000000000E+00 0. -1.
         21   -1    0    0  502  503 -0.00000000000E+00 -0.00000000000E+00 -0.93214505610E+03  0.93214505610E+03  0.00000000000E+00 0.  1.
          6    1    1    2  501    0 -0.67692973261E+02  0.47977664863E+03 -0.17302742854E+03  0.54280333661E+03  0.17300000000E+03 0. -1.
         -6    1    1    2    0  503  0.67692973261E+02 -0.47977664863E+03 -0.45898964702E+03  0.68946970004E+03  0.17300000000E+03 0. -1.
<mgrwt>
<rscale>  2 0.51448710E+03</rscale>
<asrwt>0</asrwt>
<pdfrwt beam="1">  1       21 0.46173535E-01 0.51448710E+03</pdfrwt>
<pdfrwt beam="2">  1       21 0.14340693E+00 0.51448710E+03</pdfrwt>
<totfact> 0.12525790E+03</totfact>
</mgrwt>
</event>
<event>
 4    1  0.4137916E+000  0.1895309E+03  0.7546771E-02  0.1158885E+00
         21   -1    0    0  501  502  0.00000000000E+00  0.00000000000E+00  0.61360002385E+02  0.61360002385E+02  0.00000000000E+00 0.  1.
         21   -1    0    0  502  503 -0.00000000000E+00 -0.00000000000E+00 -0.60730109837E+03  0.60730109837E+03  0.00000000000E+00 0.  1.
          6    1    1    2  501    0 -0.76449971568E+02  0.12180709668E+02 -0.20952337195E+03  0.28252789461E+03  0.17300000000E+03 0. -1.
         -6    1    1    2    0  503  0.76449971568E+02 -0.12180709668E+02 -0.33641772404E+03  0.38613320614E+03  0.17300000000E+03 0. -1.
<mgrwt>
<rscale>  2 0.18953092E+03</rscale>
<asrwt>0</asrwt>
<pdfrwt beam="1">  1       21 0.94400000E-02 0.18953092E+03</pdfrwt>
<pdfrwt beam="2">  1       21 0.93430942E-01 0.18953092E+03</pdfrwt>
<totfact> 0.86625901E+04</totfact>
</mgrwt>
</event>
<event>
 4    1  0.4137916E+000  0.1827966E+03  0.7546771E-02  0.1165124E+00
         21   -1    0    0  501  502  0.00000000000E+00  0.00000000000E+00  0.18003921808E+03  0.18003921808E+03  0.00000000000E+00 0.  1.
         21   -1    0    0  502  503 -0.00000000000E+00 -0.00000000000E+00 -0.31785483681E+03  0.31785483681E+03  0.00000000000E+00 0.  1.
          6    1    1    2  501    0  0.35727406789E+02  0.47001541243E+02  0.91677042073E+02  0.20449761006E+03  0.17300000000E+03 0.  1.
         -6    1    1    2    0  503 -0.35727406789E+02 -0.47001541243E+02 -0.22949266081E+03  0.29339644483E+03  0.17300000000E+03 0.  1.
<mgrwt>
<rscale>  2 0.18279659E+03</rscale>
<asrwt>0</asrwt>
<pdfrwt beam="1">  1       21 0.27698342E-01 0.18279659E+03</pdfrwt>
<pdfrwt beam="2">  1       21 0.48900743E-01 0.18279659E+03</pdfrwt>
<totfact> 0.49882090E+04</totfact>
</mgrwt>
</event>
<event>
 4    1  0.4137916E+000  0.1794599E+03  0.7546771E-02  0.1168327E+00
         21   -1    0    0  501  502  0.00000000000E+00  0.00000000000E+00  0.91816410262E+03  0.91816410262E+03  0.00000000000E+00 0. -1.
         21   -1    0    0  502  503 -0.00000000000E+00 -0.00000000000E+00 -0.96321093922E+02  0.96321093922E+02  0.00000000000E+00 0. -1.
          6    1    1    2  501    0  0.36749220569E+02 -0.30436013779E+02  0.81539436397E+03  0.83490947111E+03  0.17300000000E+03 0. -1.
         -6    1    1    2    0  503 -0.36749220569E+02  0.30436013779E+02  0.64486447282E+01  0.17957572544E+03  0.17300000000E+03 0. -1.
<mgrwt>
<rscale>  2 0.17945990E+03</rscale>
<asrwt>0</asrwt>
<pdfrwt beam="1">  1       21 0.14125601E+00 0.17945990E+03</pdfrwt>
<pdfrwt beam="2">  1       21 0.14818630E-01 0.17945990E+03</pdfrwt>
<totfact> 0.14155517E+04</totfact>
</mgrwt>
</event>
<event>
 4    1  0.4137916E+000  0.1953666E+03  0.7546771E-02  0.1153708E+00
         21   -1    0    0  501  502  0.00000000000E+00  0.00000000000E+00  0.44071644634E+02  0.44071644634E+02  0.00000000000E+00 0. -1.
         21   -1    0    0  502  503 -0.00000000000E+00 -0.00000000000E+00 -0.14557834939E+04  0.14557834939E+04  0.00000000000E+00 0.  1.
          6    1    1    2  501    0 -0.22834542912E+02 -0.87850483803E+02 -0.22854666768E+03  0.30066875987E+03  0.17300000000E+03 0. -1.
         -6    1    1    2    0  503  0.22834542912E+02  0.87850483803E+02 -0.11831651816E+04  0.11991863787E+04  0.17300000000E+03 0.  1.
<mgrwt>
<rscale>  2 0.19536664E+03</rscale>
<asrwt>0</asrwt>
<pdfrwt beam="1">  1       21 0.67802541E-02 0.19536664E+03</pdfrwt>
<pdfrwt beam="2">  1       21 0.22396666E+00 0.19536664E+03</pdfrwt>
<totfact> 0.15170130E+04</totfact>
</mgrwt>
</event>
<event>
 4    1  0.4137916E+000  0.2077455E+03  0.7546771E-02  0.1143364E+00
         21   -1    0    0  501  502  0.00000000000E+00  0.00000000000E+00  0.14916770907E+04  0.14916770907E+04  0.00000000000E+00 0.  1.
         21   -1    0    0  502  503 -0.00000000000E+00 -0.00000000000E+00 -0.30767606947E+02  0.30767606947E+02  0.00000000000E+00 0. -1.
          6    1    1    2  501    0 -0.62741100950E+02  0.96398994323E+02  0.91635259884E+03  0.93960645871E+03  0.17300000000E+03 0.  1.
         -6    1    1    2    0  503  0.62741100950E+02 -0.96398994323E+02  0.54455688488E+03  0.58283823890E+03  0.17300000000E+03 0. -1.
<mgrwt>
<rscale>  2 0.20774555E+03</rscale>
<asrwt>0</asrwt>
<pdfrwt beam="1">  1       21 0.22948873E+00 0.20774555E+03</pdfrwt>
<pdfrwt beam="2">  1       21 0.47334792E-02 0.20774555E+03</pdfrwt>
<totfact> 0.25689339E+04</totfact>
</mgrwt>
</event>
<event>
 4    1  0.4137916E+000  0.1969969E+03  0.7546771E-02  0.1152298E+00
         21   -1    0    0  501  502  0.00000000000E+00  0.00000000000E+00  0.26574862513E+03  0.26574862513E+03  0.00000000000E+00 0. -1.
         21   -1    0    0  502  503 -0.00000000000E+00 -0.00000000000E+00 -0.14659108463E+03  0.14659108463E+03  0.00000000000E+00 0. -1.
          6    1    1    2  501    0 -0.93629683339E+02  0.10595529314E+02  0.72312040209E+02  0.20984950322E+03  0.17300000000E+03 0. -1.
         -6    1    1    2    0  503  0.93629683339E+02 -0.10595529314E+02  0.46845500295E+02  0.20249020653E+03  0.17300000000E+03 0. -1.
<mgrwt>
<rscale>  2 0.19699691E+03</rscale>
<asrwt>0</asrwt>
<pdfrwt beam="1">  1       21 0.40884404E-01 0.19699691E+03</pdfrwt>
<pdfrwt beam="2">  1       21 0.22552475E-01 0.19699691E+03</pdfrwt>
<totfact> 0.10597276E+05</totfact>
</mgrwt>
</event>
<event>
 4    1  0.4137916E+000  0.2389335E+03  0.7546771E-02  0.1120505E+00
         21   -1    0    0  503  502  0.00000000000E+00  0.00000000000E+00  0.38141669808E+03  0.38141669808E+03  0.00000000000E+00 0. -1.
         21   -1    0    0  501  503 -0.00000000000E+00 -0.00000000000E+00 -0.15238647817E+03  0.15238647817E+03  0.00000000000E+00 0.  1.
          6    1    1    2  501    0  0.15894236569E+03  0.43560898842E+02  0.78924330881E+02  0.25163123321E+03  0.17300000000E+03 0.  1.
         -6    1    1    2    0  502 -0.15894236569E+03 -0.43560898842E+02  0.15010588903E+03  0.28217194305E+03  0.17300000000E+03 0. -1.
<mgrwt>
<rscale>  2 0.23893352E+03</rscale>
<asrwt>0</asrwt>
<pdfrwt beam="1">  1       21 0.58679492E-01 0.23893352E+03</pdfrwt>
<pdfrwt beam="2">  1       21 0.23444074E-01 0.23893352E+03</pdfrwt>
<totfact> 0.45522981E+04</totfact>
</mgrwt>
</event>
<event>
 4    1  0.4137916E+000  0.1845550E+03  0.7546771E-02  0.1163466E+00
         21   -1    0    0  501  502  0.00000000000E+00  0.00000000000E+00  0.28807127988E+03  0.28807127988E+03  0.00000000000E+00 0.  1.
         21   -1    0    0  502  503 -0.00000000000E+00 -0.00000000000E+00 -0.13818228570E+03  0.13818228570E+03  0.00000000000E+00 0.  1.
          6    1    1    2  501    0 -0.21370430497E+02 -0.60620586043E+02  0.15591689614E+03  0.24160014332E+03  0.17300000000E+03 0.  1.
         -6    1    1    2    0  503  0.21370430497E+02  0.60620586043E+02 -0.60279019603E+01  0.18465342226E+03  0.17300000000E+03 0.  1.
<mgrwt>
<rscale>  2 0.18455501E+03</rscale>
<asrwt>0</asrwt>
<pdfrwt beam="1">  1       21 0.44318658E-01 0.18455501E+03</pdfrwt>
<pdfrwt beam="2">  1       21 0.21258813E-01 0.18455501E+03</pdfrwt>
<totfact> 0.10097144E+05</totfact>
</mgrwt>
</event>
<event>
 4    1  0.4137916E+000  0.2395395E+03  0.7546771E-02  0.1120100E+00
         21   -1    0    0  503  502  0.00000000000E+00  0.00000000000E+00  0.10491148592E+04  0.10491148592E+04  0.00000000000E+00 0. -1.
         21   -1    0    0  501  503 -0.00000000000E+00 -0.00000000000E+00 -0.13401231840E+03  0.13401231840E+03  0.00000000000E+00 0.  1.
          6    1    1    2  501    0  0.11938608761E+03  0.11487874926E+03  0.24387799774E+01  0.23955189958E+03  0.17300000000E+03 0.  1.
         -6    1    1    2    0  502 -0.11938608761E+03 -0.11487874926E+03  0.91266376081E+03  0.94357527799E+03  0.17300000000E+03 0. -1.
<mgrwt>
<rscale>  2 0.23953949E+03</rscale>
<asrwt>0</asrwt>
<pdfrwt beam="1">  1       21 0.16140228E+00 0.23953949E+03</pdfrwt>
<pdfrwt beam="2">  1       21 0.20617280E-01 0.23953949E+03</pdfrwt>
<totfact> 0.51666852E+03</totfact>
</mgrwt>
</event>
<event>
 4    1  0.4137916E+000  0.1851901E+03  0.7546771E-02  0.1162873E+00
         21   -1    0    0  501  502  0.00000000000E+00  0.00000000000E+00  0.22996238674E+03  0.22996238674E+03  0.00000000000E+00 0.  1.
         21   -1    0    0  502  503 -0.00000000000E+00 -0.00000000000E+00 -0.28051194530E+03  0.28051194530E+03  0.00000000000E+00 0.  1.
          6    1    1    2  501    0  0.56964634049E+01 -0.65832509298E+02  0.14939924586E+03  0.23794012617E+03  0.17300000000E+03 0.  1.
         -6    1    1    2    0  503 -0.56964634049E+01  0.65832509298E+02 -0.19994880442E+03  0.27253420586E+03  0.17300000000E+03 0.  1.
<mgrwt>
<rscale>  2 0.18519009E+03</rscale>
<asrwt>0</asrwt>
<pdfrwt beam="1">  1       21 0.35378829E-01 0.18519009E+03</pdfrwt>
<pdfrwt beam="2">  1       21 0.43155684E-01 0.18519009E+03</pdfrwt>
<totfact> 0.39914977E+04</totfact>
</mgrwt>
</event>
<event>
 4    1  0.4137916E+000  0.1897664E+03  0.7546771E-02  0.1158672E+00
         21   -1    0    0  503  502  0.00000000000E+00  0.00000000000E+00  0.47313408184E+03  0.47313408184E+03  0.00000000000E+00 0.  1.
         21   -1    0    0  501  503 -0.00000000000E+00 -0.00000000000E+00 -0.10532765209E+03  0.10532765209E+03  0.00000000000E+00 0. -1.
          6    1    1    2  501    0 -0.28897689920E+02 -0.72437602095E+02  0.31575251275E+02  0.19237536010E+03  0.17300000000E+03 0. -1.
         -6    1    1    2    0  502  0.28897689920E+02  0.72437602095E+02  0.33623117847E+03  0.38608637383E+03  0.17300000000E+03 0.  1.
<mgrwt>
<rscale>  2 0.18976639E+03</rscale>
<asrwt>0</asrwt>
<pdfrwt beam="1">  1       21 0.72789857E-01 0.18976639E+03</pdfrwt>
<pdfrwt beam="2">  1       21 0.16204254E-01 0.18976639E+03</pdfrwt>
<totfact> 0.57972632E+04</totfact>
</mgrwt>
</event>
<event>
 4    1  0.4137916E+000  0.1766029E+03  0.7546771E-02  0.1171132E+00
         21   -1    0    0  503  502  0.00000000000E+00  0.00000000000E+00  0.52424500597E+02  0.52424500597E+02  0.00000000000E+00 0. -1.
         21   -1    0    0  501  503 -0.00000000000E+00 -0.00000000000E+00 -0.63554881945E+03  0.63554881945E+03  0.00000000000E+00 0. -1.
          6    1    1    2  501    0 -0.28442012910E+01  0.35376226647E+02 -0.37853138178E+03  0.41770153685E+03  0.17300000000E+03 0. -1.
         -6    1    1    2    0  502  0.28442012910E+01 -0.35376226647E+02 -0.20459293707E+03  0.27027178320E+03  0.17300000000E+03 0. -1.
<mgrwt>
<rscale>  2 0.17660285E+03</rscale>
<asrwt>0</asrwt>
<pdfrwt beam="1">  1       21 0.80653077E-02 0.17660285E+03</pdfrwt>
<pdfrwt beam="2">  1       21 0.97776742E-01 0.17660285E+03</pdfrwt>
<totfact> 0.10310344E+05</totfact>
</mgrwt>
</event>
<event>
 4    1  0.4137916E+000  0.2184264E+03  0.7546771E-02  0.1135062E+00
         21   -1    0    0  503  502  0.00000000000E+00  0.00000000000E+00  0.30166782994E+03  0.30166782994E+03  0.00000000000E+00 0. -1.
         21   -1    0    0  501  503 -0.00000000000E+00 -0.00000000000E+00 -0.23144241026E+03  0.23144241026E+03  0.00000000000E+00 0.  1.
          6    1    1    2  501    0 -0.11996814398E+03 -0.58212976100E+02 -0.11488406105E+03  0.24679638093E+03  0.17300000000E+03 0.  1.
         -6    1    1    2    0  502  0.11996814398E+03  0.58212976100E+02  0.18510948073E+03  0.28631385927E+03  0.17300000000E+03 0. -1.
<mgrwt>
<rscale>  2 0.21842643E+03</rscale>
<asrwt>0</asrwt>
<pdfrwt beam="1">  1       21 0.46410436E-01 0.21842643E+03</pdfrwt>
<pdfrwt beam="2">  1       21 0.35606525E-01 0.21842643E+03</pdfrwt>
<totfact> 0.33368012E+04</totfact>
</mgrwt>
</event>
<event>
 4    1  0.4137916E+000  0.1757295E+03  0.7546771E-02  0.1172001E+00
         21   -1    0    0  501  502  0.00000000000E+00  0.00000000000E+00  0.10591464268E+04  0.10591464268E+04  0.00000000000E+00 0.  1.
         21   -1    0    0  502  503 -0.00000000000E+00 -0.00000000000E+00 -0.41182107316E+02  0.41182107316E+02  0.00000000000E+00 0.  1.
          6    1    1    2  501    0  0.17801229511E+02  0.25198998986E+02  0.80628140947E+03  0.82520941862E+03  0.17300000000E+03 0.  1.
         -6    1    1    2    0  503 -0.17801229511E+02 -0.25198998986E+02  0.21168291003E+03  0.27511911552E+03  0.17300000000E+03 0.  1.
<mgrwt>
<rscale>  2 0.17572955E+03</rscale>
<asrwt>0</asrwt>
<pdfrwt beam="1">  1       21 0.16294558E+00 0.17572955E+03</pdfrwt>
<pdfrwt beam="2">  1       21 0.63357096E-02 0.17572955E+03</pdfrwt>
<totfact> 0.43473460E+04</totfact>
</mgrwt>
</event>
<event>
 4    1  0.4137916E+000  0.2015780E+03  0.7546771E-02  0.1148414E+00
         21   -1    0    0  503  502  0.00000000000E+00  0.00000000000E+00  0.23142816827E+03  0.23142816827E+03  0.00000000000E+00 0. -1.
         21   -1    0    0  501  503 -0.00000000000E+00 -0.00000000000E+00 -0.17706777643E+03  0.17706777643E+03  0.00000000000E+00 0.  1.
          6    1    1    2  501    0 -0.10264452934E+03 -0.12992073992E+02  0.45915015099E+02  0.20674109897E+03  0.17300000000E+03 0. -1.
         -6    1    1    2    0  502  0.10264452934E+03  0.12992073992E+02  0.84453767478E+01  0.20175484574E+03  0.17300000000E+03 0. -1.
<mgrwt>
<rscale>  2 0.20157801E+03</rscale>
<asrwt>0</asrwt>
<pdfrwt beam="1">  1       21 0.35604334E-01 0.20157801E+03</pdfrwt>
<pdfrwt beam="2">  1       21 0.27241196E-01 0.20157801E+03</pdfrwt>
<totfact> 0.97365974E+04</totfact>
</mgrwt>
</event>
<event>
 4    1  0.4137916E+000  0.1856861E+03  0.7546771E-02  0.1162411E+00
         21   -1    0    0  503  502  0.00000000000E+00  0.00000000000E+00  0.10433085892E+03  0.10433085892E+03  0.00000000000E+00 0. -1.
         21   -1    0    0  501  503 -0.00000000000E+00 -0.00000000000E+00 -0.34228040968E+03  0.34228040968E+03  0.00000000000E+00 0. -1.
          6    1    1    2  501    0 -0.35891275481E+02  0.57115309990E+02 -0.16043609164E+03  0.24539576563E+03  0.17300000000E+03 0.  1.
         -6    1    1    2    0  502  0.35891275481E+02 -0.57115309990E+02 -0.77513459116E+02  0.20121550297E+03  0.17300000000E+03 0.  1.
<mgrwt>
<rscale>  2 0.18568614E+03</rscale>
<asrwt>0</asrwt>
<pdfrwt beam="1">  1       21 0.16050902E-01 0.18568614E+03</pdfrwt>
<pdfrwt beam="2">  1       21 0.52658524E-01 0.18568614E+03</pdfrwt>
<totfact> 0.11881151E+05</totfact>
</mgrwt>
</event>
<event>
 4    1  0.4137916E+000  0.1802113E+03  0.7546771E-02  0.1167599E+00
         21   -1    0    0  503  502  0.00000000000E+00  0.00000000000E+00  0.18785812701E+04  0.18785812701E+04  0.00000000000E+00 0.  1.
         21   -1    0    0  501  503 -0.00000000000E+00 -0.00000000000E+00 -0.17924375651E+02  0.17924375651E+02  0.00000000000E+00 0.  1.
          6    1    1    2  501    0  0.36369063516E+02 -0.34991515759E+02  0.75159583176E+03  0.77289870571E+03  0.17300000000E+03 0.  1.
         -6    1    1    2    0  502 -0.36369063516E+02  0.34991515759E+02  0.11090610627E+04  0.11236069400E+04  0.17300000000E+03 0.  1.
<mgrwt>
<rscale>  2 0.18021131E+03</rscale>
<asrwt>0</asrwt>
<pdfrwt beam="1">  1       21 0.28901235E+00 0.18021131E+03</pdfrwt>
<pdfrwt beam="2">  1       21 0.27575977E-02 0.18021131E+03</pdfrwt>
<totfact> 0.29058964E+04</totfact>
</mgrwt>
</event>
<event>
 4    1  0.4137916E+000  0.2260059E+03  0.7546771E-02  0.1129483E+00
         21   -1    0    0  501  502  0.00000000000E+00  0.00000000000E+00  0.83647053043E+02  0.83647053043E+02  0.00000000000E+00 0. -1.
         21   -1    0    0  502  503 -0.00000000000E+00 -0.00000000000E+00 -0.96188126211E+03  0.96188126211E+03  0.00000000000E+00 0.  1.
          6    1    1    2  501    0 -0.19153901558E+02 -0.14416232775E+03 -0.12322062293E+03  0.25741400623E+03  0.17300000000E+03 0. -1.
         -6    1    1    2    0  503  0.19153901558E+02  0.14416232775E+03 -0.75501358614E+03  0.78811430893E+03  0.17300000000E+03 0.  1.
<mgrwt>
<rscale>  2 0.22600586E+03</rscale>
<asrwt>0</asrwt>
<pdfrwt beam="1">  1       21 0.12868777E-01 0.22600586E+03</pdfrwt>
<pdfrwt beam="2">  1       21 0.14798173E+00 0.22600586E+03</pdfrwt>
<totfact> 0.15679960E+04</totfact>
</mgrwt>
</event>
<event>
 4    1  0.4137916E+000  0.1896583E+03  0.7546771E-02  0.1158770E+00
         21   -1    0    0  501  502  0.00000000000E+00  0.00000000000E+00  0.19550090479E+03  0.19550090479E+03  0.00000000000E+00 0. -1.
         21   -1    0    0  502  503 -0.00000000000E+00 -0.00000000000E+00 -0.23009233191E+03  0.23009233191E+03  0.00000000000E+00 0. -1.
          6    1    1    2  501    0 -0.50623884989E+01  0.77560672658E+02  0.77956111805E+02  0.20505472706E+03  0.17300000000E+03 0. -1.
         -6    1    1    2    0  503  0.50623884989E+01 -0.77560672658E+02 -0.11254753892E+03  0.22053850965E+03  0.17300000000E+03 0. -1.
<mgrwt>
<rscale>  2 0.18965834E+03</rscale>
<asrwt>0</asrwt>
<pdfrwt beam="1">  1       21 0.30077062E-01 0.18965834E+03</pdfrwt>
<pdfrwt beam="2">  1       21 0.35398820E-01 0.18965834E+03</pdfrwt>
<totfact> 0.81682637E+04</totfact>
</mgrwt>
</event>
<event>
 4    1  0.4137916E+000  0.1966894E+03  0.7546771E-02  0.1152563E+00
         21   -1    0    0  503  502  0.00000000000E+00  0.00000000000E+00  0.27916749612E+03  0.27916749612E+03  0.00000000000E+00 0.  1.
         21   -1    0    0  501  503 -0.00000000000E+00 -0.00000000000E+00 -0.13858101147E+03  0.13858101147E+03  0.00000000000E+00 0.  1.
          6    1    1    2  501    0  0.84078806758E+02 -0.41091195327E+02  0.71103318542E+02  0.20914687181E+03  0.17300000000E+03 0.  1.
         -6    1    1    2    0  502 -0.84078806758E+02  0.41091195327E+02  0.69483166107E+02  0.20860163578E+03  0.17300000000E+03 0.  1.
<mgrwt>
<rscale>  2 0.19668943E+03</rscale>
<asrwt>0</asrwt>
<pdfrwt beam="1">  1       21 0.42948846E-01 0.19668943E+03</pdfrwt>
<pdfrwt beam="2">  1       21 0.21320156E-01 0.19668943E+03</pdfrwt>
<totfact> 0.10659336E+05</totfact>
</mgrwt>
</event>
<event>
 4    1  0.4137916E+000  0.1875582E+03  0.7546771E-02  0.1160682E+00
         21   -1    0    0  503  502  0.00000000000E+00  0.00000000000E+00  0.75700697601E+02  0.75700697601E+02  0.00000000000E+00 0. -1.
         21   -1    0    0  501  503 -0.00000000000E+00 -0.00000000000E+00 -0.46730951586E+03  0.46730951586E+03  0.00000000000E+00 0. -1.
          6    1    1    2  501    0 -0.18302251107E+02  0.70100688152E+02 -0.17551382916E+03  0.25687191964E+03  0.17300000000E+03 0. -1.
         -6    1    1    2    0  502  0.18302251107E+02 -0.70100688152E+02 -0.21609498909E+03  0.28613829381E+03  0.17300000000E+03 0. -1.
<mgrwt>
<rscale>  2 0.18755820E+03</rscale>
<asrwt>0</asrwt>
<pdfrwt beam="1">  1       21 0.11646261E-01 0.18755820E+03</pdfrwt>
<pdfrwt beam="2">  1       21 0.71893772E-01 0.18755820E+03</pdfrwt>
<totfact> 0.10834206E+05</totfact>
</mgrwt>
</event>
<event>
 4    1  0.4137916E+000  0.2163660E+03  0.7546771E-02  0.1136622E+00
         21   -1    0    0  501  502  0.00000000000E+00  0.00000000000E+00  0.28488191957E+03  0.28488191957E+03  0.00000000000E+00 0. -1.
         21   -1    0    0  502  503 -0.00000000000E+00 -0.00000000000E+00 -0.16476041569E+03  0.16476041569E+03  0.00000000000E+00 0. -1.
          6    1    1    2  501    0 -0.32441005118E+02 -0.12582864573E+03  0.71569414420E+02  0.22789569540E+03  0.17300000000E+03 0. -1.
         -6    1    1    2    0  503  0.32441005118E+02  0.12582864573E+03  0.48552089456E+02  0.22174663986E+03  0.17300000000E+03 0. -1.
<mgrwt>
<rscale>  2 0.21636605E+03</rscale>
<asrwt>0</asrwt>
<pdfrwt beam="1">  1       21 0.43827988E-01 0.21636605E+03</pdfrwt>
<pdfrwt beam="2">  1       21 0.25347756E-01 0.21636605E+03</pdfrwt>
<totfact> 0.73038485E+04</totfact>
</mgrwt>
</event>
<event>
 4    1  0.4137916E+000  0.1762876E+03  0.7546771E-02  0.1171445E+00
         21   -1    0    0  503  502  0.00000000000E+00  0.00000000000E+00  0.24826264515E+02  0.24826264515E+02  0.00000000000E+00 0.  1.
         21   -1    0    0  501  503 -0.00000000000E+00 -0.00000000000E+00 -0.14998058339E+04  0.14998058339E+04  0.00000000000E+00 0.  1.
          6    1    1    2  501    0 -0.28444391315E+02  0.18418346983E+02 -0.42749419787E+03  0.46241605521E+03  0.17300000000E+03 0. -1.
         -6    1    1    2    0  502  0.28444391315E+02 -0.18418346983E+02 -0.10474853715E+04  0.10622160432E+04  0.17300000000E+03 0. -1.
<mgrwt>
<rscale>  2 0.17628760E+03</rscale>
<asrwt>0</asrwt>
<pdfrwt beam="1">  1       21 0.38194245E-02 0.17628760E+03</pdfrwt>
<pdfrwt beam="2">  1       21 0.23073941E+00 0.17628760E+03</pdfrwt>
<totfact> 0.37115530E+04</totfact>
</mgrwt>
</event>
<event>
 4    1  0.4137916E+000  0.2014387E+03  0.7546771E-02  0.1148531E+00
         21   -1    0    0  501  502  0.00000000000E+00  0.00000000000E+00  0.10760280220E+03  0.10760280220E+03  0.00000000000E+00 0. -1.
         21   -1    0    0  502  503 -0.00000000000E+00 -0.00000000000E+00 -0.56060892612E+03  0.56060892612E+03  0.00000000000E+00 0.  1.
          6    1    1    2  501    0  0.45954322358E+02  0.92394517483E+02 -0.41765418932E+03  0.46369447750E+03  0.17300000000E+03 0.  1.
         -6    1    1    2    0  503 -0.45954322358E+02 -0.92394517483E+02 -0.35351934600E+02  0.20451725082E+03  0.17300000000E+03 0. -1.
<mgrwt>
<rscale>  2 0.20143869E+03</rscale>
<asrwt>0</asrwt>
<pdfrwt beam="1">  1       21 0.16554277E-01 0.20143869E+03</pdfrwt>
<pdfrwt beam="2">  1       21 0.86247526E-01 0.20143869E+03</pdfrwt>
<totfact> 0.37785037E+04</totfact>
</mgrwt>
</event>
<event>
 4    1  0.4137916E+000  0.2171895E+03  0.7546771E-02  0.1135996E+00
         21   -1    0    0  501  502  0.00000000000E+00  0.00000000000E+00  0.83628711574E+02  0.83628711574E+02  0.00000000000E+00 0. -1.
         21   -1    0    0  502  503 -0.00000000000E+00 -0.00000000000E+00 -0.75824860084E+03  0.75824860084E+03  0.00000000000E+00 0. -1.
          6    1    1    2  501    0  0.27690551100E+02  0.12835694188E+03 -0.55033437501E+03  0.59164110360E+03  0.17300000000E+03 0. -1.
         -6    1    1    2    0  503 -0.27690551100E+02 -0.12835694188E+03 -0.12428551426E+03  0.25023620882E+03  0.17300000000E+03 0. -1.
<mgrwt>
<rscale>  2 0.21718948E+03</rscale>
<asrwt>0</asrwt>
<pdfrwt beam="1">  1       21 0.12865956E-01 0.21718948E+03</pdfrwt>
<pdfrwt beam="2">  1       21 0.11665363E+00 0.21718948E+03</pdfrwt>
<totfact> 0.28908933E+04</totfact>
</mgrwt>
</event>
<event>
 4    1  0.4137916E+000  0.1861873E+03  0.7546771E-02  0.1161946E+00
         21   -1    0    0  503  502  0.00000000000E+00  0.00000000000E+00  0.85976298520E+02  0.85976298520E+02  0.00000000000E+00 0. -1.
         21   -1    0    0  501  503 -0.00000000000E+00 -0.00000000000E+00 -0.52936597932E+03  0.52936597932E+03  0.00000000000E+00 0. -1.
          6    1    1    2  501    0 -0.57368709524E+02  0.38020114480E+02 -0.37189790327E+03  0.41590112814E+03  0.17300000000E+03 0. -1.
         -6    1    1    2    0  502  0.57368709524E+02 -0.38020114480E+02 -0.71491777536E+02  0.19944114970E+03  0.17300000000E+03 0. -1.
<mgrwt>
<rscale>  2 0.18618727E+03</rscale>
<asrwt>0</asrwt>
<pdfrwt beam="1">  1       21 0.13227123E-01 0.18618727E+03</pdfrwt>
<pdfrwt beam="2">  1       21 0.81440918E-01 0.18618727E+03</pdfrwt>
<totfact> 0.65267019E+04</totfact>
</mgrwt>
</event>
<event>
 4    1  0.4137916E+000  0.1762791E+03  0.7546771E-02  0.1171453E+00
         21   -1    0    0  503  502  0.00000000000E+00  0.00000000000E+00  0.13559922944E+03  0.13559922944E+03  0.00000000000E+00 0. -1.
         21   -1    0    0  501  503 -0.00000000000E+00 -0.00000000000E+00 -0.30983385643E+03  0.30983385643E+03  0.00000000000E+00 0. -1.
          6    1    1    2  501    0  0.18255224213E+01 -0.33793464807E+02 -0.20076125380E+03  0.26716925689E+03  0.17300000000E+03 0. -1.
         -6    1    1    2    0  502 -0.18255224213E+01  0.33793464807E+02  0.26526626814E+02  0.17826382899E+03  0.17300000000E+03 0. -1.
<mgrwt>
<rscale>  2 0.17627913E+03</rscale>
<asrwt>0</asrwt>
<pdfrwt beam="1">  1       21 0.20861420E-01 0.17627913E+03</pdfrwt>
<pdfrwt beam="2">  1       21 0.47666746E-01 0.17627913E+03</pdfrwt>
<totfact> 0.90348321E+04</totfact>
</mgrwt>
</event>
<event>
 4    1  0.4137916E+000  0.1861093E+03  0.7546771E-02  0.1162018E+00
         21   -1    0    0  501  502  0.00000000000E+00  0.00000000000E+00  0.12144148456E+03  0.12144148456E+03  0.00000000000E+00 0. -1.
         21   -1    0    0  502  503 -0.00000000000E+00 -0.00000000000E+00 -0.28739635925E+03  0.28739635925E+03  0.00000000000E+00 0.  1.
          6    1    1    2  501    0 -0.16577285087E+02  0.66579819667E+02 -0.65159707411E+02  0.19718637437E+03  0.17300000000E+03 0. -1.
         -6    1    1    2    0  503  0.16577285087E+02 -0.66579819667E+02 -0.10079516728E+03  0.21165146943E+03  0.17300000000E+03 0.  1.
<mgrwt>
<rscale>  2 0.18610932E+03</rscale>
<asrwt>0</asrwt>
<pdfrwt beam="1">  1       21 0.18683305E-01 0.18610932E+03</pdfrwt>
<pdfrwt beam="2">  1       21 0.44214824E-01 0.18610932E+03</pdfrwt>
<totfact> 0.12902434E+05</totfact>
</mgrwt>
</event>
<event>
 4    1  0.4137916E+000  0.1982915E+03  0.7546771E-02  0.1151189E+00
         21   -1    0    0  503  502  0.00000000000E+00  0.00000000000E+00  0.55077110323E+03  0.55077110323E+03  0.00000000000E+00 0. -1.
         21   -1    0    0  501  503 -0.00000000000E+00 -0.00000000000E+00 -0.72302585604E+02  0.72302585604E+02  0.00000000000E+00 0.  1.
          6    1    1    2  501    0 -0.84805837223E+02 -0.46887899848E+02  0.20423262913E+03  0.28465851820E+03  0.17300000000E+03 0.  1.
         -6    1    1    2    0  502  0.84805837223E+02  0.46887899848E+02  0.27423588849E+03  0.33841517063E+03  0.17300000000E+03 0. -1.
<mgrwt>
<rscale>  2 0.19829147E+03</rscale>
<asrwt>0</asrwt>
<pdfrwt beam="1">  1       21 0.84734013E-01 0.19829147E+03</pdfrwt>
<pdfrwt beam="2">  1       21 0.11123475E-01 0.19829147E+03</pdfrwt>
<totfact> 0.80881876E+04</totfact>
</mgrwt>
</event>
<event>
 4    1  0.4137916E+000  0.2307744E+03  0.7546771E-02  0.1126096E+00
         21   -1    0    0  503  502  0.00000000000E+00  0.00000000000E+00  0.40387400261E+03  0.40387400261E+03  0.00000000000E+00 0. -1.
         21   -1    0    0  501  503 -0.00000000000E+00 -0.00000000000E+00 -0.13496993755E+03  0.13496993755E+03  0.00000000000E+00 0.  1.
          6    1    1    2  501    0  0.48655625850E+02  0.14477727463E+03  0.93587764909E+02  0.24902911259E+03  0.17300000000E+03 0.  1.
         -6    1    1    2    0  502 -0.48655625850E+02 -0.14477727463E+03  0.17531630016E+03  0.28981482757E+03  0.17300000000E+03 0. -1.
<mgrwt>
<rscale>  2 0.23077441E+03</rscale>
<asrwt>0</asrwt>
<pdfrwt beam="1">  1       21 0.62134462E-01 0.23077441E+03</pdfrwt>
<pdfrwt beam="2">  1       21 0.20764606E-01 0.23077441E+03</pdfrwt>
<totfact> 0.50805346E+04</totfact>
</mgrwt>
</event>
<event>
 4    1  0.4137916E+000  0.2197361E+03  0.7546771E-02  0.1134080E+00
         21   -1    0    0  503  502  0.00000000000E+00  0.00000000000E+00  0.43490919107E+02  0.43490919107E+02  0.00000000000E+00 0. -1.
         21   -1    0    0  501  503 -0.00000000000E+00 -0.00000000000E+00 -0.17577056728E+04  0.17577056728E+04  0.00000000000E+00 0. -1.
          6    1    1    2  501    0  0.18665020261E+02 -0.13418863988E+03 -0.14037167694E+04  0.14208112974E+04  0.17300000000E+03 0. -1.
         -6    1    1    2    0  502 -0.18665020261E+02  0.13418863988E+03 -0.31049798436E+03  0.38038529460E+03  0.17300000000E+03 0. -1.
<mgrwt>
<rscale>  2 0.21973615E+03</rscale>
<asrwt>0</asrwt>
<pdfrwt beam="1">  1       21 0.66909113E-02 0.21973615E+03</pdfrwt>
<pdfrwt beam="2">  1       21 0.27041623E+00 0.21973615E+03</pdfrwt>
<totfact> 0.80499262E+03</totfact>
</mgrwt>
</event>
<event>
 4    1  0.4137916E+000  0.2112956E+03  0.7546771E-02  0.1140544E+00
         21   -1    0    0  503  502  0.00000000000E+00  0.00000000000E+00  0.59675157704E+03  0.59675157704E+03  0.00000000000E+00 0. -1.
         21   -1    0    0  501  503 -0.00000000000E+00 -0.00000000000E+00 -0.20194814732E+03  0.20194814732E+03  0.00000000000E+00 0. -1.
          6    1    1    2  501    0  0.11380888751E+03 -0.42004167497E+02 -0.11945538934E+03  0.24272495341E+03  0.17300000000E+03 0. -1.
         -6    1    1    2    0  502 -0.11380888751E+03  0.42004167497E+02  0.51425881906E+03  0.55597477096E+03  0.17300000000E+03 0. -1.
<mgrwt>
<rscale>  2 0.21129556E+03</rscale>
<asrwt>0</asrwt>
<pdfrwt beam="1">  1       21 0.91807934E-01 0.21129556E+03</pdfrwt>
<pdfrwt beam="2">  1       21 0.31068946E-01 0.21129556E+03</pdfrwt>
<totfact> 0.98561572E+03</totfact>
</mgrwt>
</event>
<event>
 4    1  0.4137916E+000  0.2126725E+03  0.7546771E-02  0.1139467E+00
         21   -1    0    0  501  502  0.00000000000E+00  0.00000000000E+00  0.75488858517E+03  0.75488858517E+03  0.00000000000E+00 0. -1.
         21   -1    0    0  502  503 -0.00000000000E+00 -0.00000000000E+00 -0.59915876697E+02  0.59915876697E+02  0.00000000000E+00 0. -1.
          6    1    1    2  501    0 -0.95879283100E+02  0.78152089212E+02  0.34657685773E+03  0.40662649236E+03  0.17300000000E+03 0. -1.
         -6    1    1    2    0  503  0.95879283100E+02 -0.78152089212E+02  0.34839585075E+03  0.40817796951E+03  0.17300000000E+03 0. -1.
<mgrwt>
<rscale>  2 0.21267249E+03</rscale>
<asrwt>0</asrwt>
<pdfrwt beam="1">  1       21 0.11613670E+00 0.21267249E+03</pdfrwt>
<pdfrwt beam="2">  1       21 0.92178277E-02 0.21267249E+03</pdfrwt>
<totfact> 0.53062538E+04</totfact>
</mgrwt>
</event>
<event>
 4    1  0.4137916E+000  0.2688267E+03  0.7546771E-02  0.1101953E+00
         21   -1    0    0  501  502  0.00000000000E+00  0.00000000000E+00  0.46688143673E+03  0.46688143673E+03  0.00000000000E+00 0. -1.
         21   -1    0    0  502  503 -0.00000000000E+00 -0.00000000000E+00 -0.15528891010E+03  0.15528891010E+03  0.00000000000E+00 0.  1.
          6    1    1    2  501    0 -0.15777875267E+03  0.13207820359E+03  0.17345893209E+03  0.31993091095E+03  0.17300000000E+03 0.  1.
         -6    1    1    2    0  503  0.15777875267E+03 -0.13207820359E+03  0.13813359455E+03  0.30223943588E+03  0.17300000000E+03 0. -1.
<mgrwt>
<rscale>  2 0.26882669E+03</rscale>
<asrwt>0</asrwt>
<pdfrwt beam="1">  1       21 0.71827913E-01 0.26882669E+03</pdfrwt>
<pdfrwt beam="2">  1       21 0.23890602E-01 0.26882669E+03</pdfrwt>
<totfact> 0.27837305E+04</totfact>
</mgrwt>
</event>
<event>
 4    1  0.4137916E+000  0.2486670E+03  0.7546771E-02  0.1114150E+00
         21   -1    0    0  501  502  0.00000000000E+00  0.00000000000E+00  0.47695221855E+03  0.47695221855E+03  0.00000000000E+00 0. -1.
         21   -1    0    0  502  503 -0.00000000000E+00 -0.00000000000E+00 -0.15728277967E+03  0.15728277967E+03  0.00000000000E+00 0. -1.
          6    1    1    2  501    0  0.17167834326E+03 -0.49323603858E+02  0.29276318714E+03  0.38411659061E+03  0.17300000000E+03 0. -1.
         -6    1    1    2    0  503 -0.17167834326E+03  0.49323603858E+02  0.26906251740E+02  0.25011840761E+03  0.17300000000E+03 0. -1.
<mgrwt>
<rscale>  2 0.24866699E+03</rscale>
<asrwt>0</asrwt>
<pdfrwt beam="1">  1       21 0.73377264E-01 0.24866699E+03</pdfrwt>
<pdfrwt beam="2">  1       21 0.24197351E-01 0.24866699E+03</pdfrwt>
<totfact> 0.26131054E+04</totfact>
</mgrwt>
</event>
<event>
 4    1  0.4137916E+000  0.3206095E+03  0.7546771E-02  0.1075369E+00
         21   -1    0    0  501  502  0.00000000000E+00  0.00000000000E+00  0.50116736269E+03  0.50116736269E+03  0.00000000000E+00 0.  1.
         21   -1    0    0  502  503 -0.00000000000E+00 -0.00000000000E+00 -0.20883837237E+03  0.20883837237E+03  0.00000000000E+00 0. -1.
          6    1    1    2  501    0 -0.92440505610E+01  0.26977030255E+03  0.19364847666E+03  0.37455333549E+03  0.17300000000E+03 0. -1.
         -6    1    1    2    0  503  0.92440505610E+01 -0.26977030255E+03  0.98680513660E+02  0.33545239958E+03  0.17300000000E+03 0.  1.
<mgrwt>
<rscale>  2 0.32060953E+03</rscale>
<asrwt>0</asrwt>
<pdfrwt beam="1">  1       21 0.77102671E-01 0.32060953E+03</pdfrwt>
<pdfrwt beam="2">  1       21 0.32128980E-01 0.32060953E+03</pdfrwt>
<totfact> 0.13030127E+04</totfact>
</mgrwt>
</event>
<event>
 4    1  0.4137916E+000  0.1916572E+03  0.7546771E-02  0.1156975E+00
         21   -1    0    0  501  502  0.00000000000E+00  0.00000000000E+00  0.14915566654E+03  0.14915566654E+03  0.00000000000E+00 0.  1.
         21   -1    0    0  502  503 -0.00000000000E+00 -0.00000000000E+00 -0.25600173162E+03  0.25600173162E+03  0.00000000000E+00 0.  1.
          6    1    1    2  501    0 -0.37536440377E+02  0.73447368796E+02 -0.13924841099E+02  0.19216243530E+03  0.17300000000E+03 0.  1.
         -6    1    1    2    0  503  0.37536440377E+02 -0.73447368796E+02 -0.92921223982E+02  0.21299496286E+03  0.17300000000E+03 0.  1.
<mgrwt>
<rscale>  2 0.19165725E+03</rscale>
<asrwt>0</asrwt>
<pdfrwt beam="1">  1       21 0.22947026E-01 0.19165725E+03</pdfrwt>
<pdfrwt beam="2">  1       21 0.39384881E-01 0.19165725E+03</pdfrwt>
<totfact> 0.11083308E+05</totfact>
</mgrwt>
</event>
<event>
 4    1  0.4137916E+000  0.1895404E+03  0.7546771E-02  0.1158877E+00
         21   -1    0    0  501  502  0.00000000000E+00  0.00000000000E+00  0.51269354721E+02  0.51269354721E+02  0.00000000000E+00 0. -1.
         21   -1    0    0  502  503 -0.00000000000E+00 -0.00000000000E+00 -0.13377227115E+04  0.13377227115E+04  0.00000000000E+00 0. -1.
          6    1    1    2  501    0  0.77429444473E+02 -0.11146359176E+01 -0.16398265984E+03  0.25063095183E+03  0.17300000000E+03 0. -1.
         -6    1    1    2    0  503 -0.77429444473E+02  0.11146359176E+01 -0.11224706970E+04  0.11383611144E+04  0.17300000000E+03 0. -1.
<mgrwt>
<rscale>  2 0.18954039E+03</rscale>
<asrwt>0</asrwt>
<pdfrwt beam="1">  1       21 0.78875927E-02 0.18954039E+03</pdfrwt>
<pdfrwt beam="2">  1       21 0.20580350E+00 0.18954039E+03</pdfrwt>
<totfact> 0.15204878E+04</totfact>
</mgrwt>
</event>
<event>
 4    1  0.4137916E+000  0.1967149E+03  0.7546771E-02  0.1152541E+00
         21   -1    0    0  503  502  0.00000000000E+00  0.00000000000E+00  0.11110754955E+04  0.11110754955E+04  0.00000000000E+00 0.  1.
         21   -1    0    0  501  503 -0.00000000000E+00 -0.00000000000E+00 -0.35434617592E+02  0.35434617592E+02  0.00000000000E+00 0. -1.
          6    1    1    2  501    0 -0.93621150839E+02  0.16885878746E+01  0.61281265078E+03  0.64361177442E+03  0.17300000000E+03 0. -1.
         -6    1    1    2    0  502  0.93621150839E+02 -0.16885878746E+01  0.46282822711E+03  0.50289833866E+03  0.17300000000E+03 0. -1.
<mgrwt>
<rscale>  2 0.19671495E+03</rscale>
<asrwt>0</asrwt>
<pdfrwt beam="1">  1       21 0.17093467E+00 0.19671495E+03</pdfrwt>
<pdfrwt beam="2">  1       21 0.54514805E-02 0.19671495E+03</pdfrwt>
<totfact> 0.48693662E+04</totfact>
</mgrwt>
</event>
<event>
 4    1  0.4137916E+000  0.2416754E+03  0.7546771E-02  0.1118682E+00
         21   -1    0    0  501  502  0.00000000000E+00  0.00000000000E+00  0.59769507050E+03  0.59769507050E+03  0.00000000000E+00 0. -1.
         21   -1    0    0  502  503 -0.00000000000E+00 -0.00000000000E+00 -0.98416383227E+02  0.98416383227E+02  0.00000000000E+00 0. -1.
          6    1    1    2  501    0  0.13353098467E+03 -0.10318656532E+03  0.22036953958E+03  0.32706226487E+03  0.17300000000E+03 0. -1.
         -6    1    1    2    0  503 -0.13353098467E+03  0.10318656532E+03  0.27890914769E+03  0.36904918886E+03  0.17300000000E+03 0. -1.
<mgrwt>
<rscale>  2 0.24167538E+03</rscale>
<asrwt>0</asrwt>
<pdfrwt beam="1">  1       21 0.91953086E-01 0.24167538E+03</pdfrwt>
<pdfrwt beam="2">  1       21 0.15140982E-01 0.24167538E+03</pdfrwt>
<totfact> 0.37612729E+04</totfact>
</mgrwt>
</event>
<event>
 4    1  0.4137916E+000  0.1896463E+03  0.7546771E-02  0.1158781E+00
         21   -1    0    0  501  502  0.00000000000E+00  0.00000000000E+00  0.44946159935E+03  0.44946159935E+03  0.00000000000E+00 0. -1.
         21   -1    0    0  502  503 -0.00000000000E+00 -0.00000000000E+00 -0.81521180420E+02  0.81521180420E+02  0.00000000000E+00 0. -1.
          6    1    1    2  501    0 -0.68949759358E+02 -0.35814053201E+02  0.22000288267E+03  0.29045995267E+03  0.17300000000E+03 0. -1.
         -6    1    1    2    0  503  0.68949759358E+02  0.35814053201E+02  0.14793753626E+03  0.24052282710E+03  0.17300000000E+03 0. -1.
<mgrwt>
<rscale>  2 0.18964629E+03</rscale>
<asrwt>0</asrwt>
<pdfrwt beam="1">  1       21 0.69147937E-01 0.18964629E+03</pdfrwt>
<pdfrwt beam="2">  1       21 0.12541720E-01 0.18964629E+03</pdfrwt>
<totfact> 0.10332848E+05</totfact>
</mgrwt>
</event>
<event>
 4    1  0.4137916E+000  0.1972589E+03  0.7546771E-02  0.1152072E+00
         21   -1    0    0  503  502  0.00000000000E+00  0.00000000000E+00  0.27152170125E+03  0.27152170125E+03  0.00000000000E+00 0. -1.
         21   -1    0    0  501  503 -0.00000000000E+00 -0.00000000000E+00 -0.14331766013E+03  0.14331766013E+03  0.00000000000E+00 0. -1.
          6    1    1    2  501    0  0.36968954829E+02  0.87266151968E+02  0.65852017872E+02  0.20796050865E+03  0.17300000000E+03 0. -1.
         -6    1    1    2    0  502 -0.36968954829E+02 -0.87266151968E+02  0.62352023247E+02  0.20687885272E+03  0.17300000000E+03 0. -1.
<mgrwt>
<rscale>  2 0.19725893E+03</rscale>
<asrwt>0</asrwt>
<pdfrwt beam="1">  1       21 0.41772569E-01 0.19725893E+03</pdfrwt>
<pdfrwt beam="2">  1       21 0.22048871E-01 0.19725893E+03</pdfrwt>
<totfact> 0.10585593E+05</totfact>
</mgrwt>
</event>
<event>
 4    1  0.4137916E+000  0.1914533E+03  0.7546771E-02  0.1157157E+00
         21   -1    0    0  501  502  0.00000000000E+00  0.00000000000E+00  0.52341482902E+03  0.52341482902E+03  0.00000000000E+00 0. -1.
         21   -1    0    0  502  503 -0.00000000000E+00 -0.00000000000E+00 -0.11375505391E+03  0.11375505391E+03  0.00000000000E+00 0. -1.
          6    1    1    2  501    0 -0.29092081822E+02  0.76674867333E+02  0.40234869196E+03  0.44557699046E+03  0.17300000000E+03 0. -1.
         -6    1    1    2    0  503  0.29092081822E+02 -0.76674867333E+02  0.73110831447E+01  0.19159289246E+03  0.17300000000E+03 0. -1.
<mgrwt>
<rscale>  2 0.19145335E+03</rscale>
<asrwt>0</asrwt>
<pdfrwt beam="1">  1       21 0.80525357E-01 0.19145335E+03</pdfrwt>
<pdfrwt beam="2">  1       21 0.17500778E-01 0.19145335E+03</pdfrwt>
<totfact> 0.40101146E+04</totfact>
</mgrwt>
</event>
<event>
 4    1  0.4137916E+000  0.1819234E+03  0.7546771E-02  0.1165954E+00
         21   -1    0    0  501  502  0.00000000000E+00  0.00000000000E+00  0.83185254163E+02  0.83185254163E+02  0.00000000000E+00 0. -1.
         21   -1    0    0  502  503 -0.00000000000E+00 -0.00000000000E+00 -0.47247893546E+03  0.47247893546E+03  0.00000000000E+00 0. -1.
          6    1    1    2  501    0 -0.21594281805E+02 -0.51969440637E+02 -0.84235433680E+02  0.20047878704E+03  0.17300000000E+03 0. -1.
         -6    1    1    2    0  503  0.21594281805E+02  0.51969440637E+02 -0.30505824762E+03  0.35518540258E+03  0.17300000000E+03 0. -1.
<mgrwt>
<rscale>  2 0.18192343E+03</rscale>
<asrwt>0</asrwt>
<pdfrwt beam="1">  1       21 0.12797731E-01 0.18192343E+03</pdfrwt>
<pdfrwt beam="2">  1       21 0.72689067E-01 0.18192343E+03</pdfrwt>
<totfact> 0.89514296E+04</totfact>
</mgrwt>
</event>
<event>
 4    1  0.4137916E+000  0.1979823E+03  0.7546771E-02  0.1151453E+00
         21   -1    0    0  501  502  0.00000000000E+00  0.00000000000E+00  0.14598438675E+02  0.14598438675E+02  0.00000000000E+00 0.  1.
         21   -1    0    0  502  503 -0.00000000000E+00 -0.00000000000E+00 -0.28950219608E+04  0.28950219608E+04  0.00000000000E+00 0. -1.
          6    1    1    2  501    0 -0.92012132749E+02  0.28315308018E+02 -0.10483797506E+04  0.10669100668E+04  0.17300000000E+03 0.  1.
         -6    1    1    2    0  503  0.92012132749E+02 -0.28315308018E+02 -0.18320437715E+04  0.18427103327E+04  0.17300000000E+03 0. -1.
<mgrwt>
<rscale>  2 0.19798230E+03</rscale>
<asrwt>0</asrwt>
<pdfrwt beam="1">  1       21 0.22459115E-02 0.19798230E+03</pdfrwt>
<pdfrwt beam="2">  1       21 0.44538842E+00 0.19798230E+03</pdfrwt>
<totfact> 0.45125948E+03</totfact>
</mgrwt>
</event>
<event>
 4    1  0.4137916E+000  0.1859995E+03  0.7546771E-02  0.1162120E+00
         21   -1    0    0  501  502  0.00000000000E+00  0.00000000000E+00  0.15986997384E+03  0.15986997384E+03  0.00000000000E+00 0. -1.
         21   -1    0    0  502  503 -0.00000000000E+00 -0.00000000000E+00 -0.44107500315E+03  0.44107500315E+03  0.00000000000E+00 0. -1.
          6    1    1    2  501    0 -0.10089623471E+02  0.67564766339E+02  0.73847587333E+02  0.20012312287E+03  0.17300000000E+03 0.  1.
         -6    1    1    2    0  503  0.10089623471E+02 -0.67564766339E+02 -0.35505261664E+03  0.40082185412E+03  0.17300000000E+03 0.  1.
<mgrwt>
<rscale>  2 0.18599946E+03</rscale>
<asrwt>0</asrwt>
<pdfrwt beam="1">  1       21 0.24595380E-01 0.18599946E+03</pdfrwt>
<pdfrwt beam="2">  1       21 0.67857693E-01 0.18599946E+03</pdfrwt>
<totfact> 0.31111706E+04</totfact>
</mgrwt>
</event>
<event>
 4    1  0.4137916E+000  0.2187365E+03  0.7546771E-02  0.1134829E+00
         21   -1    0    0  501  502  0.00000000000E+00  0.00000000000E+00  0.11617740659E+03  0.11617740659E+03  0.00000000000E+00 0.  1.
         21   -1    0    0  502  503 -0.00000000000E+00 -0.00000000000E+00 -0.62247917452E+03  0.62247917452E+03  0.00000000000E+00 0.  1.
          6    1    1    2  501    0  0.95049403409E+02 -0.94245808289E+02 -0.38304918263E+02  0.22206514412E+03  0.17300000000E+03 0.  1.
         -6    1    1    2    0  503 -0.95049403409E+02  0.94245808289E+02 -0.46799684967E+03  0.51659143699E+03  0.17300000000E+03 0.  1.
<mgrwt>
<rscale>  2 0.21873651E+03</rscale>
<asrwt>0</asrwt>
<pdfrwt beam="1">  1       21 0.17873447E-01 0.21873651E+03</pdfrwt>
<pdfrwt beam="2">  1       21 0.95766029E-01 0.21873651E+03</pdfrwt>
<totfact> 0.25474310E+04</totfact>
</mgrwt>
</event>
<event>
 4    1  0.4137916E+000  0.2774698E+03  0.7546771E-02  0.1097079E+00
         21   -1    0    0  503  502  0.00000000000E+00  0.00000000000E+00  0.30413883175E+03  0.30413883175E+03  0.00000000000E+00 0. -1.
         21   -1    0    0  501  503 -0.00000000000E+00 -0.00000000000E+00 -0.30457283975E+03  0.30457283975E+03  0.00000000000E+00 0. -1.
          6    1    1    2  501    0 -0.19610479047E+03 -0.92754637246E+02 -0.12528867961E+03  0.30444501115E+03  0.17300000000E+03 0. -1.
         -6    1    1    2    0  502  0.19610479047E+03  0.92754637246E+02  0.12485467161E+03  0.30426666035E+03  0.17300000000E+03 0. -1.
<mgrwt>
<rscale>  2 0.27746984E+03</rscale>
<asrwt>0</asrwt>
<pdfrwt beam="1">  1       21 0.46790589E-01 0.27746984E+03</pdfrwt>
<pdfrwt beam="2">  1       21 0.46857360E-01 0.27746984E+03</pdfrwt>
<totfact> 0.18235403E+04</totfact>
</mgrwt>
</event>
<event>
 4    1  0.4137916E+000  0.1770782E+03  0.7546771E-02  0.1170661E+00
         21   -1    0    0  503  502  0.00000000000E+00  0.00000000000E+00  0.13643192678E+04  0.13643192678E+04  0.00000000000E+00 0.  1.
         21   -1    0    0  501  503 -0.00000000000E+00 -0.00000000000E+00 -0.30521034308E+02  0.30521034308E+02  0.00000000000E+00 0.  1.
          6    1    1    2  501    0  0.33030897549E+02  0.18348426050E+02  0.32031217183E+03  0.36600080923E+03  0.17300000000E+03 0.  1.
         -6    1    1    2    0  502 -0.33030897549E+02 -0.18348426050E+02  0.10134860617E+04  0.10288394929E+04  0.17300000000E+03 0.  1.
<mgrwt>
<rscale>  2 0.17707825E+03</rscale>
<asrwt>0</asrwt>
<pdfrwt beam="1">  1       21 0.20989523E+00 0.17707825E+03</pdfrwt>
<pdfrwt beam="2">  1       21 0.46955448E-02 0.17707825E+03</pdfrwt>
<totfact> 0.35165978E+04</totfact>
</mgrwt>
</event>
<event>
 4    1  0.4137916E+000  0.2775385E+03  0.7546771E-02  0.1097041E+00
         21   -1    0    0  503  502  0.00000000000E+00  0.00000000000E+00  0.91986203545E+03  0.91986203545E+03  0.00000000000E+00 0. -1.
         21   -1    0    0  501  503 -0.00000000000E+00 -0.00000000000E+00 -0.21917813723E+03  0.21917813723E+03  0.00000000000E+00 0. -1.
          6    1    1    2  501    0  0.15091174531E+03  0.15596230739E+03 -0.97354647606E+02  0.29411821367E+03  0.17300000000E+03 0. -1.
         -6    1    1    2    0  502 -0.15091174531E+03 -0.15596230739E+03  0.79803854582E+03  0.84492195901E+03  0.17300000000E+03 0. -1.
<mgrwt>
<rscale>  2 0.27753846E+03</rscale>
<asrwt>0</asrwt>
<pdfrwt beam="1">  1       21 0.14151723E+00 0.27753846E+03</pdfrwt>
<pdfrwt beam="2">  1       21 0.33719714E-01 0.27753846E+03</pdfrwt>
<totfact> 0.27625860E+03</totfact>
</mgrwt>
</event>
<event>
 4    1  0.4137916E+000  0.2311863E+03  0.7546771E-02  0.1125808E+00
         21   -1    0    0  501  502  0.00000000000E+00  0.00000000000E+00  0.53448164776E+02  0.53448164776E+02  0.00000000000E+00 0.  1.
         21   -1    0    0  502  503 -0.00000000000E+00 -0.00000000000E+00 -0.10545222980E+04  0.10545222980E+04  0.00000000000E+00 0. -1.
          6    1    1    2  501    0  0.16965286172E+02 -0.15241488669E+03 -0.37454728575E+03  0.44015086946E+03  0.17300000000E+03 0.  1.
         -6    1    1    2    0  503 -0.16965286172E+02  0.15241488669E+03 -0.62652684746E+03  0.66781959331E+03  0.17300000000E+03 0. -1.
<mgrwt>
<rscale>  2 0.23118633E+03</rscale>
<asrwt>0</asrwt>
<pdfrwt beam="1">  1       21 0.82227952E-02 0.23118633E+03</pdfrwt>
<pdfrwt beam="2">  1       21 0.16223419E+00 0.23118633E+03</pdfrwt>
<totfact> 0.27075047E+04</totfact>
</mgrwt>
</event>
<event>
 4    1  0.4137916E+000  0.1973417E+03  0.7546771E-02  0.1152001E+00
         21   -1    0    0  503  502  0.00000000000E+00  0.00000000000E+00  0.92004409267E+02  0.92004409267E+02  0.00000000000E+00 0.  1.
         21   -1    0    0  501  503 -0.00000000000E+00 -0.00000000000E+00 -0.43445594103E+03  0.43445594103E+03  0.00000000000E+00 0.  1.
          6    1    1    2  501    0 -0.72852683528E+02 -0.60886977812E+02 -0.21344218242E+03  0.29069107795E+03  0.17300000000E+03 0.  1.
         -6    1    1    2    0  502  0.72852683528E+02  0.60886977812E+02 -0.12900934934E+03  0.23576927235E+03  0.17300000000E+03 0.  1.
<mgrwt>
<rscale>  2 0.19734168E+03</rscale>
<asrwt>0</asrwt>
<pdfrwt beam="1">  1       21 0.14154524E-01 0.19734168E+03</pdfrwt>
<pdfrwt beam="2">  1       21 0.66839376E-01 0.19734168E+03</pdfrwt>
<totfact> 0.89213566E+04</totfact>
</mgrwt>
</event>
<event>
 4    1  0.4137916E+000  0.1895257E+03  0.7546771E-02  0.1158890E+00
         21   -1    0    0  503  502  0.00000000000E+00  0.00000000000E+00  0.47652623550E+03  0.47652623550E+03  0.00000000000E+00 0. -1.
         21   -1    0    0  501  503 -0.00000000000E+00 -0.00000000000E+00 -0.32278330989E+03  0.32278330989E+03  0.00000000000E+00 0.  1.
          6    1    1    2  501    0 -0.31314997630E+02 -0.70783785878E+02 -0.27301994584E+03  0.33235502741E+03  0.17300000000E+03 0.  1.
         -6    1    1    2    0  502  0.31314997630E+02  0.70783785878E+02  0.42676287145E+03  0.46695451799E+03  0.17300000000E+03 0. -1.
<mgrwt>
<rscale>  2 0.18952565E+03</rscale>
<asrwt>0</asrwt>
<pdfrwt beam="1">  1       21 0.73311729E-01 0.18952565E+03</pdfrwt>
<pdfrwt beam="2">  1       21 0.49658971E-01 0.18952565E+03</pdfrwt>
<totfact> 0.64803406E+03</totfact>
</mgrwt>
</event>
<event>
 4    1  0.4137916E+000  0.1816499E+03  0.7546771E-02  0.1166216E+00
         21   -1    0    0  501  502  0.00000000000E+00  0.00000000000E+00  0.38549198837E+03  0.38549198837E+03  0.00000000000E+00 0. -1.
         21   -1    0    0  502  503 -0.00000000000E+00 -0.00000000000E+00 -0.10546405320E+03  0.10546405320E+03  0.00000000000E+00 0. -1.
          6    1    1    2  501    0  0.50179094911E+02  0.23446707015E+02  0.24655936962E+03  0.30624861205E+03  0.17300000000E+03 0. -1.
         -6    1    1    2    0  503 -0.50179094911E+02 -0.23446707015E+02  0.33468565548E+02  0.18470742951E+03  0.17300000000E+03 0. -1.
<mgrwt>
<rscale>  2 0.18164991E+03</rscale>
<asrwt>0</asrwt>
<pdfrwt beam="1">  1       21 0.59306459E-01 0.18164991E+03</pdfrwt>
<pdfrwt beam="2">  1       21 0.16225239E-01 0.18164991E+03</pdfrwt>
<totfact> 0.90683114E+04</totfact>
</mgrwt>
</event>
<event>
 4    1  0.4137916E+000  0.3295884E+03  0.7546771E-02  0.1071319E+00
         21   -1    0    0  501  502  0.00000000000E+00  0.00000000000E+00  0.79699235456E+03  0.79699235456E+03  0.00000000000E+00 0.  1.
         21   -1    0    0  502  503 -0.00000000000E+00 -0.00000000000E+00 -0.21463881506E+03  0.21463881506E+03  0.00000000000E+00 0. -1.
          6    1    1    2  501    0 -0.16137630722E+03  0.22947161610E+03  0.59676165577E+03  0.68172795815E+03  0.17300000000E+03 0.  1.
         -6    1    1    2    0  503  0.16137630722E+03 -0.22947161610E+03 -0.14408116274E+02  0.32990321147E+03  0.17300000000E+03 0. -1.
<mgrwt>
<rscale>  2 0.32958843E+03</rscale>
<asrwt>0</asrwt>
<pdfrwt beam="1">  1       21 0.12261421E+00 0.32958843E+03</pdfrwt>
<pdfrwt beam="2">  1       21 0.33021357E-01 0.32958843E+03</pdfrwt>
<totfact> 0.40474758E+03</totfact>
</mgrwt>
</event>
<event>
 4    1  0.4137916E+000  0.3539988E+03  0.7546771E-02  0.1060986E+00
         21   -1    0    0  503  502  0.00000000000E+00  0.00000000000E+00  0.12137948047E+03  0.12137948047E+03  0.00000000000E+00 0.  1.
         21   -1    0    0  501  503 -0.00000000000E+00 -0.00000000000E+00 -0.10399469622E+04  0.10399469622E+04  0.00000000000E+00 0. -1.
          6    1    1    2  501    0  0.24875876038E+03 -0.18304427051E+03 -0.50866979668E+03  0.61972581670E+03  0.17300000000E+03 0. -1.
         -6    1    1    2    0  502 -0.24875876038E+03  0.18304427051E+03 -0.40989768502E+03  0.54160062594E+03  0.17300000000E+03 0.  1.
<mgrwt>
<rscale>  2 0.35399877E+03</rscale>
<asrwt>0</asrwt>
<pdfrwt beam="1">  1       21 0.18673767E-01 0.35399877E+03</pdfrwt>
<pdfrwt beam="2">  1       21 0.15999184E+00 0.35399877E+03</pdfrwt>
<totfact> 0.59792975E+03</totfact>
</mgrwt>
</event>
<event>
 4    1  0.4137916E+000  0.1970687E+03  0.7546771E-02  0.1152236E+00
         21   -1    0    0  501  502  0.00000000000E+00  0.00000000000E+00  0.43667649257E+03  0.43667649257E+03  0.00000000000E+00 0. -1.
         21   -1    0    0  502  503 -0.00000000000E+00 -0.00000000000E+00 -0.91398170678E+02  0.91398170678E+02  0.00000000000E+00 0.  1.
          6    1    1    2  501    0 -0.63389873209E+02 -0.69919935156E+02  0.12929870632E+03  0.23569944593E+03  0.17300000000E+03 0. -1.
         -6    1    1    2    0  503  0.63389873209E+02  0.69919935156E+02  0.21597961558E+03  0.29237521732E+03  0.17300000000E+03 0.  1.
<mgrwt>
<rscale>  2 0.19706870E+03</rscale>
<asrwt>0</asrwt>
<pdfrwt beam="1">  1       21 0.67180998E-01 0.19706870E+03</pdfrwt>
<pdfrwt beam="2">  1       21 0.14061257E-01 0.19706870E+03</pdfrwt>
<totfact> 0.89297805E+04</totfact>
</mgrwt>
</event>
<event>
 4    1  0.4137916E+000  0.1778075E+03  0.7546771E-02  0.1169942E+00
         21   -1    0    0  501  502  0.00000000000E+00  0.00000000000E+00  0.25511345237E+03  0.25511345237E+03  0.00000000000E+00 0. -1.
         21   -1    0    0  502  503 -0.00000000000E+00 -0.00000000000E+00 -0.14573196914E+03  0.14573196914E+03  0.00000000000E+00 0. -1.
          6    1    1    2  501    0  0.37602946332E+02 -0.16508379259E+02 -0.22834794913E+02  0.17926777741E+03  0.17300000000E+03 0. -1.
         -6    1    1    2    0  503 -0.37602946332E+02  0.16508379259E+02  0.13221627814E+03  0.22157764410E+03  0.17300000000E+03 0. -1.
<mgrwt>
<rscale>  2 0.17780750E+03</rscale>
<asrwt>0</asrwt>
<pdfrwt beam="1">  1       21 0.39248223E-01 0.17780750E+03</pdfrwt>
<pdfrwt beam="2">  1       21 0.22420303E-01 0.17780750E+03</pdfrwt>
<totfact> 0.11719111E+05</totfact>
</mgrwt>
</event>
<event>
 4    1  0.4137916E+000  0.1761834E+03  0.7546771E-02  0.1171549E+00
         21   -1    0    0  503  502  0.00000000000E+00  0.00000000000E+00  0.76675808189E+02  0.76675808189E+02  0.00000000000E+00 0.  1.
         21   -1    0    0  501  503 -0.00000000000E+00 -0.00000000000E+00 -0.49186812976E+03  0.49186812976E+03  0.00000000000E+00 0.  1.
          6    1    1    2  501    0  0.24408173152E+02  0.22712305181E+02 -0.32717832627E+03  0.37159960294E+03  0.17300000000E+03 0.  1.
         -6    1    1    2    0  502 -0.24408173152E+02 -0.22712305181E+02 -0.88013995296E+02  0.19694433501E+03  0.17300000000E+03 0.  1.
<mgrwt>
<rscale>  2 0.17618345E+03</rscale>
<asrwt>0</asrwt>
<pdfrwt beam="1">  1       21 0.11796279E-01 0.17618345E+03</pdfrwt>
<pdfrwt beam="2">  1       21 0.75672018E-01 0.17618345E+03</pdfrwt>
<totfact> 0.94926514E+04</totfact>
</mgrwt>
</event>
<event>
 4    1  0.4137916E+000  0.1843276E+03  0.7546771E-02  0.1163679E+00
         21   -1    0    0  503  502  0.00000000000E+00  0.00000000000E+00  0.13963388340E+04  0.13963388340E+04  0.00000000000E+00 0.  1.
         21   -1    0    0  501  503 -0.00000000000E+00 -0.00000000000E+00 -0.76866825524E+02  0.76866825524E+02  0.00000000000E+00 0.  1.
          6    1    1    2  501    0 -0.24174456227E+02  0.58849376209E+02  0.50781588914E+02  0.19119472583E+03  0.17300000000E+03 0.  1.
         -6    1    1    2    0  502  0.24174456227E+02 -0.58849376209E+02  0.12686904195E+04  0.12820109337E+04  0.17300000000E+03 0.  1.
<mgrwt>
<rscale>  2 0.18432757E+03</rscale>
<asrwt>0</asrwt>
<pdfrwt beam="1">  1       21 0.21482134E+00 0.18432757E+03</pdfrwt>
<pdfrwt beam="2">  1       21 0.11825666E-01 0.18432757E+03</pdfrwt>
<totfact> 0.65736053E+03</totfact>
</mgrwt>
</event>
<event>
 4    1  0.4137916E+000  0.2578463E+03  0.7546771E-02  0.1108444E+00
         21   -1    0    0  503  502  0.00000000000E+00  0.00000000000E+00  0.11501129553E+03  0.11501129553E+03  0.00000000000E+00 0.  1.
         21   -1    0    0  501  503 -0.00000000000E+00 -0.00000000000E+00 -0.75581420712E+03  0.75581420712E+03  0.00000000000E+00 0.  1.
          6    1    1    2  501    0  0.18767909514E+03 -0.36500531181E+02 -0.53155079754E+03  0.59078844089E+03  0.17300000000E+03 0.  1.
         -6    1    1    2    0  502 -0.18767909514E+03  0.36500531181E+02 -0.10925211405E+03  0.28003706175E+03  0.17300000000E+03 0.  1.
<mgrwt>
<rscale>  2 0.25784633E+03</rscale>
<asrwt>0</asrwt>
<pdfrwt beam="1">  1       21 0.17694045E-01 0.25784633E+03</pdfrwt>
<pdfrwt beam="2">  1       21 0.11627911E+00 0.25784633E+03</pdfrwt>
<totfact> 0.15912844E+04</totfact>
</mgrwt>
</event>
<event>
 4    1  0.4137916E+000  0.1946176E+03  0.7546771E-02  0.1154361E+00
         21   -1    0    0  501  502  0.00000000000E+00  0.00000000000E+00  0.30750248574E+02  0.30750248574E+02  0.00000000000E+00 0. -1.
         21   -1    0    0  502  503 -0.00000000000E+00 -0.00000000000E+00 -0.13010725192E+04  0.13010725192E+04  0.00000000000E+00 0.  1.
          6    1    1    2  501    0 -0.86074722221E+02  0.23198363320E+02 -0.78889291069E+03  0.81254418120E+03  0.17300000000E+03 0. -1.
         -6    1    1    2    0  503  0.86074722221E+02 -0.23198363320E+02 -0.48142935994E+03  0.51927858658E+03  0.17300000000E+03 0. -1.
<mgrwt>
<rscale>  2 0.19461763E+03</rscale>
<asrwt>0</asrwt>
<pdfrwt beam="1">  1       21 0.47308070E-02 0.19461763E+03</pdfrwt>
<pdfrwt beam="2">  1       21 0.20016502E+00 0.19461763E+03</pdfrwt>
<totfact> 0.39515483E+04</totfact>
</mgrwt>
</event>
<event>
 4    1  0.4137916E+000  0.2043735E+03  0.7546771E-02  0.1146101E+00
         21   -1    0    0  501  502  0.00000000000E+00  0.00000000000E+00  0.21629128443E+03  0.21629128443E+03  0.00000000000E+00 0.  1.
         21   -1    0    0  502  503 -0.00000000000E+00 -0.00000000000E+00 -0.43630933825E+03  0.43630933825E+03  0.00000000000E+00 0.  1.
          6    1    1    2  501    0 -0.11113614285E+01 -0.10880398673E+03  0.13360328280E+03  0.24416875277E+03  0.17300000000E+03 0.  1.
         -6    1    1    2    0  503  0.11113614285E+01  0.10880398673E+03 -0.35362133662E+03  0.40843186991E+03  0.17300000000E+03 0.  1.
<mgrwt>
<rscale>  2 0.20437354E+03</rscale>
<asrwt>0</asrwt>
<pdfrwt beam="1">  1       21 0.33275583E-01 0.20437354E+03</pdfrwt>
<pdfrwt beam="2">  1       21 0.67124513E-01 0.20437354E+03</pdfrwt>
<totfact> 0.17541960E+04</totfact>
</mgrwt>
</event>
<event>
 4    1  0.4137916E+000  0.2794401E+03  0.7546771E-02  0.1095995E+00
         21   -1    0    0  501  502  0.00000000000E+00  0.00000000000E+00  0.10140222697E+04  0.10140222697E+04  0.00000000000E+00 0. -1.
         21   -1    0    0  502  503 -0.00000000000E+00 -0.00000000000E+00 -0.77314544591E+02  0.77314544591E+02  0.00000000000E+00 0.  1.
          6    1    1    2  501    0  0.20100630247E+02 -0.21852628719E+03  0.43393633368E+03  0.51612742149E+03  0.17300000000E+03 0. -1.
         -6    1    1    2    0  503 -0.20100630247E+02  0.21852628719E+03  0.50277139145E+03  0.57520939282E+03  0.17300000000E+03 0. -1.
<mgrwt>
<rscale>  2 0.27944011E+03</rscale>
<asrwt>0</asrwt>
<pdfrwt beam="1">  1       21 0.15600342E+00 0.27944011E+03</pdfrwt>
<pdfrwt beam="2">  1       21 0.11894546E-01 0.27944011E+03</pdfrwt>
<totfact> 0.15232527E+04</totfact>
</mgrwt>
</event>
<event>
 4    1  0.4137916E+000  0.2155582E+03  0.7546771E-02  0.1137239E+00
         21   -1    0    0  503  502  0.00000000000E+00  0.00000000000E+00  0.21091963941E+03  0.21091963941E+03  0.00000000000E+00 0.  1.
         21   -1    0    0  501  503 -0.00000000000E+00 -0.00000000000E+00 -0.84697810500E+03  0.84697810500E+03  0.00000000000E+00 0. -1.
          6    1    1    2  501    0 -0.31856681479E+02 -0.12458530578E+03 -0.77301758116E+03  0.80250951854E+03  0.17300000000E+03 0. -1.
         -6    1    1    2    0  502  0.31856681479E+02  0.12458530578E+03  0.13695911557E+03  0.25538822586E+03  0.17300000000E+03 0.  1.
<mgrwt>
<rscale>  2 0.21555822E+03</rscale>
<asrwt>0</asrwt>
<pdfrwt beam="1">  1       21 0.32449175E-01 0.21555822E+03</pdfrwt>
<pdfrwt beam="2">  1       21 0.13030433E+00 0.21555822E+03</pdfrwt>
<totfact> 0.38532699E+03</totfact>
</mgrwt>
</event>
<event>
 4    1  0.4137916E+000  0.2045744E+03  0.7546771E-02  0.1145936E+00
         21   -1    0    0  501  502  0.00000000000E+00  0.00000000000E+00  0.52425492604E+02  0.52425492604E+02  0.00000000000E+00 0. -1.
         21   -1    0    0  502  503 -0.00000000000E+00 -0.00000000000E+00 -0.92093128937E+03  0.92093128937E+03  0.00000000000E+00 0.  1.
          6    1    1    2  501    0  0.10888267606E+03  0.81388840649E+01 -0.25665038944E+03  0.32820740543E+03  0.17300000000E+03 0. -1.
         -6    1    1    2    0  503 -0.10888267606E+03 -0.81388840649E+01 -0.61185540733E+03  0.64514937655E+03  0.17300000000E+03 0.  1.
<mgrwt>
<rscale>  2 0.20457438E+03</rscale>
<asrwt>0</asrwt>
<pdfrwt beam="1">  1       21 0.80654611E-02 0.20457438E+03</pdfrwt>
<pdfrwt beam="2">  1       21 0.14168172E+00 0.20457438E+03</pdfrwt>
<totfact> 0.40764352E+04</totfact>
</mgrwt>
</event>
<event>
 4    1  0.4137916E+000  0.2731130E+03  0.7546771E-02  0.1099511E+00
         21   -1    0    0  503  502  0.00000000000E+00  0.00000000000E+00  0.54563393058E+03  0.54563393058E+03  0.00000000000E+00 0.  1.
         21   -1    0    0  501  503 -0.00000000000E+00 -0.00000000000E+00 -0.30326279237E+03  0.30326279237E+03  0.00000000000E+00 0.  1.
          6    1    1    2  501    0 -0.18856847756E+03 -0.95412972756E+02 -0.19337059894E+03  0.33463845361E+03  0.17300000000E+03 0.  1.
         -6    1    1    2    0  502  0.18856847756E+03  0.95412972756E+02  0.43574173715E+03  0.51425826935E+03  0.17300000000E+03 0.  1.
<mgrwt>
<rscale>  2 0.27311299E+03</rscale>
<asrwt>0</asrwt>
<pdfrwt beam="1">  1       21 0.83943681E-01 0.27311299E+03</pdfrwt>
<pdfrwt beam="2">  1       21 0.46655814E-01 0.27311299E+03</pdfrwt>
<totfact> 0.51395452E+03</totfact>
</mgrwt>
</event>
<event>
 4    1  0.4137916E+000  0.1857402E+03  0.7546771E-02  0.1162360E+00
         21   -1    0    0  501  502  0.00000000000E+00  0.00000000000E+00  0.87559113353E+02  0.87559113353E+02  0.00000000000E+00 0. -1.
         21   -1    0    0  502  503 -0.00000000000E+00 -0.00000000000E+00 -0.67862166169E+03  0.67862166169E+03  0.00000000000E+00 0. -1.
          6    1    1    2  501    0  0.70002009996E+01 -0.67241485267E+02 -0.47439977649E+02  0.19170282114E+03  0.17300000000E+03 0. -1.
         -6    1    1    2    0  503 -0.70002009996E+01  0.67241485267E+02 -0.54362257069E+03  0.57447795390E+03  0.17300000000E+03 0. -1.
<mgrwt>
<rscale>  2 0.18574020E+03</rscale>
<asrwt>0</asrwt>
<pdfrwt beam="1">  1       21 0.13470633E-01 0.18574020E+03</pdfrwt>
<pdfrwt beam="2">  1       21 0.10440333E+00 0.18574020E+03</pdfrwt>
<totfact> 0.35443745E+04</totfact>
</mgrwt>
</event>
<event>
 4    1  0.4137916E+000  0.1783608E+03  0.7546771E-02  0.1169399E+00
         21   -1    0    0  503  502  0.00000000000E+00  0.00000000000E+00  0.11844076076E+04  0.11844076076E+04  0.00000000000E+00 0.  1.
         21   -1    0    0  501  503 -0.00000000000E+00 -0.00000000000E+00 -0.34487334701E+02  0.34487334701E+02  0.00000000000E+00 0.  1.
          6    1    1    2  501    0  0.69416780244E+01  0.42841297387E+02  0.28833921981E+03  0.33904582188E+03  0.17300000000E+03 0. -1.
         -6    1    1    2    0  502 -0.69416780244E+01 -0.42841297387E+02  0.86158105307E+03  0.87984912039E+03  0.17300000000E+03 0. -1.
<mgrwt>
<rscale>  2 0.17836077E+03</rscale>
<asrwt>0</asrwt>
<pdfrwt beam="1">  1       21 0.18221652E+00 0.17836077E+03</pdfrwt>
<pdfrwt beam="2">  1       21 0.53057447E-02 0.17836077E+03</pdfrwt>
<totfact> 0.43142035E+04</totfact>
</mgrwt>
</event>
<event>
 4    1  0.4137916E+000  0.2024863E+03  0.7546771E-02  0.1147658E+00
         21   -1    0    0  501  502  0.00000000000E+00  0.00000000000E+00  0.30007957408E+02  0.30007957408E+02  0.00000000000E+00 0.  1.
         21   -1    0    0  502  503 -0.00000000000E+00 -0.00000000000E+00 -0.20850448574E+04  0.20850448574E+04  0.00000000000E+00 0. -1.
          6    1    1    2  501    0  0.10222114970E+03 -0.24950501250E+02 -0.40663132908E+03  0.45425733758E+03  0.17300000000E+03 0.  1.
         -6    1    1    2    0  503 -0.10222114970E+03  0.24950501250E+02 -0.16484055709E+04  0.16607954772E+04  0.17300000000E+03 0. -1.
<mgrwt>
<rscale>  2 0.20248627E+03</rscale>
<asrwt>0</asrwt>
<pdfrwt beam="1">  1       21 0.46166104E-02 0.20248627E+03</pdfrwt>
<pdfrwt beam="2">  1       21 0.32077602E+00 0.20248627E+03</pdfrwt>
<totfact> 0.78867935E+03</totfact>
</mgrwt>
</event>
<event>
 4    1  0.4137916E+000  0.1920346E+03  0.7546771E-02  0.1156639E+00
         21   -1    0    0  501  502  0.00000000000E+00  0.00000000000E+00  0.19579887237E+04  0.19579887237E+04  0.00000000000E+00 0. -1.
         21   -1    0    0  502  503 -0.00000000000E+00 -0.00000000000E+00 -0.19705900003E+02  0.19705900003E+02  0.00000000000E+00 0. -1.
          6    1    1    2  501    0 -0.82104007287E+02 -0.14395009218E+02  0.11771099749E+04  0.11926714457E+04  0.17300000000E+03 0. -1.
         -6    1    1    2    0  503  0.82104007287E+02  0.14395009218E+02  0.76117284873E+03  0.78502317797E+03  0.17300000000E+03 0. -1.
<mgrwt>
<rscale>  2 0.19203459E+03</rscale>
<asrwt>0</asrwt>
<pdfrwt beam="1">  1       21 0.30122888E+00 0.19203459E+03</pdfrwt>
<pdfrwt beam="2">  1       21 0.30316785E-02 0.19203459E+03</pdfrwt>
<totfact> 0.20896399E+04</totfact>
</mgrwt>
</event>
<event>
 4    1  0.4137916E+000  0.2685203E+03  0.7546771E-02  0.1102129E+00
         21   -1    0    0  501  502  0.00000000000E+00  0.00000000000E+00  0.11155309178E+04  0.11155309178E+04  0.00000000000E+00 0.  1.
         21   -1    0    0  502  503 -0.00000000000E+00 -0.00000000000E+00 -0.13288491624E+03  0.13288491624E+03  0.00000000000E+00 0.  1.
          6    1    1    2  501    0 -0.12662782198E+03 -0.16167731285E+03  0.93866549788E+03  0.97631761005E+03  0.17300000000E+03 0.  1.
         -6    1    1    2    0  503  0.12662782198E+03  0.16167731285E+03  0.43980503674E+02  0.27209822398E+03  0.17300000000E+03 0.  1.
<mgrwt>
<rscale>  2 0.26852031E+03</rscale>
<asrwt>0</asrwt>
<pdfrwt beam="1">  1       21 0.17162014E+00 0.26852031E+03</pdfrwt>
<pdfrwt beam="2">  1       21 0.20443834E-01 0.26852031E+03</pdfrwt>
<totfact> 0.43445026E+03</totfact>
</mgrwt>
</event>
<event>
 4    1  0.4137916E+000  0.2119333E+03  0.7546771E-02  0.1140044E+00
         21   -1    0    0  501  502  0.00000000000E+00  0.00000000000E+00  0.59646289510E+03  0.59646289510E+03  0.00000000000E+00 0.  1.
         21   -1    0    0  502  503 -0.00000000000E+00 -0.00000000000E+00 -0.75936380148E+02  0.75936380148E+02  0.00000000000E+00 0. -1.
          6    1    1    2  501    0 -0.10077112900E+03 -0.69511992917E+02  0.29095605654E+03  0.35995994838E+03  0.17300000000E+03 0. -1.
         -6    1    1    2    0  503  0.10077112900E+03  0.69511992917E+02  0.22957045841E+03  0.31243932687E+03  0.17300000000E+03 0. -1.
<mgrwt>
<rscale>  2 0.21193333E+03</rscale>
<asrwt>0</asrwt>
<pdfrwt beam="1">  1       21 0.91763519E-01 0.21193333E+03</pdfrwt>
<pdfrwt beam="2">  1       21 0.11682520E-01 0.21193333E+03</pdfrwt>
<totfact> 0.61264430E+04</totfact>
</mgrwt>
</event>
<event>
 4    1  0.4137916E+000  0.1793636E+03  0.7546771E-02  0.1168420E+00
         21   -1    0    0  503  502  0.00000000000E+00  0.00000000000E+00  0.10040212514E+04  0.10040212514E+04  0.00000000000E+00 0.  1.
         21   -1    0    0  501  503 -0.00000000000E+00 -0.00000000000E+00 -0.38749290027E+02  0.38749290027E+02  0.00000000000E+00 0.  1.
          6    1    1    2  501    0  0.34384925662E+02 -0.32557129361E+02  0.26572266620E+03  0.32059292743E+03  0.17300000000E+03 0.  1.
         -6    1    1    2    0  502 -0.34384925662E+02  0.32557129361E+02  0.69954929521E+03  0.72217761403E+03  0.17300000000E+03 0.  1.
<mgrwt>
<rscale>  2 0.17936357E+03</rscale>
<asrwt>0</asrwt>
<pdfrwt beam="1">  1       21 0.15446479E+00 0.17936357E+03</pdfrwt>
<pdfrwt beam="2">  1       21 0.59614300E-02 0.17936357E+03</pdfrwt>
<totfact> 0.55555813E+04</totfact>
</mgrwt>
</event>
<event>
 4    1  0.4137916E+000  0.2051266E+03  0.7546771E-02  0.1145484E+00
         21   -1    0    0  501  502  0.00000000000E+00  0.00000000000E+00  0.67239928716E+02  0.67239928716E+02  0.00000000000E+00 0. -1.
         21   -1    0    0  502  503 -0.00000000000E+00 -0.00000000000E+00 -0.74612025147E+03  0.74612025147E+03  0.00000000000E+00 0. -1.
          6    1    1    2  501    0  0.53277969821E+02 -0.96485227465E+02 -0.17611002062E+03  0.27035473096E+03  0.17300000000E+03 0. -1.
         -6    1    1    2    0  503 -0.53277969821E+02  0.96485227465E+02 -0.50277030214E+03  0.54300544923E+03  0.17300000000E+03 0. -1.
<mgrwt>
<rscale>  2 0.20512665E+03</rscale>
<asrwt>0</asrwt>
<pdfrwt beam="1">  1       21 0.10344605E-01 0.20512665E+03</pdfrwt>
<pdfrwt beam="2">  1       21 0.11478773E+00 0.20512665E+03</pdfrwt>
<totfact> 0.44706521E+04</totfact>
</mgrwt>
</event>
<event>
 4    1  0.4137916E+000  0.1851409E+03  0.7546771E-02  0.1162918E+00
         21   -1    0    0  501  502  0.00000000000E+00  0.00000000000E+00  0.91679584118E+03  0.91679584118E+03  0.00000000000E+00 0. -1.
         21   -1    0    0  502  503 -0.00000000000E+00 -0.00000000000E+00 -0.11869473829E+03  0.11869473829E+03  0.00000000000E+00 0. -1.
          6    1    1    2  501    0 -0.41323474719E+02 -0.51386099644E+02  0.82756325230E+03  0.84802010434E+03  0.17300000000E+03 0. -1.
         -6    1    1    2    0  503  0.41323474719E+02  0.51386099644E+02 -0.29462149413E+02  0.18747047514E+03  0.17300000000E+03 0. -1.
<mgrwt>
<rscale>  2 0.18514092E+03</rscale>
<asrwt>0</asrwt>
<pdfrwt beam="1">  1       21 0.14104551E+00 0.18514092E+03</pdfrwt>
<pdfrwt beam="2">  1       21 0.18260730E-01 0.18514092E+03</pdfrwt>
<totfact> 0.96504773E+03</totfact>
</mgrwt>
</event>
<event>
 4    1  0.4137916E+000  0.1772771E+03  0.7546771E-02  0.1170465E+00
         21   -1    0    0  501  502  0.00000000000E+00  0.00000000000E+00  0.12217227951E+04  0.12217227951E+04  0.00000000000E+00 0.  1.
         21   -1    0    0  502  503 -0.00000000000E+00 -0.00000000000E+00 -0.44414952379E+02  0.44414952379E+02  0.00000000000E+00 0.  1.
          6    1    1    2  501    0  0.38524150145E+02 -0.37486259175E+01  0.99933643459E+03  0.10149386542E+04  0.17300000000E+03 0.  1.
         -6    1    1    2    0  503 -0.38524150145E+02  0.37486259175E+01  0.17797140814E+03  0.25119909326E+03  0.17300000000E+03 0.  1.
<mgrwt>
<rscale>  2 0.17727708E+03</rscale>
<asrwt>0</asrwt>
<pdfrwt beam="1">  1       21 0.18795733E+00 0.17727708E+03</pdfrwt>
<pdfrwt beam="2">  1       21 0.68330705E-02 0.17727708E+03</pdfrwt>
<totfact> 0.25655330E+04</totfact>
</mgrwt>
</event>
<event>
 4    1  0.4137916E+000  0.1802529E+03  0.7546771E-02  0.1167558E+00
         21   -1    0    0  503  502  0.00000000000E+00  0.00000000000E+00  0.52542939982E+02  0.52542939982E+02  0.00000000000E+00 0. -1.
         21   -1    0    0  501  503 -0.00000000000E+00 -0.00000000000E+00 -0.91535548491E+03  0.91535548491E+03  0.00000000000E+00 0. -1.
          6    1    1    2  501    0  0.28382556089E+02  0.41911188839E+02 -0.70706424956E+03  0.72967867602E+03  0.17300000000E+03 0.  1.
         -6    1    1    2    0  502 -0.28382556089E+02 -0.41911188839E+02 -0.15574829537E+03  0.23821974887E+03  0.17300000000E+03 0.  1.
<mgrwt>
<rscale>  2 0.18025293E+03</rscale>
<asrwt>0</asrwt>
<pdfrwt beam="1">  1       21 0.80835285E-02 0.18025293E+03</pdfrwt>
<pdfrwt beam="2">  1       21 0.14082393E+00 0.18025293E+03</pdfrwt>
<totfact> 0.41829990E+04</totfact>
</mgrwt>
</event>
<event>
 4    1  0.4137916E+000  0.2156542E+03  0.7546771E-02  0.1137165E+00
         21   -1    0    0  503  502  0.00000000000E+00  0.00000000000E+00  0.39295717086E+02  0.39295717086E+02  0.00000000000E+00 0. -1.
         21   -1    0    0  501  503 -0.00000000000E+00 -0.00000000000E+00 -0.12672655149E+04  0.12672655149E+04  0.00000000000E+00 0.  1.
          6    1    1    2  501    0  0.15831671820E+02  0.12777749657E+03 -0.78193572672E+03  0.81112897321E+03  0.17300000000E+03 0.  1.
         -6    1    1    2    0  502 -0.15831671820E+02 -0.12777749657E+03 -0.44603407114E+03  0.49543225882E+03  0.17300000000E+03 0. -1.
<mgrwt>
<rscale>  2 0.21565419E+03</rscale>
<asrwt>0</asrwt>
<pdfrwt beam="1">  1       21 0.60454942E-02 0.21565419E+03</pdfrwt>
<pdfrwt beam="2">  1       21 0.19496395E+00 0.21565419E+03</pdfrwt>
<totfact> 0.27722847E+04</totfact>
</mgrwt>
</event>
<event>
 4    1  0.4137916E+000  0.1807502E+03  0.7546771E-02  0.1167079E+00
         21   -1    0    0  503  502  0.00000000000E+00  0.00000000000E+00  0.43064557595E+03  0.43064557595E+03  0.00000000000E+00 0. -1.
         21   -1    0    0  501  503 -0.00000000000E+00 -0.00000000000E+00 -0.12839459934E+03  0.12839459934E+03  0.00000000000E+00 0. -1.
          6    1    1    2  501    0 -0.13310093471E+02  0.50640665590E+02 -0.27665029952E+02  0.18285510516E+03  0.17300000000E+03 0. -1.
         -6    1    1    2    0  502  0.13310093471E+02 -0.50640665590E+02  0.32991600656E+03  0.37618507013E+03  0.17300000000E+03 0. -1.
<mgrwt>
<rscale>  2 0.18075020E+03</rscale>
<asrwt>0</asrwt>
<pdfrwt beam="1">  1       21 0.66253165E-01 0.18075020E+03</pdfrwt>
<pdfrwt beam="2">  1       21 0.19753015E-01 0.18075020E+03</pdfrwt>
<totfact> 0.49671835E+04</totfact>
</mgrwt>
</event>
<event>
 4    1  0.4137916E+000  0.1799259E+03  0.7546771E-02  0.1167875E+00
         21   -1    0    0  501  502  0.00000000000E+00  0.00000000000E+00  0.70419351474E+02  0.70419351474E+02  0.00000000000E+00 0. -1.
         21   -1    0    0  502  503 -0.00000000000E+00 -0.00000000000E+00 -0.84219091934E+03  0.84219091934E+03  0.00000000000E+00 0. -1.
          6    1    1    2  501    0 -0.25116663012E+02 -0.42584944020E+02 -0.78383631030E+02  0.19625829366E+03  0.17300000000E+03 0. -1.
         -6    1    1    2    0  503  0.25116663012E+02  0.42584944020E+02 -0.69338793683E+03  0.71635197715E+03  0.17300000000E+03 0. -1.
<mgrwt>
<rscale>  2 0.17992589E+03</rscale>
<asrwt>0</asrwt>
<pdfrwt beam="1">  1       21 0.10833746E-01 0.17992589E+03</pdfrwt>
<pdfrwt beam="2">  1       21 0.12956784E+00 0.17992589E+03</pdfrwt>
<totfact> 0.30925691E+04</totfact>
</mgrwt>
</event>
<event>
 4    1  0.4137916E+000  0.1959570E+03  0.7546771E-02  0.1153196E+00
         21   -1    0    0  503  502  0.00000000000E+00  0.00000000000E+00  0.41074491924E+02  0.41074491924E+02  0.00000000000E+00 0. -1.
         21   -1    0    0  501  503 -0.00000000000E+00 -0.00000000000E+00 -0.16944833025E+04  0.16944833025E+04  0.00000000000E+00 0. -1.
          6    1    1    2  501    0 -0.89951677827E+02 -0.19464020692E+02 -0.14077200372E+04  0.14212933742E+04  0.17300000000E+03 0. -1.
         -6    1    1    2    0  502  0.89951677827E+02  0.19464020692E+02 -0.24568877336E+03  0.31426442020E+03  0.17300000000E+03 0. -1.
<mgrwt>
<rscale>  2 0.19595702E+03</rscale>
<asrwt>0</asrwt>
<pdfrwt beam="1">  1       21 0.63191514E-02 0.19595702E+03</pdfrwt>
<pdfrwt beam="2">  1       21 0.26068979E+00 0.19595702E+03</pdfrwt>
<totfact> 0.10353712E+04</totfact>
</mgrwt>
</event>
<event>
 4    1  0.4137916E+000  0.1960761E+03  0.7546771E-02  0.1153092E+00
         21   -1    0    0  503  502  0.00000000000E+00  0.00000000000E+00  0.42582444560E+03  0.42582444560E+03  0.00000000000E+00 0. -1.
         21   -1    0    0  501  503 -0.00000000000E+00 -0.00000000000E+00 -0.11604201093E+03  0.11604201093E+03  0.00000000000E+00 0. -1.
          6    1    1    2  501    0  0.84717296020E+02 -0.36603728627E+02  0.28253409199E+03  0.34390604288E+03  0.17300000000E+03 0. -1.
         -6    1    1    2    0  502 -0.84717296020E+02  0.36603728627E+02  0.27248342681E+02  0.19796041365E+03  0.17300000000E+03 0. -1.
<mgrwt>
<rscale>  2 0.19607614E+03</rscale>
<asrwt>0</asrwt>
<pdfrwt beam="1">  1       21 0.65511453E-01 0.19607614E+03</pdfrwt>
<pdfrwt beam="2">  1       21 0.17852617E-01 0.19607614E+03</pdfrwt>
<totfact> 0.60979948E+04</totfact>
</mgrwt>
</event>
<event>
 4    1  0.4137916E+000  0.2182900E+03  0.7546771E-02  0.1135164E+00
         21   -1    0    0  503  502  0.00000000000E+00  0.00000000000E+00  0.48558525771E+02  0.48558525771E+02  0.00000000000E+00 0. -1.
         21   -1    0    0  501  503 -0.00000000000E+00 -0.00000000000E+00 -0.15763179118E+04  0.15763179118E+04  0.00000000000E+00 0.  1.
          6    1    1    2  501    0 -0.42781761068E+01  0.13305338118E+03 -0.12630322287E+04  0.12817569644E+04  0.17300000000E+03 0.  1.
         -6    1    1    2    0  502  0.42781761068E+01 -0.13305338118E+03 -0.26472715725E+03  0.34311947310E+03  0.17300000000E+03 0. -1.
<mgrwt>
<rscale>  2 0.21828996E+03</rscale>
<asrwt>0</asrwt>
<pdfrwt beam="1">  1       21 0.74705427E-02 0.21828996E+03</pdfrwt>
<pdfrwt beam="2">  1       21 0.24251044E+00 0.21828996E+03</pdfrwt>
<totfact> 0.97230969E+03</totfact>
</mgrwt>
</event>
<event>
 4    1  0.4137916E+000  0.1807791E+03  0.7546771E-02  0.1167051E+00
         21   -1    0    0  501  502  0.00000000000E+00  0.00000000000E+00  0.92109455112E+03  0.92109455112E+03  0.00000000000E+00 0. -1.
         21   -1    0    0  502  503 -0.00000000000E+00 -0.00000000000E+00 -0.40487255119E+02  0.40487255119E+02  0.00000000000E+00 0. -1.
          6    1    1    2  501    0 -0.41173682511E+02 -0.32508637879E+02  0.60937357946E+03  0.63562350729E+03  0.17300000000E+03 0. -1.
         -6    1    1    2    0  503  0.41173682511E+02  0.32508637879E+02  0.27123371654E+03  0.32595829895E+03  0.17300000000E+03 0. -1.
<mgrwt>
<rscale>  2 0.18077910E+03</rscale>
<asrwt>0</asrwt>
<pdfrwt beam="1">  1       21 0.14170684E+00 0.18077910E+03</pdfrwt>
<pdfrwt beam="2">  1       21 0.62288092E-02 0.18077910E+03</pdfrwt>
<totfact> 0.64524424E+04</totfact>
</mgrwt>
</event>
<event>
 4    1  0.4137916E+000  0.1889413E+03  0.7546771E-02  0.1159420E+00
         21   -1    0    0  503  502  0.00000000000E+00  0.00000000000E+00  0.79358900580E+02  0.79358900580E+02  0.00000000000E+00 0. -1.
         21   -1    0    0  501  503 -0.00000000000E+00 -0.00000000000E+00 -0.46977933152E+03  0.46977933152E+03  0.00000000000E+00 0. -1.
          6    1    1    2  501    0 -0.11510136289E+02 -0.75082255668E+02 -0.13864398816E+03  0.23435226435E+03  0.17300000000E+03 0. -1.
         -6    1    1    2    0  502  0.11510136289E+02  0.75082255668E+02 -0.25177644278E+03  0.31478596775E+03  0.17300000000E+03 0. -1.
<mgrwt>
<rscale>  2 0.18894134E+03</rscale>
<asrwt>0</asrwt>
<pdfrwt beam="1">  1       21 0.12209062E-01 0.18894134E+03</pdfrwt>
<pdfrwt beam="2">  1       21 0.72273741E-01 0.18894134E+03</pdfrwt>
<totfact> 0.98371466E+04</totfact>
</mgrwt>
</event>
<event>
 4    1  0.4137916E+000  0.1994144E+03  0.7546771E-02  0.1150234E+00
         21   -1    0    0  503  502  0.00000000000E+00  0.00000000000E+00  0.12484533895E+03  0.12484533895E+03  0.00000000000E+00 0. -1.
         21   -1    0    0  501  503 -0.00000000000E+00 -0.00000000000E+00 -0.47564010714E+03  0.47564010714E+03  0.00000000000E+00 0. -1.
          6    1    1    2  501    0  0.93124888766E+02  0.34129732502E+02 -0.34795944031E+03  0.40105093897E+03  0.17300000000E+03 0. -1.
         -6    1    1    2    0  502 -0.93124888766E+02 -0.34129732502E+02 -0.28353278817E+01  0.19943450713E+03  0.17300000000E+03 0. -1.
<mgrwt>
<rscale>  2 0.19941435E+03</rscale>
<asrwt>0</asrwt>
<pdfrwt beam="1">  1       21 0.19206975E-01 0.19941435E+03</pdfrwt>
<pdfrwt beam="2">  1       21 0.73175401E-01 0.19941435E+03</pdfrwt>
<totfact> 0.41661415E+04</totfact>
</mgrwt>
</event>
<event>
 4    1  0.4137916E+000  0.2060130E+03  0.7546771E-02  0.1144763E+00
         21   -1    0    0  503  502  0.00000000000E+00  0.00000000000E+00  0.86106879257E+02  0.86106879257E+02  0.00000000000E+00 0. -1.
         21   -1    0    0  501  503 -0.00000000000E+00 -0.00000000000E+00 -0.55745013921E+03  0.55745013921E+03  0.00000000000E+00 0. -1.
          6    1    1    2  501    0 -0.10689504591E+03 -0.32951751494E+02 -0.34517574207E+03  0.40197967819E+03  0.17300000000E+03 0. -1.
         -6    1    1    2    0  502  0.10689504591E+03  0.32951751494E+02 -0.12616751788E+03  0.24157734028E+03  0.17300000000E+03 0. -1.
<mgrwt>
<rscale>  2 0.20601303E+03</rscale>
<asrwt>0</asrwt>
<pdfrwt beam="1">  1       21 0.13247212E-01 0.20601303E+03</pdfrwt>
<pdfrwt beam="2">  1       21 0.85761561E-01 0.20601303E+03</pdfrwt>
<totfact> 0.57312458E+04</totfact>
</mgrwt>
</event>
<event>
 4    1  0.4137916E+000  0.3007767E+03  0.7546771E-02  0.1084853E+00
         21   -1    0    0  503  502  0.00000000000E+00  0.00000000000E+00  0.18862848618E+03  0.18862848618E+03  0.00000000000E+00 0. -1.
         21   -1    0    0  501  503 -0.00000000000E+00 -0.00000000000E+00 -0.52369839164E+03  0.52369839164E+03  0.00000000000E+00 0.  1.
          6    1    1    2  501    0 -0.90407505146E+02  0.22883200231E+03 -0.27088487711E+03  0.40477798719E+03  0.17300000000E+03 0.  1.
         -6    1    1    2    0  502  0.90407505146E+02 -0.22883200231E+03 -0.64185028351E+02  0.30754889063E+03  0.17300000000E+03 0. -1.
<mgrwt>
<rscale>  2 0.30077667E+03</rscale>
<asrwt>0</asrwt>
<pdfrwt beam="1">  1       21 0.29019767E-01 0.30077667E+03</pdfrwt>
<pdfrwt beam="2">  1       21 0.80568984E-01 0.30077667E+03</pdfrwt>
<totfact> 0.14529215E+04</totfact>
</mgrwt>
</event>
<event>
 4    1  0.4137916E+000  0.2223547E+03  0.7546771E-02  0.1132140E+00
         21   -1    0    0  501  502  0.00000000000E+00  0.00000000000E+00  0.10970982152E+03  0.10970982152E+03  0.00000000000E+00 0. -1.
         21   -1    0    0  502  503 -0.00000000000E+00 -0.00000000000E+00 -0.78947424079E+03  0.78947424079E+03  0.00000000000E+00 0. -1.
          6    1    1    2  501    0 -0.61891684925E+02 -0.12522783718E+03 -0.45350654016E+02  0.22693231081E+03  0.17300000000E+03 0. -1.
         -6    1    1    2    0  503  0.61891684925E+02  0.12522783718E+03 -0.63441376525E+03  0.67225175151E+03  0.17300000000E+03 0. -1.
<mgrwt>
<rscale>  2 0.22235465E+03</rscale>
<asrwt>0</asrwt>
<pdfrwt beam="1">  1       21 0.16878435E-01 0.22235465E+03</pdfrwt>
<pdfrwt beam="2">  1       21 0.12145757E+00 0.22235465E+03</pdfrwt>
<totfact> 0.15894332E+04</totfact>
</mgrwt>
</event>
<event>
 4    1  0.4137916E+000  0.1780458E+03  0.7546771E-02  0.1169708E+00
         21   -1    0    0  501  502  0.00000000000E+00  0.00000000000E+00  0.26799077430E+04  0.26799077430E+04  0.00000000000E+00 0.  1.
         21   -1    0    0  502  503 -0.00000000000E+00 -0.00000000000E+00 -0.12021348806E+02  0.12021348806E+02  0.00000000000E+00 0. -1.
          6    1    1    2  501    0  0.22731336869E+02  0.35420109285E+02  0.15042535723E+04  0.15147538109E+04  0.17300000000E+03 0.  1.
         -6    1    1    2    0  503 -0.22731336869E+02 -0.35420109285E+02  0.11636328219E+04  0.11771752809E+04  0.17300000000E+03 0. -1.
<mgrwt>
<rscale>  2 0.17804577E+03</rscale>
<asrwt>0</asrwt>
<pdfrwt beam="1">  1       21 0.41229302E+00 0.17804577E+03</pdfrwt>
<pdfrwt beam="2">  1       21 0.18494404E-02 0.17804577E+03</pdfrwt>
<totfact> 0.10403997E+04</totfact>
</mgrwt>
</event>
<event>
 4    1  0.4137916E+000  0.2384492E+03  0.7546771E-02  0.1120830E+00
         21   -1    0    0  501  502  0.00000000000E+00  0.00000000000E+00  0.42069549744E+03  0.42069549744E+03  0.00000000000E+00 0.  1.
         21   -1    0    0  502  503 -0.00000000000E+00 -0.00000000000E+00 -0.17436654258E+03  0.17436654258E+03  0.00000000000E+00 0.  1.
          6    1    1    2  501    0  0.12046560020E+03  0.11143177315E+03 -0.17933927388E+02  0.23912261844E+03  0.17300000000E+03 0.  1.
         -6    1    1    2    0  503 -0.12046560020E+03 -0.11143177315E+03  0.26426288226E+03  0.35593942158E+03  0.17300000000E+03 0.  1.
<mgrwt>
<rscale>  2 0.23844916E+03</rscale>
<asrwt>0</asrwt>
<pdfrwt beam="1">  1       21 0.64722384E-01 0.23844916E+03</pdfrwt>
<pdfrwt beam="2">  1       21 0.26825622E-01 0.23844916E+03</pdfrwt>
<totfact> 0.28423187E+04</totfact>
</mgrwt>
</event>
<event>
 4    1  0.4137916E+000  0.3764367E+03  0.7546771E-02  0.1052259E+00
         21   -1    0    0  501  502  0.00000000000E+00  0.00000000000E+00  0.96031744893E+02  0.96031744893E+02  0.00000000000E+00 0. -1.
         21   -1    0    0  502  503 -0.00000000000E+00 -0.00000000000E+00 -0.15801260487E+04  0.15801260487E+04  0.00000000000E+00 0.  1.
          6    1    1    2  501    0  0.12553182167E+03 -0.30986666686E+03 -0.52649710014E+03  0.64722776976E+03  0.17300000000E+03 0. -1.
         -6    1    1    2    0  503 -0.12553182167E+03  0.30986666686E+03 -0.95759720365E+03  0.10289300238E+04  0.17300000000E+03 0.  1.
<mgrwt>
<rscale>  2 0.37643670E+03</rscale>
<asrwt>0</asrwt>
<pdfrwt beam="1">  1       21 0.14774114E-01 0.37643670E+03</pdfrwt>
<pdfrwt beam="2">  1       21 0.24309632E+00 0.37643670E+03</pdfrwt>
<totfact> 0.25575482E+03</totfact>
</mgrwt>
</event>
<event>
 4    1  0.4137916E+000  0.1787754E+03  0.7546771E-02  0.1168993E+00
         21   -1    0    0  503  502  0.00000000000E+00  0.00000000000E+00  0.10305656387E+04  0.10305656387E+04  0.00000000000E+00 0.  1.
         21   -1    0    0  501  503 -0.00000000000E+00 -0.00000000000E+00 -0.31219643247E+02  0.31219643247E+02  0.00000000000E+00 0.  1.
          6    1    1    2  501    0 -0.38256843639E+02  0.23834275408E+02  0.45645327988E+03  0.49021449946E+03  0.17300000000E+03 0.  1.
         -6    1    1    2    0  502  0.38256843639E+02 -0.23834275408E+02  0.54289271561E+03  0.57157078252E+03  0.17300000000E+03 0.  1.
<mgrwt>
<rscale>  2 0.17877544E+03</rscale>
<asrwt>0</asrwt>
<pdfrwt beam="1">  1       21 0.15854853E+00 0.17877544E+03</pdfrwt>
<pdfrwt beam="2">  1       21 0.48030228E-02 0.17877544E+03</pdfrwt>
<totfact> 0.74820072E+04</totfact>
</mgrwt>
</event>
<event>
 4    1  0.4137916E+000  0.2343255E+03  0.7546771E-02  0.1123632E+00
         21   -1    0    0  501  502  0.00000000000E+00  0.00000000000E+00  0.14281737365E+03  0.14281737365E+03  0.00000000000E+00 0.  1.
         21   -1    0    0  502  503 -0.00000000000E+00 -0.00000000000E+00 -0.39679378850E+03  0.39679378850E+03  0.00000000000E+00 0. -1.
          6    1    1    2  501    0  0.14747419465E+03  0.56840340762E+02 -0.17454432493E+03  0.29218860996E+03  0.17300000000E+03 0.  1.
         -6    1    1    2    0  503 -0.14747419465E+03 -0.56840340762E+02 -0.79432089924E+02  0.24742255219E+03  0.17300000000E+03 0. -1.
<mgrwt>
<rscale>  2 0.23432555E+03</rscale>
<asrwt>0</asrwt>
<pdfrwt beam="1">  1       21 0.21971904E-01 0.23432555E+03</pdfrwt>
<pdfrwt beam="2">  1       21 0.61045198E-01 0.23432555E+03</pdfrwt>
<totfact> 0.47375578E+04</totfact>
</mgrwt>
</event>
<event>
 4    1  0.4137916E+000  0.2618607E+03  0.7546771E-02  0.1106030E+00
         21   -1    0    0  501  502  0.00000000000E+00  0.00000000000E+00  0.28681019396E+03  0.28681019396E+03  0.00000000000E+00 0. -1.
         21   -1    0    0  502  503 -0.00000000000E+00 -0.00000000000E+00 -0.89202668211E+03  0.89202668211E+03  0.00000000000E+00 0. -1.
          6    1    1    2  501    0 -0.16071254373E+03  0.11319668245E+03  0.20167339574E+03  0.33051954432E+03  0.17300000000E+03 0. -1.
         -6    1    1    2    0  503  0.16071254373E+03 -0.11319668245E+03 -0.80688988389E+03  0.84831733175E+03  0.17300000000E+03 0. -1.
<mgrwt>
<rscale>  2 0.26186067E+03</rscale>
<asrwt>0</asrwt>
<pdfrwt beam="1">  1       21 0.44124646E-01 0.26186067E+03</pdfrwt>
<pdfrwt beam="2">  1       21 0.13723487E+00 0.26186067E+03</pdfrwt>
<totfact> 0.17541433E+03</totfact>
</mgrwt>
</event>
<event>
 4    1  0.4137916E+000  0.2839547E+03  0.7546771E-02  0.1093548E+00
         21   -1    0    0  501  502  0.00000000000E+00  0.00000000000E+00  0.24898159294E+03  0.24898159294E+03  0.00000000000E+00 0. -1.
         21   -1    0    0  502  503 -0.00000000000E+00 -0.00000000000E+00 -0.53239673065E+03  0.53239673065E+03  0.00000000000E+00 0. -1.
          6    1    1    2  501    0 -0.15211323767E+03  0.16602066262E+03  0.10281861323E+03  0.30199663031E+03  0.17300000000E+03 0. -1.
         -6    1    1    2    0  503  0.15211323767E+03 -0.16602066262E+03 -0.38623375093E+03  0.47938169328E+03  0.17300000000E+03 0. -1.
<mgrwt>
<rscale>  2 0.28395475E+03</rscale>
<asrwt>0</asrwt>
<pdfrwt beam="1">  1       21 0.38304861E-01 0.28395475E+03</pdfrwt>
<pdfrwt beam="2">  1       21 0.81907188E-01 0.28395475E+03</pdfrwt>
<totfact> 0.81074861E+03</totfact>
</mgrwt>
</event>
<event>
 4    1  0.4137916E+000  0.2001130E+03  0.7546771E-02  0.1149644E+00
         21   -1    0    0  501  502  0.00000000000E+00  0.00000000000E+00  0.44165320348E+03  0.44165320348E+03  0.00000000000E+00 0. -1.
         21   -1    0    0  502  503 -0.00000000000E+00 -0.00000000000E+00 -0.97200773441E+02  0.97200773441E+02  0.00000000000E+00 0.  1.
          6    1    1    2  501    0  0.99331399056E+02 -0.15794816603E+02  0.24205755315E+03  0.31406537871E+03  0.17300000000E+03 0. -1.
         -6    1    1    2    0  503 -0.99331399056E+02  0.15794816603E+02  0.10239487689E+03  0.22478859821E+03  0.17300000000E+03 0.  1.
<mgrwt>
<rscale>  2 0.20011298E+03</rscale>
<asrwt>0</asrwt>
<pdfrwt beam="1">  1       21 0.67946646E-01 0.20011298E+03</pdfrwt>
<pdfrwt beam="2">  1       21 0.14953965E-01 0.20011298E+03</pdfrwt>
<totfact> 0.77783331E+04</totfact>
</mgrwt>
</event>
<event>
 4    1  0.4137916E+000  0.2389022E+03  0.7546771E-02  0.1120526E+00
         21   -1    0    0  501  502  0.00000000000E+00  0.00000000000E+00  0.26788787798E+02  0.26788787798E+02  0.00000000000E+00 0. -1.
         21   -1    0    0  502  503 -0.00000000000E+00 -0.00000000000E+00 -0.22601764156E+04  0.22601764156E+04  0.00000000000E+00 0. -1.
          6    1    1    2  501    0 -0.16283889846E+03 -0.25074696261E+02 -0.84282476609E+03  0.87602958488E+03  0.17300000000E+03 0. -1.
         -6    1    1    2    0  503  0.16283889846E+03  0.25074696261E+02 -0.13905628617E+04  0.14109356186E+04  0.17300000000E+03 0. -1.
<mgrwt>
<rscale>  2 0.23890217E+03</rscale>
<asrwt>0</asrwt>
<pdfrwt beam="1">  1       21 0.41213513E-02 0.23890217E+03</pdfrwt>
<pdfrwt beam="2">  1       21 0.34771951E+00 0.23890217E+03</pdfrwt>
<totfact> 0.63822646E+03</totfact>
</mgrwt>
</event>
<event>
 4    1  0.4137916E+000  0.2636990E+03  0.7546771E-02  0.1104941E+00
         21   -1    0    0  501  502  0.00000000000E+00  0.00000000000E+00  0.12232707599E+03  0.12232707599E+03  0.00000000000E+00 0.  1.
         21   -1    0    0  502  503 -0.00000000000E+00 -0.00000000000E+00 -0.59741096041E+03  0.59741096041E+03  0.00000000000E+00 0.  1.
          6    1    1    2  501    0  0.67427099874E+02 -0.18724778339E+03 -0.15831101452E+03  0.30757035537E+03  0.17300000000E+03 0.  1.
         -6    1    1    2    0  503 -0.67427099874E+02  0.18724778339E+03 -0.31677286990E+03  0.41216768103E+03  0.17300000000E+03 0.  1.
<mgrwt>
<rscale>  2 0.26369897E+03</rscale>
<asrwt>0</asrwt>
<pdfrwt beam="1">  1       21 0.18819550E-01 0.26369897E+03</pdfrwt>
<pdfrwt beam="2">  1       21 0.91909381E-01 0.26369897E+03</pdfrwt>
<totfact> 0.24931024E+04</totfact>
</mgrwt>
</event>
<event>
 4    1  0.4137916E+000  0.2161851E+03  0.7546771E-02  0.1136760E+00
         21   -1    0    0  501  502  0.00000000000E+00  0.00000000000E+00  0.74414034272E+03  0.74414034272E+03  0.00000000000E+00 0. -1.
         21   -1    0    0  502  503 -0.00000000000E+00 -0.00000000000E+00 -0.93229893998E+02  0.93229893998E+02  0.00000000000E+00 0. -1.
          6    1    1    2  501    0  0.12962949114E+03  0.17905083236E+01  0.56463354533E+03  0.60460487213E+03  0.17300000000E+03 0. -1.
         -6    1    1    2    0  503 -0.12962949114E+03 -0.17905083236E+01  0.86276903392E+02  0.23276536459E+03  0.17300000000E+03 0. -1.
<mgrwt>
<rscale>  2 0.21618513E+03</rscale>
<asrwt>0</asrwt>
<pdfrwt beam="1">  1       21 0.11448313E+00 0.21618513E+03</pdfrwt>
<pdfrwt beam="2">  1       21 0.14343061E-01 0.21618513E+03</pdfrwt>
<totfact> 0.24873867E+04</totfact>
</mgrwt>
</event>
<event>
 4    1  0.4137916E+000  0.1781135E+03  0.7546771E-02  0.1169641E+00
         21   -1    0    0  501  502  0.00000000000E+00  0.00000000000E+00  0.49574523271E+02  0.49574523271E+02  0.00000000000E+00 0. -1.
         21   -1    0    0  502  503 -0.00000000000E+00 -0.00000000000E+00 -0.87393695517E+03  0.87393695517E+03  0.00000000000E+00 0. -1.
          6    1    1    2  501    0 -0.76678237816E+01  0.41673017852E+02 -0.17324461662E+03  0.24847159420E+03  0.17300000000E+03 0.  1.
         -6    1    1    2    0  503  0.76678237816E+01 -0.41673017852E+02 -0.65111781528E+03  0.67503988424E+03  0.17300000000E+03 0.  1.
<mgrwt>
<rscale>  2 0.17811355E+03</rscale>
<asrwt>0</asrwt>
<pdfrwt beam="1">  1       21 0.76268501E-02 0.17811355E+03</pdfrwt>
<pdfrwt beam="2">  1       21 0.13445183E+00 0.17811355E+03</pdfrwt>
<totfact> 0.52159579E+04</totfact>
</mgrwt>
</event>
<event>
 4    1  0.4137916E+000  0.2384357E+03  0.7546771E-02  0.1120839E+00
         21   -1    0    0  503  502  0.00000000000E+00  0.00000000000E+00  0.15778867088E+04  0.15778867088E+04  0.00000000000E+00 0. -1.
         21   -1    0    0  501  503 -0.00000000000E+00 -0.00000000000E+00 -0.47742553944E+02  0.47742553944E+02  0.00000000000E+00 0.  1.
          6    1    1    2  501    0 -0.15140972036E+03 -0.63227262942E+02  0.36248429670E+03  0.43387377837E+03  0.17300000000E+03 0. -1.
         -6    1    1    2    0  502  0.15140972036E+03  0.63227262942E+02  0.11676598582E+04  0.11917554844E+04  0.17300000000E+03 0.  1.
<mgrwt>
<rscale>  2 0.23843572E+03</rscale>
<asrwt>0</asrwt>
<pdfrwt beam="1">  1       21 0.24275176E+00 0.23843572E+03</pdfrwt>
<pdfrwt beam="2">  1       21 0.73450095E-02 0.23843572E+03</pdfrwt>
<totfact> 0.98175574E+03</totfact>
</mgrwt>
</event>
<event>
 4    1  0.4137916E+000  0.1925966E+03  0.7546771E-02  0.1156140E+00
         21   -1    0    0  501  502  0.00000000000E+00  0.00000000000E+00  0.52362181994E+02  0.52362181994E+02  0.00000000000E+00 0.  1.
         21   -1    0    0  502  503 -0.00000000000E+00 -0.00000000000E+00 -0.78761684949E+03  0.78761684949E+03  0.00000000000E+00 0.  1.
          6    1    1    2  501    0 -0.82098369190E+02  0.20598823987E+02 -0.50082153969E+03  0.53657773751E+03  0.17300000000E+03 0.  1.
         -6    1    1    2    0  503  0.82098369190E+02 -0.20598823987E+02 -0.23443312781E+03  0.30340129398E+03  0.17300000000E+03 0.  1.
<mgrwt>
<rscale>  2 0.19259661E+03</rscale>
<asrwt>0</asrwt>
<pdfrwt beam="1">  1       21 0.80557203E-02 0.19259661E+03</pdfrwt>
<pdfrwt beam="2">  1       21 0.12117182E+00 0.19259661E+03</pdfrwt>
<totfact> 0.61123753E+04</totfact>
</mgrwt>
</event>
<event>
 4    1  0.4137916E+000  0.2178818E+03  0.7546771E-02  0.1135472E+00
         21   -1    0    0  501  502  0.00000000000E+00  0.00000000000E+00  0.39398253284E+03  0.39398253284E+03  0.00000000000E+00 0. -1.
         21   -1    0    0  502  503 -0.00000000000E+00 -0.00000000000E+00 -0.12215936000E+03  0.12215936000E+03  0.00000000000E+00 0.  1.
          6    1    1    2  501    0 -0.66242701744E+02  0.11469689861E+03  0.16604502857E+03  0.27394055121E+03  0.17300000000E+03 0. -1.
         -6    1    1    2    0  503  0.66242701744E+02 -0.11469689861E+03  0.10577814427E+03  0.24220134164E+03  0.17300000000E+03 0.  1.
<mgrwt>
<rscale>  2 0.21788179E+03</rscale>
<asrwt>0</asrwt>
<pdfrwt beam="1">  1       21 0.60612697E-01 0.21788179E+03</pdfrwt>
<pdfrwt beam="2">  1       21 0.18793748E-01 0.21788179E+03</pdfrwt>
<totfact> 0.64969936E+04</totfact>
</mgrwt>
</event>
<event>
 4    1  0.4137916E+000  0.1808703E+03  0.7546771E-02  0.1166963E+00
         21   -1    0    0  501  502  0.00000000000E+00  0.00000000000E+00  0.17329373731E+03  0.17329373731E+03  0.00000000000E+00 0. -1.
         21   -1    0    0  502  503 -0.00000000000E+00 -0.00000000000E+00 -0.47125369320E+03  0.47125369320E+03  0.00000000000E+00 0. -1.
          6    1    1    2  501    0  0.28579974629E+02 -0.44364863918E+02  0.10053004453E+03  0.20693077575E+03  0.17300000000E+03 0.  1.
         -6    1    1    2    0  503 -0.28579974629E+02  0.44364863918E+02 -0.39849000041E+03  0.43761665477E+03  0.17300000000E+03 0.  1.
<mgrwt>
<rscale>  2 0.18087027E+03</rscale>
<asrwt>0</asrwt>
<pdfrwt beam="1">  1       21 0.26660575E-01 0.18087027E+03</pdfrwt>
<pdfrwt beam="2">  1       21 0.72500567E-01 0.18087027E+03</pdfrwt>
<totfact> 0.23117106E+04</totfact>
</mgrwt>
</event>
<event>
 4    1  0.4137916E+000  0.2380990E+03  0.7546771E-02  0.1121066E+00
         21   -1    0    0  503  502  0.00000000000E+00  0.00000000000E+00  0.19896276374E+03  0.19896276374E+03  0.00000000000E+00 0.  1.
         21   -1    0    0  501  503 -0.00000000000E+00 -0.00000000000E+00 -0.28940110350E+03  0.28940110350E+03  0.00000000000E+00 0.  1.
          6    1    1    2  501    0  0.60200212155E+02  0.15211206265E+03 -0.14880009587E+02  0.23856353416E+03  0.17300000000E+03 0.  1.
         -6    1    1    2    0  502 -0.60200212155E+02 -0.15211206265E+03 -0.75558330172E+02  0.24980033308E+03  0.17300000000E+03 0.  1.
<mgrwt>
<rscale>  2 0.23809902E+03</rscale>
<asrwt>0</asrwt>
<pdfrwt beam="1">  1       21 0.30609656E-01 0.23809902E+03</pdfrwt>
<pdfrwt beam="2">  1       21 0.44523246E-01 0.23809902E+03</pdfrwt>
<totfact> 0.48601094E+04</totfact>
</mgrwt>
</event>
<event>
 4    1  0.4137916E+000  0.2109945E+03  0.7546771E-02  0.1140781E+00
         21   -1    0    0  503  502  0.00000000000E+00  0.00000000000E+00  0.83028675121E+02  0.83028675121E+02  0.00000000000E+00 0.  1.
         21   -1    0    0  501  503 -0.00000000000E+00 -0.00000000000E+00 -0.53618454729E+03  0.53618454729E+03  0.00000000000E+00 0. -1.
          6    1    1    2  501    0 -0.11905591990E+03  0.20380758723E+02 -0.22647220205E+03  0.30952923237E+03  0.17300000000E+03 0.  1.
         -6    1    1    2    0  502  0.11905591990E+03 -0.20380758723E+02 -0.22668367012E+03  0.30968399004E+03  0.17300000000E+03 0. -1.
<mgrwt>
<rscale>  2 0.21099452E+03</rscale>
<asrwt>0</asrwt>
<pdfrwt beam="1">  1       21 0.12773642E-01 0.21099452E+03</pdfrwt>
<pdfrwt beam="2">  1       21 0.82489930E-01 0.21099452E+03</pdfrwt>
<totfact> 0.66743893E+04</totfact>
</mgrwt>
</event>
<event>
 4    1  0.4137916E+000  0.3230430E+03  0.7546771E-02  0.1074257E+00
         21   -1    0    0  501  502  0.00000000000E+00  0.00000000000E+00  0.90174265340E+03  0.90174265340E+03  0.00000000000E+00 0.  1.
         21   -1    0    0  502  503 -0.00000000000E+00 -0.00000000000E+00 -0.14186046635E+03  0.14186046635E+03  0.00000000000E+00 0. -1.
          6    1    1    2  501    0 -0.29842576289E+02  0.27117744570E+03  0.60389863252E+03  0.68487250257E+03  0.17300000000E+03 0.  1.
         -6    1    1    2    0  503  0.29842576289E+02 -0.27117744570E+03  0.15598355452E+03  0.35873061718E+03  0.17300000000E+03 0. -1.
<mgrwt>
<rscale>  2 0.32304301E+03</rscale>
<asrwt>0</asrwt>
<pdfrwt beam="1">  1       21 0.13872964E+00 0.32304301E+03</pdfrwt>
<pdfrwt beam="2">  1       21 0.21824688E-01 0.32304301E+03</pdfrwt>
<totfact> 0.66236970E+03</totfact>
</mgrwt>
</event>
<event>
 4    1  0.4137916E+000  0.1747091E+03  0.7546771E-02  0.1173024E+00
         21   -1    0    0  503  502  0.00000000000E+00  0.00000000000E+00  0.89446415951E+02  0.89446415951E+02  0.00000000000E+00 0. -1.
         21   -1    0    0  501  503 -0.00000000000E+00 -0.00000000000E+00 -0.41448076299E+03  0.41448076299E+03  0.00000000000E+00 0. -1.
          6    1    1    2  501    0 -0.14688524727E+02 -0.19455782654E+02 -0.56605793450E+02  0.18365047261E+03  0.17300000000E+03 0. -1.
         -6    1    1    2    0  502  0.14688524727E+02  0.19455782654E+02 -0.26842855359E+03  0.32027670633E+03  0.17300000000E+03 0. -1.
<mgrwt>
<rscale>  2 0.17470913E+03</rscale>
<asrwt>0</asrwt>
<pdfrwt beam="1">  1       21 0.13760987E-01 0.17470913E+03</pdfrwt>
<pdfrwt beam="2">  1       21 0.63766272E-01 0.17470913E+03</pdfrwt>
<totfact> 0.10494498E+05</totfact>
</mgrwt>
</event>
<event>
 4    1  0.4137916E+000  0.1837556E+03  0.7546771E-02  0.1164217E+00
         21   -1    0    0  503  502  0.00000000000E+00  0.00000000000E+00  0.35785364546E+03  0.35785364546E+03  0.00000000000E+00 0. -1.
         21   -1    0    0  501  503 -0.00000000000E+00 -0.00000000000E+00 -0.96615442591E+02  0.96615442591E+02  0.00000000000E+00 0. -1.
          6    1    1    2  501    0  0.33351344368E+02 -0.52199554342E+02  0.95879385764E+02  0.20726543913E+03  0.17300000000E+03 0. -1.
         -6    1    1    2    0  502 -0.33351344368E+02  0.52199554342E+02  0.16535881711E+03  0.24720364892E+03  0.17300000000E+03 0. -1.
<mgrwt>
<rscale>  2 0.18375556E+03</rscale>
<asrwt>0</asrwt>
<pdfrwt beam="1">  1       21 0.55054406E-01 0.18375556E+03</pdfrwt>
<pdfrwt beam="2">  1       21 0.14863914E-01 0.18375556E+03</pdfrwt>
<totfact> 0.12453475E+05</totfact>
</mgrwt>
</event>
<event>
 4    1  0.4137916E+000  0.1831744E+03  0.7546771E-02  0.1164766E+00
         21   -1    0    0  503  502  0.00000000000E+00  0.00000000000E+00  0.25770992260E+03  0.25770992260E+03  0.00000000000E+00 0. -1.
         21   -1    0    0  501  503 -0.00000000000E+00 -0.00000000000E+00 -0.14300309687E+03  0.14300309687E+03  0.00000000000E+00 0. -1.
          6    1    1    2  501    0 -0.57228496057E+02  0.18674702354E+02 -0.26054208107E+01  0.18319288602E+03  0.17300000000E+03 0. -1.
         -6    1    1    2    0  502  0.57228496057E+02 -0.18674702354E+02  0.11731224655E+03  0.21752013346E+03  0.17300000000E+03 0. -1.
<mgrwt>
<rscale>  2 0.18317436E+03</rscale>
<asrwt>0</asrwt>
<pdfrwt beam="1">  1       21 0.39647680E-01 0.18317436E+03</pdfrwt>
<pdfrwt beam="2">  1       21 0.22000476E-01 0.18317436E+03</pdfrwt>
<totfact> 0.11875935E+05</totfact>
</mgrwt>
</event>
<event>
 4    1  0.4137916E+000  0.1896462E+03  0.7546771E-02  0.1158781E+00
         21   -1    0    0  501  502  0.00000000000E+00  0.00000000000E+00  0.34179770379E+03  0.34179770379E+03  0.00000000000E+00 0. -1.
         21   -1    0    0  502  503 -0.00000000000E+00 -0.00000000000E+00 -0.27097693209E+03  0.27097693209E+03  0.00000000000E+00 0. -1.
          6    1    1    2  501    0 -0.37311715449E+02 -0.68150717042E+02  0.27503633358E+03  0.33408182999E+03  0.17300000000E+03 0. -1.
         -6    1    1    2    0  503  0.37311715449E+02  0.68150717042E+02 -0.20421556187E+03  0.27869280589E+03  0.17300000000E+03 0. -1.
<mgrwt>
<rscale>  2 0.18964621E+03</rscale>
<asrwt>0</asrwt>
<pdfrwt beam="1">  1       21 0.52584262E-01 0.18964621E+03</pdfrwt>
<pdfrwt beam="2">  1       21 0.41688758E-01 0.18964621E+03</pdfrwt>
<totfact> 0.19028991E+04</totfact>
</mgrwt>
</event>
<event>
 4    1  0.4137916E+000  0.1952073E+03  0.7546771E-02  0.1153847E+00
         21   -1    0    0  501  502  0.00000000000E+00  0.00000000000E+00  0.43198389606E+03  0.43198389606E+03  0.00000000000E+00 0. -1.
         21   -1    0    0  502  503 -0.00000000000E+00 -0.00000000000E+00 -0.15260428513E+03  0.15260428513E+03  0.00000000000E+00 0. -1.
          6    1    1    2  501    0  0.87230117787E+02  0.23828387285E+02  0.32955954704E+03  0.38303443780E+03  0.17300000000E+03 0. -1.
         -6    1    1    2    0  503 -0.87230117787E+02 -0.23828387285E+02 -0.50179936113E+02  0.20155374340E+03  0.17300000000E+03 0. -1.
<mgrwt>
<rscale>  2 0.19520729E+03</rscale>
<asrwt>0</asrwt>
<pdfrwt beam="1">  1       21 0.66459061E-01 0.19520729E+03</pdfrwt>
<pdfrwt beam="2">  1       21 0.23477582E-01 0.19520729E+03</pdfrwt>
<totfact> 0.35399921E+04</totfact>
</mgrwt>
</event>
<event>
 4    1  0.4137916E+000  0.2960070E+03  0.7546771E-02  0.1087254E+00
         21   -1    0    0  503  502  0.00000000000E+00  0.00000000000E+00  0.10289924520E+03  0.10289924520E+03  0.00000000000E+00 0.  1.
         21   -1    0    0  501  503 -0.00000000000E+00 -0.00000000000E+00 -0.20027713612E+04  0.20027713612E+04  0.00000000000E+00 0. -1.
          6    1    1    2  501    0  0.19195619247E+03 -0.14437435028E+03 -0.17481714700E+04  0.17730548839E+04  0.17300000000E+03 0. -1.
         -6    1    1    2    0  502 -0.19195619247E+03  0.14437435028E+03 -0.15170064600E+03  0.33261572248E+03  0.17300000000E+03 0.  1.
<mgrwt>
<rscale>  2 0.29600698E+03</rscale>
<asrwt>0</asrwt>
<pdfrwt beam="1">  1       21 0.15830655E-01 0.29600698E+03</pdfrwt>
<pdfrwt beam="2">  1       21 0.30811864E+00 0.29600698E+03</pdfrwt>
<totfact> 0.97335313E+02</totfact>
</mgrwt>
</event>
<event>
 4    1  0.4137916E+000  0.1882136E+03  0.7546771E-02  0.1160082E+00
         21   -1    0    0  503  502  0.00000000000E+00  0.00000000000E+00  0.33016829061E+02  0.33016829061E+02  0.00000000000E+00 0.  1.
         21   -1    0    0  501  503 -0.00000000000E+00 -0.00000000000E+00 -0.20228214688E+04  0.20228214688E+04  0.00000000000E+00 0. -1.
          6    1    1    2  501    0  0.73341349716E+02 -0.10789360815E+02 -0.16993030889E+04  0.17096945201E+04  0.17300000000E+03 0. -1.
         -6    1    1    2    0  502 -0.73341349716E+02  0.10789360815E+02 -0.29050155079E+03  0.34614377778E+03  0.17300000000E+03 0.  1.
<mgrwt>
<rscale>  2 0.18821361E+03</rscale>
<asrwt>0</asrwt>
<pdfrwt beam="1">  1       21 0.50795118E-02 0.18821361E+03</pdfrwt>
<pdfrwt beam="2">  1       21 0.31120333E+00 0.18821361E+03</pdfrwt>
<totfact> 0.77444398E+03</totfact>
</mgrwt>
</event>
<event>
 4    1  0.4137916E+000  0.1902875E+03  0.7546771E-02  0.1158202E+00
         21   -1    0    0  501  502  0.00000000000E+00  0.00000000000E+00  0.44389360662E+03  0.44389360662E+03  0.00000000000E+00 0. -1.
         21   -1    0    0  502  503 -0.00000000000E+00 -0.00000000000E+00 -0.12925712020E+03  0.12925712020E+03  0.00000000000E+00 0. -1.
          6    1    1    2  501    0 -0.76028625977E+02  0.22359918155E+02  0.33137975896E+03  0.38212807088E+03  0.17300000000E+03 0. -1.
         -6    1    1    2    0  503  0.76028625977E+02 -0.22359918155E+02 -0.16743272544E+02  0.19102265594E+03  0.17300000000E+03 0. -1.
<mgrwt>
<rscale>  2 0.19028746E+03</rscale>
<asrwt>0</asrwt>
<pdfrwt beam="1">  1       21 0.68291323E-01 0.19028746E+03</pdfrwt>
<pdfrwt beam="2">  1       21 0.19885711E-01 0.19028746E+03</pdfrwt>
<totfact> 0.45700336E+04</totfact>
</mgrwt>
</event>
<event>
 4    1  0.4137916E+000  0.2438216E+03  0.7546771E-02  0.1117273E+00
         21   -1    0    0  501  502  0.00000000000E+00  0.00000000000E+00  0.32848697866E+03  0.32848697866E+03  0.00000000000E+00 0.  1.
         21   -1    0    0  502  503 -0.00000000000E+00 -0.00000000000E+00 -0.36714879479E+03  0.36714879479E+03  0.00000000000E+00 0.  1.
          6    1    1    2  501    0 -0.16916740490E+03 -0.30039739618E+02  0.22834647452E+03  0.33405255465E+03  0.17300000000E+03 0.  1.
         -6    1    1    2    0  503  0.16916740490E+03  0.30039739618E+02 -0.26700829065E+03  0.36158321880E+03  0.17300000000E+03 0.  1.
<mgrwt>
<rscale>  2 0.24382165E+03</rscale>
<asrwt>0</asrwt>
<pdfrwt beam="1">  1       21 0.50536459E-01 0.24382165E+03</pdfrwt>
<pdfrwt beam="2">  1       21 0.56484430E-01 0.24382165E+03</pdfrwt>
<totfact> 0.10640186E+04</totfact>
</mgrwt>
</event>
<event>
 4    1  0.4137916E+000  0.1761208E+03  0.7546771E-02  0.1171611E+00
         21   -1    0    0  501  502  0.00000000000E+00  0.00000000000E+00  0.15852854802E+03  0.15852854802E+03  0.00000000000E+00 0.  1.
         21   -1    0    0  502  503 -0.00000000000E+00 -0.00000000000E+00 -0.20128689593E+03  0.20128689593E+03  0.00000000000E+00 0.  1.
          6    1    1    2  501    0 -0.32368038798E+02  0.64684782030E+01  0.86866442172E+01  0.17633487725E+03  0.17300000000E+03 0.  1.
         -6    1    1    2    0  503  0.32368038798E+02 -0.64684782030E+01 -0.51444992127E+02  0.18348056671E+03  0.17300000000E+03 0.  1.
<mgrwt>
<rscale>  2 0.17612079E+03</rscale>
<asrwt>0</asrwt>
<pdfrwt beam="1">  1       21 0.24389008E-01 0.17612079E+03</pdfrwt>
<pdfrwt beam="2">  1       21 0.30967215E-01 0.17612079E+03</pdfrwt>
<totfact> 0.15986736E+05</totfact>
</mgrwt>
</event>
<event>
 4    1  0.4137916E+000  0.2580577E+03  0.7546771E-02  0.1108316E+00
         21   -1    0    0  503  502  0.00000000000E+00  0.00000000000E+00  0.84880038414E+02  0.84880038414E+02  0.00000000000E+00 0.  1.
         21   -1    0    0  501  503 -0.00000000000E+00 -0.00000000000E+00 -0.10094413230E+04  0.10094413230E+04  0.00000000000E+00 0. -1.
          6    1    1    2  501    0 -0.14129995875E+03 -0.12922491772E+03 -0.72053514935E+03  0.76535263712E+03  0.17300000000E+03 0. -1.
         -6    1    1    2    0  502  0.14129995875E+03  0.12922491772E+03 -0.20402613525E+03  0.32896872430E+03  0.17300000000E+03 0.  1.
<mgrwt>
<rscale>  2 0.25805766E+03</rscale>
<asrwt>0</asrwt>
<pdfrwt beam="1">  1       21 0.13058468E-01 0.25805766E+03</pdfrwt>
<pdfrwt beam="2">  1       21 0.15529866E+00 0.25805766E+03</pdfrwt>
<totfact> 0.13176721E+04</totfact>
</mgrwt>
</event>
<event>
 4    1  0.4137916E+000  0.1921286E+03  0.7546771E-02  0.1156555E+00
         21   -1    0    0  503  502  0.00000000000E+00  0.00000000000E+00  0.44501974161E+03  0.44501974161E+03  0.00000000000E+00 0.  1.
         21   -1    0    0  501  503 -0.00000000000E+00 -0.00000000000E+00 -0.10509155771E+03  0.10509155771E+03  0.00000000000E+00 0. -1.
          6    1    1    2  501    0 -0.54679249953E+02  0.63202708383E+02  0.43705063432E+02  0.19703688815E+03  0.17300000000E+03 0. -1.
         -6    1    1    2    0  502  0.54679249953E+02 -0.63202708383E+02  0.29622312047E+03  0.35307441117E+03  0.17300000000E+03 0.  1.
<mgrwt>
<rscale>  2 0.19212861E+03</rscale>
<asrwt>0</asrwt>
<pdfrwt beam="1">  1       21 0.68464574E-01 0.19212861E+03</pdfrwt>
<pdfrwt beam="2">  1       21 0.16167932E-01 0.19212861E+03</pdfrwt>
<totfact> 0.66572972E+04</totfact>
</mgrwt>
</event>
<event>
 4    1  0.4137916E+000  0.3601784E+03  0.7546771E-02  0.1058513E+00
         21   -1    0    0  503  502  0.00000000000E+00  0.00000000000E+00  0.10184012970E+04  0.10184012970E+04  0.00000000000E+00 0.  1.
         21   -1    0    0  501  503 -0.00000000000E+00 -0.00000000000E+00 -0.13921144350E+03  0.13921144350E+03  0.00000000000E+00 0. -1.
          6    1    1    2  501    0  0.52582522135E+02 -0.31150367747E+03  0.27088777682E+03  0.45067577075E+03  0.17300000000E+03 0. -1.
         -6    1    1    2    0  502 -0.52582522135E+02  0.31150367747E+03  0.60830207666E+03  0.70693696973E+03  0.17300000000E+03 0.  1.
<mgrwt>
<rscale>  2 0.36017838E+03</rscale>
<asrwt>0</asrwt>
<pdfrwt beam="1">  1       21 0.15667712E+00 0.36017838E+03</pdfrwt>
<pdfrwt beam="2">  1       21 0.21417146E-01 0.36017838E+03</pdfrwt>
<totfact> 0.48719557E+03</totfact>
</mgrwt>
</event>
<event>
 4    1  0.4137916E+000  0.2328714E+03  0.7546771E-02  0.1124635E+00
         21   -1    0    0  501  502  0.00000000000E+00  0.00000000000E+00  0.10054197408E+03  0.10054197408E+03  0.00000000000E+00 0. -1.
         21   -1    0    0  502  503 -0.00000000000E+00 -0.00000000000E+00 -0.11631559544E+04  0.11631559544E+04  0.00000000000E+00 0.  1.
          6    1    1    2  501    0  0.12387439488E+03  0.94631949127E+02 -0.68592632233E+02  0.24276330179E+03  0.17300000000E+03 0. -1.
         -6    1    1    2    0  503 -0.12387439488E+03 -0.94631949127E+02 -0.99402134810E+03  0.10209346267E+04  0.17300000000E+03 0.  1.
<mgrwt>
<rscale>  2 0.23287136E+03</rscale>
<asrwt>0</asrwt>
<pdfrwt beam="1">  1       21 0.15467996E-01 0.23287136E+03</pdfrwt>
<pdfrwt beam="2">  1       21 0.17894708E+00 0.23287136E+03</pdfrwt>
<totfact> 0.66447069E+03</totfact>
</mgrwt>
</event>
<event>
 4    1  0.4137916E+000  0.2166931E+03  0.7546771E-02  0.1136373E+00
         21   -1    0    0  503  502  0.00000000000E+00  0.00000000000E+00  0.17633769320E+03  0.17633769320E+03  0.00000000000E+00 0. -1.
         21   -1    0    0  501  503 -0.00000000000E+00 -0.00000000000E+00 -0.59621724143E+03  0.59621724143E+03  0.00000000000E+00 0.  1.
          6    1    1    2  501    0  0.99375215937E+02  0.84566448933E+02 -0.49728904776E+03  0.54245028791E+03  0.17300000000E+03 0.  1.
         -6    1    1    2    0  502 -0.99375215937E+02 -0.84566448933E+02  0.77409499528E+02  0.23010464673E+03  0.17300000000E+03 0. -1.
<mgrwt>
<rscale>  2 0.21669314E+03</rscale>
<asrwt>0</asrwt>
<pdfrwt beam="1">  1       21 0.27128875E-01 0.21669314E+03</pdfrwt>
<pdfrwt beam="2">  1       21 0.91725731E-01 0.21669314E+03</pdfrwt>
<totfact> 0.12816109E+04</totfact>
</mgrwt>
</event>
<event>
 4    1  0.4137916E+000  0.2030339E+03  0.7546771E-02  0.1147204E+00
         21   -1    0    0  503  502  0.00000000000E+00  0.00000000000E+00  0.13584614556E+03  0.13584614556E+03  0.00000000000E+00 0.  1.
         21   -1    0    0  501  503 -0.00000000000E+00 -0.00000000000E+00 -0.31582368528E+03  0.31582368528E+03  0.00000000000E+00 0.  1.
          6    1    1    2  501    0 -0.10124077685E+03 -0.32312050372E+02 -0.13468654357E+03  0.24364570284E+03  0.17300000000E+03 0.  1.
         -6    1    1    2    0  502  0.10124077685E+03  0.32312050372E+02 -0.45290996157E+02  0.20802412800E+03  0.17300000000E+03 0.  1.
<mgrwt>
<rscale>  2 0.20303390E+03</rscale>
<asrwt>0</asrwt>
<pdfrwt beam="1">  1       21 0.20899407E-01 0.20303390E+03</pdfrwt>
<pdfrwt beam="2">  1       21 0.48588259E-01 0.20303390E+03</pdfrwt>
<totfact> 0.85601203E+04</totfact>
</mgrwt>
</event>
<event>
 4    1  0.4137916E+000  0.2813655E+03  0.7546771E-02  0.1094945E+00
         21   -1    0    0  503  502  0.00000000000E+00  0.00000000000E+00  0.43766115645E+03  0.43766115645E+03  0.00000000000E+00 0. -1.
         21   -1    0    0  501  503 -0.00000000000E+00 -0.00000000000E+00 -0.18685472908E+03  0.18685472908E+03  0.00000000000E+00 0. -1.
          6    1    1    2  501    0  0.19959517631E+03  0.96949927038E+02  0.18121467912E+03  0.33467190304E+03  0.17300000000E+03 0. -1.
         -6    1    1    2    0  502 -0.19959517631E+03 -0.96949927038E+02  0.69591748252E+02  0.28984398248E+03  0.17300000000E+03 0. -1.
<mgrwt>
<rscale>  2 0.28136546E+03</rscale>
<asrwt>0</asrwt>
<pdfrwt beam="1">  1       21 0.67332485E-01 0.28136546E+03</pdfrwt>
<pdfrwt beam="2">  1       21 0.28746881E-01 0.28136546E+03</pdfrwt>
<totfact> 0.22345079E+04</totfact>
</mgrwt>
</event>
<event>
 4    1  0.4137916E+000  0.2105460E+03  0.7546771E-02  0.1141134E+00
         21   -1    0    0  501  502  0.00000000000E+00  0.00000000000E+00  0.70595554988E+03  0.70595554988E+03  0.00000000000E+00 0.  1.
         21   -1    0    0  502  503 -0.00000000000E+00 -0.00000000000E+00 -0.96445708625E+02  0.96445708625E+02  0.00000000000E+00 0. -1.
          6    1    1    2  501    0 -0.50223412853E+02 -0.10898735795E+03  0.67767678371E+02  0.22118339364E+03  0.17300000000E+03 0.  1.
         -6    1    1    2    0  503  0.50223412853E+02  0.10898735795E+03  0.54174216289E+03  0.58121786487E+03  0.17300000000E+03 0.  1.
<mgrwt>
<rscale>  2 0.21054604E+03</rscale>
<asrwt>0</asrwt>
<pdfrwt beam="1">  1       21 0.10860854E+00 0.21054604E+03</pdfrwt>
<pdfrwt beam="2">  1       21 0.14837802E-01 0.21054604E+03</pdfrwt>
<totfact> 0.26667304E+04</totfact>
</mgrwt>
</event>
<event>
 4    1  0.4137916E+000  0.1753228E+03  0.7546771E-02  0.1172408E+00
         21   -1    0    0  503  502  0.00000000000E+00  0.00000000000E+00  0.58346317026E+03  0.58346317026E+03  0.00000000000E+00 0.  1.
         21   -1    0    0  501  503 -0.00000000000E+00 -0.00000000000E+00 -0.17790662366E+03  0.17790662366E+03  0.00000000000E+00 0.  1.
          6    1    1    2  501    0  0.12720696572E+02  0.25441385415E+02 -0.11660652232E+03  0.21055916333E+03  0.17300000000E+03 0.  1.
         -6    1    1    2    0  502 -0.12720696572E+02 -0.25441385415E+02  0.52216306892E+03  0.55081063058E+03  0.17300000000E+03 0.  1.
<mgrwt>
<rscale>  2 0.17532279E+03</rscale>
<asrwt>0</asrwt>
<pdfrwt beam="1">  1       21 0.89763564E-01 0.17532279E+03</pdfrwt>
<pdfrwt beam="2">  1       21 0.27370250E-01 0.17532279E+03</pdfrwt>
<totfact> 0.13613545E+04</totfact>
</mgrwt>
</event>
<event>
 4    1  0.4137916E+000  0.1754318E+03  0.7546771E-02  0.1172299E+00
         21   -1    0    0  503  502  0.00000000000E+00  0.00000000000E+00  0.58045738235E+03  0.58045738235E+03  0.00000000000E+00 0.  1.
         21   -1    0    0  501  503 -0.00000000000E+00 -0.00000000000E+00 -0.56874451643E+02  0.56874451643E+02  0.00000000000E+00 0.  1.
          6    1    1    2  501    0 -0.29084303182E+02  0.11970849711E+01  0.17884234547E+03  0.25052128500E+03  0.17300000000E+03 0. -1.
         -6    1    1    2    0  502  0.29084303182E+02 -0.11970849711E+01  0.34474058523E+03  0.38681054899E+03  0.17300000000E+03 0. -1.
<mgrwt>
<rscale>  2 0.17543184E+03</rscale>
<asrwt>0</asrwt>
<pdfrwt beam="1">  1       21 0.89301131E-01 0.17543184E+03</pdfrwt>
<pdfrwt beam="2">  1       21 0.87499161E-02 0.17543184E+03</pdfrwt>
<totfact> 0.11052372E+05</totfact>
</mgrwt>
</event>
<event>
 4    1  0.4137916E+000  0.1975114E+03  0.7546771E-02  0.1151856E+00
         21   -1    0    0  503  502  0.00000000000E+00  0.00000000000E+00  0.49162846982E+03  0.49162846982E+03  0.00000000000E+00 0. -1.
         21   -1    0    0  501  503 -0.00000000000E+00 -0.00000000000E+00 -0.21800116492E+03  0.21800116492E+03  0.00000000000E+00 0.  1.
          6    1    1    2  501    0  0.88578777387E+02 -0.35150665824E+02 -0.14615214376E+03  0.24570555191E+03  0.17300000000E+03 0.  1.
         -6    1    1    2    0  502 -0.88578777387E+02  0.35150665824E+02  0.41977944867E+03  0.46392408284E+03  0.17300000000E+03 0. -1.
<mgrwt>
<rscale>  2 0.19751144E+03</rscale>
<asrwt>0</asrwt>
<pdfrwt beam="1">  1       21 0.75635149E-01 0.19751144E+03</pdfrwt>
<pdfrwt beam="2">  1       21 0.33538641E-01 0.19751144E+03</pdfrwt>
<totfact> 0.13317329E+04</totfact>
</mgrwt>
</event>
<event>
 4    1  0.4137916E+000  0.1852276E+03  0.7546771E-02  0.1162838E+00
         21   -1    0    0  503  502  0.00000000000E+00  0.00000000000E+00  0.44852508995E+03  0.44852508995E+03  0.00000000000E+00 0. -1.
         21   -1    0    0  501  503 -0.00000000000E+00 -0.00000000000E+00 -0.32229230766E+03  0.32229230766E+03  0.00000000000E+00 0. -1.
          6    1    1    2  501    0  0.45591357581E+01 -0.66026225107E+02 -0.27346216264E+03  0.33028896820E+03  0.17300000000E+03 0. -1.
         -6    1    1    2    0  502 -0.45591357581E+01  0.66026225107E+02  0.39969494492E+03  0.44052842941E+03  0.17300000000E+03 0. -1.
<mgrwt>
<rscale>  2 0.18522756E+03</rscale>
<asrwt>0</asrwt>
<pdfrwt beam="1">  1       21 0.69003860E-01 0.18522756E+03</pdfrwt>
<pdfrwt beam="2">  1       21 0.49583432E-01 0.18522756E+03</pdfrwt>
<totfact> 0.74552044E+03</totfact>
</mgrwt>
</event>
<event>
 4    1  0.4137916E+000  0.3430721E+03  0.7546771E-02  0.1065495E+00
         21   -1    0    0  503  502  0.00000000000E+00  0.00000000000E+00  0.11088169656E+04  0.11088169656E+04  0.00000000000E+00 0.  1.
         21   -1    0    0  501  503 -0.00000000000E+00 -0.00000000000E+00 -0.14548336625E+03  0.14548336625E+03  0.00000000000E+00 0. -1.
          6    1    1    2  501    0  0.29395603141E+03  0.36869292603E+02  0.15556175582E+03  0.37669344700E+03  0.17300000000E+03 0. -1.
         -6    1    1    2    0  502 -0.29395603141E+03 -0.36869292603E+02  0.80777184356E+03  0.87760688488E+03  0.17300000000E+03 0.  1.
<mgrwt>
<rscale>  2 0.34307214E+03</rscale>
<asrwt>0</asrwt>
<pdfrwt beam="1">  1       21 0.17058722E+00 0.34307214E+03</pdfrwt>
<pdfrwt beam="2">  1       21 0.22382057E-01 0.34307214E+03</pdfrwt>
<totfact> 0.35638143E+03</totfact>
</mgrwt>
</event>
<event>
 4    1  0.4137916E+000  0.1905018E+03  0.7546771E-02  0.1158010E+00
         21   -1    0    0  503  502  0.00000000000E+00  0.00000000000E+00  0.82550333515E+03  0.82550333515E+03  0.00000000000E+00 0. -1.
         21   -1    0    0  501  503 -0.00000000000E+00 -0.00000000000E+00 -0.47942881508E+02  0.47942881508E+02  0.00000000000E+00 0. -1.
          6    1    1    2  501    0  0.46697501148E+01  0.79624868998E+02  0.26293872148E+03  0.32469631594E+03  0.17300000000E+03 0. -1.
         -6    1    1    2    0  502 -0.46697501148E+01 -0.79624868998E+02  0.51462173216E+03  0.54874990072E+03  0.17300000000E+03 0. -1.
<mgrwt>
<rscale>  2 0.19050178E+03</rscale>
<asrwt>0</asrwt>
<pdfrwt beam="1">  1       21 0.12700050E+00 0.19050178E+03</pdfrwt>
<pdfrwt beam="2">  1       21 0.73758286E-02 0.19050178E+03</pdfrwt>
<totfact> 0.63413420E+04</totfact>
</mgrwt>
</event>
<event>
 4    1  0.4137916E+000  0.2017875E+03  0.7546771E-02  0.1148240E+00
         21   -1    0    0  501  502  0.00000000000E+00  0.00000000000E+00  0.12460325795E+04  0.12460325795E+04  0.00000000000E+00 0.  1.
         21   -1    0    0  502  503 -0.00000000000E+00 -0.00000000000E+00 -0.33894747584E+02  0.33894747584E+02  0.00000000000E+00 0. -1.
          6    1    1    2  501    0 -0.10371931263E+03 -0.56119510730E+01  0.48483027415E+03  0.52514625062E+03  0.17300000000E+03 0. -1.
         -6    1    1    2    0  503  0.10371931263E+03  0.56119510730E+01  0.72730755780E+03  0.75478107650E+03  0.17300000000E+03 0.  1.
<mgrwt>
<rscale>  2 0.20178749E+03</rscale>
<asrwt>0</asrwt>
<pdfrwt beam="1">  1       21 0.19169728E+00 0.20178749E+03</pdfrwt>
<pdfrwt beam="2">  1       21 0.52145775E-02 0.20178749E+03</pdfrwt>
<totfact> 0.37843702E+04</totfact>
</mgrwt>
</event>
<event>
 4    1  0.4137916E+000  0.2045946E+03  0.7546771E-02  0.1145919E+00
         21   -1    0    0  501  502  0.00000000000E+00  0.00000000000E+00  0.11663840938E+03  0.11663840938E+03  0.00000000000E+00 0.  1.
         21   -1    0    0  502  503 -0.00000000000E+00 -0.00000000000E+00 -0.42324839163E+03  0.42324839163E+03  0.00000000000E+00 0.  1.
          6    1    1    2  501    0 -0.46532044398E+02 -0.98816600389E+02 -0.48031664605E+02  0.21015706620E+03  0.17300000000E+03 0.  1.
         -6    1    1    2    0  503  0.46532044398E+02  0.98816600389E+02 -0.25857831764E+03  0.32972973482E+03  0.17300000000E+03 0.  1.
<mgrwt>
<rscale>  2 0.20459460E+03</rscale>
<asrwt>0</asrwt>
<pdfrwt beam="1">  1       21 0.17944371E-01 0.20459460E+03</pdfrwt>
<pdfrwt beam="2">  1       21 0.65115138E-01 0.20459460E+03</pdfrwt>
<totfact> 0.60963081E+04</totfact>
</mgrwt>
</event>
<event>
 4    1  0.4137916E+000  0.1760260E+03  0.7546771E-02  0.1171705E+00
         21   -1    0    0  503  502  0.00000000000E+00  0.00000000000E+00  0.32331396385E+03  0.32331396385E+03  0.00000000000E+00 0.  1.
         21   -1    0    0  501  503 -0.00000000000E+00 -0.00000000000E+00 -0.23246259573E+03  0.23246259573E+03  0.00000000000E+00 0. -1.
          6    1    1    2  501    0  0.13291294918E+02  0.29656551709E+02 -0.16761426731E+03  0.24306318558E+03  0.17300000000E+03 0. -1.
         -6    1    1    2    0  502 -0.13291294918E+02 -0.29656551709E+02  0.25846563543E+03  0.31271337400E+03  0.17300000000E+03 0.  1.
<mgrwt>
<rscale>  2 0.17602605E+03</rscale>
<asrwt>0</asrwt>
<pdfrwt beam="1">  1       21 0.49740610E-01 0.17602605E+03</pdfrwt>
<pdfrwt beam="2">  1       21 0.35763476E-01 0.17602605E+03</pdfrwt>
<totfact> 0.29305978E+04</totfact>
</mgrwt>
</event>
<event>
 4    1  0.4137916E+000  0.1963553E+03  0.7546771E-02  0.1152851E+00
         21   -1    0    0  503  502  0.00000000000E+00  0.00000000000E+00  0.81393378459E+03  0.81393378459E+03  0.00000000000E+00 0.  1.
         21   -1    0    0  501  503 -0.00000000000E+00 -0.00000000000E+00 -0.72246408289E+02  0.72246408289E+02  0.00000000000E+00 0. -1.
          6    1    1    2  501    0 -0.53809382566E+02  0.75703178790E+02  0.63085032035E+03  0.66070231391E+03  0.17300000000E+03 0.  1.
         -6    1    1    2    0  502  0.53809382566E+02 -0.75703178790E+02  0.11083705596E+03  0.22547787897E+03  0.17300000000E+03 0. -1.
<mgrwt>
<rscale>  2 0.19635534E+03</rscale>
<asrwt>0</asrwt>
<pdfrwt beam="1">  1       21 0.12522058E+00 0.19635534E+03</pdfrwt>
<pdfrwt beam="2">  1       21 0.11114833E-01 0.19635534E+03</pdfrwt>
<totfact> 0.31883147E+04</totfact>
</mgrwt>
</event>
<event>
 4    1  0.4137916E+000  0.2209323E+03  0.7546771E-02  0.1133190E+00
         21   -1    0    0  501  502  0.00000000000E+00  0.00000000000E+00  0.82834138302E+02  0.82834138302E+02  0.00000000000E+00 0. -1.
         21   -1    0    0  502  503 -0.00000000000E+00 -0.00000000000E+00 -0.76244026391E+03  0.76244026391E+03  0.00000000000E+00 0. -1.
          6    1    1    2  501    0 -0.66503939176E+01  0.13725098129E+03 -0.13837927900E+03  0.26069116682E+03  0.17300000000E+03 0. -1.
         -6    1    1    2    0  503  0.66503939176E+01 -0.13725098129E+03 -0.54122684661E+03  0.58458323538E+03  0.17300000000E+03 0. -1.
<mgrwt>
<rscale>  2 0.22093225E+03</rscale>
<asrwt>0</asrwt>
<pdfrwt beam="1">  1       21 0.12743714E-01 0.22093225E+03</pdfrwt>
<pdfrwt beam="2">  1       21 0.11729850E+00 0.22093225E+03</pdfrwt>
<totfact> 0.28956051E+04</totfact>
</mgrwt>
</event>
<event>
 4    1  0.4137916E+000  0.2197786E+03  0.7546771E-02  0.1134048E+00
         21   -1    0    0  503  502  0.00000000000E+00  0.00000000000E+00  0.11525894408E+03  0.11525894408E+03  0.00000000000E+00 0.  1.
         21   -1    0    0  501  503 -0.00000000000E+00 -0.00000000000E+00 -0.43727220323E+03  0.43727220323E+03  0.00000000000E+00 0.  1.
          6    1    1    2  501    0 -0.10660479013E+03 -0.83720204839E+02 -0.21735743701E+03  0.30910663112E+03  0.17300000000E+03 0.  1.
         -6    1    1    2    0  502  0.10660479013E+03  0.83720204839E+02 -0.10465582214E+03  0.24342451619E+03  0.17300000000E+03 0.  1.
<mgrwt>
<rscale>  2 0.21977865E+03</rscale>
<asrwt>0</asrwt>
<pdfrwt beam="1">  1       21 0.17732146E-01 0.21977865E+03</pdfrwt>
<pdfrwt beam="2">  1       21 0.67272645E-01 0.21977865E+03</pdfrwt>
<totfact> 0.57633685E+04</totfact>
</mgrwt>
</event>
<event>
 4    1  0.4137916E+000  0.2644050E+03  0.7546771E-02  0.1104525E+00
         21   -1    0    0  503  502  0.00000000000E+00  0.00000000000E+00  0.20850746413E+03  0.20850746413E+03  0.00000000000E+00 0.  1.
         21   -1    0    0  501  503 -0.00000000000E+00 -0.00000000000E+00 -0.61107203556E+03  0.61107203556E+03  0.00000000000E+00 0. -1.
          6    1    1    2  501    0 -0.19933980398E+03 -0.15640595148E+02 -0.47657815361E+03  0.54501075417E+03  0.17300000000E+03 0. -1.
         -6    1    1    2    0  502  0.19933980398E+03  0.15640595148E+02  0.74013582182E+02  0.27456874551E+03  0.17300000000E+03 0.  1.
<mgrwt>
<rscale>  2 0.26440497E+03</rscale>
<asrwt>0</asrwt>
<pdfrwt beam="1">  1       21 0.32078071E-01 0.26440497E+03</pdfrwt>
<pdfrwt beam="2">  1       21 0.94011083E-01 0.26440497E+03</pdfrwt>
<totfact> 0.84798227E+03</totfact>
</mgrwt>
</event>
<event>
 4    1  0.4137916E+000  0.1784813E+03  0.7546771E-02  0.1169281E+00
         21   -1    0    0  501  502  0.00000000000E+00  0.00000000000E+00  0.43391314191E+03  0.43391314191E+03  0.00000000000E+00 0. -1.
         21   -1    0    0  502  503 -0.00000000000E+00 -0.00000000000E+00 -0.19587854980E+03  0.19587854980E+03  0.00000000000E+00 0. -1.
          6    1    1    2  501    0  0.21372908307E+02 -0.38337721218E+02  0.36800478848E+03  0.40900257508E+03  0.17300000000E+03 0. -1.
         -6    1    1    2    0  503 -0.21372908307E+02  0.38337721218E+02 -0.12997019638E+03  0.22078911663E+03  0.17300000000E+03 0. -1.
<mgrwt>
<rscale>  2 0.17848132E+03</rscale>
<asrwt>0</asrwt>
<pdfrwt beam="1">  1       21 0.66755868E-01 0.17848132E+03</pdfrwt>
<pdfrwt beam="2">  1       21 0.30135161E-01 0.17848132E+03</pdfrwt>
<totfact> 0.21904181E+04</totfact>
</mgrwt>
</event>
<event>
 4    1  0.4137916E+000  0.2184946E+03  0.7546771E-02  0.1135010E+00
         21   -1    0    0  503  502  0.00000000000E+00  0.00000000000E+00  0.40775733829E+03  0.40775733829E+03  0.00000000000E+00 0. -1.
         21   -1    0    0  501  503 -0.00000000000E+00 -0.00000000000E+00 -0.18661502791E+03  0.18661502791E+03  0.00000000000E+00 0.  1.
          6    1    1    2  501    0 -0.13053780510E+03 -0.27763094546E+02 -0.70838159870E+02  0.22969099432E+03  0.17300000000E+03 0.  1.
         -6    1    1    2    0  502  0.13053780510E+03  0.27763094546E+02  0.29198047026E+03  0.36468137187E+03  0.17300000000E+03 0. -1.
<mgrwt>
<rscale>  2 0.21849464E+03</rscale>
<asrwt>0</asrwt>
<pdfrwt beam="1">  1       21 0.62731898E-01 0.21849464E+03</pdfrwt>
<pdfrwt beam="2">  1       21 0.28710004E-01 0.21849464E+03</pdfrwt>
<totfact> 0.26937077E+04</totfact>
</mgrwt>
</event>
<event>
 4    1  0.4137916E+000  0.1992730E+03  0.7546771E-02  0.1150354E+00
         21   -1    0    0  501  502  0.00000000000E+00  0.00000000000E+00  0.13753016980E+03  0.13753016980E+03  0.00000000000E+00 0. -1.
         21   -1    0    0  502  503 -0.00000000000E+00 -0.00000000000E+00 -0.30137580782E+03  0.30137580782E+03  0.00000000000E+00 0. -1.
          6    1    1    2  501    0 -0.76137798964E+02  0.63116922012E+02 -0.36977690429E+02  0.20267476376E+03  0.17300000000E+03 0. -1.
         -6    1    1    2    0  503  0.76137798964E+02 -0.63116922012E+02 -0.12686794759E+03  0.23623121386E+03  0.17300000000E+03 0. -1.
<mgrwt>
<rscale>  2 0.19927295E+03</rscale>
<asrwt>0</asrwt>
<pdfrwt beam="1">  1       21 0.21158488E-01 0.19927295E+03</pdfrwt>
<pdfrwt beam="2">  1       21 0.46365509E-01 0.19927295E+03</pdfrwt>
<totfact> 0.92308767E+04</totfact>
</mgrwt>
</event>
<event>
 4    1  0.4137916E+000  0.1951721E+03  0.7546771E-02  0.1153877E+00
         21   -1    0    0  501  502  0.00000000000E+00  0.00000000000E+00  0.16399957807E+03  0.16399957807E+03  0.00000000000E+00 0. -1.
         21   -1    0    0  502  503 -0.00000000000E+00 -0.00000000000E+00 -0.24779414721E+03  0.24779414721E+03  0.00000000000E+00 0. -1.
          6    1    1    2  501    0  0.34212684903E+02  0.83622126394E+02  0.96385474090E+01  0.19541000340E+03  0.17300000000E+03 0. -1.
         -6    1    1    2    0  503 -0.34212684903E+02 -0.83622126394E+02 -0.93433116547E+02  0.21638372189E+03  0.17300000000E+03 0. -1.
<mgrwt>
<rscale>  2 0.19517215E+03</rscale>
<asrwt>0</asrwt>
<pdfrwt beam="1">  1       21 0.25230705E-01 0.19517215E+03</pdfrwt>
<pdfrwt beam="2">  1       21 0.38122176E-01 0.19517215E+03</pdfrwt>
<totfact> 0.98665918E+04</totfact>
</mgrwt>
</event>
<event>
 4    1  0.4137916E+000  0.1768117E+03  0.7546771E-02  0.1170925E+00
         21   -1    0    0  501  502  0.00000000000E+00  0.00000000000E+00  0.18109448028E+03  0.18109448028E+03  0.00000000000E+00 0. -1.
         21   -1    0    0  502  503 -0.00000000000E+00 -0.00000000000E+00 -0.17717819309E+03  0.17717819309E+03  0.00000000000E+00 0.  1.
          6    1    1    2  501    0  0.29246805627E+02  0.21863281554E+02  0.30658535540E+02  0.17945006136E+03  0.17300000000E+03 0. -1.
         -6    1    1    2    0  503 -0.29246805627E+02 -0.21863281554E+02 -0.26742248351E+02  0.17882261201E+03  0.17300000000E+03 0.  1.
<mgrwt>
<rscale>  2 0.17681170E+03</rscale>
<asrwt>0</asrwt>
<pdfrwt beam="1">  1       21 0.27860689E-01 0.17681170E+03</pdfrwt>
<pdfrwt beam="2">  1       21 0.27258184E-01 0.17681170E+03</pdfrwt>
<totfact> 0.15864093E+05</totfact>
</mgrwt>
</event>
<event>
 4    1  0.4137916E+000  0.2015954E+03  0.7546771E-02  0.1148400E+00
         21   -1    0    0  503  502  0.00000000000E+00  0.00000000000E+00  0.78557007384E+02  0.78557007384E+02  0.00000000000E+00 0. -1.
         21   -1    0    0  501  503 -0.00000000000E+00 -0.00000000000E+00 -0.51769068672E+03  0.51769068672E+03  0.00000000000E+00 0. -1.
          6    1    1    2  501    0 -0.10189001733E+03  0.18169823045E+02 -0.21181262118E+03  0.29241290087E+03  0.17300000000E+03 0. -1.
         -6    1    1    2    0  502  0.10189001733E+03 -0.18169823045E+02 -0.22732105815E+03  0.30383479323E+03  0.17300000000E+03 0. -1.
<mgrwt>
<rscale>  2 0.20159543E+03</rscale>
<asrwt>0</asrwt>
<pdfrwt beam="1">  1       21 0.12085693E-01 0.20159543E+03</pdfrwt>
<pdfrwt beam="2">  1       21 0.79644722E-01 0.20159543E+03</pdfrwt>
<totfact> 0.80173426E+04</totfact>
</mgrwt>
</event>
<event>
 4    1  0.4137916E+000  0.2561673E+03  0.7546771E-02  0.1109468E+00
         21   -1    0    0  501  502  0.00000000000E+00  0.00000000000E+00  0.53061796457E+03  0.53061796457E+03  0.00000000000E+00 0.  1.
         21   -1    0    0  502  503 -0.00000000000E+00 -0.00000000000E+00 -0.21528736948E+03  0.21528736948E+03  0.00000000000E+00 0.  1.
          6    1    1    2  501    0  0.13522888715E+03  0.13193118908E+03  0.40095997339E+03  0.47580520261E+03  0.17300000000E+03 0.  1.
         -6    1    1    2    0  503 -0.13522888715E+03 -0.13193118908E+03 -0.85629378305E+02  0.27010013143E+03  0.17300000000E+03 0.  1.
<mgrwt>
<rscale>  2 0.25616731E+03</rscale>
<asrwt>0</asrwt>
<pdfrwt beam="1">  1       21 0.81633532E-01 0.25616731E+03</pdfrwt>
<pdfrwt beam="2">  1       21 0.33121134E-01 0.25616731E+03</pdfrwt>
<totfact> 0.11094012E+04</totfact>
</mgrwt>
</event>
<event>
 4    1  0.4137916E+000  0.2117788E+03  0.7546771E-02  0.1140165E+00
         21   -1    0    0  501  502  0.00000000000E+00  0.00000000000E+00  0.28507127696E+03  0.28507127696E+03  0.00000000000E+00 0. -1.
         21   -1    0    0  502  503 -0.00000000000E+00 -0.00000000000E+00 -0.34876774860E+03  0.34876774860E+03  0.00000000000E+00 0. -1.
          6    1    1    2  501    0  0.49302996806E+02 -0.11176070548E+03  0.20294993115E+03  0.29332390857E+03  0.17300000000E+03 0. -1.
         -6    1    1    2    0  503 -0.49302996806E+02  0.11176070548E+03 -0.26664640278E+03  0.34051511699E+03  0.17300000000E+03 0. -1.
<mgrwt>
<rscale>  2 0.21177875E+03</rscale>
<asrwt>0</asrwt>
<pdfrwt beam="1">  1       21 0.43857120E-01 0.21177875E+03</pdfrwt>
<pdfrwt beam="2">  1       21 0.53656577E-01 0.21177875E+03</pdfrwt>
<totfact> 0.16223379E+04</totfact>
</mgrwt>
</event>
<event>
 4    1  0.4137916E+000  0.2052189E+03  0.7546771E-02  0.1145409E+00
         21   -1    0    0  503  502  0.00000000000E+00  0.00000000000E+00  0.43969416036E+03  0.43969416036E+03  0.00000000000E+00 0. -1.
         21   -1    0    0  501  503 -0.00000000000E+00 -0.00000000000E+00 -0.13714504267E+03  0.13714504267E+03  0.00000000000E+00 0. -1.
          6    1    1    2  501    0 -0.20572146822E+02  0.10845539439E+03 -0.71202549734E+01  0.20534235761E+03  0.17300000000E+03 0. -1.
         -6    1    1    2    0  502  0.20572146822E+02 -0.10845539439E+03  0.30966937266E+03  0.37149684543E+03  0.17300000000E+03 0. -1.
<mgrwt>
<rscale>  2 0.20521887E+03</rscale>
<asrwt>0</asrwt>
<pdfrwt beam="1">  1       21 0.67645255E-01 0.20521887E+03</pdfrwt>
<pdfrwt beam="2">  1       21 0.21099238E-01 0.20521887E+03</pdfrwt>
<totfact> 0.41446655E+04</totfact>
</mgrwt>
</event>
<event>
 4    1  0.4137916E+000  0.1971218E+03  0.7546771E-02  0.1152190E+00
         21   -1    0    0  501  502  0.00000000000E+00  0.00000000000E+00  0.20839419920E+03  0.20839419920E+03  0.00000000000E+00 0.  1.
         21   -1    0    0  502  503 -0.00000000000E+00 -0.00000000000E+00 -0.21430849670E+03  0.21430849670E+03  0.00000000000E+00 0.  1.
          6    1    1    2  501    0 -0.87239831017E+02  0.36293369994E+02  0.73232004738E+02  0.21028533791E+03  0.17300000000E+03 0.  1.
         -6    1    1    2    0  503  0.87239831017E+02 -0.36293369994E+02 -0.79146302239E+02  0.21241735800E+03  0.17300000000E+03 0.  1.
<mgrwt>
<rscale>  2 0.19712178E+03</rscale>
<asrwt>0</asrwt>
<pdfrwt beam="1">  1       21 0.32060646E-01 0.19712178E+03</pdfrwt>
<pdfrwt beam="2">  1       21 0.32970538E-01 0.19712178E+03</pdfrwt>
<totfact> 0.82715312E+04</totfact>
</mgrwt>
</event>
<event>
 4    1  0.4137916E+000  0.1886815E+03  0.7546771E-02  0.1159656E+00
         21   -1    0    0  501  502  0.00000000000E+00  0.00000000000E+00  0.25376927245E+03  0.25376927245E+03  0.00000000000E+00 0. -1.
         21   -1    0    0  502  503 -0.00000000000E+00 -0.00000000000E+00 -0.25148786014E+03  0.25148786014E+03  0.00000000000E+00 0. -1.
          6    1    1    2  501    0  0.76531291375E+01 -0.74920930315E+02  0.16912805826E+03  0.25338708783E+03  0.17300000000E+03 0. -1.
         -6    1    1    2    0  503 -0.76531291375E+01  0.74920930315E+02 -0.16684664595E+03  0.25187004476E+03  0.17300000000E+03 0. -1.
<mgrwt>
<rscale>  2 0.18868152E+03</rscale>
<asrwt>0</asrwt>
<pdfrwt beam="1">  1       21 0.39041427E-01 0.18868152E+03</pdfrwt>
<pdfrwt beam="2">  1       21 0.38690440E-01 0.18868152E+03</pdfrwt>
<totfact> 0.40826001E+04</totfact>
</mgrwt>
</event>
<event>
 4    1  0.4137916E+000  0.1923209E+03  0.7546771E-02  0.1156385E+00
         21   -1    0    0  501  502  0.00000000000E+00  0.00000000000E+00  0.27470417146E+03  0.27470417146E+03  0.00000000000E+00 0. -1.
         21   -1    0    0  502  503 -0.00000000000E+00 -0.00000000000E+00 -0.24867125773E+03  0.24867125773E+03  0.00000000000E+00 0. -1.
          6    1    1    2  501    0  0.12598150613E+01  0.84004434446E+02  0.19022083083E+03  0.27050193460E+03  0.17300000000E+03 0. -1.
         -6    1    1    2    0  503 -0.12598150613E+01 -0.84004434446E+02 -0.16418791710E+03  0.25287349458E+03  0.17300000000E+03 0. -1.
<mgrwt>
<rscale>  2 0.19232091E+03</rscale>
<asrwt>0</asrwt>
<pdfrwt beam="1">  1       21 0.42262180E-01 0.19232091E+03</pdfrwt>
<pdfrwt beam="2">  1       21 0.38257117E-01 0.19232091E+03</pdfrwt>
<totfact> 0.35506066E+04</totfact>
</mgrwt>
</event>
<event>
 4    1  0.4137916E+000  0.2896974E+03  0.7546771E-02  0.1090507E+00
         21   -1    0    0  503  502  0.00000000000E+00  0.00000000000E+00  0.86175207956E+02  0.86175207956E+02  0.00000000000E+00 0. -1.
         21   -1    0    0  501  503 -0.00000000000E+00 -0.00000000000E+00 -0.24647795190E+04  0.24647795190E+04  0.00000000000E+00 0.  1.
          6    1    1    2  501    0  0.23220168391E+03 -0.88293565129E+01 -0.21812925147E+04  0.22004457763E+04  0.17300000000E+03 0.  1.
         -6    1    1    2    0  502 -0.23220168391E+03  0.88293565129E+01 -0.19731179635E+03  0.35050895071E+03  0.17300000000E+03 0. -1.
<mgrwt>
<rscale>  2 0.28969739E+03</rscale>
<asrwt>0</asrwt>
<pdfrwt beam="1">  1       21 0.13257726E-01 0.28969739E+03</pdfrwt>
<pdfrwt beam="2">  1       21 0.37919680E+00 0.28969739E+03</pdfrwt>
<totfact> 0.50681409E+02</totfact>
</mgrwt>
</event>
<event>
 4    1  0.4137916E+000  0.1941540E+03  0.7546771E-02  0.1154767E+00
         21   -1    0    0  503  502  0.00000000000E+00  0.00000000000E+00  0.90147472363E+02  0.90147472363E+02  0.00000000000E+00 0. -1.
         21   -1    0    0  501  503 -0.00000000000E+00 -0.00000000000E+00 -0.42033168398E+03  0.42033168398E+03  0.00000000000E+00 0.  1.
          6    1    1    2  501    0  0.70140729310E+02  0.53357922223E+02 -0.18345146826E+03  0.26711464015E+03  0.17300000000E+03 0. -1.
         -6    1    1    2    0  502 -0.70140729310E+02 -0.53357922223E+02 -0.14673274336E+03  0.24336451620E+03  0.17300000000E+03 0.  1.
<mgrwt>
<rscale>  2 0.19415404E+03</rscale>
<asrwt>0</asrwt>
<pdfrwt beam="1">  1       21 0.13868842E-01 0.19415404E+03</pdfrwt>
<pdfrwt beam="2">  1       21 0.64666411E-01 0.19415404E+03</pdfrwt>
<totfact> 0.99628796E+04</totfact>
</mgrwt>
</event>
<event>
 4    1  0.4137916E+000  0.1930253E+03  0.7546771E-02  0.1155761E+00
         21   -1    0    0  501  502  0.00000000000E+00  0.00000000000E+00  0.73490791341E+03  0.73490791341E+03  0.00000000000E+00 0. -1.
         21   -1    0    0  502  503 -0.00000000000E+00 -0.00000000000E+00 -0.63981045402E+02  0.63981045402E+02  0.00000000000E+00 0.  1.
          6    1    1    2  501    0 -0.81389506144E+02 -0.26561617632E+02  0.51746304882E+03  0.55229229411E+03  0.17300000000E+03 0. -1.
         -6    1    1    2    0  503  0.81389506144E+02  0.26561617632E+02  0.15346381919E+03  0.24659666470E+03  0.17300000000E+03 0.  1.
<mgrwt>
<rscale>  2 0.19302531E+03</rscale>
<asrwt>0</asrwt>
<pdfrwt beam="1">  1       21 0.11306275E+00 0.19302531E+03</pdfrwt>
<pdfrwt beam="2">  1       21 0.98432383E-02 0.19302531E+03</pdfrwt>
<totfact> 0.50977109E+04</totfact>
</mgrwt>
</event>
<event>
 4    1  0.4137916E+000  0.3063275E+03  0.7546771E-02  0.1082120E+00
         21   -1    0    0  503  502  0.00000000000E+00  0.00000000000E+00  0.14398915025E+03  0.14398915025E+03  0.00000000000E+00 0. -1.
         21   -1    0    0  501  503 -0.00000000000E+00 -0.00000000000E+00 -0.67700871628E+03  0.67700871628E+03  0.00000000000E+00 0.  1.
          6    1    1    2  501    0 -0.11280565042E+03  0.22623528480E+03 -0.34589178946E+03  0.46203641509E+03  0.17300000000E+03 0.  1.
         -6    1    1    2    0  502  0.11280565042E+03 -0.22623528480E+03 -0.18712777657E+03  0.35896145144E+03  0.17300000000E+03 0.  1.
<mgrwt>
<rscale>  2 0.30632747E+03</rscale>
<asrwt>0</asrwt>
<pdfrwt beam="1">  1       21 0.22152177E-01 0.30632747E+03</pdfrwt>
<pdfrwt beam="2">  1       21 0.10415519E+00 0.30632747E+03</pdfrwt>
<totfact> 0.13341614E+04</totfact>
</mgrwt>
</event>
<event>
 4    1  0.4137916E+000  0.1788213E+03  0.7546771E-02  0.1168949E+00
         21   -1    0    0  503  502  0.00000000000E+00  0.00000000000E+00  0.14526051774E+03  0.14526051774E+03  0.00000000000E+00 0. -1.
         21   -1    0    0  501  503 -0.00000000000E+00 -0.00000000000E+00 -0.24696051049E+03  0.24696051049E+03  0.00000000000E+00 0. -1.
          6    1    1    2  501    0  0.44972849448E+02 -0.50505450686E+01  0.13782845876E+02  0.17935169928E+03  0.17300000000E+03 0. -1.
         -6    1    1    2    0  502 -0.44972849448E+02  0.50505450686E+01 -0.11548283863E+03  0.21286932896E+03  0.17300000000E+03 0. -1.
<mgrwt>
<rscale>  2 0.17882132E+03</rscale>
<asrwt>0</asrwt>
<pdfrwt beam="1">  1       21 0.22347772E-01 0.17882132E+03</pdfrwt>
<pdfrwt beam="2">  1       21 0.37993925E-01 0.17882132E+03</pdfrwt>
<totfact> 0.12580003E+05</totfact>
</mgrwt>
</event>
<event>
 4    1  0.4137916E+000  0.2177777E+03  0.7546771E-02  0.1135551E+00
         21   -1    0    0  501  502  0.00000000000E+00  0.00000000000E+00  0.74045235637E+02  0.74045235637E+02  0.00000000000E+00 0. -1.
         21   -1    0    0  502  503 -0.00000000000E+00 -0.00000000000E+00 -0.66042694512E+03  0.66042694512E+03  0.00000000000E+00 0. -1.
          6    1    1    2  501    0 -0.13042992100E+03  0.22049227041E+02 -0.22942581299E+03  0.31632789376E+03  0.17300000000E+03 0. -1.
         -6    1    1    2    0  503  0.13042992100E+03 -0.22049227041E+02 -0.35695589649E+03  0.41814428700E+03  0.17300000000E+03 0. -1.
<mgrwt>
<rscale>  2 0.21777771E+03</rscale>
<asrwt>0</asrwt>
<pdfrwt beam="1">  1       21 0.11391575E-01 0.21777771E+03</pdfrwt>
<pdfrwt beam="2">  1       21 0.10160415E+00 0.21777771E+03</pdfrwt>
<totfact> 0.50263121E+04</totfact>
</mgrwt>
</event>
<event>
 4    1  0.4137916E+000  0.2093841E+03  0.7546771E-02  0.1142055E+00
         21   -1    0    0  501  502  0.00000000000E+00  0.00000000000E+00  0.66654836193E+02  0.66654836193E+02  0.00000000000E+00 0. -1.
         21   -1    0    0  502  503 -0.00000000000E+00 -0.00000000000E+00 -0.11907011137E+04  0.11907011137E+04  0.00000000000E+00 0. -1.
          6    1    1    2  501    0 -0.10347713547E+03  0.56614436881E+02 -0.14141889657E+03  0.25266779838E+03  0.17300000000E+03 0. -1.
         -6    1    1    2    0  503  0.10347713547E+03 -0.56614436881E+02 -0.98262738095E+03  0.10046881515E+04  0.17300000000E+03 0. -1.
<mgrwt>
<rscale>  2 0.20938413E+03</rscale>
<asrwt>0</asrwt>
<pdfrwt beam="1">  1       21 0.10254590E-01 0.20938413E+03</pdfrwt>
<pdfrwt beam="2">  1       21 0.18318478E+00 0.20938413E+03</pdfrwt>
<totfact> 0.13268546E+04</totfact>
</mgrwt>
</event>
<event>
 4    1  0.4137916E+000  0.2189688E+03  0.7546771E-02  0.1134654E+00
         21   -1    0    0  503  502  0.00000000000E+00  0.00000000000E+00  0.11712747996E+04  0.11712747996E+04  0.00000000000E+00 0. -1.
         21   -1    0    0  501  503 -0.00000000000E+00 -0.00000000000E+00 -0.66481994827E+02  0.66481994827E+02  0.00000000000E+00 0. -1.
          6    1    1    2  501    0 -0.39181088344E+02 -0.12838678369E+03  0.16876462284E+03  0.27645763117E+03  0.17300000000E+03 0. -1.
         -6    1    1    2    0  502  0.39181088344E+02  0.12838678369E+03  0.93602818193E+03  0.96129916326E+03  0.17300000000E+03 0. -1.
<mgrwt>
<rscale>  2 0.21896877E+03</rscale>
<asrwt>0</asrwt>
<pdfrwt beam="1">  1       21 0.18019611E+00 0.21896877E+03</pdfrwt>
<pdfrwt beam="2">  1       21 0.10228000E-01 0.21896877E+03</pdfrwt>
<totfact> 0.13871833E+04</totfact>
</mgrwt>
</event>
<event>
 4    1  0.4137916E+000  0.3031302E+03  0.7546771E-02  0.1083686E+00
         21   -1    0    0  503  502  0.00000000000E+00  0.00000000000E+00  0.43859072204E+03  0.43859072204E+03  0.00000000000E+00 0.  1.
         21   -1    0    0  501  503 -0.00000000000E+00 -0.00000000000E+00 -0.22261947142E+03  0.22261947142E+03  0.00000000000E+00 0.  1.
          6    1    1    2  501    0 -0.16006998536E+03 -0.19062135224E+03  0.18822129170E+03  0.35681249248E+03  0.17300000000E+03 0.  1.
         -6    1    1    2    0  502  0.16006998536E+03  0.19062135224E+03  0.27749958923E+02  0.30439770098E+03  0.17300000000E+03 0.  1.
<mgrwt>
<rscale>  2 0.30313017E+03</rscale>
<asrwt>0</asrwt>
<pdfrwt beam="1">  1       21 0.67475496E-01 0.30313017E+03</pdfrwt>
<pdfrwt beam="2">  1       21 0.34249150E-01 0.30313017E+03</pdfrwt>
<totfact> 0.15585804E+04</totfact>
</mgrwt>
</event>
<event>
 4    1  0.4137916E+000  0.1826743E+03  0.7546771E-02  0.1165240E+00
         21   -1    0    0  503  502  0.00000000000E+00  0.00000000000E+00  0.40216518341E+03  0.40216518341E+03  0.00000000000E+00 0.  1.
         21   -1    0    0  501  503 -0.00000000000E+00 -0.00000000000E+00 -0.89565292668E+02  0.89565292668E+02  0.00000000000E+00 0.  1.
          6    1    1    2  501    0 -0.21260970609E+02  0.54670512573E+02  0.89610035833E+02  0.20346953663E+03  0.17300000000E+03 0.  1.
         -6    1    1    2    0  502  0.21260970609E+02 -0.54670512573E+02  0.22298985491E+03  0.28826093944E+03  0.17300000000E+03 0.  1.
<mgrwt>
<rscale>  2 0.18267428E+03</rscale>
<asrwt>0</asrwt>
<pdfrwt beam="1">  1       21 0.61871566E-01 0.18267428E+03</pdfrwt>
<pdfrwt beam="2">  1       21 0.13779276E-01 0.18267428E+03</pdfrwt>
<totfact> 0.11139884E+05</totfact>
</mgrwt>
</event>
<event>
 4    1  0.4137916E+000  0.3102271E+03  0.7546771E-02  0.1080237E+00
         21   -1    0    0  503  502  0.00000000000E+00  0.00000000000E+00  0.17195696803E+03  0.17195696803E+03  0.00000000000E+00 0. -1.
         21   -1    0    0  501  503 -0.00000000000E+00 -0.00000000000E+00 -0.65306752170E+03  0.65306752170E+03  0.00000000000E+00 0.  1.
          6    1    1    2  501    0 -0.24833261154E+03  0.68137948161E+02 -0.39654728930E+03  0.50347851849E+03  0.17300000000E+03 0.  1.
         -6    1    1    2    0  502  0.24833261154E+03 -0.68137948161E+02 -0.84563264378E+02  0.32154597124E+03  0.17300000000E+03 0. -1.
<mgrwt>
<rscale>  2 0.31022712E+03</rscale>
<asrwt>0</asrwt>
<pdfrwt beam="1">  1       21 0.26454918E-01 0.31022712E+03</pdfrwt>
<pdfrwt beam="2">  1       21 0.10047193E+00 0.31022712E+03</pdfrwt>
<totfact> 0.10328504E+04</totfact>
</mgrwt>
</event>
<event>
 4    1  0.4137916E+000  0.2144297E+03  0.7546771E-02  0.1138105E+00
         21   -1    0    0  501  502  0.00000000000E+00  0.00000000000E+00  0.21429845265E+03  0.21429845265E+03  0.00000000000E+00 0. -1.
         21   -1    0    0  502  503 -0.00000000000E+00 -0.00000000000E+00 -0.33113524277E+03  0.33113524277E+03  0.00000000000E+00 0. -1.
          6    1    1    2  501    0 -0.81378386515E+00 -0.12669027413E+03  0.10339355394E+03  0.23805527677E+03  0.17300000000E+03 0. -1.
         -6    1    1    2    0  503  0.81378386515E+00  0.12669027413E+03 -0.22023034406E+03  0.30737841865E+03  0.17300000000E+03 0. -1.
<mgrwt>
<rscale>  2 0.21442968E+03</rscale>
<asrwt>0</asrwt>
<pdfrwt beam="1">  1       21 0.32968993E-01 0.21442968E+03</pdfrwt>
<pdfrwt beam="2">  1       21 0.50943883E-01 0.21442968E+03</pdfrwt>
<totfact> 0.32082108E+04</totfact>
</mgrwt>
</event>
<event>
 4    1  0.4137916E+000  0.1861283E+03  0.7546771E-02  0.1162000E+00
         21   -1    0    0  503  502  0.00000000000E+00  0.00000000000E+00  0.61411888644E+02  0.61411888644E+02  0.00000000000E+00 0.  1.
         21   -1    0    0  501  503 -0.00000000000E+00 -0.00000000000E+00 -0.65726283091E+03  0.65726283091E+03  0.00000000000E+00 0.  1.
          6    1    1    2  501    0 -0.26076765122E+02 -0.63519528783E+02 -0.43319672578E+03  0.47149033017E+03  0.17300000000E+03 0.  1.
         -6    1    1    2    0  502  0.26076765122E+02  0.63519528783E+02 -0.16265421649E+03  0.24718438939E+03  0.17300000000E+03 0.  1.
<mgrwt>
<rscale>  2 0.18612826E+03</rscale>
<asrwt>0</asrwt>
<pdfrwt beam="1">  1       21 0.94479827E-02 0.18612826E+03</pdfrwt>
<pdfrwt beam="2">  1       21 0.10111736E+00 0.18612826E+03</pdfrwt>
<totfact> 0.71922228E+04</totfact>
</mgrwt>
</event>
<event>
 4    1  0.4137916E+000  0.1833856E+03  0.7546771E-02  0.1164566E+00
         21   -1    0    0  501  502  0.00000000000E+00  0.00000000000E+00  0.44608851087E+03  0.44608851087E+03  0.00000000000E+00 0.  1.
         21   -1    0    0  502  503 -0.00000000000E+00 -0.00000000000E+00 -0.85021107326E+02  0.85021107326E+02  0.00000000000E+00 0.  1.
          6    1    1    2  501    0 -0.43090427728E+02 -0.42947446126E+02  0.26991493183E+03  0.32631938115E+03  0.17300000000E+03 0.  1.
         -6    1    1    2    0  503  0.43090427728E+02  0.42947446126E+02  0.91152471721E+02  0.20479023705E+03  0.17300000000E+03 0.  1.
<mgrwt>
<rscale>  2 0.18338557E+03</rscale>
<asrwt>0</asrwt>
<pdfrwt beam="1">  1       21 0.68629001E-01 0.18338557E+03</pdfrwt>
<pdfrwt beam="2">  1       21 0.13080171E-01 0.18338557E+03</pdfrwt>
<totfact> 0.97643840E+04</totfact>
</mgrwt>
</event>
<event>
 4    1  0.4137916E+000  0.1805591E+03  0.7546771E-02  0.1167263E+00
         21   -1    0    0  503  502  0.00000000000E+00  0.00000000000E+00  0.29735852976E+02  0.29735852976E+02  0.00000000000E+00 0. -1.
         21   -1    0    0  501  503 -0.00000000000E+00 -0.00000000000E+00 -0.18751533851E+04  0.18751533851E+04  0.00000000000E+00 0. -1.
          6    1    1    2  501    0  0.27605239081E+02  0.43709670178E+02 -0.15365115488E+04  0.15470841360E+04  0.17300000000E+03 0. -1.
         -6    1    1    2    0  502 -0.27605239081E+02 -0.43709670178E+02 -0.30890598338E+03  0.35780510206E+03  0.17300000000E+03 0. -1.
<mgrwt>
<rscale>  2 0.18055909E+03</rscale>
<asrwt>0</asrwt>
<pdfrwt beam="1">  1       21 0.45747441E-02 0.18055909E+03</pdfrwt>
<pdfrwt beam="2">  1       21 0.28848529E+00 0.18055909E+03</pdfrwt>
<totfact> 0.12590762E+04</totfact>
</mgrwt>
</event>
<event>
 4    1  0.4137916E+000  0.1737471E+03  0.7546771E-02  0.1173996E+00
         21   -1    0    0  503  502  0.00000000000E+00  0.00000000000E+00  0.18520974079E+03  0.18520974079E+03  0.00000000000E+00 0. -1.
         21   -1    0    0  501  503 -0.00000000000E+00 -0.00000000000E+00 -0.42386976888E+03  0.42386976888E+03  0.00000000000E+00 0. -1.
          6    1    1    2  501    0 -0.14512694508E+02 -0.69606560281E+01 -0.35824570694E+03  0.39815581821E+03  0.17300000000E+03 0. -1.
         -6    1    1    2    0  502  0.14512694508E+02  0.69606560281E+01  0.11958567884E+03  0.21092369146E+03  0.17300000000E+03 0. -1.
<mgrwt>
<rscale>  2 0.17374714E+03</rscale>
<asrwt>0</asrwt>
<pdfrwt beam="1">  1       21 0.28493806E-01 0.17374714E+03</pdfrwt>
<pdfrwt beam="2">  1       21 0.65210733E-01 0.17374714E+03</pdfrwt>
<totfact> 0.25767714E+04</totfact>
</mgrwt>
</event>
<event>
 4    1  0.4137916E+000  0.2057620E+03  0.7546771E-02  0.1144967E+00
         21   -1    0    0  501  502  0.00000000000E+00  0.00000000000E+00  0.44704972108E+03  0.44704972108E+03  0.00000000000E+00 0. -1.
         21   -1    0    0  502  503 -0.00000000000E+00 -0.00000000000E+00 -0.14544678129E+03  0.14544678129E+03  0.00000000000E+00 0. -1.
          6    1    1    2  501    0  0.63083590197E+02  0.91812062168E+02  0.32578015709E+03  0.38531896510E+03  0.17300000000E+03 0. -1.
         -6    1    1    2    0  503 -0.63083590197E+02 -0.91812062168E+02 -0.24177217299E+02  0.20717753727E+03  0.17300000000E+03 0. -1.
<mgrwt>
<rscale>  2 0.20576198E+03</rscale>
<asrwt>0</asrwt>
<pdfrwt beam="1">  1       21 0.68776879E-01 0.20576198E+03</pdfrwt>
<pdfrwt beam="2">  1       21 0.22376428E-01 0.20576198E+03</pdfrwt>
<totfact> 0.35760344E+04</totfact>
</mgrwt>
</event>
<event>
 4    1  0.4137916E+000  0.1894694E+03  0.7546771E-02  0.1158941E+00
         21   -1    0    0  501  502  0.00000000000E+00  0.00000000000E+00  0.80583951312E+02  0.80583951312E+02  0.00000000000E+00 0.  1.
         21   -1    0    0  502  503 -0.00000000000E+00 -0.00000000000E+00 -0.10739907189E+04  0.10739907189E+04  0.00000000000E+00 0.  1.
          6    1    1    2  501    0 -0.47756182479E+02  0.60737011020E+02 -0.55084448665E+02  0.19731430247E+03  0.17300000000E+03 0.  1.
         -6    1    1    2    0  503  0.47756182479E+02 -0.60737011020E+02 -0.93832231893E+03  0.95726036776E+03  0.17300000000E+03 0.  1.
<mgrwt>
<rscale>  2 0.18946936E+03</rscale>
<asrwt>0</asrwt>
<pdfrwt beam="1">  1       21 0.12397532E-01 0.18946936E+03</pdfrwt>
<pdfrwt beam="2">  1       21 0.16522933E+00 0.18946936E+03</pdfrwt>
<totfact> 0.12799707E+04</totfact>
</mgrwt>
</event>
<event>
 4    1  0.4137916E+000  0.1994104E+03  0.7546771E-02  0.1150237E+00
         21   -1    0    0  501  502  0.00000000000E+00  0.00000000000E+00  0.19378822526E+03  0.19378822526E+03  0.00000000000E+00 0. -1.
         21   -1    0    0  502  503 -0.00000000000E+00 -0.00000000000E+00 -0.43237592213E+03  0.43237592213E+03  0.00000000000E+00 0. -1.
          6    1    1    2  501    0  0.84118754367E+02 -0.52531355448E+02  0.10764702541E+03  0.22661065778E+03  0.17300000000E+03 0. -1.
         -6    1    1    2    0  503 -0.84118754367E+02  0.52531355448E+02 -0.34623472229E+03  0.39955348961E+03  0.17300000000E+03 0. -1.
<mgrwt>
<rscale>  2 0.19941040E+03</rscale>
<asrwt>0</asrwt>
<pdfrwt beam="1">  1       21 0.29813574E-01 0.19941040E+03</pdfrwt>
<pdfrwt beam="2">  1       21 0.66519372E-01 0.19941040E+03</pdfrwt>
<totfact> 0.22264409E+04</totfact>
</mgrwt>
</event>
<event>
 4    1  0.4137916E+000  0.1804186E+03  0.7546771E-02  0.1167399E+00
         21   -1    0    0  503  502  0.00000000000E+00  0.00000000000E+00  0.14068970016E+03  0.14068970016E+03  0.00000000000E+00 0.  1.
         21   -1    0    0  501  503 -0.00000000000E+00 -0.00000000000E+00 -0.73238483324E+03  0.73238483324E+03  0.00000000000E+00 0.  1.
          6    1    1    2  501    0 -0.59824943651E+00  0.51200853043E+02 -0.65690680133E+03  0.68123228849E+03  0.17300000000E+03 0.  1.
         -6    1    1    2    0  502  0.59824943651E+00 -0.51200853043E+02  0.65211668244E+02  0.19184224490E+03  0.17300000000E+03 0.  1.
<mgrwt>
<rscale>  2 0.18041864E+03</rscale>
<asrwt>0</asrwt>
<pdfrwt beam="1">  1       21 0.21644569E-01 0.18041864E+03</pdfrwt>
<pdfrwt beam="2">  1       21 0.11267459E+00 0.18041864E+03</pdfrwt>
<totfact> 0.12368577E+04</totfact>
</mgrwt>
</event>
<event>
 4    1  0.4137916E+000  0.1735692E+03  0.7546771E-02  0.1174176E+00
         21   -1    0    0  501  502  0.00000000000E+00  0.00000000000E+00  0.30269511519E+03  0.30269511519E+03  0.00000000000E+00 0. -1.
         21   -1    0    0  502  503 -0.00000000000E+00 -0.00000000000E+00 -0.21651078204E+03  0.21651078204E+03  0.00000000000E+00 0. -1.
          6    1    1    2  501    0  0.13970274686E+02  0.14524935807E+01  0.23391618792E+03  0.29127832271E+03  0.17300000000E+03 0. -1.
         -6    1    1    2    0  503 -0.13970274686E+02 -0.14524935807E+01 -0.14773185477E+03  0.22792757452E+03  0.17300000000E+03 0. -1.
<mgrwt>
<rscale>  2 0.17356923E+03</rscale>
<asrwt>0</asrwt>
<pdfrwt beam="1">  1       21 0.46568479E-01 0.17356923E+03</pdfrwt>
<pdfrwt beam="2">  1       21 0.33309351E-01 0.17356923E+03</pdfrwt>
<totfact> 0.38704674E+04</totfact>
</mgrwt>
</event>
<event>
 4    1  0.4137916E+000  0.1774329E+03  0.7546771E-02  0.1170311E+00
         21   -1    0    0  501  502  0.00000000000E+00  0.00000000000E+00  0.56760663621E+02  0.56760663621E+02  0.00000000000E+00 0. -1.
         21   -1    0    0  502  503 -0.00000000000E+00 -0.00000000000E+00 -0.62242286152E+03  0.62242286152E+03  0.00000000000E+00 0. -1.
          6    1    1    2  501    0 -0.28596506626E+02  0.27123553606E+02 -0.17077536359E+03  0.24626545060E+03  0.17300000000E+03 0. -1.
         -6    1    1    2    0  503  0.28596506626E+02 -0.27123553606E+02 -0.39488683430E+03  0.43291807453E+03  0.17300000000E+03 0. -1.
<mgrwt>
<rscale>  2 0.17743294E+03</rscale>
<asrwt>0</asrwt>
<pdfrwt beam="1">  1       21 0.87324097E-02 0.17743294E+03</pdfrwt>
<pdfrwt beam="2">  1       21 0.95757364E-01 0.17743294E+03</pdfrwt>
<totfact> 0.94239359E+04</totfact>
</mgrwt>
</event>
<event>
 4    1  0.4137916E+000  0.1799423E+03  0.7546771E-02  0.1167859E+00
         21   -1    0    0  503  502  0.00000000000E+00  0.00000000000E+00  0.37727380548E+03  0.37727380548E+03  0.00000000000E+00 0.  1.
         21   -1    0    0  501  503 -0.00000000000E+00 -0.00000000000E+00 -0.10392485112E+03  0.10392485112E+03  0.00000000000E+00 0.  1.
          6    1    1    2  501    0  0.24672465540E+01  0.49438365644E+02  0.36263482160E+02  0.18356001591E+03  0.17300000000E+03 0.  1.
         -6    1    1    2    0  502 -0.24672465540E+01 -0.49438365644E+02  0.23708547219E+03  0.29763864069E+03  0.17300000000E+03 0.  1.
<mgrwt>
<rscale>  2 0.17994232E+03</rscale>
<asrwt>0</asrwt>
<pdfrwt beam="1">  1       21 0.58042123E-01 0.17994232E+03</pdfrwt>
<pdfrwt beam="2">  1       21 0.15988439E-01 0.17994232E+03</pdfrwt>
<totfact> 0.97607611E+04</totfact>
</mgrwt>
</event>
<event>
 4    1  0.4137916E+000  0.1870792E+03  0.7546771E-02  0.1161122E+00
         21   -1    0    0  503  502  0.00000000000E+00  0.00000000000E+00  0.11108767369E+04  0.11108767369E+04  0.00000000000E+00 0. -1.
         21   -1    0    0  501  503 -0.00000000000E+00 -0.00000000000E+00 -0.31521196273E+02  0.31521196273E+02  0.00000000000E+00 0. -1.
          6    1    1    2  501    0  0.70333606773E+02 -0.11081983060E+02  0.52689480413E+03  0.55912141902E+03  0.17300000000E+03 0. -1.
         -6    1    1    2    0  502 -0.70333606773E+02  0.11081983060E+02  0.55246073650E+03  0.58327651415E+03  0.17300000000E+03 0. -1.
<mgrwt>
<rscale>  2 0.18707920E+03</rscale>
<asrwt>0</asrwt>
<pdfrwt beam="1">  1       21 0.17090408E+00 0.18707920E+03</pdfrwt>
<pdfrwt beam="2">  1       21 0.48494157E-02 0.18707920E+03</pdfrwt>
<totfact> 0.59762654E+04</totfact>
</mgrwt>
</event>
<event>
 4    1  0.4137916E+000  0.2766118E+03  0.7546771E-02  0.1097554E+00
         21   -1    0    0  501  502  0.00000000000E+00  0.00000000000E+00  0.17690273499E+03  0.17690273499E+03  0.00000000000E+00 0. -1.
         21   -1    0    0  502  503 -0.00000000000E+00 -0.00000000000E+00 -0.45442643076E+03  0.45442643076E+03  0.00000000000E+00 0.  1.
          6    1    1    2  501    0 -0.21172536078E+03 -0.41921971498E+02 -0.69455380824E+02  0.28519840465E+03  0.17300000000E+03 0. -1.
         -6    1    1    2    0  503  0.21172536078E+03  0.41921971498E+02 -0.20806831494E+03  0.34613076109E+03  0.17300000000E+03 0.  1.
<mgrwt>
<rscale>  2 0.27661179E+03</rscale>
<asrwt>0</asrwt>
<pdfrwt beam="1">  1       21 0.27215805E-01 0.27661179E+03</pdfrwt>
<pdfrwt beam="2">  1       21 0.69911759E-01 0.27661179E+03</pdfrwt>
<totfact> 0.22919915E+04</totfact>
</mgrwt>
</event>
<event>
 4    1  0.4137916E+000  0.2369642E+03  0.7546771E-02  0.1121832E+00
         21   -1    0    0  503  502  0.00000000000E+00  0.00000000000E+00  0.66976800633E+02  0.66976800633E+02  0.00000000000E+00 0.  1.
         21   -1    0    0  501  503 -0.00000000000E+00 -0.00000000000E+00 -0.92633927022E+03  0.92633927022E+03  0.00000000000E+00 0. -1.
          6    1    1    2  501    0 -0.11771084986E+03 -0.11120788870E+03 -0.58272378160E+03  0.62906203536E+03  0.17300000000E+03 0. -1.
         -6    1    1    2    0  502  0.11771084986E+03  0.11120788870E+03 -0.27663868798E+03  0.36425403549E+03  0.17300000000E+03 0. -1.
<mgrwt>
<rscale>  2 0.23696421E+03</rscale>
<asrwt>0</asrwt>
<pdfrwt beam="1">  1       21 0.10304124E-01 0.23696421E+03</pdfrwt>
<pdfrwt beam="2">  1       21 0.14251373E+00 0.23696421E+03</pdfrwt>
<totfact> 0.25613669E+04</totfact>
</mgrwt>
</event>
<event>
 4    1  0.4137916E+000  0.1762718E+03  0.7546771E-02  0.1171461E+00
         21   -1    0    0  501  502  0.00000000000E+00  0.00000000000E+00  0.81429527538E+03  0.81429527538E+03  0.00000000000E+00 0.  1.
         21   -1    0    0  502  503 -0.00000000000E+00 -0.00000000000E+00 -0.53798324863E+02  0.53798324863E+02  0.00000000000E+00 0.  1.
          6    1    1    2  501    0  0.21775174300E+02 -0.25856836865E+02  0.61428171111E+03  0.63907257399E+03  0.17300000000E+03 0.  1.
         -6    1    1    2    0  503 -0.21775174300E+02  0.25856836865E+02  0.14621523941E+03  0.22902102625E+03  0.17300000000E+03 0.  1.
<mgrwt>
<rscale>  2 0.17627176E+03</rscale>
<asrwt>0</asrwt>
<pdfrwt beam="1">  1       21 0.12527619E+00 0.17627176E+03</pdfrwt>
<pdfrwt beam="2">  1       21 0.82766659E-02 0.17627176E+03</pdfrwt>
<totfact> 0.54113105E+04</totfact>
</mgrwt>
</event>
<event>
 4    1  0.4137916E+000  0.1800039E+03  0.7546771E-02  0.1167799E+00
         21   -1    0    0  503  502  0.00000000000E+00  0.00000000000E+00  0.17878981635E+03  0.17878981635E+03  0.00000000000E+00 0.  1.
         21   -1    0    0  501  503 -0.00000000000E+00 -0.00000000000E+00 -0.23634311481E+03  0.23634311481E+03  0.00000000000E+00 0.  1.
          6    1    1    2  501    0  0.54188738139E+01  0.49426993808E+02  0.71460410581E+02  0.19366977614E+03  0.17300000000E+03 0.  1.
         -6    1    1    2    0  502 -0.54188738139E+01 -0.49426993808E+02 -0.12901370905E+03  0.22146315502E+03  0.17300000000E+03 0.  1.
<mgrwt>
<rscale>  2 0.18000387E+03</rscale>
<asrwt>0</asrwt>
<pdfrwt beam="1">  1       21 0.27506126E-01 0.18000387E+03</pdfrwt>
<pdfrwt beam="2">  1       21 0.36360479E-01 0.18000387E+03</pdfrwt>
<totfact> 0.92430673E+04</totfact>
</mgrwt>
</event>
<event>
 4    1  0.4137916E+000  0.3319699E+03  0.7546771E-02  0.1070269E+00
         21   -1    0    0  501  502  0.00000000000E+00  0.00000000000E+00  0.93966036575E+03  0.93966036575E+03  0.00000000000E+00 0.  1.
         21   -1    0    0  502  503 -0.00000000000E+00 -0.00000000000E+00 -0.12000462939E+03  0.12000462939E+03  0.00000000000E+00 0. -1.
          6    1    1    2  501    0  0.14754436934E+03 -0.24187951826E+03  0.33000338989E+03  0.46808789732E+03  0.17300000000E+03 0.  1.
         -6    1    1    2    0  503 -0.14754436934E+03  0.24187951826E+03  0.48965234647E+03  0.59157709783E+03  0.17300000000E+03 0.  1.
<mgrwt>
<rscale>  2 0.33196994E+03</rscale>
<asrwt>0</asrwt>
<pdfrwt beam="1">  1       21 0.14456313E+00 0.33196994E+03</pdfrwt>
<pdfrwt beam="2">  1       21 0.18462251E-01 0.33196994E+03</pdfrwt>
<totfact> 0.81178700E+03</totfact>
</mgrwt>
</event>
<event>
 4    1  0.4137916E+000  0.1960165E+03  0.7546771E-02  0.1153144E+00
         21   -1    0    0  503  502  0.00000000000E+00  0.00000000000E+00  0.12571252224E+04  0.12571252224E+04  0.00000000000E+00 0.  1.
         21   -1    0    0  501  503 -0.00000000000E+00 -0.00000000000E+00 -0.96512664182E+02  0.96512664182E+02  0.00000000000E+00 0.  1.
          6    1    1    2  501    0 -0.74127219907E+02  0.54759846763E+02  0.20826861792E+02  0.19711987145E+03  0.17300000000E+03 0.  1.
         -6    1    1    2    0  502  0.74127219907E+02 -0.54759846763E+02  0.11397856965E+04  0.11565180152E+04  0.17300000000E+03 0.  1.
<mgrwt>
<rscale>  2 0.19601654E+03</rscale>
<asrwt>0</asrwt>
<pdfrwt beam="1">  1       21 0.19340387E+00 0.19601654E+03</pdfrwt>
<pdfrwt beam="2">  1       21 0.14848103E-01 0.19601654E+03</pdfrwt>
<totfact> 0.59026829E+03</totfact>
</mgrwt>
</event>
<event>
 4    1  0.4137916E+000  0.1958258E+03  0.7546771E-02  0.1153309E+00
         21   -1    0    0  503  502  0.00000000000E+00  0.00000000000E+00  0.50615294882E+03  0.50615294882E+03  0.00000000000E+00 0. -1.
         21   -1    0    0  501  503 -0.00000000000E+00 -0.00000000000E+00 -0.10036761227E+03  0.10036761227E+03  0.00000000000E+00 0. -1.
          6    1    1    2  501    0 -0.91692957136E+02 -0.33363726425E+01  0.52742478781E+02  0.20280408980E+03  0.17300000000E+03 0. -1.
         -6    1    1    2    0  502  0.91692957136E+02  0.33363726425E+01  0.35304285777E+03  0.40371647129E+03  0.17300000000E+03 0. -1.
<mgrwt>
<rscale>  2 0.19582576E+03</rscale>
<asrwt>0</asrwt>
<pdfrwt beam="1">  1       21 0.77869683E-01 0.19582576E+03</pdfrwt>
<pdfrwt beam="2">  1       21 0.15441171E-01 0.19582576E+03</pdfrwt>
<totfact> 0.54303528E+04</totfact>
</mgrwt>
</event>
<event>
 4    1  0.4137916E+000  0.1736798E+03  0.7546771E-02  0.1174064E+00
         21   -1    0    0  503  502  0.00000000000E+00  0.00000000000E+00  0.31742286635E+03  0.31742286635E+03  0.00000000000E+00 0.  1.
         21   -1    0    0  501  503 -0.00000000000E+00 -0.00000000000E+00 -0.10401417564E+03  0.10401417564E+03  0.00000000000E+00 0.  1.
          6    1    1    2  501    0 -0.67576296418E+01 -0.13784001225E+02  0.44774798652E+02  0.17935843120E+03  0.17300000000E+03 0.  1.
         -6    1    1    2    0  502  0.67576296418E+01  0.13784001225E+02  0.16863389206E+03  0.24207861079E+03  0.17300000000E+03 0.  1.
<mgrwt>
<rscale>  2 0.17367978E+03</rscale>
<asrwt>0</asrwt>
<pdfrwt beam="1">  1       21 0.48834286E-01 0.17367978E+03</pdfrwt>
<pdfrwt beam="2">  1       21 0.16002181E-01 0.17367978E+03</pdfrwt>
<totfact> 0.14041201E+05</totfact>
</mgrwt>
</event>
<event>
 4    1  0.4137916E+000  0.1803813E+03  0.7546771E-02  0.1167435E+00
         21   -1    0    0  503  502  0.00000000000E+00  0.00000000000E+00  0.17592367198E+04  0.17592367198E+04  0.00000000000E+00 0. -1.
         21   -1    0    0  501  503 -0.00000000000E+00 -0.00000000000E+00 -0.42887839782E+02  0.42887839782E+02  0.00000000000E+00 0. -1.
          6    1    1    2  501    0 -0.40601132438E+02  0.30983323445E+02  0.17863102336E+03  0.25386307489E+03  0.17300000000E+03 0. -1.
         -6    1    1    2    0  502  0.40601132438E+02 -0.30983323445E+02  0.15377178567E+04  0.15482614847E+04  0.17300000000E+03 0. -1.
<mgrwt>
<rscale>  2 0.18038131E+03</rscale>
<asrwt>0</asrwt>
<pdfrwt beam="1">  1       21 0.27065175E+00 0.18038131E+03</pdfrwt>
<pdfrwt beam="2">  1       21 0.65981306E-02 0.18038131E+03</pdfrwt>
<totfact> 0.85508751E+03</totfact>
</mgrwt>
</event>
<event>
 4    1  0.4137916E+000  0.1908891E+03  0.7546771E-02  0.1157662E+00
         21   -1    0    0  503  502  0.00000000000E+00  0.00000000000E+00  0.54297173633E+03  0.54297173633E+03  0.00000000000E+00 0.  1.
         21   -1    0    0  501  503 -0.00000000000E+00 -0.00000000000E+00 -0.71707062409E+02  0.71707062409E+02  0.00000000000E+00 0.  1.
          6    1    1    2  501    0 -0.37770887223E+02 -0.71295278983E+02  0.15781205028E+03  0.24767579603E+03  0.17300000000E+03 0.  1.
         -6    1    1    2    0  502  0.37770887223E+02  0.71295278983E+02  0.31345262364E+03  0.36700300270E+03  0.17300000000E+03 0.  1.
<mgrwt>
<rscale>  2 0.19088912E+03</rscale>
<asrwt>0</asrwt>
<pdfrwt beam="1">  1       21 0.83534111E-01 0.19088912E+03</pdfrwt>
<pdfrwt beam="2">  1       21 0.11031856E-01 0.19088912E+03</pdfrwt>
<totfact> 0.85075321E+04</totfact>
</mgrwt>
</event>
<event>
 4    1  0.4137916E+000  0.1759372E+03  0.7546771E-02  0.1171794E+00
         21   -1    0    0  503  502  0.00000000000E+00  0.00000000000E+00  0.10600493504E+04  0.10600493504E+04  0.00000000000E+00 0.  1.
         21   -1    0    0  501  503 -0.00000000000E+00 -0.00000000000E+00 -0.32231789439E+02  0.32231789439E+02  0.00000000000E+00 0.  1.
          6    1    1    2  501    0 -0.82577695483E+01 -0.30930575598E+02  0.34642169481E+03  0.38853813442E+03  0.17300000000E+03 0.  1.
         -6    1    1    2    0  502  0.82577695483E+01  0.30930575598E+02  0.68139586611E+03  0.70374300538E+03  0.17300000000E+03 0.  1.
<mgrwt>
<rscale>  2 0.17593718E+03</rscale>
<asrwt>0</asrwt>
<pdfrwt beam="1">  1       21 0.16308449E+00 0.17593718E+03</pdfrwt>
<pdfrwt beam="2">  1       21 0.49587376E-02 0.17593718E+03</pdfrwt>
<totfact> 0.65812065E+04</totfact>
</mgrwt>
</event>
<event>
 4    1  0.4137916E+000  0.1889496E+03  0.7546771E-02  0.1159412E+00
         21   -1    0    0  503  502  0.00000000000E+00  0.00000000000E+00  0.53142475297E+03  0.53142475297E+03  0.00000000000E+00 0.  1.
         21   -1    0    0  501  503 -0.00000000000E+00 -0.00000000000E+00 -0.91118838029E+02  0.91118838029E+02  0.00000000000E+00 0. -1.
          6    1    1    2  501    0 -0.75959287475E+02  0.17678982194E+01  0.60611647503E+02  0.19843313894E+03  0.17300000000E+03 0. -1.
         -6    1    1    2    0  502  0.75959287475E+02 -0.17678982194E+01  0.37969426743E+03  0.42411045205E+03  0.17300000000E+03 0.  1.
<mgrwt>
<rscale>  2 0.18894957E+03</rscale>
<asrwt>0</asrwt>
<pdfrwt beam="1">  1       21 0.81757653E-01 0.18894957E+03</pdfrwt>
<pdfrwt beam="2">  1       21 0.14018283E-01 0.18894957E+03</pdfrwt>
<totfact> 0.58179572E+04</totfact>
</mgrwt>
</event>
<event>
 4    1  0.4137916E+000  0.1747529E+03  0.7546771E-02  0.1172980E+00
         21   -1    0    0  503  502  0.00000000000E+00  0.00000000000E+00  0.18423675793E+04  0.18423675793E+04  0.00000000000E+00 0. -1.
         21   -1    0    0  501  503 -0.00000000000E+00 -0.00000000000E+00 -0.36536497352E+02  0.36536497352E+02  0.00000000000E+00 0. -1.
          6    1    1    2  501    0 -0.91396405892E+00  0.24672322014E+02  0.20853115925E+03  0.27207315777E+03  0.17300000000E+03 0. -1.
         -6    1    1    2    0  502  0.91396405892E+00 -0.24672322014E+02  0.15972999227E+04  0.16068309189E+04  0.17300000000E+03 0. -1.
<mgrwt>
<rscale>  2 0.17475285E+03</rscale>
<asrwt>0</asrwt>
<pdfrwt beam="1">  1       21 0.28344109E+00 0.17475285E+03</pdfrwt>
<pdfrwt beam="2">  1       21 0.56210010E-02 0.17475285E+03</pdfrwt>
<totfact> 0.95558611E+03</totfact>
</mgrwt>
</event>
<event>
 4    1  0.4137916E+000  0.2040814E+03  0.7546771E-02  0.1146340E+00
         21   -1    0    0  501  502  0.00000000000E+00  0.00000000000E+00  0.10760832541E+03  0.10760832541E+03  0.00000000000E+00 0.  1.
         21   -1    0    0  502  503 -0.00000000000E+00 -0.00000000000E+00 -0.40914536664E+03  0.40914536664E+03  0.00000000000E+00 0.  1.
          6    1    1    2  501    0 -0.89930207534E+02  0.60272594289E+02 -0.21081918851E+03  0.29341771946E+03  0.17300000000E+03 0.  1.
         -6    1    1    2    0  503  0.89930207534E+02 -0.60272594289E+02 -0.90717852712E+02  0.22333597258E+03  0.17300000000E+03 0.  1.
<mgrwt>
<rscale>  2 0.20408142E+03</rscale>
<asrwt>0</asrwt>
<pdfrwt beam="1">  1       21 0.16555127E-01 0.20408142E+03</pdfrwt>
<pdfrwt beam="2">  1       21 0.62945441E-01 0.20408142E+03</pdfrwt>
<totfact> 0.76157906E+04</totfact>
</mgrwt>
</event>
<event>
 4    1  0.4137916E+000  0.2007046E+03  0.7546771E-02  0.1149146E+00
         21   -1    0    0  503  502  0.00000000000E+00  0.00000000000E+00  0.38814838015E+03  0.38814838015E+03  0.00000000000E+00 0.  1.
         21   -1    0    0  501  503 -0.00000000000E+00 -0.00000000000E+00 -0.13075700285E+03  0.13075700285E+03  0.00000000000E+00 0.  1.
          6    1    1    2  501    0 -0.27892566990E+02  0.97853613891E+02  0.24654216903E+03  0.31790779505E+03  0.17300000000E+03 0.  1.
         -6    1    1    2    0  502  0.27892566990E+02 -0.97853613891E+02  0.10849208272E+02  0.20099758796E+03  0.17300000000E+03 0.  1.
<mgrwt>
<rscale>  2 0.20070457E+03</rscale>
<asrwt>0</asrwt>
<pdfrwt beam="1">  1       21 0.59715135E-01 0.20070457E+03</pdfrwt>
<pdfrwt beam="2">  1       21 0.20116462E-01 0.20070457E+03</pdfrwt>
<totfact> 0.59548941E+04</totfact>
</mgrwt>
</event>
<event>
 4    1  0.4137916E+000  0.2196965E+03  0.7546771E-02  0.1134110E+00
         21   -1    0    0  503  502  0.00000000000E+00  0.00000000000E+00  0.66341070780E+03  0.66341070780E+03  0.00000000000E+00 0. -1.
         21   -1    0    0  501  503 -0.00000000000E+00 -0.00000000000E+00 -0.72775654363E+02  0.72775654363E+02  0.00000000000E+00 0.  1.
          6    1    1    2  501    0  0.12237096958E+03  0.57990590771E+02  0.28914287859E+03  0.36313932182E+03  0.17300000000E+03 0. -1.
         -6    1    1    2    0  502 -0.12237096958E+03 -0.57990590771E+02  0.30149217485E+03  0.37304704034E+03  0.17300000000E+03 0.  1.
<mgrwt>
<rscale>  2 0.21969652E+03</rscale>
<asrwt>0</asrwt>
<pdfrwt beam="1">  1       21 0.10206318E+00 0.21969652E+03</pdfrwt>
<pdfrwt beam="2">  1       21 0.11196255E-01 0.21969652E+03</pdfrwt>
<totfact> 0.51236655E+04</totfact>
</mgrwt>
</event>
<event>
 4    1  0.4137916E+000  0.1810196E+03  0.7546771E-02  0.1166820E+00
         21   -1    0    0  503  502  0.00000000000E+00  0.00000000000E+00  0.23151861796E+03  0.23151861796E+03  0.00000000000E+00 0.  1.
         21   -1    0    0  501  503 -0.00000000000E+00 -0.00000000000E+00 -0.14285059095E+03  0.14285059095E+03  0.00000000000E+00 0.  1.
          6    1    1    2  501    0 -0.70509022891E+01 -0.52814590909E+02  0.62294251013E+02  0.19143842338E+03  0.17300000000E+03 0.  1.
         -6    1    1    2    0  502  0.70509022891E+01  0.52814590909E+02  0.26373776002E+02  0.18293078554E+03  0.17300000000E+03 0.  1.
<mgrwt>
<rscale>  2 0.18101960E+03</rscale>
<asrwt>0</asrwt>
<pdfrwt beam="1">  1       21 0.35618249E-01 0.18101960E+03</pdfrwt>
<pdfrwt beam="2">  1       21 0.21977014E-01 0.18101960E+03</pdfrwt>
<totfact> 0.14755228E+05</totfact>
</mgrwt>
</event>
<event>
 4    1  0.4137916E+000  0.2026812E+03  0.7546771E-02  0.1147496E+00
         21   -1    0    0  503  502  0.00000000000E+00  0.00000000000E+00  0.27288591277E+02  0.27288591277E+02  0.00000000000E+00 0.  1.
         21   -1    0    0  501  503 -0.00000000000E+00 -0.00000000000E+00 -0.15359542895E+04  0.15359542895E+04  0.00000000000E+00 0.  1.
          6    1    1    2  501    0 -0.56384623881E+02 -0.89282931317E+02 -0.86461210005E+03  0.88805053415E+03  0.17300000000E+03 0.  1.
         -6    1    1    2    0  502  0.56384623881E+02  0.89282931317E+02 -0.64405359813E+03  0.67519234660E+03  0.17300000000E+03 0.  1.
<mgrwt>
<rscale>  2 0.20268120E+03</rscale>
<asrwt>0</asrwt>
<pdfrwt beam="1">  1       21 0.41982437E-02 0.20268120E+03</pdfrwt>
<pdfrwt beam="2">  1       21 0.23630072E+00 0.20268120E+03</pdfrwt>
<totfact> 0.28730956E+04</totfact>
</mgrwt>
</event>
<event>
 4    1  0.4137916E+000  0.2415393E+03  0.7546771E-02  0.1118772E+00
         21   -1    0    0  503  502  0.00000000000E+00  0.00000000000E+00  0.57961741271E+02  0.57961741271E+02  0.00000000000E+00 0. -1.
         21   -1    0    0  501  503 -0.00000000000E+00 -0.00000000000E+00 -0.12982048061E+04  0.12982048061E+04  0.00000000000E+00 0.  1.
          6    1    1    2  501    0 -0.11512864753E+03  0.12311633875E+03 -0.29871999428E+03  0.38415475180E+03  0.17300000000E+03 0. -1.
         -6    1    1    2    0  502  0.11512864753E+03 -0.12311633875E+03 -0.94152307058E+03  0.97201179560E+03  0.17300000000E+03 0.  1.
<mgrwt>
<rscale>  2 0.24153931E+03</rscale>
<asrwt>0</asrwt>
<pdfrwt beam="1">  1       21 0.89171905E-02 0.24153931E+03</pdfrwt>
<pdfrwt beam="2">  1       21 0.19972383E+00 0.24153931E+03</pdfrwt>
<totfact> 0.12906162E+04</totfact>
</mgrwt>
</event>
<event>
 4    1  0.4137916E+000  0.2414951E+03  0.7546771E-02  0.1118801E+00
         21   -1    0    0  503  502  0.00000000000E+00  0.00000000000E+00  0.71432667004E+02  0.71432667004E+02  0.00000000000E+00 0. -1.
         21   -1    0    0  501  503 -0.00000000000E+00 -0.00000000000E+00 -0.84852769535E+03  0.84852769535E+03  0.00000000000E+00 0. -1.
          6    1    1    2  501    0  0.76964574577E+02  0.14989109363E+03 -0.47800821527E+03  0.53554807399E+03  0.17300000000E+03 0. -1.
         -6    1    1    2    0  502 -0.76964574577E+02 -0.14989109363E+03 -0.29908681308E+03  0.38441228837E+03  0.17300000000E+03 0. -1.
<mgrwt>
<rscale>  2 0.24149510E+03</rscale>
<asrwt>0</asrwt>
<pdfrwt beam="1">  1       21 0.10989642E-01 0.24149510E+03</pdfrwt>
<pdfrwt beam="2">  1       21 0.13054272E+00 0.24149510E+03</pdfrwt>
<totfact> 0.28566721E+04</totfact>
</mgrwt>
</event>
<event>
 4    1  0.4137916E+000  0.2536468E+03  0.7546771E-02  0.1111022E+00
         21   -1    0    0  501  502  0.00000000000E+00  0.00000000000E+00  0.15991560330E+04  0.15991560330E+04  0.00000000000E+00 0. -1.
         21   -1    0    0  502  503 -0.00000000000E+00 -0.00000000000E+00 -0.60451626654E+02  0.60451626654E+02  0.00000000000E+00 0. -1.
          6    1    1    2  501    0  0.16219775687E+03  0.89997637480E+02  0.12492643647E+04  0.12747541488E+04  0.17300000000E+03 0. -1.
         -6    1    1    2    0  503 -0.16219775687E+03 -0.89997637480E+02  0.28944004170E+03  0.38485351086E+03  0.17300000000E+03 0. -1.
<mgrwt>
<rscale>  2 0.25364678E+03</rscale>
<asrwt>0</asrwt>
<pdfrwt beam="1">  1       21 0.24602397E+00 0.25364678E+03</pdfrwt>
<pdfrwt beam="2">  1       21 0.93002514E-02 0.25364678E+03</pdfrwt>
<totfact> 0.61312591E+03</totfact>
</mgrwt>
</event>
<event>
 4    1  0.4137916E+000  0.2545843E+03  0.7546771E-02  0.1110441E+00
         21   -1    0    0  501  502  0.00000000000E+00  0.00000000000E+00  0.74543549516E+03  0.74543549516E+03  0.00000000000E+00 0.  1.
         21   -1    0    0  502  503 -0.00000000000E+00 -0.00000000000E+00 -0.39406559950E+03  0.39406559950E+03  0.00000000000E+00 0. -1.
          6    1    1    2  501    0 -0.20910717173E+02 -0.18559880514E+03  0.67866845313E+03  0.72484760042E+03  0.17300000000E+03 0.  1.
         -6    1    1    2    0  503  0.20910717173E+02  0.18559880514E+03 -0.32729855747E+03  0.41465349424E+03  0.17300000000E+03 0. -1.
<mgrwt>
<rscale>  2 0.25458432E+03</rscale>
<asrwt>0</asrwt>
<pdfrwt beam="1">  1       21 0.11468238E+00 0.25458432E+03</pdfrwt>
<pdfrwt beam="2">  1       21 0.60625477E-01 0.25458432E+03</pdfrwt>
<totfact> 0.14186011E+03</totfact>
</mgrwt>
</event>
<event>
 4    1  0.4137916E+000  0.2190399E+03  0.7546771E-02  0.1134601E+00
         21   -1    0    0  503  502  0.00000000000E+00  0.00000000000E+00  0.48092072897E+03  0.48092072897E+03  0.00000000000E+00 0. -1.
         21   -1    0    0  501  503 -0.00000000000E+00 -0.00000000000E+00 -0.23964801986E+03  0.23964801986E+03  0.00000000000E+00 0. -1.
          6    1    1    2  501    0  0.63042753389E+02 -0.11863841276E+03 -0.15462353058E+03  0.26811732124E+03  0.17300000000E+03 0. -1.
         -6    1    1    2    0  502 -0.63042753389E+02  0.11863841276E+03  0.39589623969E+03  0.45245142760E+03  0.17300000000E+03 0. -1.
<mgrwt>
<rscale>  2 0.21903986E+03</rscale>
<asrwt>0</asrwt>
<pdfrwt beam="1">  1       21 0.73987804E-01 0.21903986E+03</pdfrwt>
<pdfrwt beam="2">  1       21 0.36868926E-01 0.21903986E+03</pdfrwt>
<totfact> 0.11428325E+04</totfact>
</mgrwt>
</event>
<event>
 4    1  0.4137916E+000  0.2122117E+03  0.7546771E-02  0.1139826E+00
         21   -1    0    0  501  502  0.00000000000E+00  0.00000000000E+00  0.54540954148E+03  0.54540954148E+03  0.00000000000E+00 0. -1.
         21   -1    0    0  502  503 -0.00000000000E+00 -0.00000000000E+00 -0.24536647709E+03  0.24536647709E+03  0.00000000000E+00 0. -1.
          6    1    1    2  501    0 -0.76098891663E+02 -0.96507901641E+02  0.47208389173E+03  0.51758769037E+03  0.17300000000E+03 0. -1.
         -6    1    1    2    0  503  0.76098891663E+02  0.96507901641E+02 -0.17204082734E+03  0.27318832820E+03  0.17300000000E+03 0. -1.
<mgrwt>
<rscale>  2 0.21221173E+03</rscale>
<asrwt>0</asrwt>
<pdfrwt beam="1">  1       21 0.83909160E-01 0.21221173E+03</pdfrwt>
<pdfrwt beam="2">  1       21 0.37748689E-01 0.21221173E+03</pdfrwt>
<totfact> 0.82379370E+03</totfact>
</mgrwt>
</event>
<event>
 4    1  0.4137916E+000  0.2100020E+03  0.7546771E-02  0.1141564E+00
         21   -1    0    0  503  502  0.00000000000E+00  0.00000000000E+00  0.35704778842E+02  0.35704778842E+02  0.00000000000E+00 0.  1.
         21   -1    0    0  501  503 -0.00000000000E+00 -0.00000000000E+00 -0.12351921263E+04  0.12351921263E+04  0.00000000000E+00 0.  1.
          6    1    1    2  501    0  0.35696355877E+02 -0.11356759017E+03 -0.59611977960E+03  0.63202817895E+03  0.17300000000E+03 0.  1.
         -6    1    1    2    0  502 -0.35696355877E+02  0.11356759017E+03 -0.60336756787E+03  0.63886872620E+03  0.17300000000E+03 0.  1.
<mgrwt>
<rscale>  2 0.21000197E+03</rscale>
<asrwt>0</asrwt>
<pdfrwt beam="1">  1       21 0.54930422E-02 0.21000197E+03</pdfrwt>
<pdfrwt beam="2">  1       21 0.19002958E+00 0.21000197E+03</pdfrwt>
<totfact> 0.35330919E+04</totfact>
</mgrwt>
</event>
<event>
 4    1  0.4137916E+000  0.1747879E+03  0.7546771E-02  0.1172945E+00
         21   -1    0    0  501  502  0.00000000000E+00  0.00000000000E+00  0.12832348409E+04  0.12832348409E+04  0.00000000000E+00 0.  1.
         21   -1    0    0  502  503 -0.00000000000E+00 -0.00000000000E+00 -0.32951736280E+02  0.32951736280E+02  0.00000000000E+00 0.  1.
          6    1    1    2  501    0 -0.86865843389E+01  0.23374201715E+02  0.27846985081E+03  0.32877996877E+03  0.17300000000E+03 0.  1.
         -6    1    1    2    0  503  0.86865843389E+01 -0.23374201715E+02  0.97181325382E+03  0.98740660842E+03  0.17300000000E+03 0.  1.
<mgrwt>
<rscale>  2 0.17478790E+03</rscale>
<asrwt>0</asrwt>
<pdfrwt beam="1">  1       21 0.19742071E+00 0.17478790E+03</pdfrwt>
<pdfrwt beam="2">  1       21 0.50694989E-02 0.17478790E+03</pdfrwt>
<totfact> 0.37116894E+04</totfact>
</mgrwt>
</event>
<event>
 4    1  0.4137916E+000  0.2682581E+03  0.7546771E-02  0.1102281E+00
         21   -1    0    0  501  502  0.00000000000E+00  0.00000000000E+00  0.11050271346E+03  0.11050271346E+03  0.00000000000E+00 0.  1.
         21   -1    0    0  502  503 -0.00000000000E+00 -0.00000000000E+00 -0.77392719425E+03  0.77392719425E+03  0.00000000000E+00 0.  1.
          6    1    1    2  501    0  0.15685841235E+03 -0.13201844099E+03 -0.15563439327E+03  0.31013625176E+03  0.17300000000E+03 0.  1.
         -6    1    1    2    0  503 -0.15685841235E+03  0.13201844099E+03 -0.50779008752E+03  0.57429365595E+03  0.17300000000E+03 0.  1.
<mgrwt>
<rscale>  2 0.26825814E+03</rscale>
<asrwt>0</asrwt>
<pdfrwt beam="1">  1       21 0.17000418E-01 0.26825814E+03</pdfrwt>
<pdfrwt beam="2">  1       21 0.11906572E+00 0.26825814E+03</pdfrwt>
<totfact> 0.16077533E+04</totfact>
</mgrwt>
</event>
<event>
 4    1  0.4137916E+000  0.2160702E+03  0.7546771E-02  0.1136847E+00
         21   -1    0    0  501  502  0.00000000000E+00  0.00000000000E+00  0.31112080468E+03  0.31112080468E+03  0.00000000000E+00 0. -1.
         21   -1    0    0  502  503 -0.00000000000E+00 -0.00000000000E+00 -0.26558162701E+03  0.26558162701E+03  0.00000000000E+00 0. -1.
          6    1    1    2  501    0 -0.10756970587E+03 -0.72014372566E+02  0.21294628595E+03  0.30336847591E+03  0.17300000000E+03 0. -1.
         -6    1    1    2    0  503  0.10756970587E+03  0.72014372566E+02 -0.16740710828E+03  0.27333395578E+03  0.17300000000E+03 0. -1.
<mgrwt>
<rscale>  2 0.21607015E+03</rscale>
<asrwt>0</asrwt>
<pdfrwt beam="1">  1       21 0.47864739E-01 0.21607015E+03</pdfrwt>
<pdfrwt beam="2">  1       21 0.40858712E-01 0.21607015E+03</pdfrwt>
<totfact> 0.23757122E+04</totfact>
</mgrwt>
</event>
<event>
 4    1  0.4137916E+000  0.1816028E+03  0.7546771E-02  0.1166261E+00
         21   -1    0    0  501  502  0.00000000000E+00  0.00000000000E+00  0.77219153863E+02  0.77219153863E+02  0.00000000000E+00 0.  1.
         21   -1    0    0  502  503 -0.00000000000E+00 -0.00000000000E+00 -0.84628998026E+03  0.84628998026E+03  0.00000000000E+00 0.  1.
          6    1    1    2  501    0 -0.31052004306E+02  0.45676453957E+02 -0.59551414037E+02  0.19111759817E+03  0.17300000000E+03 0.  1.
         -6    1    1    2    0  503  0.31052004306E+02 -0.45676453957E+02 -0.70951941236E+03  0.73239153595E+03  0.17300000000E+03 0.  1.
<mgrwt>
<rscale>  2 0.18160277E+03</rscale>
<asrwt>0</asrwt>
<pdfrwt beam="1">  1       21 0.11879870E-01 0.18160277E+03</pdfrwt>
<pdfrwt beam="2">  1       21 0.13019846E+00 0.18160277E+03</pdfrwt>
<totfact> 0.25902126E+04</totfact>
</mgrwt>
</event>
<event>
 4    1  0.4137916E+000  0.2471635E+03  0.7546771E-02  0.1115111E+00
         21   -1    0    0  501  502  0.00000000000E+00  0.00000000000E+00  0.19485008161E+04  0.19485008161E+04  0.00000000000E+00 0.  1.
         21   -1    0    0  502  503 -0.00000000000E+00 -0.00000000000E+00 -0.46302612802E+02  0.46302612802E+02  0.00000000000E+00 0. -1.
          6    1    1    2  501    0  0.17120671550E+03  0.43000412042E+02  0.15178523864E+04  0.15378444791E+04  0.17300000000E+03 0.  1.
         -6    1    1    2    0  503 -0.17120671550E+03 -0.43000412042E+02  0.38434581685E+03  0.45695894980E+03  0.17300000000E+03 0. -1.
<mgrwt>
<rscale>  2 0.24716346E+03</rscale>
<asrwt>0</asrwt>
<pdfrwt beam="1">  1       21 0.29976929E+00 0.24716346E+03</pdfrwt>
<pdfrwt beam="2">  1       21 0.71234804E-02 0.24716346E+03</pdfrwt>
<totfact> 0.47498487E+03</totfact>
</mgrwt>
</event>
<event>
 4    1  0.4137916E+000  0.2257325E+03  0.7546771E-02  0.1129680E+00
         21   -1    0    0  501  502  0.00000000000E+00  0.00000000000E+00  0.41220391984E+03  0.41220391984E+03  0.00000000000E+00 0. -1.
         21   -1    0    0  502  503 -0.00000000000E+00 -0.00000000000E+00 -0.21051274726E+03  0.21051274726E+03  0.00000000000E+00 0. -1.
          6    1    1    2  501    0 -0.91537882889E+02  0.11245874847E+03  0.30088801515E+03  0.37614990599E+03  0.17300000000E+03 0. -1.
         -6    1    1    2    0  503  0.91537882889E+02 -0.11245874847E+03 -0.99196842569E+02  0.24656676112E+03  0.17300000000E+03 0. -1.
<mgrwt>
<rscale>  2 0.22573248E+03</rscale>
<asrwt>0</asrwt>
<pdfrwt beam="1">  1       21 0.63415988E-01 0.22573248E+03</pdfrwt>
<pdfrwt beam="2">  1       21 0.32386577E-01 0.22573248E+03</pdfrwt>
<totfact> 0.20697049E+04</totfact>
</mgrwt>
</event>
<event>
 4    1  0.4137916E+000  0.1871916E+03  0.7546771E-02  0.1161019E+00
         21   -1    0    0  501  502  0.00000000000E+00  0.00000000000E+00  0.59382970083E+02  0.59382970083E+02  0.00000000000E+00 0.  1.
         21   -1    0    0  502  503 -0.00000000000E+00 -0.00000000000E+00 -0.60314285321E+03  0.60314285321E+03  0.00000000000E+00 0. -1.
          6    1    1    2  501    0 -0.62826249443E+02  0.34125606208E+02 -0.32063100431E+03  0.37127474401E+03  0.17300000000E+03 0.  1.
         -6    1    1    2    0  503  0.62826249443E+02 -0.34125606208E+02 -0.22312887882E+03  0.29125107928E+03  0.17300000000E+03 0.  1.
<mgrwt>
<rscale>  2 0.18719160E+03</rscale>
<asrwt>0</asrwt>
<pdfrwt beam="1">  1       21 0.91358420E-02 0.18719160E+03</pdfrwt>
<pdfrwt beam="2">  1       21 0.92791203E-01 0.18719160E+03</pdfrwt>
<totfact> 0.93326749E+04</totfact>
</mgrwt>
</event>
<event>
 4    1  0.4137916E+000  0.2322406E+03  0.7546771E-02  0.1125073E+00
         21   -1    0    0  501  502  0.00000000000E+00  0.00000000000E+00  0.14880461841E+03  0.14880461841E+03  0.00000000000E+00 0.  1.
         21   -1    0    0  502  503 -0.00000000000E+00 -0.00000000000E+00 -0.46577560658E+03  0.46577560658E+03  0.00000000000E+00 0. -1.
          6    1    1    2  501    0  0.13373612589E+03  0.78238949815E+02 -0.30321054429E+03  0.38193234847E+03  0.17300000000E+03 0.  1.
         -6    1    1    2    0  503 -0.13373612589E+03 -0.78238949815E+02 -0.13760443874E+02  0.23264787652E+03  0.17300000000E+03 0. -1.
<mgrwt>
<rscale>  2 0.23224057E+03</rscale>
<asrwt>0</asrwt>
<pdfrwt beam="1">  1       21 0.22893018E-01 0.23224057E+03</pdfrwt>
<pdfrwt beam="2">  1       21 0.71657786E-01 0.23224057E+03</pdfrwt>
<totfact> 0.30859606E+04</totfact>
</mgrwt>
</event>
<event>
 4    1  0.4137916E+000  0.1733421E+03  0.7546771E-02  0.1174407E+00
         21   -1    0    0  501  502  0.00000000000E+00  0.00000000000E+00  0.32991294317E+03  0.32991294317E+03  0.00000000000E+00 0. -1.
         21   -1    0    0  502  503 -0.00000000000E+00 -0.00000000000E+00 -0.98846269995E+02  0.98846269995E+02  0.00000000000E+00 0. -1.
          6    1    1    2  501    0 -0.26690654993E+01 -0.10553181063E+02  0.17563581511E+03  0.24677000039E+03  0.17300000000E+03 0.  1.
         -6    1    1    2    0  503  0.26690654993E+01  0.10553181063E+02  0.55430858061E+02  0.18198921278E+03  0.17300000000E+03 0.  1.
<mgrwt>
<rscale>  2 0.17334213E+03</rscale>
<asrwt>0</asrwt>
<pdfrwt beam="1">  1       21 0.50755837E-01 0.17334213E+03</pdfrwt>
<pdfrwt beam="2">  1       21 0.15207119E-01 0.17334213E+03</pdfrwt>
<totfact> 0.14221620E+05</totfact>
</mgrwt>
</event>
<event>
 4    1  0.4137916E+000  0.1964082E+03  0.7546771E-02  0.1152805E+00
         21   -1    0    0  503  502  0.00000000000E+00  0.00000000000E+00  0.56779551804E+03  0.56779551804E+03  0.00000000000E+00 0. -1.
         21   -1    0    0  501  503 -0.00000000000E+00 -0.00000000000E+00 -0.72948207750E+02  0.72948207750E+02  0.00000000000E+00 0.  1.
          6    1    1    2  501    0  0.90579297941E+02 -0.21037297208E+02  0.16348214120E+03  0.25554370973E+03  0.17300000000E+03 0.  1.
         -6    1    1    2    0  502 -0.90579297941E+02  0.21037297208E+02  0.33136516909E+03  0.38520001606E+03  0.17300000000E+03 0.  1.
<mgrwt>
<rscale>  2 0.19640819E+03</rscale>
<asrwt>0</asrwt>
<pdfrwt beam="1">  1       21 0.87353154E-01 0.19640819E+03</pdfrwt>
<pdfrwt beam="2">  1       21 0.11222802E-01 0.19640819E+03</pdfrwt>
<totfact> 0.74304179E+04</totfact>
</mgrwt>
</event>
<event>
 4    1  0.4137916E+000  0.1847213E+03  0.7546771E-02  0.1163310E+00
         21   -1    0    0  501  502  0.00000000000E+00  0.00000000000E+00  0.98746925909E+03  0.98746925909E+03  0.00000000000E+00 0. -1.
         21   -1    0    0  502  503 -0.00000000000E+00 -0.00000000000E+00 -0.46348963155E+02  0.46348963155E+02  0.00000000000E+00 0. -1.
          6    1    1    2  501    0  0.62636047159E+02 -0.16422440034E+02  0.73131032103E+03  0.75427896470E+03  0.17300000000E+03 0. -1.
         -6    1    1    2    0  503 -0.62636047159E+02  0.16422440034E+02  0.20980997490E+03  0.27953925754E+03  0.17300000000E+03 0. -1.
<mgrwt>
<rscale>  2 0.18472133E+03</rscale>
<asrwt>0</asrwt>
<pdfrwt beam="1">  1       21 0.15191833E+00 0.18472133E+03</pdfrwt>
<pdfrwt beam="2">  1       21 0.71306104E-02 0.18472133E+03</pdfrwt>
<totfact> 0.42544677E+04</totfact>
</mgrwt>
</event>
<event>
 4    1  0.4137916E+000  0.1839970E+03  0.7546771E-02  0.1163990E+00
         21   -1    0    0  503  502  0.00000000000E+00  0.00000000000E+00  0.13419437337E+03  0.13419437337E+03  0.00000000000E+00 0.  1.
         21   -1    0    0  501  503 -0.00000000000E+00 -0.00000000000E+00 -0.32710648189E+03  0.32710648189E+03  0.00000000000E+00 0. -1.
          6    1    1    2  501    0  0.38997169083E+02  0.49041924501E+02 -0.20676993173E+03  0.27678275636E+03  0.17300000000E+03 0. -1.
         -6    1    1    2    0  502 -0.38997169083E+02 -0.49041924501E+02  0.13857823201E+02  0.18451809889E+03  0.17300000000E+03 0.  1.
<mgrwt>
<rscale>  2 0.18399698E+03</rscale>
<asrwt>0</asrwt>
<pdfrwt beam="1">  1       21 0.20645289E-01 0.18399698E+03</pdfrwt>
<pdfrwt beam="2">  1       21 0.50324073E-01 0.18399698E+03</pdfrwt>
<totfact> 0.82059904E+04</totfact>
</mgrwt>
</event>
<event>
 4    1  0.4137916E+000  0.2147911E+03  0.7546771E-02  0.1137827E+00
         21   -1    0    0  501  502  0.00000000000E+00  0.00000000000E+00  0.15701184547E+04  0.15701184547E+04  0.00000000000E+00 0.  1.
         21   -1    0    0  502  503 -0.00000000000E+00 -0.00000000000E+00 -0.40610419788E+02  0.40610419788E+02  0.00000000000E+00 0.  1.
          6    1    1    2  501    0  0.71958811410E+02  0.10501499554E+03  0.34129790940E+03  0.40326106035E+03  0.17300000000E+03 0.  1.
         -6    1    1    2    0  503 -0.71958811410E+02 -0.10501499554E+03  0.11882101255E+04  0.12074678141E+04  0.17300000000E+03 0.  1.
<mgrwt>
<rscale>  2 0.21479111E+03</rscale>
<asrwt>0</asrwt>
<pdfrwt beam="1">  1       21 0.24155664E+00 0.21479111E+03</pdfrwt>
<pdfrwt beam="2">  1       21 0.62477581E-02 0.21479111E+03</pdfrwt>
<totfact> 0.13459503E+04</totfact>
</mgrwt>
</event>
<event>
 4    1  0.4137916E+000  0.2358175E+03  0.7546771E-02  0.1122611E+00
         21   -1    0    0  501  502  0.00000000000E+00  0.00000000000E+00  0.68285006895E+02  0.68285006895E+02  0.00000000000E+00 0. -1.
         21   -1    0    0  502  503 -0.00000000000E+00 -0.00000000000E+00 -0.81821890993E+03  0.81821890993E+03  0.00000000000E+00 0. -1.
          6    1    1    2  501    0 -0.97585577200E+02 -0.12711393936E+03 -0.34460305365E+03  0.41756575894E+03  0.17300000000E+03 0. -1.
         -6    1    1    2    0  503  0.97585577200E+02  0.12711393936E+03 -0.40533084939E+03  0.46893815789E+03  0.17300000000E+03 0. -1.
<mgrwt>
<rscale>  2 0.23581751E+03</rscale>
<asrwt>0</asrwt>
<pdfrwt beam="1">  1       21 0.10505386E-01 0.23581751E+03</pdfrwt>
<pdfrwt beam="2">  1       21 0.12587983E+00 0.23581751E+03</pdfrwt>
<totfact> 0.34043496E+04</totfact>
</mgrwt>
</event>
<event>
 4    1  0.4137916E+000  0.2179974E+03  0.7546771E-02  0.1135385E+00
         21   -1    0    0  503  502  0.00000000000E+00  0.00000000000E+00  0.58562628101E+02  0.58562628101E+02  0.00000000000E+00 0. -1.
         21   -1    0    0  501  503 -0.00000000000E+00 -0.00000000000E+00 -0.12122119319E+04  0.12122119319E+04  0.00000000000E+00 0. -1.
          6    1    1    2  501    0  0.88604404397E+02  0.98707335388E+02 -0.94214326445E+03  0.96703506104E+03  0.17300000000E+03 0. -1.
         -6    1    1    2    0  502 -0.88604404397E+02 -0.98707335388E+02 -0.21150603931E+03  0.30373949891E+03  0.17300000000E+03 0. -1.
<mgrwt>
<rscale>  2 0.21799743E+03</rscale>
<asrwt>0</asrwt>
<pdfrwt beam="1">  1       21 0.90096352E-02 0.21799743E+03</pdfrwt>
<pdfrwt beam="2">  1       21 0.18649414E+00 0.21799743E+03</pdfrwt>
<totfact> 0.15744814E+04</totfact>
</mgrwt>
</event>
<event>
 4    1  0.4137916E+000  0.1845493E+03  0.7546771E-02  0.1163471E+00
         21   -1    0    0  501  502  0.00000000000E+00  0.00000000000E+00  0.33939599288E+02  0.33939599288E+02  0.00000000000E+00 0.  1.
         21   -1    0    0  502  503 -0.00000000000E+00 -0.00000000000E+00 -0.14465033329E+04  0.14465033329E+04  0.00000000000E+00 0.  1.
          6    1    1    2  501    0 -0.53599722347E+02 -0.35447270539E+02 -0.29663964658E+03  0.34936158797E+03  0.17300000000E+03 0.  1.
         -6    1    1    2    0  503  0.53599722347E+02  0.35447270539E+02 -0.11159240871E+04  0.11310813442E+04  0.17300000000E+03 0.  1.
<mgrwt>
<rscale>  2 0.18454929E+03</rscale>
<asrwt>0</asrwt>
<pdfrwt beam="1">  1       21 0.52214770E-02 0.18454929E+03</pdfrwt>
<pdfrwt beam="2">  1       21 0.22253896E+00 0.18454929E+03</pdfrwt>
<totfact> 0.24413156E+04</totfact>
</mgrwt>
</event>
<event>
 4    1  0.4137916E+000  0.1810070E+03  0.7546771E-02  0.1166832E+00
         21   -1    0    0  503  502  0.00000000000E+00  0.00000000000E+00  0.81725655243E+03  0.81725655243E+03  0.00000000000E+00 0. -1.
         21   -1    0    0  501  503 -0.00000000000E+00 -0.00000000000E+00 -0.47572421560E+02  0.47572421560E+02  0.00000000000E+00 0. -1.
          6    1    1    2  501    0  0.34061159908E+02 -0.40918936329E+02  0.21334602211E+03  0.27978571642E+03  0.17300000000E+03 0. -1.
         -6    1    1    2    0  502 -0.34061159908E+02  0.40918936329E+02  0.55633810877E+03  0.58504325757E+03  0.17300000000E+03 0. -1.
<mgrwt>
<rscale>  2 0.18100697E+03</rscale>
<asrwt>0</asrwt>
<pdfrwt beam="1">  1       21 0.12573177E+00 0.18100697E+03</pdfrwt>
<pdfrwt beam="2">  1       21 0.73188347E-02 0.18100697E+03</pdfrwt>
<totfact> 0.66216149E+04</totfact>
</mgrwt>
</event>
<event>
 4    1  0.4137916E+000  0.2222640E+03  0.7546771E-02  0.1132206E+00
         21   -1    0    0  503  502  0.00000000000E+00  0.00000000000E+00  0.38230198611E+03  0.38230198611E+03  0.00000000000E+00 0. -1.
         21   -1    0    0  501  503 -0.00000000000E+00 -0.00000000000E+00 -0.16190841272E+03  0.16190841272E+03  0.00000000000E+00 0.  1.
          6    1    1    2  501    0 -0.11518497934E+02  0.13906692978E+03 -0.12066243433E+02  0.22259128685E+03  0.17300000000E+03 0. -1.
         -6    1    1    2    0  502  0.11518497934E+02 -0.13906692978E+03  0.23245981682E+03  0.32161911198E+03  0.17300000000E+03 0. -1.
<mgrwt>
<rscale>  2 0.22226400E+03</rscale>
<asrwt>0</asrwt>
<pdfrwt beam="1">  1       21 0.58815690E-01 0.22226400E+03</pdfrwt>
<pdfrwt beam="2">  1       21 0.24908987E-01 0.22226400E+03</pdfrwt>
<totfact> 0.40644112E+04</totfact>
</mgrwt>
</event>
<event>
 4    1  0.4137916E+000  0.2389248E+03  0.7546771E-02  0.1120511E+00
         21   -1    0    0  501  502  0.00000000000E+00  0.00000000000E+00  0.15275699749E+03  0.15275699749E+03  0.00000000000E+00 0.  1.
         21   -1    0    0  502  503 -0.00000000000E+00 -0.00000000000E+00 -0.39099054382E+03  0.39099054382E+03  0.00000000000E+00 0. -1.
          6    1    1    2  501    0 -0.43179687507E+02  0.15903326102E+03 -0.61941647820E+02  0.24682348199E+03  0.17300000000E+03 0. -1.
         -6    1    1    2    0  503  0.43179687507E+02 -0.15903326102E+03 -0.17629189851E+03  0.29692405932E+03  0.17300000000E+03 0.  1.
<mgrwt>
<rscale>  2 0.23892481E+03</rscale>
<asrwt>0</asrwt>
<pdfrwt beam="1">  1       21 0.23501076E-01 0.23892481E+03</pdfrwt>
<pdfrwt beam="2">  1       21 0.60152392E-01 0.23892481E+03</pdfrwt>
<totfact> 0.42954949E+04</totfact>
</mgrwt>
</event>
<event>
 4    1  0.4137916E+000  0.2560162E+03  0.7546771E-02  0.1109561E+00
         21   -1    0    0  503  502  0.00000000000E+00  0.00000000000E+00  0.47490475639E+03  0.47490475639E+03  0.00000000000E+00 0.  1.
         21   -1    0    0  501  503 -0.00000000000E+00 -0.00000000000E+00 -0.15807151093E+03  0.15807151093E+03  0.00000000000E+00 0.  1.
          6    1    1    2  501    0  0.35247175226E+02 -0.18539937011E+03  0.45683572624E+02  0.26006014421E+03  0.17300000000E+03 0.  1.
         -6    1    1    2    0  502 -0.35247175226E+02  0.18539937011E+03  0.27114967283E+03  0.37291612311E+03  0.17300000000E+03 0.  1.
<mgrwt>
<rscale>  2 0.25601619E+03</rscale>
<asrwt>0</asrwt>
<pdfrwt beam="1">  1       21 0.73062270E-01 0.25601619E+03</pdfrwt>
<pdfrwt beam="2">  1       21 0.24318694E-01 0.25601619E+03</pdfrwt>
<totfact> 0.26045011E+04</totfact>
</mgrwt>
</event>
<event>
 4    1  0.4137916E+000  0.1985932E+03  0.7546771E-02  0.1150931E+00
         21   -1    0    0  501  502  0.00000000000E+00  0.00000000000E+00  0.10426895653E+03  0.10426895653E+03  0.00000000000E+00 0.  1.
         21   -1    0    0  502  503 -0.00000000000E+00 -0.00000000000E+00 -0.49989227646E+03  0.49989227646E+03  0.00000000000E+00 0.  1.
          6    1    1    2  501    0 -0.85323819466E+02 -0.47224172334E+02 -0.48795034280E+02  0.20449995597E+03  0.17300000000E+03 0.  1.
         -6    1    1    2    0  503  0.85323819466E+02  0.47224172334E+02 -0.34682828565E+03  0.39966127702E+03  0.17300000000E+03 0.  1.
<mgrwt>
<rscale>  2 0.19859324E+03</rscale>
<asrwt>0</asrwt>
<pdfrwt beam="1">  1       21 0.16041378E-01 0.19859324E+03</pdfrwt>
<pdfrwt beam="2">  1       21 0.76906505E-01 0.19859324E+03</pdfrwt>
<totfact> 0.52009448E+04</totfact>
</mgrwt>
</event>
<event>
 4    1  0.4137916E+000  0.1842928E+03  0.7546771E-02  0.1163712E+00
         21   -1    0    0  503  502  0.00000000000E+00  0.00000000000E+00  0.12024654684E+04  0.12024654684E+04  0.00000000000E+00 0. -1.
         21   -1    0    0  501  503 -0.00000000000E+00 -0.00000000000E+00 -0.45687808700E+02  0.45687808700E+02  0.00000000000E+00 0. -1.
          6    1    1    2  501    0  0.13742879203E+02 -0.62015863868E+02  0.96399496157E+03  0.98145306563E+03  0.17300000000E+03 0. -1.
         -6    1    1    2    0  502 -0.13742879203E+02  0.62015863868E+02  0.19278269813E+03  0.26670021147E+03  0.17300000000E+03 0. -1.
<mgrwt>
<rscale>  2 0.18429279E+03</rscale>
<asrwt>0</asrwt>
<pdfrwt beam="1">  1       21 0.18499466E+00 0.18429279E+03</pdfrwt>
<pdfrwt beam="2">  1       21 0.70288946E-02 0.18429279E+03</pdfrwt>
<totfact> 0.25437980E+04</totfact>
</mgrwt>
</event>
<event>
 4    1  0.4137916E+000  0.1770722E+03  0.7546771E-02  0.1170667E+00
         21   -1    0    0  501  502  0.00000000000E+00  0.00000000000E+00  0.17786057647E+03  0.17786057647E+03  0.00000000000E+00 0. -1.
         21   -1    0    0  502  503 -0.00000000000E+00 -0.00000000000E+00 -0.17866920318E+03  0.17866920318E+03  0.00000000000E+00 0. -1.
          6    1    1    2  501    0 -0.65991118094E+01 -0.37175492869E+02 -0.20986929980E+02  0.17831157219E+03  0.17300000000E+03 0. -1.
         -6    1    1    2    0  503  0.65991118094E+01  0.37175492869E+02  0.20178303270E+02  0.17821820746E+03  0.17300000000E+03 0. -1.
<mgrwt>
<rscale>  2 0.17707220E+03</rscale>
<asrwt>0</asrwt>
<pdfrwt beam="1">  1       21 0.27363166E-01 0.17707220E+03</pdfrwt>
<pdfrwt beam="2">  1       21 0.27487570E-01 0.17707220E+03</pdfrwt>
<totfact> 0.16160363E+05</totfact>
</mgrwt>
</event>
<event>
 4    1  0.4137916E+000  0.2300291E+03  0.7546771E-02  0.1126619E+00
         21   -1    0    0  501  502  0.00000000000E+00  0.00000000000E+00  0.41398276781E+02  0.41398276781E+02  0.00000000000E+00 0.  1.
         21   -1    0    0  502  503 -0.00000000000E+00 -0.00000000000E+00 -0.17565688881E+04  0.17565688881E+04  0.00000000000E+00 0.  1.
          6    1    1    2  501    0  0.67261091951E+02 -0.13586884959E+03 -0.38842503459E+03  0.45142818507E+03  0.17300000000E+03 0.  1.
         -6    1    1    2    0  503 -0.67261091951E+02  0.13586884959E+03 -0.13267455767E+04  0.13465389798E+04  0.17300000000E+03 0.  1.
<mgrwt>
<rscale>  2 0.23002913E+03</rscale>
<asrwt>0</asrwt>
<pdfrwt beam="1">  1       21 0.63689666E-02 0.23002913E+03</pdfrwt>
<pdfrwt beam="2">  1       21 0.27024133E+00 0.23002913E+03</pdfrwt>
<totfact> 0.87036672E+03</totfact>
</mgrwt>
</event>
<event>
 4    1  0.4137916E+000  0.1872431E+03  0.7546771E-02  0.1160972E+00
         21   -1    0    0  503  502  0.00000000000E+00  0.00000000000E+00  0.35257018767E+03  0.35257018767E+03  0.00000000000E+00 0.  1.
         21   -1    0    0  501  503 -0.00000000000E+00 -0.00000000000E+00 -0.10305732307E+03  0.10305732307E+03  0.00000000000E+00 0.  1.
          6    1    1    2  501    0 -0.24777963427E+02  0.67208981524E+02  0.82082422026E+02  0.20444441463E+03  0.17300000000E+03 0.  1.
         -6    1    1    2    0  502  0.24777963427E+02 -0.67208981524E+02  0.16743044257E+03  0.25118309610E+03  0.17300000000E+03 0.  1.
<mgrwt>
<rscale>  2 0.18724314E+03</rscale>
<asrwt>0</asrwt>
<pdfrwt beam="1">  1       21 0.54241567E-01 0.18724314E+03</pdfrwt>
<pdfrwt beam="2">  1       21 0.15854973E-01 0.18724314E+03</pdfrwt>
<totfact> 0.11410427E+05</totfact>
</mgrwt>
</event>
<event>
 4    1  0.4137916E+000  0.1814682E+03  0.7546771E-02  0.1166390E+00
         21   -1    0    0  503  502  0.00000000000E+00  0.00000000000E+00  0.55095756514E+02  0.55095756514E+02  0.00000000000E+00 0. -1.
         21   -1    0    0  501  503 -0.00000000000E+00 -0.00000000000E+00 -0.68273279071E+03  0.68273279071E+03  0.00000000000E+00 0. -1.
          6    1    1    2  501    0 -0.25011441679E+02 -0.48745774187E+02 -0.44401336594E+03  0.47966508300E+03  0.17300000000E+03 0. -1.
         -6    1    1    2    0  502  0.25011441679E+02  0.48745774187E+02 -0.18362366825E+03  0.25816346422E+03  0.17300000000E+03 0. -1.
<mgrwt>
<rscale>  2 0.18146824E+03</rscale>
<asrwt>0</asrwt>
<pdfrwt beam="1">  1       21 0.84762707E-02 0.18146824E+03</pdfrwt>
<pdfrwt beam="2">  1       21 0.10503581E+00 0.18146824E+03</pdfrwt>
<totfact> 0.79594231E+04</totfact>
</mgrwt>
</event>
<event>
 4    1  0.4137916E+000  0.1755923E+03  0.7546771E-02  0.1172138E+00
         21   -1    0    0  501  502  0.00000000000E+00  0.00000000000E+00  0.14364490380E+04  0.14364490380E+04  0.00000000000E+00 0. -1.
         21   -1    0    0  502  503 -0.00000000000E+00 -0.00000000000E+00 -0.29681178082E+02  0.29681178082E+02  0.00000000000E+00 0. -1.
          6    1    1    2  501    0 -0.23499373101E+02 -0.18746398797E+02  0.10890845572E+04  0.11031490474E+04  0.17300000000E+03 0. -1.
         -6    1    1    2    0  503  0.23499373101E+02  0.18746398797E+02  0.31768330269E+03  0.36298116867E+03  0.17300000000E+03 0. -1.
<mgrwt>
<rscale>  2 0.17559228E+03</rscale>
<asrwt>0</asrwt>
<pdfrwt beam="1">  1       21 0.22099211E+00 0.17559228E+03</pdfrwt>
<pdfrwt beam="2">  1       21 0.45663362E-02 0.17559228E+03</pdfrwt>
<totfact> 0.31522005E+04</totfact>
</mgrwt>
</event>
<event>
 4    1  0.4137916E+000  0.2465247E+03  0.7546771E-02  0.1115521E+00
         21   -1    0    0  501  502  0.00000000000E+00  0.00000000000E+00  0.35880791977E+03  0.35880791977E+03  0.00000000000E+00 0. -1.
         21   -1    0    0  502  503 -0.00000000000E+00 -0.00000000000E+00 -0.39969719073E+03  0.39969719073E+03  0.00000000000E+00 0.  1.
          6    1    1    2  501    0 -0.16936419818E+03  0.46488632675E+02  0.26744587907E+03  0.36373303785E+03  0.17300000000E+03 0. -1.
         -6    1    1    2    0  503  0.16936419818E+03 -0.46488632675E+02 -0.30833515004E+03  0.39477207265E+03  0.17300000000E+03 0.  1.
<mgrwt>
<rscale>  2 0.24652469E+03</rscale>
<asrwt>0</asrwt>
<pdfrwt beam="1">  1       21 0.55201218E-01 0.24652469E+03</pdfrwt>
<pdfrwt beam="2">  1       21 0.61491876E-01 0.24652469E+03</pdfrwt>
<totfact> 0.73404780E+03</totfact>
</mgrwt>
</event>
<event>
 4    1  0.4137916E+000  0.2656167E+03  0.7546771E-02  0.1103815E+00
         21   -1    0    0  503  502  0.00000000000E+00  0.00000000000E+00  0.46539028721E+03  0.46539028721E+03  0.00000000000E+00 0.  1.
         21   -1    0    0  501  503 -0.00000000000E+00 -0.00000000000E+00 -0.18259548129E+03  0.18259548129E+03  0.00000000000E+00 0.  1.
          6    1    1    2  501    0  0.19324336141E+03  0.57273330979E+02  0.27488894397E+03  0.38225143909E+03  0.17300000000E+03 0.  1.
         -6    1    1    2    0  502 -0.19324336141E+03 -0.57273330979E+02  0.79058619533E+01  0.26573432941E+03  0.17300000000E+03 0.  1.
<mgrwt>
<rscale>  2 0.26561670E+03</rscale>
<asrwt>0</asrwt>
<pdfrwt beam="1">  1       21 0.71598505E-01 0.26561670E+03</pdfrwt>
<pdfrwt beam="2">  1       21 0.28091613E-01 0.26561670E+03</pdfrwt>
<totfact> 0.20533315E+04</totfact>
</mgrwt>
</event>
<event>
 4    1  0.4137916E+000  0.1958896E+03  0.7546771E-02  0.1153254E+00
         21   -1    0    0  503  502  0.00000000000E+00  0.00000000000E+00  0.70719941519E+02  0.70719941519E+02  0.00000000000E+00 0. -1.
         21   -1    0    0  501  503 -0.00000000000E+00 -0.00000000000E+00 -0.62471121733E+03  0.62471121733E+03  0.00000000000E+00 0. -1.
          6    1    1    2  501    0  0.59964386503E+02  0.69627768852E+02 -0.15093442082E+03  0.24729325351E+03  0.17300000000E+03 0. -1.
         -6    1    1    2    0  502 -0.59964386503E+02 -0.69627768852E+02 -0.40305685499E+03  0.44813790534E+03  0.17300000000E+03 0. -1.
<mgrwt>
<rscale>  2 0.19588965E+03</rscale>
<asrwt>0</asrwt>
<pdfrwt beam="1">  1       21 0.10879991E-01 0.19588965E+03</pdfrwt>
<pdfrwt beam="2">  1       21 0.96109417E-01 0.19588965E+03</pdfrwt>
<totfact> 0.62900738E+04</totfact>
</mgrwt>
</event>
<event>
 4    1  0.4137916E+000  0.1947832E+03  0.7546771E-02  0.1154217E+00
         21   -1    0    0  503  502  0.00000000000E+00  0.00000000000E+00  0.24661219852E+03  0.24661219852E+03  0.00000000000E+00 0.  1.
         21   -1    0    0  501  503 -0.00000000000E+00 -0.00000000000E+00 -0.40061687649E+03  0.40061687649E+03  0.00000000000E+00 0.  1.
          6    1    1    2  501    0  0.84265851384E+00 -0.89503059949E+02 -0.33098824277E+03  0.38404911752E+03  0.17300000000E+03 0.  1.
         -6    1    1    2    0  502 -0.84265851384E+00  0.89503059949E+02  0.17698356480E+03  0.26317995749E+03  0.17300000000E+03 0.  1.
<mgrwt>
<rscale>  2 0.19478323E+03</rscale>
<asrwt>0</asrwt>
<pdfrwt beam="1">  1       21 0.37940339E-01 0.19478323E+03</pdfrwt>
<pdfrwt beam="2">  1       21 0.61633365E-01 0.19478323E+03</pdfrwt>
<totfact> 0.16363992E+04</totfact>
</mgrwt>
</event>
<event>
 4    1  0.4137916E+000  0.1848573E+03  0.7546771E-02  0.1163183E+00
         21   -1    0    0  503  502  0.00000000000E+00  0.00000000000E+00  0.55897487571E+02  0.55897487571E+02  0.00000000000E+00 0. -1.
         21   -1    0    0  501  503 -0.00000000000E+00 -0.00000000000E+00 -0.66081192737E+03  0.66081192737E+03  0.00000000000E+00 0. -1.
          6    1    1    2  501    0 -0.63624666834E+02 -0.13968913760E+02 -0.40051107774E+03  0.44111376330E+03  0.17300000000E+03 0. -1.
         -6    1    1    2    0  502  0.63624666834E+02  0.13968913760E+02 -0.20440336206E+03  0.27559565164E+03  0.17300000000E+03 0. -1.
<mgrwt>
<rscale>  2 0.18485732E+03</rscale>
<asrwt>0</asrwt>
<pdfrwt beam="1">  1       21 0.85996144E-02 0.18485732E+03</pdfrwt>
<pdfrwt beam="2">  1       21 0.10166336E+00 0.18485732E+03</pdfrwt>
<totfact> 0.83782381E+04</totfact>
</mgrwt>
</event>
<event>
 4    1  0.4137916E+000  0.1775303E+03  0.7546771E-02  0.1170215E+00
         21   -1    0    0  501  502  0.00000000000E+00  0.00000000000E+00  0.11914016409E+03  0.11914016409E+03  0.00000000000E+00 0.  1.
         21   -1    0    0  502  503 -0.00000000000E+00 -0.00000000000E+00 -0.41925478187E+03  0.41925478187E+03  0.00000000000E+00 0.  1.
          6    1    1    2  501    0 -0.36535430894E+02  0.15911216123E+02  0.13474338425E+02  0.17804090065E+03  0.17300000000E+03 0.  1.
         -6    1    1    2    0  503  0.36535430894E+02 -0.15911216123E+02 -0.31358895621E+03  0.36035404530E+03  0.17300000000E+03 0.  1.
<mgrwt>
<rscale>  2 0.17753029E+03</rscale>
<asrwt>0</asrwt>
<pdfrwt beam="1">  1       21 0.18329256E-01 0.17753029E+03</pdfrwt>
<pdfrwt beam="2">  1       21 0.64500737E-01 0.17753029E+03</pdfrwt>
<totfact> 0.60586615E+04</totfact>
</mgrwt>
</event>
<event>
 4    1  0.4137916E+000  0.2294460E+03  0.7546771E-02  0.1127030E+00
         21   -1    0    0  501  502  0.00000000000E+00  0.00000000000E+00  0.10383497330E+04  0.10383497330E+04  0.00000000000E+00 0.  1.
         21   -1    0    0  502  503 -0.00000000000E+00 -0.00000000000E+00 -0.15977185357E+03  0.15977185357E+03  0.00000000000E+00 0. -1.
          6    1    1    2  501    0 -0.16355470782E+02  0.14982973815E+03  0.93425447414E+03  0.96201708629E+03  0.17300000000E+03 0.  1.
         -6    1    1    2    0  503  0.16355470782E+02 -0.14982973815E+03 -0.55676594709E+02  0.23610450029E+03  0.17300000000E+03 0. -1.
<mgrwt>
<rscale>  2 0.22944597E+03</rscale>
<asrwt>0</asrwt>
<pdfrwt beam="1">  1       21 0.15974611E+00 0.22944597E+03</pdfrwt>
<pdfrwt beam="2">  1       21 0.24580286E-01 0.22944597E+03</pdfrwt>
<totfact> 0.38343608E+03</totfact>
</mgrwt>
</event>
<event>
 4    1  0.4137916E+000  0.2806640E+03  0.7546771E-02  0.1095327E+00
         21   -1    0    0  501  502  0.00000000000E+00  0.00000000000E+00  0.39195144098E+03  0.39195144098E+03  0.00000000000E+00 0.  1.
         21   -1    0    0  502  503 -0.00000000000E+00 -0.00000000000E+00 -0.20176123115E+03  0.20176123115E+03  0.00000000000E+00 0. -1.
          6    1    1    2  501    0  0.35950843950E+01 -0.22097595568E+03  0.76559639735E+02  0.29091867602E+03  0.17300000000E+03 0.  1.
         -6    1    1    2    0  503 -0.35950843950E+01  0.22097595568E+03  0.11363057009E+03  0.30279399611E+03  0.17300000000E+03 0. -1.
<mgrwt>
<rscale>  2 0.28066403E+03</rscale>
<asrwt>0</asrwt>
<pdfrwt beam="1">  1       21 0.60300221E-01 0.28066403E+03</pdfrwt>
<pdfrwt beam="2">  1       21 0.31040190E-01 0.28066403E+03</pdfrwt>
<totfact> 0.24474151E+04</totfact>
</mgrwt>
</event>
<event>
 4    1  0.4137916E+000  0.2559880E+03  0.7546771E-02  0.1109578E+00
         21   -1    0    0  501  502  0.00000000000E+00  0.00000000000E+00  0.30597966732E+03  0.30597966732E+03  0.00000000000E+00 0. -1.
         21   -1    0    0  502  503 -0.00000000000E+00 -0.00000000000E+00 -0.21535895331E+03  0.21535895331E+03  0.00000000000E+00 0. -1.
          6    1    1    2  501    0  0.48479126304E+01  0.18861959759E+03  0.64726762366E+02  0.26404433078E+03  0.17300000000E+03 0. -1.
         -6    1    1    2    0  503 -0.48479126304E+01 -0.18861959759E+03  0.25893951640E+02  0.25729428984E+03  0.17300000000E+03 0. -1.
<mgrwt>
<rscale>  2 0.25598800E+03</rscale>
<asrwt>0</asrwt>
<pdfrwt beam="1">  1       21 0.47073795E-01 0.25598800E+03</pdfrwt>
<pdfrwt beam="2">  1       21 0.33132147E-01 0.25598800E+03</pdfrwt>
<totfact> 0.36764131E+04</totfact>
</mgrwt>
</event>
<event>
 4    1  0.4137916E+000  0.1925449E+03  0.7546771E-02  0.1156186E+00
         21   -1    0    0  501  502  0.00000000000E+00  0.00000000000E+00  0.18405295978E+03  0.18405295978E+03  0.00000000000E+00 0. -1.
         21   -1    0    0  502  503 -0.00000000000E+00 -0.00000000000E+00 -0.20594473234E+03  0.20594473234E+03  0.00000000000E+00 0. -1.
          6    1    1    2  501    0 -0.83622222249E+02  0.12323853857E+02  0.17929906095E+02  0.19337795883E+03  0.17300000000E+03 0. -1.
         -6    1    1    2    0  503  0.83622222249E+02 -0.12323853857E+02 -0.39821678660E+02  0.19661973329E+03  0.17300000000E+03 0. -1.
<mgrwt>
<rscale>  2 0.19254494E+03</rscale>
<asrwt>0</asrwt>
<pdfrwt beam="1">  1       21 0.28315840E-01 0.19254494E+03</pdfrwt>
<pdfrwt beam="2">  1       21 0.31683805E-01 0.19254494E+03</pdfrwt>
<totfact> 0.11418910E+05</totfact>
</mgrwt>
</event>
<event>
 4    1  0.4137916E+000  0.1837402E+03  0.7546771E-02  0.1164232E+00
         21   -1    0    0  503  502  0.00000000000E+00  0.00000000000E+00  0.14855099101E+03  0.14855099101E+03  0.00000000000E+00 0. -1.
         21   -1    0    0  501  503 -0.00000000000E+00 -0.00000000000E+00 -0.43392736553E+03  0.43392736553E+03  0.00000000000E+00 0.  1.
          6    1    1    2  501    0  0.11474054798E+02 -0.60826124279E+02 -0.34367694251E+03  0.38971054918E+03  0.17300000000E+03 0.  1.
         -6    1    1    2    0  502 -0.11474054798E+02  0.60826124279E+02  0.58300567984E+02  0.19276780736E+03  0.17300000000E+03 0. -1.
<mgrwt>
<rscale>  2 0.18374023E+03</rscale>
<asrwt>0</asrwt>
<pdfrwt beam="1">  1       21 0.22853999E-01 0.18374023E+03</pdfrwt>
<pdfrwt beam="2">  1       21 0.66758056E-01 0.18374023E+03</pdfrwt>
<totfact> 0.37106928E+04</totfact>
</mgrwt>
</event>
<event>
 4    1  0.4137916E+000  0.2227612E+03  0.7546771E-02  0.1131841E+00
         21   -1    0    0  501  502  0.00000000000E+00  0.00000000000E+00  0.44326676073E+02  0.44326676073E+02  0.00000000000E+00 0. -1.
         21   -1    0    0  502  503 -0.00000000000E+00 -0.00000000000E+00 -0.16033016179E+04  0.16033016179E+04  0.00000000000E+00 0.  1.
          6    1    1    2  501    0  0.13905155625E+03  0.18926430034E+02 -0.32693689383E+03  0.39561379854E+03  0.17300000000E+03 0. -1.
         -6    1    1    2    0  503 -0.13905155625E+03 -0.18926430034E+02 -0.12320380480E+04  0.12520144954E+04  0.17300000000E+03 0.  1.
<mgrwt>
<rscale>  2 0.22276118E+03</rscale>
<asrwt>0</asrwt>
<pdfrwt beam="1">  1       21 0.68194897E-02 0.22276118E+03</pdfrwt>
<pdfrwt beam="2">  1       21 0.24666175E+00 0.22276118E+03</pdfrwt>
<totfact> 0.10718017E+04</totfact>
</mgrwt>
</event>
<event>
 4    1  0.4137916E+000  0.1750012E+03  0.7546771E-02  0.1172730E+00
         21   -1    0    0  503  502  0.00000000000E+00  0.00000000000E+00  0.23201111656E+02  0.23201111656E+02  0.00000000000E+00 0. -1.
         21   -1    0    0  501  503 -0.00000000000E+00 -0.00000000000E+00 -0.15513480888E+04  0.15513480888E+04  0.00000000000E+00 0. -1.
          6    1    1    2  501    0  0.23433431255E+02 -0.12137045501E+02 -0.46005083976E+03  0.49221154876E+03  0.17300000000E+03 0. -1.
         -6    1    1    2    0  502 -0.23433431255E+02  0.12137045501E+02 -0.10680961374E+04  0.10823376517E+04  0.17300000000E+03 0. -1.
<mgrwt>
<rscale>  2 0.17500124E+03</rscale>
<asrwt>0</asrwt>
<pdfrwt beam="1">  1       21 0.35694020E-02 0.17500124E+03</pdfrwt>
<pdfrwt beam="2">  1       21 0.23866892E+00 0.17500124E+03</pdfrwt>
<totfact> 0.37304080E+04</totfact>
</mgrwt>
</event>
<event>
 4    1  0.4137916E+000  0.1743206E+03  0.7546771E-02  0.1173416E+00
         21   -1    0    0  503  502  0.00000000000E+00  0.00000000000E+00  0.88142157166E+02  0.88142157166E+02  0.00000000000E+00 0. -1.
         21   -1    0    0  501  503 -0.00000000000E+00 -0.00000000000E+00 -0.36297895232E+03  0.36297895232E+03  0.00000000000E+00 0. -1.
          6    1    1    2  501    0 -0.21360042406E+02 -0.15523042282E+01 -0.86880740767E+02  0.19477146654E+03  0.17300000000E+03 0. -1.
         -6    1    1    2    0  502  0.21360042406E+02  0.15523042282E+01 -0.18795605438E+03  0.25634964295E+03  0.17300000000E+03 0. -1.
<mgrwt>
<rscale>  2 0.17432057E+03</rscale>
<asrwt>0</asrwt>
<pdfrwt beam="1">  1       21 0.13560332E-01 0.17432057E+03</pdfrwt>
<pdfrwt beam="2">  1       21 0.55842915E-01 0.17432057E+03</pdfrwt>
<totfact> 0.14315708E+05</totfact>
</mgrwt>
</event>
<event>
 4    1  0.4137916E+000  0.2122468E+03  0.7546771E-02  0.1139799E+00
         21   -1    0    0  501  502  0.00000000000E+00  0.00000000000E+00  0.35123996849E+03  0.35123996849E+03  0.00000000000E+00 0. -1.
         21   -1    0    0  502  503 -0.00000000000E+00 -0.00000000000E+00 -0.20983297045E+03  0.20983297045E+03  0.00000000000E+00 0. -1.
          6    1    1    2  501    0 -0.12293581778E+02  0.12234619281E+03  0.24562192867E+03  0.32462109434E+03  0.17300000000E+03 0. -1.
         -6    1    1    2    0  503  0.12293581778E+02 -0.12234619281E+03 -0.10421493063E+03  0.23645184460E+03  0.17300000000E+03 0. -1.
<mgrwt>
<rscale>  2 0.21224684E+03</rscale>
<asrwt>0</asrwt>
<pdfrwt beam="1">  1       21 0.54036918E-01 0.21224684E+03</pdfrwt>
<pdfrwt beam="2">  1       21 0.32281995E-01 0.21224684E+03</pdfrwt>
<totfact> 0.29572980E+04</totfact>
</mgrwt>
</event>
<event>
 4    1  0.4137916E+000  0.1786057E+03  0.7546771E-02  0.1169159E+00
         21   -1    0    0  501  502  0.00000000000E+00  0.00000000000E+00  0.19380624138E+02  0.19380624138E+02  0.00000000000E+00 0.  1.
         21   -1    0    0  502  503 -0.00000000000E+00 -0.00000000000E+00 -0.16473895355E+04  0.16473895355E+04  0.00000000000E+00 0.  1.
          6    1    1    2  501    0  0.17634428520E+02  0.40743374499E+02 -0.78957185557E+03  0.80952066727E+03  0.17300000000E+03 0. -1.
         -6    1    1    2    0  503 -0.17634428520E+02 -0.40743374499E+02 -0.83843705580E+03  0.85724949238E+03  0.17300000000E+03 0. -1.
<mgrwt>
<rscale>  2 0.17860570E+03</rscale>
<asrwt>0</asrwt>
<pdfrwt beam="1">  1       21 0.29816338E-02 0.17860570E+03</pdfrwt>
<pdfrwt beam="2">  1       21 0.25344460E+00 0.17860570E+03</pdfrwt>
<totfact> 0.41039090E+04</totfact>
</mgrwt>
</event>
<event>
 4    1  0.4137916E+000  0.1811995E+03  0.7546771E-02  0.1166647E+00
         21   -1    0    0  501  502  0.00000000000E+00  0.00000000000E+00  0.60037126829E+02  0.60037126829E+02  0.00000000000E+00 0.  1.
         21   -1    0    0  502  503 -0.00000000000E+00 -0.00000000000E+00 -0.67463016406E+03  0.67463016406E+03  0.00000000000E+00 0.  1.
          6    1    1    2  501    0 -0.52192712921E+02  0.13422477966E+02 -0.14744945990E+03  0.23361204040E+03  0.17300000000E+03 0.  1.
         -6    1    1    2    0  503  0.52192712921E+02 -0.13422477966E+02 -0.46714357733E+03  0.50105525049E+03  0.17300000000E+03 0.  1.
<mgrwt>
<rscale>  2 0.18119945E+03</rscale>
<asrwt>0</asrwt>
<pdfrwt beam="1">  1       21 0.92364813E-02 0.18119945E+03</pdfrwt>
<pdfrwt beam="2">  1       21 0.10378925E+00 0.18119945E+03</pdfrwt>
<totfact> 0.70483302E+04</totfact>
</mgrwt>
</event>
<event>
 4    1  0.4137916E+000  0.1830330E+03  0.7546771E-02  0.1164900E+00
         21   -1    0    0  503  502  0.00000000000E+00  0.00000000000E+00  0.70641603529E+03  0.70641603529E+03  0.00000000000E+00 0. -1.
         21   -1    0    0  501  503 -0.00000000000E+00 -0.00000000000E+00 -0.10285243543E+03  0.10285243543E+03  0.00000000000E+00 0. -1.
          6    1    1    2  501    0  0.59748020647E+02  0.14994087987E+01  0.47372119106E+01  0.18309428002E+03  0.17300000000E+03 0. -1.
         -6    1    1    2    0  502 -0.59748020647E+02 -0.14994087987E+01  0.59882638795E+03  0.62617419070E+03  0.17300000000E+03 0. -1.
<mgrwt>
<rscale>  2 0.18303299E+03</rscale>
<asrwt>0</asrwt>
<pdfrwt beam="1">  1       21 0.10867939E+00 0.18303299E+03</pdfrwt>
<pdfrwt beam="2">  1       21 0.15823452E-01 0.18303299E+03</pdfrwt>
<totfact> 0.24066609E+04</totfact>
</mgrwt>
</event>
<event>
 4    1  0.4137916E+000  0.2024140E+03  0.7546771E-02  0.1147718E+00
         21   -1    0    0  501  502  0.00000000000E+00  0.00000000000E+00  0.68061963331E+02  0.68061963331E+02  0.00000000000E+00 0.  1.
         21   -1    0    0  502  503 -0.00000000000E+00 -0.00000000000E+00 -0.63135111991E+03  0.63135111991E+03  0.00000000000E+00 0.  1.
          6    1    1    2  501    0  0.98886491518E+02  0.35551193370E+02 -0.20620756582E+03  0.28895152838E+03  0.17300000000E+03 0.  1.
         -6    1    1    2    0  503 -0.98886491518E+02 -0.35551193370E+02 -0.35708159077E+03  0.41046155486E+03  0.17300000000E+03 0.  1.
<mgrwt>
<rscale>  2 0.20241400E+03</rscale>
<asrwt>0</asrwt>
<pdfrwt beam="1">  1       21 0.10471071E-01 0.20241400E+03</pdfrwt>
<pdfrwt beam="2">  1       21 0.97130946E-01 0.20241400E+03</pdfrwt>
<totfact> 0.65466780E+04</totfact>
</mgrwt>
</event>
<event>
 4    1  0.4137916E+000  0.2383751E+03  0.7546771E-02  0.1120880E+00
         21   -1    0    0  503  502  0.00000000000E+00  0.00000000000E+00  0.18828037126E+03  0.18828037126E+03  0.00000000000E+00 0. -1.
         21   -1    0    0  501  503 -0.00000000000E+00 -0.00000000000E+00 -0.34276233093E+03  0.34276233093E+03  0.00000000000E+00 0.  1.
          6    1    1    2  501    0 -0.16255689449E+03 -0.21654641050E+02 -0.16903302620E+03  0.29222394044E+03  0.17300000000E+03 0.  1.
         -6    1    1    2    0  502  0.16255689449E+03  0.21654641050E+02  0.14551066523E+02  0.23881876174E+03  0.17300000000E+03 0. -1.
<mgrwt>
<rscale>  2 0.23837506E+03</rscale>
<asrwt>0</asrwt>
<pdfrwt beam="1">  1       21 0.28966211E-01 0.23837506E+03</pdfrwt>
<pdfrwt beam="2">  1       21 0.52732666E-01 0.23837506E+03</pdfrwt>
<totfact> 0.38031606E+04</totfact>
</mgrwt>
</event>
<event>
 4    1  0.4137916E+000  0.2181986E+03  0.7546771E-02  0.1135233E+00
         21   -1    0    0  501  502  0.00000000000E+00  0.00000000000E+00  0.49432778329E+03  0.49432778329E+03  0.00000000000E+00 0. -1.
         21   -1    0    0  502  503 -0.00000000000E+00 -0.00000000000E+00 -0.18111937825E+03  0.18111937825E+03  0.00000000000E+00 0. -1.
          6    1    1    2  501    0  0.12359916520E+02 -0.13239660757E+03  0.38769939902E+03  0.44488364010E+03  0.17300000000E+03 0. -1.
         -6    1    1    2    0  503 -0.12359916520E+02  0.13239660757E+03 -0.74490993975E+02  0.23056352143E+03  0.17300000000E+03 0. -1.
<mgrwt>
<rscale>  2 0.21819860E+03</rscale>
<asrwt>0</asrwt>
<pdfrwt beam="1">  1       21 0.76050427E-01 0.21819860E+03</pdfrwt>
<pdfrwt beam="2">  1       21 0.27864520E-01 0.21819860E+03</pdfrwt>
<totfact> 0.18666888E+04</totfact>
</mgrwt>
</event>
<event>
 4    1  0.4137916E+000  0.2188502E+03  0.7546771E-02  0.1134743E+00
         21   -1    0    0  503  502  0.00000000000E+00  0.00000000000E+00  0.32380031889E+03  0.32380031889E+03  0.00000000000E+00 0.  1.
         21   -1    0    0  501  503 -0.00000000000E+00 -0.00000000000E+00 -0.16058426903E+03  0.16058426903E+03  0.00000000000E+00 0.  1.
          6    1    1    2  501    0 -0.10365978838E+03 -0.84976803010E+02  0.13584529111E+02  0.21927140308E+03  0.17300000000E+03 0.  1.
         -6    1    1    2    0  502  0.10365978838E+03  0.84976803010E+02  0.14963152075E+03  0.26511318484E+03  0.17300000000E+03 0.  1.
<mgrwt>
<rscale>  2 0.21885020E+03</rscale>
<asrwt>0</asrwt>
<pdfrwt beam="1">  1       21 0.49815433E-01 0.21885020E+03</pdfrwt>
<pdfrwt beam="2">  1       21 0.24705272E-01 0.21885020E+03</pdfrwt>
<totfact> 0.58785611E+04</totfact>
</mgrwt>
</event>
<event>
 4    1  0.4137916E+000  0.1950591E+03  0.7546771E-02  0.1153976E+00
         21   -1    0    0  501  502  0.00000000000E+00  0.00000000000E+00  0.47697267704E+03  0.47697267704E+03  0.00000000000E+00 0.  1.
         21   -1    0    0  502  503 -0.00000000000E+00 -0.00000000000E+00 -0.17299077899E+03  0.17299077899E+03  0.00000000000E+00 0.  1.
          6    1    1    2  501    0  0.75113647255E+02 -0.49769496054E+02  0.39055448502E+03  0.43655568776E+03  0.17300000000E+03 0.  1.
         -6    1    1    2    0  503 -0.75113647255E+02  0.49769496054E+02 -0.86572586982E+02  0.21340776827E+03  0.17300000000E+03 0.  1.
<mgrwt>
<rscale>  2 0.19505913E+03</rscale>
<asrwt>0</asrwt>
<pdfrwt beam="1">  1       21 0.73380411E-01 0.19505913E+03</pdfrwt>
<pdfrwt beam="2">  1       21 0.26613966E-01 0.19505913E+03</pdfrwt>
<totfact> 0.22396399E+04</totfact>
</mgrwt>
</event>
<event>
 4    1  0.4137916E+000  0.2307032E+03  0.7546771E-02  0.1126146E+00
         21   -1    0    0  503  502  0.00000000000E+00  0.00000000000E+00  0.27917764292E+03  0.27917764292E+03  0.00000000000E+00 0. -1.
         21   -1    0    0  501  503 -0.00000000000E+00 -0.00000000000E+00 -0.23763532334E+03  0.23763532334E+03  0.00000000000E+00 0. -1.
          6    1    1    2  501    0  0.11601783745E+03  0.99170803479E+02 -0.94136608589E+02  0.24916999808E+03  0.17300000000E+03 0. -1.
         -6    1    1    2    0  502 -0.11601783745E+03 -0.99170803479E+02  0.13567892816E+03  0.26764296818E+03  0.17300000000E+03 0. -1.
<mgrwt>
<rscale>  2 0.23070324E+03</rscale>
<asrwt>0</asrwt>
<pdfrwt beam="1">  1       21 0.42950407E-01 0.23070324E+03</pdfrwt>
<pdfrwt beam="2">  1       21 0.36559280E-01 0.23070324E+03</pdfrwt>
<totfact> 0.36909472E+04</totfact>
</mgrwt>
</event>
<event>
 4    1  0.4137916E+000  0.1973833E+03  0.7546771E-02  0.1151966E+00
         21   -1    0    0  501  502  0.00000000000E+00  0.00000000000E+00  0.29913930163E+03  0.29913930163E+03  0.00000000000E+00 0. -1.
         21   -1    0    0  502  503 -0.00000000000E+00 -0.00000000000E+00 -0.13049942542E+03  0.13049942542E+03  0.00000000000E+00 0. -1.
          6    1    1    2  501    0  0.43845761309E+02  0.84313255066E+02  0.93881081044E+02  0.21857226069E+03  0.17300000000E+03 0. -1.
         -6    1    1    2    0  503 -0.43845761309E+02 -0.84313255066E+02  0.74758795165E+02  0.21106646635E+03  0.17300000000E+03 0. -1.
<mgrwt>
<rscale>  2 0.19738332E+03</rscale>
<asrwt>0</asrwt>
<pdfrwt beam="1">  1       21 0.46021431E-01 0.19738332E+03</pdfrwt>
<pdfrwt beam="2">  1       21 0.20076835E-01 0.19738332E+03</pdfrwt>
<totfact> 0.10350814E+05</totfact>
</mgrwt>
</event>
<event>
 4    1  0.4137916E+000  0.2233731E+03  0.7546771E-02  0.1131393E+00
         21   -1    0    0  503  502  0.00000000000E+00  0.00000000000E+00  0.79241257684E+03  0.79241257684E+03  0.00000000000E+00 0. -1.
         21   -1    0    0  501  503 -0.00000000000E+00 -0.00000000000E+00 -0.91780583671E+02  0.91780583671E+02  0.00000000000E+00 0.  1.
          6    1    1    2  501    0  0.14129035064E+03  0.18941932611E+01  0.10260621334E+03  0.24581209524E+03  0.17300000000E+03 0.  1.
         -6    1    1    2    0  502 -0.14129035064E+03 -0.18941932611E+01  0.59802577982E+03  0.63838106526E+03  0.17300000000E+03 0.  1.
<mgrwt>
<rscale>  2 0.22337312E+03</rscale>
<asrwt>0</asrwt>
<pdfrwt beam="1">  1       21 0.12190962E+00 0.22337312E+03</pdfrwt>
<pdfrwt beam="2">  1       21 0.14120090E-01 0.22337312E+03</pdfrwt>
<totfact> 0.21821048E+04</totfact>
</mgrwt>
</event>
<event>
 4    1  0.4137916E+000  0.2382457E+03  0.7546771E-02  0.1120967E+00
         21   -1    0    0  501  502  0.00000000000E+00  0.00000000000E+00  0.14946495831E+03  0.14946495831E+03  0.00000000000E+00 0.  1.
         21   -1    0    0  502  503 -0.00000000000E+00 -0.00000000000E+00 -0.38223589234E+03  0.38223589234E+03  0.00000000000E+00 0.  1.
          6    1    1    2  501    0 -0.16243674229E+03  0.21125951471E+02 -0.94994674988E+02  0.25648584629E+03  0.17300000000E+03 0.  1.
         -6    1    1    2    0  503  0.16243674229E+03 -0.21125951471E+02 -0.13777625905E+03  0.27521500436E+03  0.17300000000E+03 0.  1.
<mgrwt>
<rscale>  2 0.23824567E+03</rscale>
<asrwt>0</asrwt>
<pdfrwt beam="1">  1       21 0.22994609E-01 0.23824567E+03</pdfrwt>
<pdfrwt beam="2">  1       21 0.58805522E-01 0.23824567E+03</pdfrwt>
<totfact> 0.47028742E+04</totfact>
</mgrwt>
</event>
<event>
 4    1  0.4137916E+000  0.2420809E+03  0.7546771E-02  0.1118414E+00
         21   -1    0    0  501  502  0.00000000000E+00  0.00000000000E+00  0.90997723803E+03  0.90997723803E+03  0.00000000000E+00 0. -1.
         21   -1    0    0  502  503 -0.00000000000E+00 -0.00000000000E+00 -0.93237770049E+02  0.93237770049E+02  0.00000000000E+00 0. -1.
          6    1    1    2  501    0 -0.15499264865E+02  0.16862363175E+03  0.68733091556E+03  0.72871595555E+03  0.17300000000E+03 0. -1.
         -6    1    1    2    0  503  0.15499264865E+02 -0.16862363175E+03  0.12940855242E+03  0.27449905252E+03  0.17300000000E+03 0. -1.
<mgrwt>
<rscale>  2 0.24208089E+03</rscale>
<asrwt>0</asrwt>
<pdfrwt beam="1">  1       21 0.13999649E+00 0.24208089E+03</pdfrwt>
<pdfrwt beam="2">  1       21 0.14344273E-01 0.24208089E+03</pdfrwt>
<totfact> 0.14750198E+04</totfact>
</mgrwt>
</event>
<event>
 4    1  0.4137916E+000  0.2181107E+03  0.7546771E-02  0.1135299E+00
         21   -1    0    0  501  502  0.00000000000E+00  0.00000000000E+00  0.14964838550E+03  0.14964838550E+03  0.00000000000E+00 0. -1.
         21   -1    0    0  502  503 -0.00000000000E+00 -0.00000000000E+00 -0.44885069743E+03  0.44885069743E+03  0.00000000000E+00 0.  1.
          6    1    1    2  501    0 -0.30267813888E+01 -0.13279355396E+03  0.12038076885E+02  0.21844268052E+03  0.17300000000E+03 0. -1.
         -6    1    1    2    0  503  0.30267813888E+01  0.13279355396E+03 -0.31124038881E+03  0.38005640240E+03  0.17300000000E+03 0.  1.
<mgrwt>
<rscale>  2 0.21811073E+03</rscale>
<asrwt>0</asrwt>
<pdfrwt beam="1">  1       21 0.23022829E-01 0.21811073E+03</pdfrwt>
<pdfrwt beam="2">  1       21 0.69053953E-01 0.21811073E+03</pdfrwt>
<totfact> 0.33370787E+04</totfact>
</mgrwt>
</event>
<event>
 4    1  0.4137916E+000  0.2039330E+03  0.7546771E-02  0.1146463E+00
         21   -1    0    0  503  502  0.00000000000E+00  0.00000000000E+00  0.19464054400E+03  0.19464054400E+03  0.00000000000E+00 0.  1.
         21   -1    0    0  501  503 -0.00000000000E+00 -0.00000000000E+00 -0.29120812007E+03  0.29120812007E+03  0.00000000000E+00 0.  1.
          6    1    1    2  501    0  0.86378009780E+02  0.64795840391E+02 -0.17363529262E+03  0.26783927335E+03  0.17300000000E+03 0.  1.
         -6    1    1    2    0  502 -0.86378009780E+02 -0.64795840391E+02  0.77067716560E+02  0.21800939072E+03  0.17300000000E+03 0.  1.
<mgrwt>
<rscale>  2 0.20393298E+03</rscale>
<asrwt>0</asrwt>
<pdfrwt beam="1">  1       21 0.29944699E-01 0.20393298E+03</pdfrwt>
<pdfrwt beam="2">  1       21 0.44801249E-01 0.20393298E+03</pdfrwt>
<totfact> 0.50861249E+04</totfact>
</mgrwt>
</event>
<event>
 4    1  0.4137916E+000  0.2065490E+03  0.7546771E-02  0.1144328E+00
         21   -1    0    0  501  502  0.00000000000E+00  0.00000000000E+00  0.17541436500E+03  0.17541436500E+03  0.00000000000E+00 0.  1.
         21   -1    0    0  502  503 -0.00000000000E+00 -0.00000000000E+00 -0.33496647359E+03  0.33496647359E+03  0.00000000000E+00 0.  1.
          6    1    1    2  501    0  0.88424037480E+02 -0.70104696148E+02  0.53785883551E+02  0.21343711040E+03  0.17300000000E+03 0.  1.
         -6    1    1    2    0  503 -0.88424037480E+02  0.70104696148E+02 -0.21333799214E+03  0.29694372820E+03  0.17300000000E+03 0.  1.
<mgrwt>
<rscale>  2 0.20654897E+03</rscale>
<asrwt>0</asrwt>
<pdfrwt beam="1">  1       21 0.26986826E-01 0.20654897E+03</pdfrwt>
<pdfrwt beam="2">  1       21 0.51533303E-01 0.20654897E+03</pdfrwt>
<totfact> 0.46475704E+04</totfact>
</mgrwt>
</event>
<event>
 4    1  0.4137916E+000  0.2013167E+03  0.7546771E-02  0.1148633E+00
         21   -1    0    0  503  502  0.00000000000E+00  0.00000000000E+00  0.15045980553E+03  0.15045980553E+03  0.00000000000E+00 0. -1.
         21   -1    0    0  501  503 -0.00000000000E+00 -0.00000000000E+00 -0.28361980431E+03  0.28361980431E+03  0.00000000000E+00 0. -1.
          6    1    1    2  501    0 -0.12362222830E+00  0.10295333498E+03 -0.17920000122E+02  0.20211266875E+03  0.17300000000E+03 0. -1.
         -6    1    1    2    0  502  0.12362222830E+00 -0.10295333498E+03 -0.11523999866E+03  0.23196694108E+03  0.17300000000E+03 0. -1.
<mgrwt>
<rscale>  2 0.20131668E+03</rscale>
<asrwt>0</asrwt>
<pdfrwt beam="1">  1       21 0.23147663E-01 0.20131668E+03</pdfrwt>
<pdfrwt beam="2">  1       21 0.43633816E-01 0.20131668E+03</pdfrwt>
<totfact> 0.88188554E+04</totfact>
</mgrwt>
</event>
<event>
 4    1  0.4137916E+000  0.3285810E+03  0.7546771E-02  0.1071766E+00
         21   -1    0    0  501  502  0.00000000000E+00  0.00000000000E+00  0.34791610063E+03  0.34791610063E+03  0.00000000000E+00 0. -1.
         21   -1    0    0  502  503 -0.00000000000E+00 -0.00000000000E+00 -0.32422587683E+03  0.32422587683E+03  0.00000000000E+00 0.  1.
          6    1    1    2  501    0 -0.17180274910E+03 -0.22027328148E+03  0.81443367010E+02  0.33852403927E+03  0.17300000000E+03 0. -1.
         -6    1    1    2    0  503  0.17180274910E+03  0.22027328148E+03 -0.57753143215E+02  0.33361793819E+03  0.17300000000E+03 0.  1.
<mgrwt>
<rscale>  2 0.32858104E+03</rscale>
<asrwt>0</asrwt>
<pdfrwt beam="1">  1       21 0.53525554E-01 0.32858104E+03</pdfrwt>
<pdfrwt beam="2">  1       21 0.49880904E-01 0.32858104E+03</pdfrwt>
<totfact> 0.11790544E+04</totfact>
</mgrwt>
</event>
<event>
 4    1  0.4137916E+000  0.1927867E+03  0.7546771E-02  0.1155972E+00
         21   -1    0    0  503  502  0.00000000000E+00  0.00000000000E+00  0.11003491944E+04  0.11003491944E+04  0.00000000000E+00 0.  1.
         21   -1    0    0  501  503 -0.00000000000E+00 -0.00000000000E+00 -0.91197120016E+02  0.91197120016E+02  0.00000000000E+00 0.  1.
          6    1    1    2  501    0  0.78604321953E+02  0.32543413507E+02  0.31836781203E+02  0.19539778358E+03  0.17300000000E+03 0.  1.
         -6    1    1    2    0  502 -0.78604321953E+02 -0.32543413507E+02  0.97731529315E+03  0.99614853080E+03  0.17300000000E+03 0.  1.
<mgrwt>
<rscale>  2 0.19278670E+03</rscale>
<asrwt>0</asrwt>
<pdfrwt beam="1">  1       21 0.16928448E+00 0.19278670E+03</pdfrwt>
<pdfrwt beam="2">  1       21 0.14030327E-01 0.19278670E+03</pdfrwt>
<totfact> 0.95603038E+03</totfact>
</mgrwt>
</event>
<event>
 4    1  0.4137916E+000  0.1777837E+03  0.7546771E-02  0.1169965E+00
         21   -1    0    0  501  502  0.00000000000E+00  0.00000000000E+00  0.38895288261E+03  0.38895288261E+03  0.00000000000E+00 0. -1.
         21   -1    0    0  502  503 -0.00000000000E+00 -0.00000000000E+00 -0.11563300246E+03  0.11563300246E+03  0.00000000000E+00 0. -1.
          6    1    1    2  501    0  0.20993651508E+02  0.35175630879E+02  0.27421000493E+03  0.32679991618E+03  0.17300000000E+03 0. -1.
         -6    1    1    2    0  503 -0.20993651508E+02 -0.35175630879E+02 -0.89012478363E+00  0.17778596889E+03  0.17300000000E+03 0. -1.
<mgrwt>
<rscale>  2 0.17778374E+03</rscale>
<asrwt>0</asrwt>
<pdfrwt beam="1">  1       21 0.59838904E-01 0.17778374E+03</pdfrwt>
<pdfrwt beam="2">  1       21 0.17789693E-01 0.17778374E+03</pdfrwt>
<totfact> 0.75247842E+04</totfact>
</mgrwt>
</event>
<event>
 4    1  0.4137916E+000  0.1757810E+03  0.7546771E-02  0.1171950E+00
         21   -1    0    0  503  502  0.00000000000E+00  0.00000000000E+00  0.43539338719E+02  0.43539338719E+02  0.00000000000E+00 0. -1.
         21   -1    0    0  501  503 -0.00000000000E+00 -0.00000000000E+00 -0.13878098554E+04  0.13878098554E+04  0.00000000000E+00 0. -1.
          6    1    1    2  501    0  0.21141399211E+02  0.22869177467E+02 -0.11724085806E+04  0.11855129008E+04  0.17300000000E+03 0. -1.
         -6    1    1    2    0  502 -0.21141399211E+02 -0.22869177467E+02 -0.17186193599E+03  0.24583629326E+03  0.17300000000E+03 0. -1.
<mgrwt>
<rscale>  2 0.17578099E+03</rscale>
<asrwt>0</asrwt>
<pdfrwt beam="1">  1       21 0.66983596E-02 0.17578099E+03</pdfrwt>
<pdfrwt beam="2">  1       21 0.21350921E+00 0.17578099E+03</pdfrwt>
<totfact> 0.18258063E+04</totfact>
</mgrwt>
</event>
<event>
 4    1  0.4137916E+000  0.2258418E+03  0.7546771E-02  0.1129601E+00
         21   -1    0    0  501  502  0.00000000000E+00  0.00000000000E+00  0.98401239655E+03  0.98401239655E+03  0.00000000000E+00 0.  1.
         21   -1    0    0  502  503 -0.00000000000E+00 -0.00000000000E+00 -0.52439589282E+02  0.52439589282E+02  0.00000000000E+00 0. -1.
          6    1    1    2  501    0 -0.39822798766E+02 -0.13960542256E+03  0.52151251971E+03  0.56831315094E+03  0.17300000000E+03 0.  1.
         -6    1    1    2    0  503  0.39822798766E+02  0.13960542256E+03  0.41006028756E+03  0.46813883490E+03  0.17300000000E+03 0. -1.
<mgrwt>
<rscale>  2 0.22584182E+03</rscale>
<asrwt>0</asrwt>
<pdfrwt beam="1">  1       21 0.15138651E+00 0.22584182E+03</pdfrwt>
<pdfrwt beam="2">  1       21 0.80676298E-02 0.22584182E+03</pdfrwt>
<totfact> 0.33831080E+04</totfact>
</mgrwt>
</event>
<event>
 4    1  0.4137916E+000  0.2236535E+03  0.7546771E-02  0.1131188E+00
         21   -1    0    0  501  502  0.00000000000E+00  0.00000000000E+00  0.10668119503E+03  0.10668119503E+03  0.00000000000E+00 0. -1.
         21   -1    0    0  502  503 -0.00000000000E+00 -0.00000000000E+00 -0.51126547961E+03  0.51126547961E+03  0.00000000000E+00 0. -1.
          6    1    1    2  501    0 -0.10681321647E+03  0.93181606948E+02 -0.11333170901E+03  0.25072884029E+03  0.17300000000E+03 0. -1.
         -6    1    1    2    0  503  0.10681321647E+03 -0.93181606948E+02 -0.29125257558E+03  0.36721783435E+03  0.17300000000E+03 0. -1.
<mgrwt>
<rscale>  2 0.22365347E+03</rscale>
<asrwt>0</asrwt>
<pdfrwt beam="1">  1       21 0.16412491E-01 0.22365347E+03</pdfrwt>
<pdfrwt beam="2">  1       21 0.78656229E-01 0.22365347E+03</pdfrwt>
<totfact> 0.46839543E+04</totfact>
</mgrwt>
</event>
<event>
 4    1  0.4137916E+000  0.1832842E+03  0.7546771E-02  0.1164662E+00
         21   -1    0    0  501  502  0.00000000000E+00  0.00000000000E+00  0.63090706604E+03  0.63090706604E+03  0.00000000000E+00 0.  1.
         21   -1    0    0  502  503 -0.00000000000E+00 -0.00000000000E+00 -0.54376176900E+02  0.54376176900E+02  0.00000000000E+00 0. -1.
          6    1    1    2  501    0  0.11395054856E+02 -0.59449550750E+02  0.33766968132E+03  0.38420555702E+03  0.17300000000E+03 0. -1.
         -6    1    1    2    0  503 -0.11395054856E+02  0.59449550750E+02  0.23886120782E+03  0.30107768592E+03  0.17300000000E+03 0. -1.
<mgrwt>
<rscale>  2 0.18328420E+03</rscale>
<asrwt>0</asrwt>
<pdfrwt beam="1">  1       21 0.97062620E-01 0.18328420E+03</pdfrwt>
<pdfrwt beam="2">  1       21 0.83655661E-02 0.18328420E+03</pdfrwt>
<totfact> 0.98154686E+04</totfact>
</mgrwt>
</event>
<event>
 4    1  0.4137916E+000  0.2146276E+03  0.7546771E-02  0.1137953E+00
         21   -1    0    0  501  502  0.00000000000E+00  0.00000000000E+00  0.79152519750E+02  0.79152519750E+02  0.00000000000E+00 0. -1.
         21   -1    0    0  502  503 -0.00000000000E+00 -0.00000000000E+00 -0.64151233314E+03  0.64151233314E+03  0.00000000000E+00 0. -1.
          6    1    1    2  501    0  0.11700925383E+03  0.49445517622E+02 -0.39095014530E+03  0.44598995595E+03  0.17300000000E+03 0. -1.
         -6    1    1    2    0  503 -0.11700925383E+03 -0.49445517622E+02 -0.17140966809E+03  0.27467489694E+03  0.17300000000E+03 0. -1.
<mgrwt>
<rscale>  2 0.21462764E+03</rscale>
<asrwt>0</asrwt>
<pdfrwt beam="1">  1       21 0.12177311E-01 0.21462764E+03</pdfrwt>
<pdfrwt beam="2">  1       21 0.98694204E-01 0.21462764E+03</pdfrwt>
<totfact> 0.47871920E+04</totfact>
</mgrwt>
</event>
<event>
 4    1  0.4137916E+000  0.2516731E+03  0.7546771E-02  0.1112252E+00
         21   -1    0    0  503  502  0.00000000000E+00  0.00000000000E+00  0.12948989557E+04  0.12948989557E+04  0.00000000000E+00 0. -1.
         21   -1    0    0  501  503 -0.00000000000E+00 -0.00000000000E+00 -0.64491720491E+02  0.64491720491E+02  0.00000000000E+00 0. -1.
          6    1    1    2  501    0 -0.29807126513E+01  0.18276068983E+03  0.28115699576E+03  0.37734415413E+03  0.17300000000E+03 0. -1.
         -6    1    1    2    0  502  0.29807126513E+01 -0.18276068983E+03  0.94925023949E+03  0.98204652210E+03  0.17300000000E+03 0. -1.
<mgrwt>
<rscale>  2 0.25167311E+03</rscale>
<asrwt>0</asrwt>
<pdfrwt beam="1">  1       21 0.19921520E+00 0.25167311E+03</pdfrwt>
<pdfrwt beam="2">  1       21 0.99218041E-02 0.25167311E+03</pdfrwt>
<totfact> 0.10695308E+04</totfact>
</mgrwt>
</event>
<event>
 4    1  0.4137916E+000  0.1826994E+03  0.7546771E-02  0.1165216E+00
         21   -1    0    0  503  502  0.00000000000E+00  0.00000000000E+00  0.62157686336E+03  0.62157686336E+03  0.00000000000E+00 0.  1.
         21   -1    0    0  501  503 -0.00000000000E+00 -0.00000000000E+00 -0.96146904813E+02  0.96146904813E+02  0.00000000000E+00 0.  1.
          6    1    1    2  501    0  0.55872669876E+02  0.18119511298E+02  0.24274796025E+02  0.18430501255E+03  0.17300000000E+03 0.  1.
         -6    1    1    2    0  502 -0.55872669876E+02 -0.18119511298E+02  0.50115516252E+03  0.53341875562E+03  0.17300000000E+03 0.  1.
<mgrwt>
<rscale>  2 0.18269940E+03</rscale>
<asrwt>0</asrwt>
<pdfrwt beam="1">  1       21 0.95627208E-01 0.18269940E+03</pdfrwt>
<pdfrwt beam="2">  1       21 0.14791832E-01 0.18269940E+03</pdfrwt>
<totfact> 0.36899981E+04</totfact>
</mgrwt>
</event>
<event>
 4    1  0.4137916E+000  0.2266459E+03  0.7546771E-02  0.1129023E+00
         21   -1    0    0  501  502  0.00000000000E+00  0.00000000000E+00  0.66284924969E+03  0.66284924969E+03  0.00000000000E+00 0. -1.
         21   -1    0    0  502  503 -0.00000000000E+00 -0.00000000000E+00 -0.16384217666E+03  0.16384217666E+03  0.00000000000E+00 0. -1.
          6    1    1    2  501    0  0.13854408172E+03  0.47380200293E+02  0.54957276014E+03  0.59447335067E+03  0.17300000000E+03 0. -1.
         -6    1    1    2    0  503 -0.13854408172E+03 -0.47380200293E+02 -0.50565687112E+02  0.23221807568E+03  0.17300000000E+03 0. -1.
<mgrwt>
<rscale>  2 0.22664586E+03</rscale>
<asrwt>0</asrwt>
<pdfrwt beam="1">  1       21 0.10197681E+00 0.22664586E+03</pdfrwt>
<pdfrwt beam="2">  1       21 0.25206489E-01 0.22664586E+03</pdfrwt>
<totfact> 0.11424414E+04</totfact>
</mgrwt>
</event>
<event>
 4    1  0.4137916E+000  0.1910347E+03  0.7546771E-02  0.1157531E+00
         21   -1    0    0  503  502  0.00000000000E+00  0.00000000000E+00  0.16804130396E+03  0.16804130396E+03  0.00000000000E+00 0.  1.
         21   -1    0    0  501  503 -0.00000000000E+00 -0.00000000000E+00 -0.24998112921E+03  0.24998112921E+03  0.00000000000E+00 0.  1.
          6    1    1    2  501    0  0.38330990005E+02  0.71386131620E+02  0.34747963469E+02  0.19416916735E+03  0.17300000000E+03 0.  1.
         -6    1    1    2    0  502 -0.38330990005E+02 -0.71386131620E+02 -0.11668778872E+03  0.22385326582E+03  0.17300000000E+03 0.  1.
<mgrwt>
<rscale>  2 0.19103467E+03</rscale>
<asrwt>0</asrwt>
<pdfrwt beam="1">  1       21 0.25852509E-01 0.19103467E+03</pdfrwt>
<pdfrwt beam="2">  1       21 0.38458635E-01 0.19103467E+03</pdfrwt>
<totfact> 0.92679829E+04</totfact>
</mgrwt>
</event>
<event>
 4    1  0.4137916E+000  0.2162851E+03  0.7546771E-02  0.1136683E+00
         21   -1    0    0  501  502  0.00000000000E+00  0.00000000000E+00  0.13829413470E+03  0.13829413470E+03  0.00000000000E+00 0. -1.
         21   -1    0    0  502  503 -0.00000000000E+00 -0.00000000000E+00 -0.44874926228E+03  0.44874926228E+03  0.00000000000E+00 0. -1.
          6    1    1    2  501    0 -0.11230056883E+03 -0.65106184868E+02 -0.95809547474E+01  0.21649717726E+03  0.17300000000E+03 0. -1.
         -6    1    1    2    0  503  0.11230056883E+03  0.65106184868E+02 -0.30087417283E+03  0.37054621972E+03  0.17300000000E+03 0. -1.
<mgrwt>
<rscale>  2 0.21628507E+03</rscale>
<asrwt>0</asrwt>
<pdfrwt beam="1">  1       21 0.21276021E-01 0.21628507E+03</pdfrwt>
<pdfrwt beam="2">  1       21 0.69038348E-01 0.21628507E+03</pdfrwt>
<totfact> 0.38796414E+04</totfact>
</mgrwt>
</event>
<event>
 4    1  0.4137916E+000  0.2817268E+03  0.7546771E-02  0.1094750E+00
         21   -1    0    0  501  502  0.00000000000E+00  0.00000000000E+00  0.41164806872E+03  0.41164806872E+03  0.00000000000E+00 0.  1.
         21   -1    0    0  502  503 -0.00000000000E+00 -0.00000000000E+00 -0.25889296366E+03  0.25889296366E+03  0.00000000000E+00 0.  1.
          6    1    1    2  501    0  0.34852911265E+02  0.21960476537E+03  0.24576416523E+03  0.37385826633E+03  0.17300000000E+03 0.  1.
         -6    1    1    2    0  503 -0.34852911265E+02 -0.21960476537E+03 -0.93009060162E+02  0.29668276605E+03  0.17300000000E+03 0.  1.
<mgrwt>
<rscale>  2 0.28172678E+03</rscale>
<asrwt>0</asrwt>
<pdfrwt beam="1">  1       21 0.63330472E-01 0.28172678E+03</pdfrwt>
<pdfrwt beam="2">  1       21 0.39829687E-01 0.28172678E+03</pdfrwt>
<totfact> 0.13337077E+04</totfact>
</mgrwt>
</event>
<event>
 4    1  0.4137916E+000  0.1797777E+03  0.7546771E-02  0.1168018E+00
         21   -1    0    0  501  502  0.00000000000E+00  0.00000000000E+00  0.23198326819E+03  0.23198326819E+03  0.00000000000E+00 0. -1.
         21   -1    0    0  502  503 -0.00000000000E+00 -0.00000000000E+00 -0.24746661436E+03  0.24746661436E+03  0.00000000000E+00 0. -1.
          6    1    1    2  501    0  0.17826913896E+02 -0.45532738924E+02  0.15073317194E+03  0.23460715738E+03  0.17300000000E+03 0. -1.
         -6    1    1    2    0  503 -0.17826913896E+02  0.45532738924E+02 -0.16621651811E+03  0.24484272517E+03  0.17300000000E+03 0. -1.
<mgrwt>
<rscale>  2 0.17977772E+03</rscale>
<asrwt>0</asrwt>
<pdfrwt beam="1">  1       21 0.35689734E-01 0.17977772E+03</pdfrwt>
<pdfrwt beam="2">  1       21 0.38071787E-01 0.17977772E+03</pdfrwt>
<totfact> 0.50670640E+04</totfact>
</mgrwt>
</event>
<event>
 4    1  0.4137916E+000  0.1865115E+03  0.7546771E-02  0.1161646E+00
         21   -1    0    0  503  502  0.00000000000E+00  0.00000000000E+00  0.67427141382E+02  0.67427141382E+02  0.00000000000E+00 0.  1.
         21   -1    0    0  501  503 -0.00000000000E+00 -0.00000000000E+00 -0.11557397385E+04  0.11557397385E+04  0.00000000000E+00 0.  1.
          6    1    1    2  501    0  0.48407100181E+02 -0.50142605576E+02 -0.99920401582E+03  0.10164620964E+04  0.17300000000E+03 0.  1.
         -6    1    1    2    0  502 -0.48407100181E+02  0.50142605576E+02 -0.89108581298E+02  0.20670478345E+03  0.17300000000E+03 0.  1.
<mgrwt>
<rscale>  2 0.18651147E+03</rscale>
<asrwt>0</asrwt>
<pdfrwt beam="1">  1       21 0.10373407E-01 0.18651147E+03</pdfrwt>
<pdfrwt beam="2">  1       21 0.17780610E+00 0.18651147E+03</pdfrwt>
<totfact> 0.14390979E+04</totfact>
</mgrwt>
</event>
<event>
 4    1  0.4137916E+000  0.2353129E+03  0.7546771E-02  0.1122955E+00
         21   -1    0    0  503  502  0.00000000000E+00  0.00000000000E+00  0.85906976059E+03  0.85906976059E+03  0.00000000000E+00 0.  1.
         21   -1    0    0  501  503 -0.00000000000E+00 -0.00000000000E+00 -0.64475618854E+02  0.64475618854E+02  0.00000000000E+00 0.  1.
          6    1    1    2  501    0 -0.10597659071E+03  0.11921468901E+03  0.40535703305E+03  0.46870726909E+03  0.17300000000E+03 0.  1.
         -6    1    1    2    0  502  0.10597659071E+03 -0.11921468901E+03  0.38923710868E+03  0.45483811035E+03  0.17300000000E+03 0.  1.
<mgrwt>
<rscale>  2 0.23531294E+03</rscale>
<asrwt>0</asrwt>
<pdfrwt beam="1">  1       21 0.13216457E+00 0.23531294E+03</pdfrwt>
<pdfrwt beam="2">  1       21 0.99193266E-02 0.23531294E+03</pdfrwt>
<totfact> 0.33325419E+04</totfact>
</mgrwt>
</event>
<event>
 4    1  0.4137916E+000  0.1818400E+03  0.7546771E-02  0.1166034E+00
         21   -1    0    0  501  502  0.00000000000E+00  0.00000000000E+00  0.57483129232E+03  0.57483129232E+03  0.00000000000E+00 0.  1.
         21   -1    0    0  502  503 -0.00000000000E+00 -0.00000000000E+00 -0.28822475495E+03  0.28822475495E+03  0.00000000000E+00 0.  1.
          6    1    1    2  501    0  0.13169497290E+02  0.54436716093E+02  0.52937605376E+03  0.55973636474E+03  0.17300000000E+03 0.  1.
         -6    1    1    2    0  503 -0.13169497290E+02 -0.54436716093E+02 -0.24276951639E+03  0.30331968253E+03  0.17300000000E+03 0.  1.
<mgrwt>
<rscale>  2 0.18184002E+03</rscale>
<asrwt>0</asrwt>
<pdfrwt beam="1">  1       21 0.88435583E-01 0.18184002E+03</pdfrwt>
<pdfrwt beam="2">  1       21 0.44342270E-01 0.18184002E+03</pdfrwt>
<totfact> 0.53887497E+03</totfact>
</mgrwt>
</event>
<event>
 4    1  0.4137916E+000  0.2379319E+03  0.7546771E-02  0.1121178E+00
         21   -1    0    0  501  502  0.00000000000E+00  0.00000000000E+00  0.53496275441E+02  0.53496275441E+02  0.00000000000E+00 0.  1.
         21   -1    0    0  502  503 -0.00000000000E+00 -0.00000000000E+00 -0.12885658698E+04  0.12885658698E+04  0.00000000000E+00 0. -1.
          6    1    1    2  501    0  0.10110970444E+03  0.12829417671E+03 -0.33383011597E+03  0.40994403818E+03  0.17300000000E+03 0.  1.
         -6    1    1    2    0  503 -0.10110970444E+03 -0.12829417671E+03 -0.90123947840E+03  0.93211810708E+03  0.17300000000E+03 0. -1.
<mgrwt>
<rscale>  2 0.23793186E+03</rscale>
<asrwt>0</asrwt>
<pdfrwt beam="1">  1       21 0.82301967E-02 0.23793186E+03</pdfrwt>
<pdfrwt beam="2">  1       21 0.19824089E+00 0.23793186E+03</pdfrwt>
<totfact> 0.15227678E+04</totfact>
</mgrwt>
</event>
<event>
 4    1  0.4137916E+000  0.2171895E+03  0.7546771E-02  0.1135996E+00
         21   -1    0    0  503  502  0.00000000000E+00  0.00000000000E+00  0.37546971073E+03  0.37546971073E+03  0.00000000000E+00 0.  1.
         21   -1    0    0  501  503 -0.00000000000E+00 -0.00000000000E+00 -0.19566992619E+03  0.19566992619E+03  0.00000000000E+00 0.  1.
          6    1    1    2  501    0 -0.13012561032E+03  0.17596176851E+02 -0.80949923914E+02  0.23178479260E+03  0.17300000000E+03 0.  1.
         -6    1    1    2    0  502  0.13012561032E+03 -0.17596176851E+02  0.26074970845E+03  0.33935484431E+03  0.17300000000E+03 0.  1.
<mgrwt>
<rscale>  2 0.21718955E+03</rscale>
<asrwt>0</asrwt>
<pdfrwt beam="1">  1       21 0.57764571E-01 0.21718955E+03</pdfrwt>
<pdfrwt beam="2">  1       21 0.30103066E-01 0.21718955E+03</pdfrwt>
<totfact> 0.29358159E+04</totfact>
</mgrwt>
</event>
<event>
 4    1  0.4137916E+000  0.2614337E+03  0.7546771E-02  0.1106285E+00
         21   -1    0    0  501  502  0.00000000000E+00  0.00000000000E+00  0.35381467496E+02  0.35381467496E+02  0.00000000000E+00 0.  1.
         21   -1    0    0  502  503 -0.00000000000E+00 -0.00000000000E+00 -0.19337496620E+04  0.19337496620E+04  0.00000000000E+00 0. -1.
          6    1    1    2  501    0 -0.93574897174E+02  0.17222749440E+03 -0.98097416826E+03  0.10152132239E+04  0.17300000000E+03 0.  1.
         -6    1    1    2    0  503  0.93574897174E+02 -0.17222749440E+03 -0.91739402619E+03  0.95391790554E+03  0.17300000000E+03 0. -1.
<mgrwt>
<rscale>  2 0.26143368E+03</rscale>
<asrwt>0</asrwt>
<pdfrwt beam="1">  1       21 0.54433015E-02 0.26143368E+03</pdfrwt>
<pdfrwt beam="2">  1       21 0.29750002E+00 0.26143368E+03</pdfrwt>
<totfact> 0.76963373E+03</totfact>
</mgrwt>
</event>
<event>
 4    1  0.4137916E+000  0.2151306E+03  0.7546771E-02  0.1137566E+00
         21   -1    0    0  501  502  0.00000000000E+00  0.00000000000E+00  0.47377871757E+03  0.47377871757E+03  0.00000000000E+00 0. -1.
         21   -1    0    0  502  503 -0.00000000000E+00 -0.00000000000E+00 -0.13559954882E+03  0.13559954882E+03  0.00000000000E+00 0. -1.
          6    1    1    2  501    0  0.11713550041E+03 -0.51297596773E+02  0.33020223488E+03  0.39409984117E+03  0.17300000000E+03 0. -1.
         -6    1    1    2    0  503 -0.11713550041E+03  0.51297596773E+02  0.79769338772E+01  0.21527842522E+03  0.17300000000E+03 0. -1.
<mgrwt>
<rscale>  2 0.21513059E+03</rscale>
<asrwt>0</asrwt>
<pdfrwt beam="1">  1       21 0.72889033E-01 0.21513059E+03</pdfrwt>
<pdfrwt beam="2">  1       21 0.20861469E-01 0.21513059E+03</pdfrwt>
<totfact> 0.35716729E+04</totfact>
</mgrwt>
</event>
<event>
 4    1  0.4137916E+000  0.1774381E+03  0.7546771E-02  0.1170306E+00
         21   -1    0    0  503  502  0.00000000000E+00  0.00000000000E+00  0.10432179310E+03  0.10432179310E+03  0.00000000000E+00 0. -1.
         21   -1    0    0  501  503 -0.00000000000E+00 -0.00000000000E+00 -0.46422029948E+03  0.46422029948E+03  0.00000000000E+00 0. -1.
          6    1    1    2  501    0  0.28470073215E+01 -0.39334007584E+02 -0.34809710649E+03  0.39071199770E+03  0.17300000000E+03 0. -1.
         -6    1    1    2    0  502 -0.28470073215E+01  0.39334007584E+02 -0.11801399895E+02  0.17783009487E+03  0.17300000000E+03 0. -1.
<mgrwt>
<rscale>  2 0.17743807E+03</rscale>
<asrwt>0</asrwt>
<pdfrwt beam="1">  1       21 0.16049506E-01 0.17743807E+03</pdfrwt>
<pdfrwt beam="2">  1       21 0.71418509E-01 0.17743807E+03</pdfrwt>
<totfact> 0.61884087E+04</totfact>
</mgrwt>
</event>
<event>
 4    1  0.4137916E+000  0.4482591E+03  0.7546771E-02  0.1028242E+00
         21   -1    0    0  503  502  0.00000000000E+00  0.00000000000E+00  0.31145822630E+03  0.31145822630E+03  0.00000000000E+00 0.  1.
         21   -1    0    0  501  503 -0.00000000000E+00 -0.00000000000E+00 -0.92751532042E+03  0.92751532042E+03  0.00000000000E+00 0. -1.
          6    1    1    2  501    0  0.40473329947E+03 -0.84842212206E+02 -0.64983457203E+03  0.78944361147E+03  0.17300000000E+03 0. -1.
         -6    1    1    2    0  502 -0.40473329947E+03  0.84842212206E+02  0.33777477915E+02  0.44952993525E+03  0.17300000000E+03 0.  1.
<mgrwt>
<rscale>  2 0.44825913E+03</rscale>
<asrwt>0</asrwt>
<pdfrwt beam="1">  1       21 0.47916651E-01 0.44825913E+03</pdfrwt>
<pdfrwt beam="2">  1       21 0.14269466E+00 0.44825913E+03</pdfrwt>
<totfact> 0.12044974E+03</totfact>
</mgrwt>
</event>
<event>
 4    1  0.4137916E+000  0.2020956E+03  0.7546771E-02  0.1147983E+00
         21   -1    0    0  501  502  0.00000000000E+00  0.00000000000E+00  0.16052815476E+03  0.16052815476E+03  0.00000000000E+00 0.  1.
         21   -1    0    0  502  503 -0.00000000000E+00 -0.00000000000E+00 -0.38470994950E+03  0.38470994950E+03  0.00000000000E+00 0. -1.
          6    1    1    2  501    0  0.62195402756E+02  0.83936715626E+02  0.46556836041E+02  0.20738895664E+03  0.17300000000E+03 0.  1.
         -6    1    1    2    0  503 -0.62195402756E+02 -0.83936715626E+02 -0.27073863078E+03  0.33784914762E+03  0.17300000000E+03 0. -1.
<mgrwt>
<rscale>  2 0.20209562E+03</rscale>
<asrwt>0</asrwt>
<pdfrwt beam="1">  1       21 0.24696639E-01 0.20209562E+03</pdfrwt>
<pdfrwt beam="2">  1       21 0.59186146E-01 0.20209562E+03</pdfrwt>
<totfact> 0.41166764E+04</totfact>
</mgrwt>
</event>
<event>
 4    1  0.4137916E+000  0.2056359E+03  0.7546771E-02  0.1145069E+00
         21   -1    0    0  503  502  0.00000000000E+00  0.00000000000E+00  0.55877160224E+02  0.55877160224E+02  0.00000000000E+00 0.  1.
         21   -1    0    0  501  503 -0.00000000000E+00 -0.00000000000E+00 -0.13823517641E+04  0.13823517641E+04  0.00000000000E+00 0.  1.
          6    1    1    2  501    0 -0.10959198278E+03 -0.18619947111E+02 -0.17947601661E+03  0.27294275161E+03  0.17300000000E+03 0.  1.
         -6    1    1    2    0  502  0.10959198278E+03  0.18619947111E+02 -0.11469985872E+04  0.11652861727E+04  0.17300000000E+03 0.  1.
<mgrwt>
<rscale>  2 0.20563586E+03</rscale>
<asrwt>0</asrwt>
<pdfrwt beam="1">  1       21 0.85964860E-02 0.20563586E+03</pdfrwt>
<pdfrwt beam="2">  1       21 0.21266951E+00 0.20563586E+03</pdfrwt>
<totfact> 0.11692233E+04</totfact>
</mgrwt>
</event>
<event>
 4    1  0.4137916E+000  0.2222285E+03  0.7546771E-02  0.1132232E+00
         21   -1    0    0  503  502  0.00000000000E+00  0.00000000000E+00  0.76682383184E+02  0.76682383184E+02  0.00000000000E+00 0.  1.
         21   -1    0    0  501  503 -0.00000000000E+00 -0.00000000000E+00 -0.87617864198E+03  0.87617864198E+03  0.00000000000E+00 0.  1.
          6    1    1    2  501    0 -0.71012637698E+02 -0.12005718017E+03 -0.64498691946E+03  0.68219766014E+03  0.17300000000E+03 0.  1.
         -6    1    1    2    0  502  0.71012637698E+02  0.12005718017E+03 -0.15450933933E+03  0.27066336502E+03  0.17300000000E+03 0.  1.
<mgrwt>
<rscale>  2 0.22222853E+03</rscale>
<asrwt>0</asrwt>
<pdfrwt beam="1">  1       21 0.11797290E-01 0.22222853E+03</pdfrwt>
<pdfrwt beam="2">  1       21 0.13479671E+00 0.22222853E+03</pdfrwt>
<totfact> 0.23427689E+04</totfact>
</mgrwt>
</event>
<event>
 4    1  0.4137916E+000  0.3846644E+03  0.7546771E-02  0.1049223E+00
         21   -1    0    0  501  502  0.00000000000E+00  0.00000000000E+00  0.61778265652E+03  0.61778265652E+03  0.00000000000E+00 0.  1.
         21   -1    0    0  502  503 -0.00000000000E+00 -0.00000000000E+00 -0.50096697435E+03  0.50096697435E+03  0.00000000000E+00 0. -1.
          6    1    1    2  501    0  0.27270464420E+02  0.34248212364E+03  0.46251484773E+03  0.60157016849E+03  0.17300000000E+03 0.  1.
         -6    1    1    2    0  503 -0.27270464420E+02 -0.34248212364E+03 -0.34569916556E+03  0.51717946238E+03  0.17300000000E+03 0. -1.
<mgrwt>
<rscale>  2 0.38466438E+03</rscale>
<asrwt>0</asrwt>
<pdfrwt beam="1">  1       21 0.95043486E-01 0.38466438E+03</pdfrwt>
<pdfrwt beam="2">  1       21 0.77071842E-01 0.38466438E+03</pdfrwt>
<totfact> 0.12156177E+03</totfact>
</mgrwt>
</event>
<event>
 4    1  0.4137916E+000  0.2334387E+03  0.7546771E-02  0.1124243E+00
         21   -1    0    0  501  502  0.00000000000E+00  0.00000000000E+00  0.24977031348E+03  0.24977031348E+03  0.00000000000E+00 0. -1.
         21   -1    0    0  502  503 -0.00000000000E+00 -0.00000000000E+00 -0.22600492270E+03  0.22600492270E+03  0.00000000000E+00 0.  1.
          6    1    1    2  501    0  0.67488159952E+02 -0.14145663583E+03  0.56161140041E+02  0.24009936527E+03  0.17300000000E+03 0.  1.
         -6    1    1    2    0  503 -0.67488159952E+02  0.14145663583E+03 -0.32395749264E+02  0.23567587090E+03  0.17300000000E+03 0.  1.
<mgrwt>
<rscale>  2 0.23343871E+03</rscale>
<asrwt>0</asrwt>
<pdfrwt beam="1">  1       21 0.38426202E-01 0.23343871E+03</pdfrwt>
<pdfrwt beam="2">  1       21 0.34769988E-01 0.23343871E+03</pdfrwt>
<totfact> 0.51107778E+04</totfact>
</mgrwt>
</event>
<event>
 4    1  0.4137916E+000  0.2055483E+03  0.7546771E-02  0.1145141E+00
         21   -1    0    0  503  502  0.00000000000E+00  0.00000000000E+00  0.13433255713E+04  0.13433255713E+04  0.00000000000E+00 0. -1.
         21   -1    0    0  501  503 -0.00000000000E+00 -0.00000000000E+00 -0.38119873656E+02  0.38119873656E+02  0.00000000000E+00 0. -1.
          6    1    1    2  501    0  0.29100392421E+02 -0.10711802982E+03  0.36371728721E+03  0.41778028935E+03  0.17300000000E+03 0. -1.
         -6    1    1    2    0  502 -0.29100392421E+02  0.10711802982E+03  0.94148841046E+03  0.96366515564E+03  0.17300000000E+03 0. -1.
<mgrwt>
<rscale>  2 0.20554830E+03</rscale>
<asrwt>0</asrwt>
<pdfrwt beam="1">  1       21 0.20666544E+00 0.20554830E+03</pdfrwt>
<pdfrwt beam="2">  1       21 0.58645970E-02 0.20554830E+03</pdfrwt>
<totfact> 0.24729918E+04</totfact>
</mgrwt>
</event>
<event>
 4    1  0.4137916E+000  0.3868990E+03  0.7546771E-02  0.1048413E+00
         21   -1    0    0  503  502  0.00000000000E+00  0.00000000000E+00  0.87334086694E+03  0.87334086694E+03  0.00000000000E+00 0. -1.
         21   -1    0    0  501  503 -0.00000000000E+00 -0.00000000000E+00 -0.20131134019E+03  0.20131134019E+03  0.00000000000E+00 0.  1.
          6    1    1    2  501    0 -0.33637724876E+03  0.81315245885E+02  0.12889568325E+03  0.40780500225E+03  0.17300000000E+03 0.  1.
         -6    1    1    2    0  502  0.33637724876E+03 -0.81315245885E+02  0.54313384351E+03  0.66684720488E+03  0.17300000000E+03 0. -1.
<mgrwt>
<rscale>  2 0.38689898E+03</rscale>
<asrwt>0</asrwt>
<pdfrwt beam="1">  1       21 0.13436013E+00 0.38689898E+03</pdfrwt>
<pdfrwt beam="2">  1       21 0.30970976E-01 0.38689898E+03</pdfrwt>
<totfact> 0.35418111E+03</totfact>
</mgrwt>
</event>
<event>
 4    1  0.4137916E+000  0.1901665E+03  0.7546771E-02  0.1158311E+00
         21   -1    0    0  501  502  0.00000000000E+00  0.00000000000E+00  0.30637316899E+03  0.30637316899E+03  0.00000000000E+00 0.  1.
         21   -1    0    0  502  503 -0.00000000000E+00 -0.00000000000E+00 -0.29259023441E+03  0.29259023441E+03  0.00000000000E+00 0.  1.
          6    1    1    2  501    0  0.78656454354E+02  0.68894877823E+01  0.23820689574E+03  0.30480457351E+03  0.17300000000E+03 0.  1.
         -6    1    1    2    0  503 -0.78656454354E+02 -0.68894877823E+01 -0.22442396117E+03  0.29415882989E+03  0.17300000000E+03 0.  1.
<mgrwt>
<rscale>  2 0.19016651E+03</rscale>
<asrwt>0</asrwt>
<pdfrwt beam="1">  1       21 0.47134334E-01 0.19016651E+03</pdfrwt>
<pdfrwt beam="2">  1       21 0.45013882E-01 0.19016651E+03</pdfrwt>
<totfact> 0.20427519E+04</totfact>
</mgrwt>
</event>
<event>
 4    1  0.4137916E+000  0.1980742E+03  0.7546771E-02  0.1151374E+00
         21   -1    0    0  501  502  0.00000000000E+00  0.00000000000E+00  0.35762519513E+02  0.35762519513E+02  0.00000000000E+00 0. -1.
         21   -1    0    0  502  503 -0.00000000000E+00 -0.00000000000E+00 -0.17895450008E+04  0.17895450008E+04  0.00000000000E+00 0. -1.
          6    1    1    2  501    0 -0.96377992900E+02  0.39577758514E+01 -0.30916090982E+03  0.36717005551E+03  0.17300000000E+03 0. -1.
         -6    1    1    2    0  503  0.96377992900E+02 -0.39577758514E+01 -0.14446215715E+04  0.14581374648E+04  0.17300000000E+03 0. -1.
<mgrwt>
<rscale>  2 0.19807418E+03</rscale>
<asrwt>0</asrwt>
<pdfrwt beam="1">  1       21 0.55019258E-02 0.19807418E+03</pdfrwt>
<pdfrwt beam="2">  1       21 0.27531463E+00 0.19807418E+03</pdfrwt>
<totfact> 0.10769205E+04</totfact>
</mgrwt>
</event>
<event>
 4    1  0.4137916E+000  0.2120258E+03  0.7546771E-02  0.1139972E+00
         21   -1    0    0  503  502  0.00000000000E+00  0.00000000000E+00  0.50591738731E+03  0.50591738731E+03  0.00000000000E+00 0.  1.
         21   -1    0    0  501  503 -0.00000000000E+00 -0.00000000000E+00 -0.94405240210E+02  0.94405240210E+02  0.00000000000E+00 0.  1.
          6    1    1    2  501    0 -0.85008209026E+02 -0.88315049255E+02  0.27851471891E+03  0.35003627265E+03  0.17300000000E+03 0.  1.
         -6    1    1    2    0  502  0.85008209026E+02  0.88315049255E+02  0.13299742820E+03  0.25028635487E+03  0.17300000000E+03 0.  1.
<mgrwt>
<rscale>  2 0.21202581E+03</rscale>
<asrwt>0</asrwt>
<pdfrwt beam="1">  1       21 0.77833442E-01 0.21202581E+03</pdfrwt>
<pdfrwt beam="2">  1       21 0.14523883E-01 0.21202581E+03</pdfrwt>
<totfact> 0.60313122E+04</totfact>
</mgrwt>
</event>
<event>
 4    1  0.4137916E+000  0.1934130E+03  0.7546771E-02  0.1155419E+00
         21   -1    0    0  501  502  0.00000000000E+00  0.00000000000E+00  0.20772516911E+03  0.20772516911E+03  0.00000000000E+00 0.  1.
         21   -1    0    0  502  503 -0.00000000000E+00 -0.00000000000E+00 -0.19018711408E+03  0.19018711408E+03  0.00000000000E+00 0.  1.
          6    1    1    2  501    0  0.52325422118E+02 -0.68859613562E+02  0.54618105071E+02  0.20097694789E+03  0.17300000000E+03 0.  1.
         -6    1    1    2    0  503 -0.52325422118E+02  0.68859613562E+02 -0.37080050050E+02  0.19693533530E+03  0.17300000000E+03 0.  1.
<mgrwt>
<rscale>  2 0.19341302E+03</rscale>
<asrwt>0</asrwt>
<pdfrwt beam="1">  1       21 0.31957718E-01 0.19341302E+03</pdfrwt>
<pdfrwt beam="2">  1       21 0.29259556E-01 0.19341302E+03</pdfrwt>
<totfact> 0.10532392E+05</totfact>
</mgrwt>
</event>
<event>
 4    1  0.4137916E+000  0.1864910E+03  0.7546771E-02  0.1161665E+00
         21   -1    0    0  503  502  0.00000000000E+00  0.00000000000E+00  0.29329735201E+03  0.29329735201E+03  0.00000000000E+00 0. -1.
         21   -1    0    0  501  503 -0.00000000000E+00 -0.00000000000E+00 -0.19362648504E+03  0.19362648504E+03  0.00000000000E+00 0.  1.
          6    1    1    2  501    0 -0.62577660533E+02  0.30560245299E+02 -0.10173583103E+03  0.21243604098E+03  0.17300000000E+03 0.  1.
         -6    1    1    2    0  502  0.62577660533E+02 -0.30560245299E+02  0.20140669800E+03  0.27448779607E+03  0.17300000000E+03 0. -1.
<mgrwt>
<rscale>  2 0.18649100E+03</rscale>
<asrwt>0</asrwt>
<pdfrwt beam="1">  1       21 0.45122669E-01 0.18649100E+03</pdfrwt>
<pdfrwt beam="2">  1       21 0.29788690E-01 0.18649100E+03</pdfrwt>
<totfact> 0.51056774E+04</totfact>
</mgrwt>
</event>
<event>
 4    1  0.4137916E+000  0.2049197E+03  0.7546771E-02  0.1145653E+00
         21   -1    0    0  503  502  0.00000000000E+00  0.00000000000E+00  0.11596783673E+03  0.11596783673E+03  0.00000000000E+00 0. -1.
         21   -1    0    0  501  503 -0.00000000000E+00 -0.00000000000E+00 -0.40868348826E+03  0.40868348826E+03  0.00000000000E+00 0.  1.
          6    1    1    2  501    0 -0.93057459683E+02  0.58338677624E+02 -0.23492191712E+03  0.31173770906E+03  0.17300000000E+03 0.  1.
         -6    1    1    2    0  502  0.93057459683E+02 -0.58338677624E+02 -0.57793734417E+02  0.21291361593E+03  0.17300000000E+03 0. -1.
<mgrwt>
<rscale>  2 0.20491972E+03</rscale>
<asrwt>0</asrwt>
<pdfrwt beam="1">  1       21 0.17841206E-01 0.20491972E+03</pdfrwt>
<pdfrwt beam="2">  1       21 0.62874383E-01 0.20491972E+03</pdfrwt>
<totfact> 0.66481192E+04</totfact>
</mgrwt>
</event>
<event>
 4    1  0.4137916E+000  0.1733696E+03  0.7546771E-02  0.1174379E+00
         21   -1    0    0  501  502  0.00000000000E+00  0.00000000000E+00  0.16252322879E+04  0.16252322879E+04  0.00000000000E+00 0.  1.
         21   -1    0    0  502  503 -0.00000000000E+00 -0.00000000000E+00 -0.20136027025E+02  0.20136027025E+02  0.00000000000E+00 0.  1.
          6    1    1    2  501    0  0.11244523926E+02 -0.12596141584E+01  0.10374778812E+04  0.10518637649E+04  0.17300000000E+03 0.  1.
         -6    1    1    2    0  503 -0.11244523926E+02  0.12596141584E+01  0.56761837965E+03  0.59350454999E+03  0.17300000000E+03 0.  1.
<mgrwt>
<rscale>  2 0.17336962E+03</rscale>
<asrwt>0</asrwt>
<pdfrwt beam="1">  1       21 0.25003563E+00 0.17336962E+03</pdfrwt>
<pdfrwt beam="2">  1       21 0.30978516E-02 0.17336962E+03</pdfrwt>
<totfact> 0.40512314E+04</totfact>
</mgrwt>
</event>
<event>
 4    1  0.4137916E+000  0.1900702E+03  0.7546771E-02  0.1158398E+00
         21   -1    0    0  503  502  0.00000000000E+00  0.00000000000E+00  0.42604211409E+03  0.42604211409E+03  0.00000000000E+00 0.  1.
         21   -1    0    0  501  503 -0.00000000000E+00 -0.00000000000E+00 -0.13056370364E+03  0.13056370364E+03  0.00000000000E+00 0.  1.
          6    1    1    2  501    0  0.78716601010E+02  0.11809800279E+01 -0.17033674731E+02  0.19083197862E+03  0.17300000000E+03 0.  1.
         -6    1    1    2    0  502 -0.78716601010E+02 -0.11809800279E+01  0.31251208519E+03  0.36577383911E+03  0.17300000000E+03 0.  1.
<mgrwt>
<rscale>  2 0.19007024E+03</rscale>
<asrwt>0</asrwt>
<pdfrwt beam="1">  1       21 0.65544940E-01 0.19007024E+03</pdfrwt>
<pdfrwt beam="2">  1       21 0.20086724E-01 0.19007024E+03</pdfrwt>
<totfact> 0.49066673E+04</totfact>
</mgrwt>
</event>
<event>
 4    1  0.4137916E+000  0.1779005E+03  0.7546771E-02  0.1169851E+00
         21   -1    0    0  501  502  0.00000000000E+00  0.00000000000E+00  0.13580317019E+03  0.13580317019E+03  0.00000000000E+00 0. -1.
         21   -1    0    0  502  503 -0.00000000000E+00 -0.00000000000E+00 -0.34519827433E+03  0.34519827433E+03  0.00000000000E+00 0. -1.
          6    1    1    2  501    0 -0.38480895739E+02 -0.15453093039E+02  0.32385379889E+02  0.18082419709E+03  0.17300000000E+03 0. -1.
         -6    1    1    2    0  503  0.38480895739E+02  0.15453093039E+02 -0.24178048403E+03  0.30017724743E+03  0.17300000000E+03 0. -1.
<mgrwt>
<rscale>  2 0.17790047E+03</rscale>
<asrwt>0</asrwt>
<pdfrwt beam="1">  1       21 0.20892796E-01 0.17790047E+03</pdfrwt>
<pdfrwt beam="2">  1       21 0.53107426E-01 0.17790047E+03</pdfrwt>
<totfact> 0.71886069E+04</totfact>
</mgrwt>
</event>
<event>
 4    1  0.4137916E+000  0.2271199E+03  0.7546771E-02  0.1128684E+00
         21   -1    0    0  501  502  0.00000000000E+00  0.00000000000E+00  0.68772583731E+03  0.68772583731E+03  0.00000000000E+00 0. -1.
         21   -1    0    0  502  503 -0.00000000000E+00 -0.00000000000E+00 -0.41568179785E+03  0.41568179785E+03  0.00000000000E+00 0. -1.
          6    1    1    2  501    0  0.48342121962E+02 -0.13898731217E+03  0.63547688383E+03  0.67484391053E+03  0.17300000000E+03 0. -1.
         -6    1    1    2    0  503 -0.48342121962E+02  0.13898731217E+03 -0.36343284437E+03  0.42856372462E+03  0.17300000000E+03 0. -1.
<mgrwt>
<rscale>  2 0.22711987E+03</rscale>
<asrwt>0</asrwt>
<pdfrwt beam="1">  1       21 0.10580397E+00 0.22711987E+03</pdfrwt>
<pdfrwt beam="2">  1       21 0.63951046E-01 0.22711987E+03</pdfrwt>
<totfact> 0.15705423E+03</totfact>
</mgrwt>
</event>
<event>
 4    1  0.4137916E+000  0.1987217E+03  0.7546771E-02  0.1150822E+00
         21   -1    0    0  503  502  0.00000000000E+00  0.00000000000E+00  0.51084893599E+03  0.51084893599E+03  0.00000000000E+00 0. -1.
         21   -1    0    0  501  503 -0.00000000000E+00 -0.00000000000E+00 -0.78614260747E+02  0.78614260747E+02  0.00000000000E+00 0. -1.
          6    1    1    2  501    0 -0.97693819968E+02  0.41524244858E+01  0.25417705109E+03  0.32263957970E+03  0.17300000000E+03 0. -1.
         -6    1    1    2    0  502  0.97693819968E+02 -0.41524244858E+01  0.17805762415E+03  0.26682361704E+03  0.17300000000E+03 0. -1.
<mgrwt>
<rscale>  2 0.19872173E+03</rscale>
<asrwt>0</asrwt>
<pdfrwt beam="1">  1       21 0.78592142E-01 0.19872173E+03</pdfrwt>
<pdfrwt beam="2">  1       21 0.12094502E-01 0.19872173E+03</pdfrwt>
<totfact> 0.82615971E+04</totfact>
</mgrwt>
</event>
<event>
 4    1  0.4137916E+000  0.2214780E+03  0.7546771E-02  0.1132786E+00
         21   -1    0    0  501  502  0.00000000000E+00  0.00000000000E+00  0.89936731424E+02  0.89936731424E+02  0.00000000000E+00 0.  1.
         21   -1    0    0  502  503 -0.00000000000E+00 -0.00000000000E+00 -0.58396804468E+03  0.58396804468E+03  0.00000000000E+00 0. -1.
          6    1    1    2  501    0 -0.10800851120E+03  0.86357800138E+02 -0.33359698983E+03  0.40042409988E+03  0.17300000000E+03 0.  1.
         -6    1    1    2    0  503  0.10800851120E+03 -0.86357800138E+02 -0.16043432342E+03  0.27348067623E+03  0.17300000000E+03 0.  1.
<mgrwt>
<rscale>  2 0.22147801E+03</rscale>
<asrwt>0</asrwt>
<pdfrwt beam="1">  1       21 0.13836420E-01 0.22147801E+03</pdfrwt>
<pdfrwt beam="2">  1       21 0.89841239E-01 0.22147801E+03</pdfrwt>
<totfact> 0.47232727E+04</totfact>
</mgrwt>
</event>
<event>
 4    1  0.4137916E+000  0.1972753E+03  0.7546771E-02  0.1152058E+00
         21   -1    0    0  501  502  0.00000000000E+00  0.00000000000E+00  0.33924023610E+03  0.33924023610E+03  0.00000000000E+00 0.  1.
         21   -1    0    0  502  503 -0.00000000000E+00 -0.00000000000E+00 -0.15020770365E+03  0.15020770365E+03  0.00000000000E+00 0.  1.
          6    1    1    2  501    0  0.20953536492E+02 -0.92463404930E+02  0.21346814383E+03  0.29066506562E+03  0.17300000000E+03 0. -1.
         -6    1    1    2    0  503 -0.20953536492E+02  0.92463404930E+02 -0.24435611382E+02  0.19878287413E+03  0.17300000000E+03 0. -1.
<mgrwt>
<rscale>  2 0.19727527E+03</rscale>
<asrwt>0</asrwt>
<pdfrwt beam="1">  1       21 0.52190805E-01 0.19727527E+03</pdfrwt>
<pdfrwt beam="2">  1       21 0.23108878E-01 0.19727527E+03</pdfrwt>
<totfact> 0.61145740E+04</totfact>
</mgrwt>
</event>
<event>
 4    1  0.4137916E+000  0.1981235E+03  0.7546771E-02  0.1151332E+00
         21   -1    0    0  501  502  0.00000000000E+00  0.00000000000E+00  0.28407306974E+03  0.28407306974E+03  0.00000000000E+00 0.  1.
         21   -1    0    0  502  503 -0.00000000000E+00 -0.00000000000E+00 -0.19135660027E+03  0.19135660027E+03  0.00000000000E+00 0.  1.
          6    1    1    2  501    0  0.76321076673E+02  0.59152559984E+02  0.17167204594E+03  0.26215305349E+03  0.17300000000E+03 0.  1.
         -6    1    1    2    0  503 -0.76321076673E+02 -0.59152559984E+02 -0.78955576468E+02  0.21327661652E+03  0.17300000000E+03 0.  1.
<mgrwt>
<rscale>  2 0.19812353E+03</rscale>
<asrwt>0</asrwt>
<pdfrwt beam="1">  1       21 0.43703549E-01 0.19812353E+03</pdfrwt>
<pdfrwt beam="2">  1       21 0.29439477E-01 0.19812353E+03</pdfrwt>
<totfact> 0.55475212E+04</totfact>
</mgrwt>
</event>
<event>
 4    1  0.4137916E+000  0.1760399E+03  0.7546771E-02  0.1171692E+00
         21   -1    0    0  501  502  0.00000000000E+00  0.00000000000E+00  0.18803743601E+04  0.18803743601E+04  0.00000000000E+00 0. -1.
         21   -1    0    0  502  503 -0.00000000000E+00 -0.00000000000E+00 -0.41068812767E+02  0.41068812767E+02  0.00000000000E+00 0. -1.
          6    1    1    2  501    0  0.29864679025E+02  0.13005768010E+02  0.16630198217E+04  0.16723112679E+04  0.17300000000E+03 0. -1.
         -6    1    1    2    0  503 -0.29864679025E+02 -0.13005768010E+02  0.17628572561E+03  0.24913190504E+03  0.17300000000E+03 0. -1.
<mgrwt>
<rscale>  2 0.17603991E+03</rscale>
<asrwt>0</asrwt>
<pdfrwt beam="1">  1       21 0.28928830E+00 0.17603991E+03</pdfrwt>
<pdfrwt beam="2">  1       21 0.63182803E-02 0.17603991E+03</pdfrwt>
<totfact> 0.72346220E+03</totfact>
</mgrwt>
</event>
<event>
 4    1  0.4137916E+000  0.2166955E+03  0.7546771E-02  0.1136371E+00
         21   -1    0    0  503  502  0.00000000000E+00  0.00000000000E+00  0.52565062330E+03  0.52565062330E+03  0.00000000000E+00 0.  1.
         21   -1    0    0  501  503 -0.00000000000E+00 -0.00000000000E+00 -0.10942682368E+03  0.10942682368E+03  0.00000000000E+00 0.  1.
          6    1    1    2  501    0 -0.39555340384E+02  0.12435155343E+03  0.72034211345E+02  0.22835468333E+03  0.17300000000E+03 0.  1.
         -6    1    1    2    0  502  0.39555340384E+02 -0.12435155343E+03  0.34418958828E+03  0.40672276365E+03  0.17300000000E+03 0.  1.
<mgrwt>
<rscale>  2 0.21669549E+03</rscale>
<asrwt>0</asrwt>
<pdfrwt beam="1">  1       21 0.80869325E-01 0.21669549E+03</pdfrwt>
<pdfrwt beam="2">  1       21 0.16834896E-01 0.21669549E+03</pdfrwt>
<totfact> 0.42110575E+04</totfact>
</mgrwt>
</event>
<event>
 4    1  0.4137916E+000  0.2364169E+03  0.7546771E-02  0.1122203E+00
         21   -1    0    0  503  502  0.00000000000E+00  0.00000000000E+00  0.36000252425E+03  0.36000252425E+03  0.00000000000E+00 0.  1.
         21   -1    0    0  501  503 -0.00000000000E+00 -0.00000000000E+00 -0.19652792369E+03  0.19652792369E+03  0.00000000000E+00 0.  1.
          6    1    1    2  501    0  0.65572521836E+02 -0.14718767712E+03 -0.45779696835E+02  0.24080853091E+03  0.17300000000E+03 0.  1.
         -6    1    1    2    0  502 -0.65572521836E+02  0.14718767712E+03  0.20925429740E+03  0.31572191704E+03  0.17300000000E+03 0.  1.
<mgrwt>
<rscale>  2 0.23641694E+03</rscale>
<asrwt>0</asrwt>
<pdfrwt beam="1">  1       21 0.55385004E-01 0.23641694E+03</pdfrwt>
<pdfrwt beam="2">  1       21 0.30235065E-01 0.23641694E+03</pdfrwt>
<totfact> 0.31543504E+04</totfact>
</mgrwt>
</event>
<event>
 4    1  0.4137916E+000  0.2438378E+03  0.7546771E-02  0.1117262E+00
         21   -1    0    0  503  502  0.00000000000E+00  0.00000000000E+00  0.68384746277E+03  0.68384746277E+03  0.00000000000E+00 0. -1.
         21   -1    0    0  501  503 -0.00000000000E+00 -0.00000000000E+00 -0.10899102389E+03  0.10899102389E+03  0.00000000000E+00 0. -1.
          6    1    1    2  501    0 -0.15843274636E+03 -0.66535225340E+02  0.10913778358E+03  0.26714776274E+03  0.17300000000E+03 0. -1.
         -6    1    1    2    0  502  0.15843274636E+03  0.66535225340E+02  0.46571865530E+03  0.52569072393E+03  0.17300000000E+03 0. -1.
<mgrwt>
<rscale>  2 0.24383780E+03</rscale>
<asrwt>0</asrwt>
<pdfrwt beam="1">  1       21 0.10520730E+00 0.24383780E+03</pdfrwt>
<pdfrwt beam="2">  1       21 0.16767850E-01 0.24383780E+03</pdfrwt>
<totfact> 0.22606030E+04</totfact>
</mgrwt>
</event>
<event>
 4    1  0.4137916E+000  0.1877298E+03  0.7546771E-02  0.1160525E+00
         21   -1    0    0  503  502  0.00000000000E+00  0.00000000000E+00  0.20611221604E+04  0.20611221604E+04  0.00000000000E+00 0.  1.
         21   -1    0    0  501  503 -0.00000000000E+00 -0.00000000000E+00 -0.90888635458E+02  0.90888635458E+02  0.00000000000E+00 0.  1.
          6    1    1    2  501    0  0.69479201494E+02  0.22048311407E+02  0.15593452708E+02  0.18837633409E+03  0.17300000000E+03 0.  1.
         -6    1    1    2    0  502 -0.69479201494E+02 -0.22048311407E+02  0.19546400722E+04  0.19636344617E+04  0.17300000000E+03 0.  1.
<mgrwt>
<rscale>  2 0.18772983E+03</rscale>
<asrwt>0</asrwt>
<pdfrwt beam="1">  1       21 0.31709568E+00 0.18772983E+03</pdfrwt>
<pdfrwt beam="2">  1       21 0.13982869E-01 0.18772983E+03</pdfrwt>
<totfact> 0.12206675E+03</totfact>
</mgrwt>
</event>
<event>
 4    1  0.4137916E+000  0.1731798E+03  0.7546771E-02  0.1174572E+00
         21   -1    0    0  503  502  0.00000000000E+00  0.00000000000E+00  0.77717410188E+02  0.77717410188E+02  0.00000000000E+00 0. -1.
         21   -1    0    0  501  503 -0.00000000000E+00 -0.00000000000E+00 -0.45233461515E+03  0.45233461515E+03  0.00000000000E+00 0. -1.
          6    1    1    2  501    0 -0.61781668273E+01 -0.49066150479E+01 -0.28887540116E+03  0.33680891023E+03  0.17300000000E+03 0.  1.
         -6    1    1    2    0  502  0.61781668273E+01  0.49066150479E+01 -0.85741803803E+02  0.19324311511E+03  0.17300000000E+03 0.  1.
<mgrwt>
<rscale>  2 0.17317980E+03</rscale>
<asrwt>0</asrwt>
<pdfrwt beam="1">  1       21 0.11956525E-01 0.17317980E+03</pdfrwt>
<pdfrwt beam="2">  1       21 0.69589941E-01 0.17317980E+03</pdfrwt>
<totfact> 0.11168718E+05</totfact>
</mgrwt>
</event>
<event>
 4    1  0.4137916E+000  0.2639541E+03  0.7546771E-02  0.1104791E+00
         21   -1    0    0  503  502  0.00000000000E+00  0.00000000000E+00  0.15294234936E+03  0.15294234936E+03  0.00000000000E+00 0.  1.
         21   -1    0    0  501  503 -0.00000000000E+00 -0.00000000000E+00 -0.76210814205E+03  0.76210814205E+03  0.00000000000E+00 0. -1.
          6    1    1    2  501    0 -0.19729848572E+03  0.28566819852E+02 -0.59476353394E+03  0.65070378589E+03  0.17300000000E+03 0. -1.
         -6    1    1    2    0  502  0.19729848572E+03 -0.28566819852E+02 -0.14402258743E+02  0.26434670552E+03  0.17300000000E+03 0.  1.
<mgrwt>
<rscale>  2 0.26395408E+03</rscale>
<asrwt>0</asrwt>
<pdfrwt beam="1">  1       21 0.23529592E-01 0.26395408E+03</pdfrwt>
<pdfrwt beam="2">  1       21 0.11724741E+00 0.26395408E+03</pdfrwt>
<totfact> 0.90810112E+03</totfact>
</mgrwt>
</event>
<event>
 4    1  0.4137916E+000  0.3028036E+03  0.7546771E-02  0.1083847E+00
         21   -1    0    0  501  502  0.00000000000E+00  0.00000000000E+00  0.59443822268E+02  0.59443822268E+02  0.00000000000E+00 0. -1.
         21   -1    0    0  502  503 -0.00000000000E+00 -0.00000000000E+00 -0.16619972451E+04  0.16619972451E+04  0.00000000000E+00 0. -1.
          6    1    1    2  501    0 -0.24835240588E+03  0.90608919330E+01 -0.57044817781E+03  0.64583367893E+03  0.17300000000E+03 0. -1.
         -6    1    1    2    0  503  0.24835240588E+03 -0.90608919330E+01 -0.10321052450E+04  0.10756073885E+04  0.17300000000E+03 0. -1.
<mgrwt>
<rscale>  2 0.30280360E+03</rscale>
<asrwt>0</asrwt>
<pdfrwt beam="1">  1       21 0.91452039E-02 0.30280360E+03</pdfrwt>
<pdfrwt beam="2">  1       21 0.25569187E+00 0.30280360E+03</pdfrwt>
<totfact> 0.53373275E+03</totfact>
</mgrwt>
</event>
<event>
 4    1  0.4137916E+000  0.3008352E+03  0.7546771E-02  0.1084824E+00
         21   -1    0    0  503  502  0.00000000000E+00  0.00000000000E+00  0.47889418149E+03  0.47889418149E+03  0.00000000000E+00 0. -1.
         21   -1    0    0  501  503 -0.00000000000E+00 -0.00000000000E+00 -0.27444577495E+03  0.27444577495E+03  0.00000000000E+00 0.  1.
          6    1    1    2  501    0  0.62486426934E+02  0.23805100546E+03 -0.10797286875E+03  0.31962474112E+03  0.17300000000E+03 0.  1.
         -6    1    1    2    0  502 -0.62486426934E+02 -0.23805100546E+03  0.31242127529E+03  0.43371521533E+03  0.17300000000E+03 0. -1.
<mgrwt>
<rscale>  2 0.30083523E+03</rscale>
<asrwt>0</asrwt>
<pdfrwt beam="1">  1       21 0.73676028E-01 0.30083523E+03</pdfrwt>
<pdfrwt beam="2">  1       21 0.42222427E-01 0.30083523E+03</pdfrwt>
<totfact> 0.83857465E+03</totfact>
</mgrwt>
</event>
<event>
 4    1  0.4137916E+000  0.1819303E+03  0.7546771E-02  0.1165948E+00
         21   -1    0    0  503  502  0.00000000000E+00  0.00000000000E+00  0.23702704919E+03  0.23702704919E+03  0.00000000000E+00 0.  1.
         21   -1    0    0  501  503 -0.00000000000E+00 -0.00000000000E+00 -0.21437302231E+03  0.21437302231E+03  0.00000000000E+00 0.  1.
          6    1    1    2  501    0 -0.54925058129E+02  0.12364568570E+02 -0.12193321027E+03  0.21901221960E+03  0.17300000000E+03 0.  1.
         -6    1    1    2    0  502  0.54925058129E+02 -0.12364568570E+02  0.14458723714E+03  0.23238785190E+03  0.17300000000E+03 0.  1.
<mgrwt>
<rscale>  2 0.18193033E+03</rscale>
<asrwt>0</asrwt>
<pdfrwt beam="1">  1       21 0.36465700E-01 0.18193033E+03</pdfrwt>
<pdfrwt beam="2">  1       21 0.32980465E-01 0.18193033E+03</pdfrwt>
<totfact> 0.64490365E+04</totfact>
</mgrwt>
</event>
<event>
 4    1  0.4137916E+000  0.2258821E+03  0.7546771E-02  0.1129572E+00
         21   -1    0    0  501  502  0.00000000000E+00  0.00000000000E+00  0.88448951936E+03  0.88448951936E+03  0.00000000000E+00 0.  1.
         21   -1    0    0  502  503 -0.00000000000E+00 -0.00000000000E+00 -0.44869762752E+03  0.44869762752E+03  0.00000000000E+00 0.  1.
          6    1    1    2  501    0  0.14515858933E+03 -0.47670997200E+01  0.84016617292E+03  0.87000111460E+03  0.17300000000E+03 0.  1.
         -6    1    1    2    0  503 -0.14515858933E+03  0.47670997200E+01 -0.40437428108E+03  0.46318603227E+03  0.17300000000E+03 0.  1.
<mgrwt>
<rscale>  2 0.22588214E+03</rscale>
<asrwt>0</asrwt>
<pdfrwt beam="1">  1       21 0.13607531E+00 0.22588214E+03</pdfrwt>
<pdfrwt beam="2">  1       21 0.69030404E-01 0.22588214E+03</pdfrwt>
<totfact> 0.71116134E+02</totfact>
</mgrwt>
</event>
<event>
 4    1  0.4137916E+000  0.2849926E+03  0.7546771E-02  0.1092993E+00
         21   -1    0    0  503  502  0.00000000000E+00  0.00000000000E+00  0.98887772924E+02  0.98887772924E+02  0.00000000000E+00 0.  1.
         21   -1    0    0  501  503 -0.00000000000E+00 -0.00000000000E+00 -0.15535704577E+04  0.15535704577E+04  0.00000000000E+00 0. -1.
          6    1    1    2  501    0  0.12734407104E+03 -0.18728396263E+03 -0.12945697568E+04  0.13255684254E+04  0.17300000000E+03 0. -1.
         -6    1    1    2    0  502 -0.12734407104E+03  0.18728396263E+03 -0.16011292799E+03  0.32688980528E+03  0.17300000000E+03 0.  1.
<mgrwt>
<rscale>  2 0.28499262E+03</rscale>
<asrwt>0</asrwt>
<pdfrwt beam="1">  1       21 0.15213505E-01 0.28499262E+03</pdfrwt>
<pdfrwt beam="2">  1       21 0.23901082E+00 0.28499262E+03</pdfrwt>
<totfact> 0.27182059E+03</totfact>
</mgrwt>
</event>
<event>
 4    1  0.4137916E+000  0.1796531E+03  0.7546771E-02  0.1168139E+00
         21   -1    0    0  503  502  0.00000000000E+00  0.00000000000E+00  0.39663019475E+03  0.39663019475E+03  0.00000000000E+00 0. -1.
         21   -1    0    0  501  503 -0.00000000000E+00 -0.00000000000E+00 -0.28041035271E+03  0.28041035271E+03  0.00000000000E+00 0. -1.
          6    1    1    2  501    0  0.26562963416E+01  0.48365079612E+02 -0.22709319933E+03  0.28956270136E+03  0.17300000000E+03 0. -1.
         -6    1    1    2    0  502 -0.26562963416E+01 -0.48365079612E+02  0.34331304138E+03  0.38747784610E+03  0.17300000000E+03 0. -1.
<mgrwt>
<rscale>  2 0.17965310E+03</rscale>
<asrwt>0</asrwt>
<pdfrwt beam="1">  1       21 0.61020030E-01 0.17965310E+03</pdfrwt>
<pdfrwt beam="2">  1       21 0.43140054E-01 0.17965310E+03</pdfrwt>
<totfact> 0.13021502E+04</totfact>
</mgrwt>
</event>
<event>
 4    1  0.4137916E+000  0.1771649E+03  0.7546771E-02  0.1170575E+00
         21   -1    0    0  501  502  0.00000000000E+00  0.00000000000E+00  0.24336074540E+03  0.24336074540E+03  0.00000000000E+00 0.  1.
         21   -1    0    0  502  503 -0.00000000000E+00 -0.00000000000E+00 -0.15655450994E+03  0.15655450994E+03  0.00000000000E+00 0.  1.
          6    1    1    2  501    0  0.37435846688E+02  0.75461728418E+01  0.12732989616E+03  0.21817490643E+03  0.17300000000E+03 0.  1.
         -6    1    1    2    0  503 -0.37435846688E+02 -0.75461728418E+01 -0.40523660702E+02  0.18174034890E+03  0.17300000000E+03 0.  1.
<mgrwt>
<rscale>  2 0.17716486E+03</rscale>
<asrwt>0</asrwt>
<pdfrwt beam="1">  1       21 0.37440115E-01 0.17716486E+03</pdfrwt>
<pdfrwt beam="2">  1       21 0.24085309E-01 0.17716486E+03</pdfrwt>
<totfact> 0.11251235E+05</totfact>
</mgrwt>
</event>
<event>
 4    1  0.4137916E+000  0.2184706E+03  0.7546771E-02  0.1135028E+00
         21   -1    0    0  503  502  0.00000000000E+00  0.00000000000E+00  0.21947468116E+03  0.21947468116E+03  0.00000000000E+00 0. -1.
         21   -1    0    0  501  503 -0.00000000000E+00 -0.00000000000E+00 -0.21867226850E+03  0.21867226850E+03  0.00000000000E+00 0.  1.
          6    1    1    2  501    0  0.45701178673E+02 -0.12534674058E+03 -0.15835301467E+02  0.21904373965E+03  0.17300000000E+03 0.  1.
         -6    1    1    2    0  502 -0.45701178673E+02  0.12534674058E+03  0.16637714134E+02  0.21910321001E+03  0.17300000000E+03 0. -1.
<mgrwt>
<rscale>  2 0.21847060E+03</rscale>
<asrwt>0</asrwt>
<pdfrwt beam="1">  1       21 0.33765336E-01 0.21847060E+03</pdfrwt>
<pdfrwt beam="2">  1       21 0.33641887E-01 0.21847060E+03</pdfrwt>
<totfact> 0.71113487E+04</totfact>
</mgrwt>
</event>
<event>
 4    1  0.4137916E+000  0.1905793E+03  0.7546771E-02  0.1157940E+00
         21   -1    0    0  501  502  0.00000000000E+00  0.00000000000E+00  0.39400353440E+03  0.39400353440E+03  0.00000000000E+00 0. -1.
         21   -1    0    0  502  503 -0.00000000000E+00 -0.00000000000E+00 -0.13140399736E+03  0.13140399736E+03  0.00000000000E+00 0. -1.
          6    1    1    2  501    0 -0.79774039577E+02  0.52498901761E+01  0.27482256642E+03  0.33443669319E+03  0.17300000000E+03 0. -1.
         -6    1    1    2    0  503  0.79774039577E+02 -0.52498901761E+01 -0.12223029376E+02  0.19097083857E+03  0.17300000000E+03 0. -1.
<mgrwt>
<rscale>  2 0.19057927E+03</rscale>
<asrwt>0</asrwt>
<pdfrwt beam="1">  1       21 0.60615928E-01 0.19057927E+03</pdfrwt>
<pdfrwt beam="2">  1       21 0.20216000E-01 0.19057927E+03</pdfrwt>
<totfact> 0.57407231E+04</totfact>
</mgrwt>
</event>
<event>
 4    1  0.4137916E+000  0.3908570E+03  0.7546771E-02  0.1046992E+00
         21   -1    0    0  503  502  0.00000000000E+00  0.00000000000E+00  0.93719280735E+03  0.93719280735E+03  0.00000000000E+00 0.  1.
         21   -1    0    0  501  503 -0.00000000000E+00 -0.00000000000E+00 -0.19651468917E+03  0.19651468917E+03  0.00000000000E+00 0. -1.
          6    1    1    2  501    0 -0.34347869018E+03  0.69732440785E+02  0.60440817823E+03  0.71977668052E+03  0.17300000000E+03 0.  1.
         -6    1    1    2    0  502  0.34347869018E+03 -0.69732440785E+02  0.13626993994E+03  0.41393081600E+03  0.17300000000E+03 0. -1.
<mgrwt>
<rscale>  2 0.39085704E+03</rscale>
<asrwt>0</asrwt>
<pdfrwt beam="1">  1       21 0.14418351E+00 0.39085704E+03</pdfrwt>
<pdfrwt beam="2">  1       21 0.30233030E-01 0.39085704E+03</pdfrwt>
<totfact> 0.30785263E+03</totfact>
</mgrwt>
</event>
<event>
 4    1  0.4137916E+000  0.2298117E+03  0.7546771E-02  0.1126772E+00
         21   -1    0    0  503  502  0.00000000000E+00  0.00000000000E+00  0.48676323518E+03  0.48676323518E+03  0.00000000000E+00 0.  1.
         21   -1    0    0  501  503 -0.00000000000E+00 -0.00000000000E+00 -0.15257980486E+03  0.15257980486E+03  0.00000000000E+00 0.  1.
          6    1    1    2  501    0 -0.15090868707E+03 -0.10535876172E+02  0.33891382210E+03  0.40948261908E+03  0.17300000000E+03 0.  1.
         -6    1    1    2    0  502  0.15090868707E+03  0.10535876172E+02 -0.47303917850E+01  0.22986042096E+03  0.17300000000E+03 0.  1.
<mgrwt>
<rscale>  2 0.22981174E+03</rscale>
<asrwt>0</asrwt>
<pdfrwt beam="1">  1       21 0.74886651E-01 0.22981174E+03</pdfrwt>
<pdfrwt beam="2">  1       21 0.23473816E-01 0.22981174E+03</pdfrwt>
<totfact> 0.26696139E+04</totfact>
</mgrwt>
</event>
<event>
 4    1  0.4137916E+000  0.2032793E+03  0.7546771E-02  0.1147001E+00
         21   -1    0    0  501  502  0.00000000000E+00  0.00000000000E+00  0.38191757991E+03  0.38191757991E+03  0.00000000000E+00 0.  1.
         21   -1    0    0  502  503 -0.00000000000E+00 -0.00000000000E+00 -0.11872078052E+03  0.11872078052E+03  0.00000000000E+00 0.  1.
          6    1    1    2  501    0 -0.67675721112E+02  0.82543722584E+02  0.20612468299E+03  0.28949931659E+03  0.17300000000E+03 0.  1.
         -6    1    1    2    0  503  0.67675721112E+02 -0.82543722584E+02  0.57072116393E+02  0.21113904384E+03  0.17300000000E+03 0.  1.
<mgrwt>
<rscale>  2 0.20327929E+03</rscale>
<asrwt>0</asrwt>
<pdfrwt beam="1">  1       21 0.58756550E-01 0.20327929E+03</pdfrwt>
<pdfrwt beam="2">  1       21 0.18264736E-01 0.20327929E+03</pdfrwt>
<totfact> 0.73713156E+04</totfact>
</mgrwt>
</event>
<event>
 4    1  0.4137916E+000  0.1784266E+03  0.7546771E-02  0.1169335E+00
         21   -1    0    0  501  502  0.00000000000E+00  0.00000000000E+00  0.40839027392E+02  0.40839027392E+02  0.00000000000E+00 0.  1.
         21   -1    0    0  502  503 -0.00000000000E+00 -0.00000000000E+00 -0.90423461917E+03  0.90423461917E+03  0.00000000000E+00 0.  1.
          6    1    1    2  501    0  0.15471742067E+02 -0.40837080034E+02 -0.25622796097E+03  0.31223198089E+03  0.17300000000E+03 0.  1.
         -6    1    1    2    0  503 -0.15471742067E+02  0.40837080034E+02 -0.60716763080E+03  0.63284166567E+03  0.17300000000E+03 0.  1.
<mgrwt>
<rscale>  2 0.17842657E+03</rscale>
<asrwt>0</asrwt>
<pdfrwt beam="1">  1       21 0.62829276E-02 0.17842657E+03</pdfrwt>
<pdfrwt beam="2">  1       21 0.13911301E+00 0.17842657E+03</pdfrwt>
<totfact> 0.66760325E+04</totfact>
</mgrwt>
</event>
<event>
 4    1  0.4137916E+000  0.2855234E+03  0.7546771E-02  0.1092710E+00
         21   -1    0    0  503  502  0.00000000000E+00  0.00000000000E+00  0.16132896468E+03  0.16132896468E+03  0.00000000000E+00 0.  1.
         21   -1    0    0  501  503 -0.00000000000E+00 -0.00000000000E+00 -0.55835512822E+03  0.55835512822E+03  0.00000000000E+00 0. -1.
          6    1    1    2  501    0  0.19717172828E+03 -0.11277380350E+03 -0.87616945424E+02  0.29866427693E+03  0.17300000000E+03 0. -1.
         -6    1    1    2    0  502 -0.19717172828E+03  0.11277380350E+03 -0.30940921812E+03  0.42101981597E+03  0.17300000000E+03 0.  1.
<mgrwt>
<rscale>  2 0.28552342E+03</rscale>
<asrwt>0</asrwt>
<pdfrwt beam="1">  1       21 0.24819841E-01 0.28552342E+03</pdfrwt>
<pdfrwt beam="2">  1       21 0.85900787E-01 0.28552342E+03</pdfrwt>
<totfact> 0.17096706E+04</totfact>
</mgrwt>
</event>
<event>
 4    1  0.4137916E+000  0.2199694E+03  0.7546771E-02  0.1133906E+00
         21   -1    0    0  503  502  0.00000000000E+00  0.00000000000E+00  0.34341628888E+03  0.34341628888E+03  0.00000000000E+00 0.  1.
         21   -1    0    0  501  503 -0.00000000000E+00 -0.00000000000E+00 -0.15639221206E+03  0.15639221206E+03  0.00000000000E+00 0. -1.
          6    1    1    2  501    0 -0.24852175589E+02  0.13356611022E+03  0.17217244912E+03  0.27933830505E+03  0.17300000000E+03 0.  1.
         -6    1    1    2    0  502  0.24852175589E+02 -0.13356611022E+03  0.14851627700E+02  0.22047019589E+03  0.17300000000E+03 0. -1.
<mgrwt>
<rscale>  2 0.21996940E+03</rscale>
<asrwt>0</asrwt>
<pdfrwt beam="1">  1       21 0.52833275E-01 0.21996940E+03</pdfrwt>
<pdfrwt beam="2">  1       21 0.24060340E-01 0.21996940E+03</pdfrwt>
<totfact> 0.54621108E+04</totfact>
</mgrwt>
</event>
<event>
 4    1  0.4137916E+000  0.2020280E+03  0.7546771E-02  0.1148039E+00
         21   -1    0    0  503  502  0.00000000000E+00  0.00000000000E+00  0.48024718754E+03  0.48024718754E+03  0.00000000000E+00 0. -1.
         21   -1    0    0  501  503 -0.00000000000E+00 -0.00000000000E+00 -0.85370958266E+02  0.85370958266E+02  0.00000000000E+00 0. -1.
          6    1    1    2  501    0 -0.99036574826E+02  0.32833976249E+02  0.17849998790E+03  0.26958775720E+03  0.17300000000E+03 0. -1.
         -6    1    1    2    0  502  0.99036574826E+02 -0.32833976249E+02  0.21637624138E+03  0.29603038861E+03  0.17300000000E+03 0. -1.
<mgrwt>
<rscale>  2 0.20202800E+03</rscale>
<asrwt>0</asrwt>
<pdfrwt beam="1">  1       21 0.73884181E-01 0.20202800E+03</pdfrwt>
<pdfrwt beam="2">  1       21 0.13133994E-01 0.20202800E+03</pdfrwt>
<totfact> 0.81697550E+04</totfact>
</mgrwt>
</event>
<event>
 4    1  0.4137916E+000  0.2379430E+03  0.7546771E-02  0.1121171E+00
         21   -1    0    0  501  502  0.00000000000E+00  0.00000000000E+00  0.55192286799E+03  0.55192286799E+03  0.00000000000E+00 0.  1.
         21   -1    0    0  502  503 -0.00000000000E+00 -0.00000000000E+00 -0.11617512807E+03  0.11617512807E+03  0.00000000000E+00 0.  1.
          6    1    1    2  501    0 -0.30378115371E+02  0.16051491706E+03  0.10360517126E+03  0.25952051943E+03  0.17300000000E+03 0.  1.
         -6    1    1    2    0  503  0.30378115371E+02 -0.16051491706E+03  0.33214256866E+03  0.40857747663E+03  0.17300000000E+03 0.  1.
<mgrwt>
<rscale>  2 0.23794299E+03</rscale>
<asrwt>0</asrwt>
<pdfrwt beam="1">  1       21 0.84911209E-01 0.23794299E+03</pdfrwt>
<pdfrwt beam="2">  1       21 0.17873097E-01 0.23794299E+03</pdfrwt>
<totfact> 0.33380215E+04</totfact>
</mgrwt>
</event>
<event>
 4    1  0.4137916E+000  0.2137446E+03  0.7546771E-02  0.1138635E+00
         21   -1    0    0  501  502  0.00000000000E+00  0.00000000000E+00  0.16542112378E+04  0.16542112378E+04  0.00000000000E+00 0.  1.
         21   -1    0    0  502  503 -0.00000000000E+00 -0.00000000000E+00 -0.54176085722E+02  0.54176085722E+02  0.00000000000E+00 0.  1.
          6    1    1    2  501    0  0.10923107780E+03  0.61857154004E+02  0.13980810914E+04  0.14143258020E+04  0.17300000000E+03 0.  1.
         -6    1    1    2    0  503 -0.10923107780E+03 -0.61857154004E+02  0.20195406066E+03  0.29406152158E+03  0.17300000000E+03 0.  1.
<mgrwt>
<rscale>  2 0.21374456E+03</rscale>
<asrwt>0</asrwt>
<pdfrwt beam="1">  1       21 0.25449400E+00 0.21374456E+03</pdfrwt>
<pdfrwt beam="2">  1       21 0.83347837E-02 0.21374456E+03</pdfrwt>
<totfact> 0.68492034E+03</totfact>
</mgrwt>
</event>
<event>
 4    1  0.4137916E+000  0.2732796E+03  0.7546771E-02  0.1099417E+00
         21   -1    0    0  501  502  0.00000000000E+00  0.00000000000E+00  0.20418019810E+03  0.20418019810E+03  0.00000000000E+00 0. -1.
         21   -1    0    0  502  503 -0.00000000000E+00 -0.00000000000E+00 -0.14846733727E+04  0.14846733727E+04  0.00000000000E+00 0. -1.
          6    1    1    2  501    0  0.19281890963E+03 -0.87026472885E+02  0.92821008551E+02  0.28861302556E+03  0.17300000000E+03 0. -1.
         -6    1    1    2    0  503 -0.19281890963E+03  0.87026472885E+02 -0.13733141831E+04  0.14002405452E+04  0.17300000000E+03 0. -1.
<mgrwt>
<rscale>  2 0.27327960E+03</rscale>
<asrwt>0</asrwt>
<pdfrwt beam="1">  1       21 0.31412339E-01 0.27327960E+03</pdfrwt>
<pdfrwt beam="2">  1       21 0.22841128E+00 0.27327960E+03</pdfrwt>
<totfact> 0.80201706E+02</totfact>
</mgrwt>
</event>
<event>
 4    1  0.4137916E+000  0.1738533E+03  0.7546771E-02  0.1173888E+00
         21   -1    0    0  501  502  0.00000000000E+00  0.00000000000E+00  0.50520393226E+02  0.50520393226E+02  0.00000000000E+00 0. -1.
         21   -1    0    0  502  503 -0.00000000000E+00 -0.00000000000E+00 -0.64037341616E+03  0.64037341616E+03  0.00000000000E+00 0. -1.
          6    1    1    2  501    0  0.12677237512E+02 -0.11630020439E+02 -0.20635182202E+03  0.26982595164E+03  0.17300000000E+03 0.  1.
         -6    1    1    2    0  503 -0.12677237512E+02  0.11630020439E+02 -0.38350120091E+03  0.42106785775E+03  0.17300000000E+03 0.  1.
<mgrwt>
<rscale>  2 0.17385330E+03</rscale>
<asrwt>0</asrwt>
<pdfrwt beam="1">  1       21 0.77723682E-02 0.17385330E+03</pdfrwt>
<pdfrwt beam="2">  1       21 0.98518987E-01 0.17385330E+03</pdfrwt>
<totfact> 0.10812937E+05</totfact>
</mgrwt>
</event>
<event>
 4    1  0.4137916E+000  0.2359375E+03  0.7546771E-02  0.1122529E+00
         21   -1    0    0  501  502  0.00000000000E+00  0.00000000000E+00  0.79939745057E+03  0.79939745057E+03  0.00000000000E+00 0.  1.
         21   -1    0    0  502  503 -0.00000000000E+00 -0.00000000000E+00 -0.70666196094E+02  0.70666196094E+02  0.00000000000E+00 0. -1.
          6    1    1    2  501    0 -0.14888146149E+03  0.59764831180E+02  0.41690180713E+03  0.47903407124E+03  0.17300000000E+03 0.  1.
         -6    1    1    2    0  503  0.14888146149E+03 -0.59764831180E+02  0.31182944735E+03  0.39102957542E+03  0.17300000000E+03 0. -1.
<mgrwt>
<rscale>  2 0.23593754E+03</rscale>
<asrwt>0</asrwt>
<pdfrwt beam="1">  1       21 0.12298422E+00 0.23593754E+03</pdfrwt>
<pdfrwt beam="2">  1       21 0.10871723E-01 0.23593754E+03</pdfrwt>
<totfact> 0.33955611E+04</totfact>
</mgrwt>
</event>
<event>
 4    1  0.4137916E+000  0.1900333E+03  0.7546771E-02  0.1158431E+00
         21   -1    0    0  501  502  0.00000000000E+00  0.00000000000E+00  0.47393983436E+03  0.47393983436E+03  0.00000000000E+00 0. -1.
         21   -1    0    0  502  503 -0.00000000000E+00 -0.00000000000E+00 -0.84862119671E+02  0.84862119671E+02  0.00000000000E+00 0. -1.
          6    1    1    2  501    0 -0.67319344415E+02 -0.40641843062E+02  0.28382121884E+03  0.34156571521E+03  0.17300000000E+03 0. -1.
         -6    1    1    2    0  503  0.67319344415E+02  0.40641843062E+02  0.10525649584E+03  0.21723623882E+03  0.17300000000E+03 0. -1.
<mgrwt>
<rscale>  2 0.19003330E+03</rscale>
<asrwt>0</asrwt>
<pdfrwt beam="1">  1       21 0.72913819E-01 0.19003330E+03</pdfrwt>
<pdfrwt beam="2">  1       21 0.13055711E-01 0.19003330E+03</pdfrwt>
<totfact> 0.85490479E+04</totfact>
</mgrwt>
</event>
<event>
 4    1  0.4137916E+000  0.1823005E+03  0.7546771E-02  0.1165595E+00
         21   -1    0    0  503  502  0.00000000000E+00  0.00000000000E+00  0.51993275148E+03  0.51993275148E+03  0.00000000000E+00 0.  1.
         21   -1    0    0  501  503 -0.00000000000E+00 -0.00000000000E+00 -0.64618936543E+02  0.64618936543E+02  0.00000000000E+00 0.  1.
          6    1    1    2  501    0 -0.33616311188E+02 -0.46630636765E+02  0.25808027692E+03  0.31597294504E+03  0.17300000000E+03 0.  1.
         -6    1    1    2    0  502  0.33616311188E+02  0.46630636765E+02  0.19723353802E+03  0.26857874299E+03  0.17300000000E+03 0.  1.
<mgrwt>
<rscale>  2 0.18230050E+03</rscale>
<asrwt>0</asrwt>
<pdfrwt beam="1">  1       21 0.79989651E-01 0.18230050E+03</pdfrwt>
<pdfrwt beam="2">  1       21 0.99413752E-02 0.18230050E+03</pdfrwt>
<totfact> 0.11324249E+05</totfact>
</mgrwt>
</event>
<event>
 4    1  0.4137916E+000  0.1792985E+03  0.7546771E-02  0.1168484E+00
         21   -1    0    0  501  502  0.00000000000E+00  0.00000000000E+00  0.15837347121E+04  0.15837347121E+04  0.00000000000E+00 0.  1.
         21   -1    0    0  502  503 -0.00000000000E+00 -0.00000000000E+00 -0.38761360267E+02  0.38761360267E+02  0.00000000000E+00 0.  1.
          6    1    1    2  501    0 -0.90893223083E+01 -0.46220679136E+02  0.13323728263E+04  0.13443828753E+04  0.17300000000E+03 0.  1.
         -6    1    1    2    0  503  0.90893223083E+01  0.46220679136E+02  0.21260052551E+03  0.27811319711E+03  0.17300000000E+03 0.  1.
<mgrwt>
<rscale>  2 0.17929854E+03</rscale>
<asrwt>0</asrwt>
<pdfrwt beam="1">  1       21 0.24365144E+00 0.17929854E+03</pdfrwt>
<pdfrwt beam="2">  1       21 0.59632874E-02 0.17929854E+03</pdfrwt>
<totfact> 0.14620970E+04</totfact>
</mgrwt>
</event>
<event>
 4    1  0.4137916E+000  0.1956465E+03  0.7546771E-02  0.1153465E+00
         21   -1    0    0  501  502  0.00000000000E+00  0.00000000000E+00  0.22699370642E+03  0.22699370642E+03  0.00000000000E+00 0.  1.
         21   -1    0    0  502  503 -0.00000000000E+00 -0.00000000000E+00 -0.20555309259E+03  0.20555309259E+03  0.00000000000E+00 0. -1.
          6    1    1    2  501    0 -0.19149359242E+01 -0.91350253770E+02  0.10238473443E+03  0.22081705027E+03  0.17300000000E+03 0.  1.
         -6    1    1    2    0  503  0.19149359242E+01  0.91350253770E+02 -0.80944120603E+02  0.21172974874E+03  0.17300000000E+03 0. -1.
<mgrwt>
<rscale>  2 0.19564646E+03</rscale>
<asrwt>0</asrwt>
<pdfrwt beam="1">  1       21 0.34922108E-01 0.19564646E+03</pdfrwt>
<pdfrwt beam="2">  1       21 0.31623553E-01 0.19564646E+03</pdfrwt>
<totfact> 0.75886955E+04</totfact>
</mgrwt>
</event>
<event>
 4    1  0.4137916E+000  0.2010943E+03  0.7546771E-02  0.1148819E+00
         21   -1    0    0  503  502  0.00000000000E+00  0.00000000000E+00  0.30337973408E+03  0.30337973408E+03  0.00000000000E+00 0.  1.
         21   -1    0    0  501  503 -0.00000000000E+00 -0.00000000000E+00 -0.15753515965E+03  0.15753515965E+03  0.00000000000E+00 0. -1.
          6    1    1    2  501    0  0.47445849214E+02  0.90878045967E+02 -0.17478438054E+02  0.20185247990E+03  0.17300000000E+03 0. -1.
         -6    1    1    2    0  502 -0.47445849214E+02 -0.90878045967E+02  0.16332301249E+03  0.25906241382E+03  0.17300000000E+03 0.  1.
<mgrwt>
<rscale>  2 0.20109433E+03</rscale>
<asrwt>0</asrwt>
<pdfrwt beam="1">  1       21 0.46673805E-01 0.20109433E+03</pdfrwt>
<pdfrwt beam="2">  1       21 0.24236178E-01 0.20109433E+03</pdfrwt>
<totfact> 0.70366350E+04</totfact>
</mgrwt>
</event>
<event>
 4    1  0.4137916E+000  0.2894676E+03  0.7546771E-02  0.1090627E+00
         21   -1    0    0  501  502  0.00000000000E+00  0.00000000000E+00  0.70551101797E+02  0.70551101797E+02  0.00000000000E+00 0. -1.
         21   -1    0    0  502  503 -0.00000000000E+00 -0.00000000000E+00 -0.15219872949E+04  0.15219872949E+04  0.00000000000E+00 0.  1.
          6    1    1    2  501    0 -0.20364953688E+03  0.11130750084E+03 -0.35252533433E+03  0.45614208856E+03  0.17300000000E+03 0. -1.
         -6    1    1    2    0  503  0.20364953688E+03 -0.11130750084E+03 -0.10989108588E+04  0.11363963081E+04  0.17300000000E+03 0. -1.
<mgrwt>
<rscale>  2 0.28946760E+03</rscale>
<asrwt>0</asrwt>
<pdfrwt beam="1">  1       21 0.10854017E-01 0.28946760E+03</pdfrwt>
<pdfrwt beam="2">  1       21 0.23415187E+00 0.28946760E+03</pdfrwt>
<totfact> 0.53556193E+03</totfact>
</mgrwt>
</event>
<event>
 4    1  0.4137916E+000  0.2137043E+03  0.7546771E-02  0.1138666E+00
         21   -1    0    0  501  502  0.00000000000E+00  0.00000000000E+00  0.74011211751E+02  0.74011211751E+02  0.00000000000E+00 0. -1.
         21   -1    0    0  502  503 -0.00000000000E+00 -0.00000000000E+00 -0.61864930143E+03  0.61864930143E+03  0.00000000000E+00 0. -1.
          6    1    1    2  501    0 -0.27857355030E+02  0.12232948795E+03 -0.28985959972E+03  0.36012237282E+03  0.17300000000E+03 0. -1.
         -6    1    1    2    0  503  0.27857355030E+02 -0.12232948795E+03 -0.25477848996E+03  0.33253814036E+03  0.17300000000E+03 0. -1.
<mgrwt>
<rscale>  2 0.21370432E+03</rscale>
<asrwt>0</asrwt>
<pdfrwt beam="1">  1       21 0.11386341E-01 0.21370432E+03</pdfrwt>
<pdfrwt beam="2">  1       21 0.95176813E-01 0.21370432E+03</pdfrwt>
<totfact> 0.58841545E+04</totfact>
</mgrwt>
</event>
<event>
 4    1  0.4137916E+000  0.2282018E+03  0.7546771E-02  0.1127912E+00
         21   -1    0    0  501  502  0.00000000000E+00  0.00000000000E+00  0.49614724545E+03  0.49614724545E+03  0.00000000000E+00 0.  1.
         21   -1    0    0  502  503 -0.00000000000E+00 -0.00000000000E+00 -0.12669830543E+03  0.12669830543E+03  0.00000000000E+00 0. -1.
          6    1    1    2  501    0 -0.75823181110E+02  0.12805422625E+03  0.55730544691E+02  0.23490835078E+03  0.17300000000E+03 0. -1.
         -6    1    1    2    0  503  0.75823181110E+02 -0.12805422625E+03  0.31371839533E+03  0.38793720011E+03  0.17300000000E+03 0.  1.
<mgrwt>
<rscale>  2 0.22820175E+03</rscale>
<asrwt>0</asrwt>
<pdfrwt beam="1">  1       21 0.76330344E-01 0.22820175E+03</pdfrwt>
<pdfrwt beam="2">  1       21 0.19492047E-01 0.22820175E+03</pdfrwt>
<totfact> 0.36353510E+04</totfact>
</mgrwt>
</event>
<event>
 4    1  0.4137916E+000  0.1990838E+03  0.7546771E-02  0.1150514E+00
         21   -1    0    0  503  502  0.00000000000E+00  0.00000000000E+00  0.98358590641E+02  0.98358590641E+02  0.00000000000E+00 0.  1.
         21   -1    0    0  501  503 -0.00000000000E+00 -0.00000000000E+00 -0.59707314860E+03  0.59707314860E+03  0.00000000000E+00 0.  1.
          6    1    1    2  501    0  0.65559615752E+02  0.73534329874E+02 -0.44761982758E+03  0.48989577558E+03  0.17300000000E+03 0.  1.
         -6    1    1    2    0  502 -0.65559615752E+02 -0.73534329874E+02 -0.51094730384E+02  0.20553596367E+03  0.17300000000E+03 0.  1.
<mgrwt>
<rscale>  2 0.19908380E+03</rscale>
<asrwt>0</asrwt>
<pdfrwt beam="1">  1       21 0.15132091E-01 0.19908380E+03</pdfrwt>
<pdfrwt beam="2">  1       21 0.91857407E-01 0.19908380E+03</pdfrwt>
<totfact> 0.38549074E+04</totfact>
</mgrwt>
</event>
<event>
 4    1  0.4137916E+000  0.1973400E+03  0.7546771E-02  0.1152003E+00
         21   -1    0    0  501  502  0.00000000000E+00  0.00000000000E+00  0.13123700038E+03  0.13123700038E+03  0.00000000000E+00 0.  1.
         21   -1    0    0  502  503 -0.00000000000E+00 -0.00000000000E+00 -0.29702387370E+03  0.29702387370E+03  0.00000000000E+00 0. -1.
          6    1    1    2  501    0  0.21355999936E+02  0.92509452737E+02 -0.89530094730E+02  0.21669959723E+03  0.17300000000E+03 0. -1.
         -6    1    1    2    0  503 -0.21355999936E+02 -0.92509452737E+02 -0.76256778592E+02  0.21156127684E+03  0.17300000000E+03 0.  1.
<mgrwt>
<rscale>  2 0.19734001E+03</rscale>
<asrwt>0</asrwt>
<pdfrwt beam="1">  1       21 0.20190308E-01 0.19734001E+03</pdfrwt>
<pdfrwt beam="2">  1       21 0.45695980E-01 0.19734001E+03</pdfrwt>
<totfact> 0.10393336E+05</totfact>
</mgrwt>
</event>
<event>
 4    1  0.4137916E+000  0.1891517E+03  0.7546771E-02  0.1159229E+00
         21   -1    0    0  501  502  0.00000000000E+00  0.00000000000E+00  0.12040115388E+03  0.12040115388E+03  0.00000000000E+00 0.  1.
         21   -1    0    0  502  503 -0.00000000000E+00 -0.00000000000E+00 -0.29981468120E+03  0.29981468120E+03  0.00000000000E+00 0.  1.
          6    1    1    2  501    0  0.65360923448E+02 -0.39715331789E+02 -0.10947898395E+03  0.21854977881E+03  0.17300000000E+03 0.  1.
         -6    1    1    2    0  503 -0.65360923448E+02  0.39715331789E+02 -0.69934543378E+02  0.20166605627E+03  0.17300000000E+03 0.  1.
<mgrwt>
<rscale>  2 0.18915168E+03</rscale>
<asrwt>0</asrwt>
<pdfrwt beam="1">  1       21 0.18523255E-01 0.18915168E+03</pdfrwt>
<pdfrwt beam="2">  1       21 0.46125335E-01 0.18915168E+03</pdfrwt>
<totfact> 0.12006705E+05</totfact>
</mgrwt>
</event>
<event>
 4    1  0.4137916E+000  0.2155734E+03  0.7546771E-02  0.1137227E+00
         21   -1    0    0  503  502  0.00000000000E+00  0.00000000000E+00  0.28150694879E+03  0.28150694879E+03  0.00000000000E+00 0.  1.
         21   -1    0    0  501  503 -0.00000000000E+00 -0.00000000000E+00 -0.18864452907E+03  0.18864452907E+03  0.00000000000E+00 0.  1.
          6    1    1    2  501    0  0.91860463781E+02 -0.90025277604E+02  0.12951020653E+03  0.25148516658E+03  0.17300000000E+03 0.  1.
         -6    1    1    2    0  502 -0.91860463781E+02  0.90025277604E+02 -0.36647786812E+02  0.21866631129E+03  0.17300000000E+03 0.  1.
<mgrwt>
<rscale>  2 0.21557341E+03</rscale>
<asrwt>0</asrwt>
<pdfrwt beam="1">  1       21 0.43308761E-01 0.21557341E+03</pdfrwt>
<pdfrwt beam="2">  1       21 0.29022235E-01 0.21557341E+03</pdfrwt>
<totfact> 0.57641785E+04</totfact>
</mgrwt>
</event>
<event>
 4    1  0.4137916E+000  0.1878434E+03  0.7546771E-02  0.1160421E+00
         21   -1    0    0  501  502  0.00000000000E+00  0.00000000000E+00  0.63333273898E+02  0.63333273898E+02  0.00000000000E+00 0.  1.
         21   -1    0    0  502  503 -0.00000000000E+00 -0.00000000000E+00 -0.56668260151E+03  0.56668260151E+03  0.00000000000E+00 0.  1.
          6    1    1    2  501    0 -0.23831464899E+02  0.69196715965E+02 -0.21078439115E+03  0.28233877483E+03  0.17300000000E+03 0. -1.
         -6    1    1    2    0  503  0.23831464899E+02 -0.69196715965E+02 -0.29256493646E+03  0.34767710058E+03  0.17300000000E+03 0. -1.
<mgrwt>
<rscale>  2 0.18784335E+03</rscale>
<asrwt>0</asrwt>
<pdfrwt beam="1">  1       21 0.97435803E-02 0.18784335E+03</pdfrwt>
<pdfrwt beam="2">  1       21 0.87181942E-01 0.18784335E+03</pdfrwt>
<totfact> 0.96232462E+04</totfact>
</mgrwt>
</event>
<event>
 4    1  0.4137916E+000  0.1984130E+03  0.7546771E-02  0.1151085E+00
         21   -1    0    0  501  502  0.00000000000E+00  0.00000000000E+00  0.18459170629E+03  0.18459170629E+03  0.00000000000E+00 0. -1.
         21   -1    0    0  502  503 -0.00000000000E+00 -0.00000000000E+00 -0.42436869949E+03  0.42436869949E+03  0.00000000000E+00 0.  1.
          6    1    1    2  501    0  0.68083501594E+02  0.69306169668E+02  0.94860471673E+02  0.21992320803E+03  0.17300000000E+03 0. -1.
         -6    1    1    2    0  503 -0.68083501594E+02 -0.69306169668E+02 -0.33463746487E+03  0.38903719776E+03  0.17300000000E+03 0.  1.
<mgrwt>
<rscale>  2 0.19841297E+03</rscale>
<asrwt>0</asrwt>
<pdfrwt beam="1">  1       21 0.28398724E-01 0.19841297E+03</pdfrwt>
<pdfrwt beam="2">  1       21 0.65287491E-01 0.19841297E+03</pdfrwt>
<totfact> 0.25505500E+04</totfact>
</mgrwt>
</event>
<event>
 4    1  0.4137916E+000  0.2401735E+03  0.7546771E-02  0.1119677E+00
         21   -1    0    0  501  502  0.00000000000E+00  0.00000000000E+00  0.62479731642E+03  0.62479731642E+03  0.00000000000E+00 0. -1.
         21   -1    0    0  502  503 -0.00000000000E+00 -0.00000000000E+00 -0.10281670149E+03  0.10281670149E+03  0.00000000000E+00 0. -1.
          6    1    1    2  501    0 -0.32706785384E+01  0.16656410361E+03  0.37721518570E+03  0.44718519013E+03  0.17300000000E+03 0. -1.
         -6    1    1    2    0  503  0.32706785384E+01 -0.16656410361E+03  0.14476542922E+03  0.28042882778E+03  0.17300000000E+03 0. -1.
<mgrwt>
<rscale>  2 0.24017347E+03</rscale>
<asrwt>0</asrwt>
<pdfrwt beam="1">  1       21 0.96122662E-01 0.24017347E+03</pdfrwt>
<pdfrwt beam="2">  1       21 0.15817954E-01 0.24017347E+03</pdfrwt>
<totfact> 0.31296423E+04</totfact>
</mgrwt>
</event>
<event>
 4    1  0.4137916E+000  0.3160429E+03  0.7546771E-02  0.1077485E+00
         21   -1    0    0  501  502  0.00000000000E+00  0.00000000000E+00  0.25108581539E+04  0.25108581539E+04  0.00000000000E+00 0. -1.
         21   -1    0    0  502  503 -0.00000000000E+00 -0.00000000000E+00 -0.73192736755E+02  0.73192736755E+02  0.00000000000E+00 0.  1.
          6    1    1    2  501    0 -0.25028736002E+03 -0.85500540379E+02  0.20917841291E+04  0.21155245089E+04  0.17300000000E+03 0. -1.
         -6    1    1    2    0  503  0.25028736002E+03  0.85500540379E+02  0.34588128808E+03  0.46852638179E+03  0.17300000000E+03 0.  1.
<mgrwt>
<rscale>  2 0.31604288E+03</rscale>
<asrwt>0</asrwt>
<pdfrwt beam="1">  1       21 0.38628580E+00 0.31604288E+03</pdfrwt>
<pdfrwt beam="2">  1       21 0.11260423E-01 0.31604288E+03</pdfrwt>
<totfact> 0.59991131E+02</totfact>
</mgrwt>
</event>
<event>
 4    1  0.4137916E+000  0.1826448E+03  0.7546771E-02  0.1165268E+00
         21   -1    0    0  503  502  0.00000000000E+00  0.00000000000E+00  0.15961271242E+03  0.15961271242E+03  0.00000000000E+00 0.  1.
         21   -1    0    0  501  503 -0.00000000000E+00 -0.00000000000E+00 -0.20900219313E+03  0.20900219313E+03  0.00000000000E+00 0.  1.
          6    1    1    2  501    0  0.69396166722E+01 -0.58154632716E+02 -0.24153800867E+02  0.18423497410E+03  0.17300000000E+03 0.  1.
         -6    1    1    2    0  502 -0.69396166722E+01  0.58154632716E+02 -0.25235679845E+02  0.18437993145E+03  0.17300000000E+03 0.  1.
<mgrwt>
<rscale>  2 0.18264479E+03</rscale>
<asrwt>0</asrwt>
<pdfrwt beam="1">  1       21 0.24555802E-01 0.18264479E+03</pdfrwt>
<pdfrwt beam="2">  1       21 0.32154184E-01 0.18264479E+03</pdfrwt>
<totfact> 0.14630030E+05</totfact>
</mgrwt>
</event>
<event>
 4    1  0.4137916E+000  0.1742172E+03  0.7546771E-02  0.1173520E+00
         21   -1    0    0  501  502  0.00000000000E+00  0.00000000000E+00  0.52818831681E+02  0.52818831681E+02  0.00000000000E+00 0. -1.
         21   -1    0    0  502  503 -0.00000000000E+00 -0.00000000000E+00 -0.75283137262E+03  0.75283137262E+03  0.00000000000E+00 0. -1.
          6    1    1    2  501    0  0.11475842984E+02  0.17057002335E+02 -0.15402476260E+03  0.23254088629E+03  0.17300000000E+03 0. -1.
         -6    1    1    2    0  503 -0.11475842984E+02 -0.17057002335E+02 -0.54598777834E+03  0.57310931801E+03  0.17300000000E+03 0. -1.
<mgrwt>
<rscale>  2 0.17421721E+03</rscale>
<asrwt>0</asrwt>
<pdfrwt beam="1">  1       21 0.81259746E-02 0.17421721E+03</pdfrwt>
<pdfrwt beam="2">  1       21 0.11582020E+00 0.17421721E+03</pdfrwt>
<totfact> 0.67887896E+04</totfact>
</mgrwt>
</event>
<event>
 4    1  0.4137916E+000  0.2166515E+03  0.7546771E-02  0.1136404E+00
         21   -1    0    0  501  502  0.00000000000E+00  0.00000000000E+00  0.99401597203E+03  0.99401597203E+03  0.00000000000E+00 0. -1.
         21   -1    0    0  502  503 -0.00000000000E+00 -0.00000000000E+00 -0.50231879237E+02  0.50231879237E+02  0.00000000000E+00 0. -1.
          6    1    1    2  501    0 -0.55844645868E+01 -0.13029839768E+03  0.59973354959E+03  0.63766620515E+03  0.17300000000E+03 0. -1.
         -6    1    1    2    0  503  0.55844645868E+01  0.13029839768E+03  0.34405054321E+03  0.40658164612E+03  0.17300000000E+03 0. -1.
<mgrwt>
<rscale>  2 0.21665147E+03</rscale>
<asrwt>0</asrwt>
<pdfrwt beam="1">  1       21 0.15292552E+00 0.21665147E+03</pdfrwt>
<pdfrwt beam="2">  1       21 0.77279822E-02 0.21665147E+03</pdfrwt>
<totfact> 0.35684834E+04</totfact>
</mgrwt>
</event>
<event>
 4    1  0.4137916E+000  0.2217797E+03  0.7546771E-02  0.1132563E+00
         21   -1    0    0  501  502  0.00000000000E+00  0.00000000000E+00  0.89897410905E+02  0.89897410905E+02  0.00000000000E+00 0. -1.
         21   -1    0    0  502  503 -0.00000000000E+00 -0.00000000000E+00 -0.57852964939E+03  0.57852964939E+03  0.00000000000E+00 0. -1.
          6    1    1    2  501    0 -0.36475910537E+02  0.13389073213E+03 -0.16646342883E+03  0.27730180911E+03  0.17300000000E+03 0. -1.
         -6    1    1    2    0  503  0.36475910537E+02 -0.13389073213E+03 -0.32216880965E+03  0.39112525118E+03  0.17300000000E+03 0. -1.
<mgrwt>
<rscale>  2 0.22177967E+03</rscale>
<asrwt>0</asrwt>
<pdfrwt beam="1">  1       21 0.13830370E-01 0.22177967E+03</pdfrwt>
<pdfrwt beam="2">  1       21 0.89004566E-01 0.22177967E+03</pdfrwt>
<totfact> 0.48301042E+04</totfact>
</mgrwt>
</event>
<event>
 4    1  0.4137916E+000  0.1957668E+03  0.7546771E-02  0.1153361E+00
         21   -1    0    0  503  502  0.00000000000E+00  0.00000000000E+00  0.54386760860E+02  0.54386760860E+02  0.00000000000E+00 0.  1.
         21   -1    0    0  501  503 -0.00000000000E+00 -0.00000000000E+00 -0.10626816949E+04  0.10626816949E+04  0.00000000000E+00 0.  1.
          6    1    1    2  501    0 -0.36632034000E+02 -0.83986412462E+02 -0.82833615979E+03  0.85115534247E+03  0.17300000000E+03 0.  1.
         -6    1    1    2    0  502  0.36632034000E+02  0.83986412462E+02 -0.17995877426E+03  0.26591311330E+03  0.17300000000E+03 0.  1.
<mgrwt>
<rscale>  2 0.19576676E+03</rscale>
<asrwt>0</asrwt>
<pdfrwt beam="1">  1       21 0.83671950E-02 0.19576676E+03</pdfrwt>
<pdfrwt beam="2">  1       21 0.16348947E+00 0.19576676E+03</pdfrwt>
<totfact> 0.26292783E+04</totfact>
</mgrwt>
</event>
<event>
 4    1  0.4137916E+000  0.3292765E+03  0.7546771E-02  0.1071457E+00
         21   -1    0    0  501  502  0.00000000000E+00  0.00000000000E+00  0.54928981896E+03  0.54928981896E+03  0.00000000000E+00 0.  1.
         21   -1    0    0  502  503 -0.00000000000E+00 -0.00000000000E+00 -0.23398623132E+03  0.23398623132E+03  0.00000000000E+00 0. -1.
          6    1    1    2  501    0 -0.18446637361E+03 -0.21086999055E+03  0.31254135772E+03  0.45398799124E+03  0.17300000000E+03 0.  1.
         -6    1    1    2    0  503  0.18446637361E+03  0.21086999055E+03  0.27622299190E+01  0.32928805903E+03  0.17300000000E+03 0. -1.
<mgrwt>
<rscale>  2 0.32927647E+03</rscale>
<asrwt>0</asrwt>
<pdfrwt beam="1">  1       21 0.84506125E-01 0.32927647E+03</pdfrwt>
<pdfrwt beam="2">  1       21 0.35997882E-01 0.32927647E+03</pdfrwt>
<totfact> 0.83766171E+03</totfact>
</mgrwt>
</event>
<event>
 4    1  0.4137916E+000  0.2924697E+03  0.7546771E-02  0.1089067E+00
         21   -1    0    0  503  502  0.00000000000E+00  0.00000000000E+00  0.75488813308E+02  0.75488813308E+02  0.00000000000E+00 0. -1.
         21   -1    0    0  501  503 -0.00000000000E+00 -0.00000000000E+00 -0.11731496639E+04  0.11731496639E+04  0.00000000000E+00 0.  1.
          6    1    1    2  501    0  0.14233296806E+03 -0.18801823389E+03 -0.66414243920E+03  0.72568843840E+03  0.17300000000E+03 0.  1.
         -6    1    1    2    0  502 -0.14233296806E+03  0.18801823389E+03 -0.43351841137E+03  0.52295003879E+03  0.17300000000E+03 0. -1.
<mgrwt>
<rscale>  2 0.29246971E+03</rscale>
<asrwt>0</asrwt>
<pdfrwt beam="1">  1       21 0.11613663E-01 0.29246971E+03</pdfrwt>
<pdfrwt beam="2">  1       21 0.18048457E+00 0.29246971E+03</pdfrwt>
<totfact> 0.10519041E+04</totfact>
</mgrwt>
</event>
<event>
 4    1  0.4137916E+000  0.1760940E+03  0.7546771E-02  0.1171638E+00
         21   -1    0    0  501  502  0.00000000000E+00  0.00000000000E+00  0.37256818274E+03  0.37256818274E+03  0.00000000000E+00 0. -1.
         21   -1    0    0  502  503 -0.00000000000E+00 -0.00000000000E+00 -0.10163097576E+03  0.10163097576E+03  0.00000000000E+00 0. -1.
          6    1    1    2  501    0 -0.21372916610E+02  0.24966218547E+02  0.23635434885E+03  0.29474139827E+03  0.17300000000E+03 0.  1.
         -6    1    1    2    0  503  0.21372916610E+02 -0.24966218547E+02  0.34582858130E+02  0.17945776024E+03  0.17300000000E+03 0.  1.
<mgrwt>
<rscale>  2 0.17609405E+03</rscale>
<asrwt>0</asrwt>
<pdfrwt beam="1">  1       21 0.57318181E-01 0.17609405E+03</pdfrwt>
<pdfrwt beam="2">  1       21 0.15635535E-01 0.17609405E+03</pdfrwt>
<totfact> 0.10457669E+05</totfact>
</mgrwt>
</event>
<event>
 4    1  0.4137916E+000  0.1859440E+03  0.7546771E-02  0.1162171E+00
         21   -1    0    0  503  502  0.00000000000E+00  0.00000000000E+00  0.54672953857E+02  0.54672953857E+02  0.00000000000E+00 0.  1.
         21   -1    0    0  501  503 -0.00000000000E+00 -0.00000000000E+00 -0.88324391855E+03  0.88324391855E+03  0.00000000000E+00 0.  1.
          6    1    1    2  501    0  0.43810160273E+02 -0.52219322026E+02 -0.66420238379E+03  0.68973907702E+03  0.17300000000E+03 0.  1.
         -6    1    1    2    0  502 -0.43810160273E+02  0.52219322026E+02 -0.16436858091E+03  0.24817779539E+03  0.17300000000E+03 0.  1.
<mgrwt>
<rscale>  2 0.18594404E+03</rscale>
<asrwt>0</asrwt>
<pdfrwt beam="1">  1       21 0.84112240E-02 0.18594404E+03</pdfrwt>
<pdfrwt beam="2">  1       21 0.13588367E+00 0.18594404E+03</pdfrwt>
<totfact> 0.42643519E+04</totfact>
</mgrwt>
</event>
<event>
 4    1  0.4137916E+000  0.2047679E+03  0.7546771E-02  0.1145778E+00
         21   -1    0    0  501  502  0.00000000000E+00  0.00000000000E+00  0.51056793159E+03  0.51056793159E+03  0.00000000000E+00 0. -1.
         21   -1    0    0  502  503 -0.00000000000E+00 -0.00000000000E+00 -0.94462420054E+02  0.94462420054E+02  0.00000000000E+00 0. -1.
          6    1    1    2  501    0  0.26131922876E+01 -0.10951745891E+03  0.31738459592E+03  0.37770740568E+03  0.17300000000E+03 0. -1.
         -6    1    1    2    0  503 -0.26131922876E+01  0.10951745891E+03  0.98720915610E+02  0.22732294596E+03  0.17300000000E+03 0. -1.
<mgrwt>
<rscale>  2 0.20476792E+03</rscale>
<asrwt>0</asrwt>
<pdfrwt beam="1">  1       21 0.78548911E-01 0.20476792E+03</pdfrwt>
<pdfrwt beam="2">  1       21 0.14532680E-01 0.20476792E+03</pdfrwt>
<totfact> 0.59214972E+04</totfact>
</mgrwt>
</event>
<event>
 4    1  0.4137916E+000  0.2260926E+03  0.7546771E-02  0.1129421E+00
         21   -1    0    0  501  502  0.00000000000E+00  0.00000000000E+00  0.56327229603E+03  0.56327229603E+03  0.00000000000E+00 0. -1.
         21   -1    0    0  502  503 -0.00000000000E+00 -0.00000000000E+00 -0.30963924625E+03  0.30963924625E+03  0.00000000000E+00 0.  1.
          6    1    1    2  501    0 -0.14014260005E+03 -0.39356086425E+02  0.49378003961E+03  0.54308063619E+03  0.17300000000E+03 0. -1.
         -6    1    1    2    0  503  0.14014260005E+03  0.39356086425E+02 -0.24014698983E+03  0.32983090609E+03  0.17300000000E+03 0.  1.
<mgrwt>
<rscale>  2 0.22609257E+03</rscale>
<asrwt>0</asrwt>
<pdfrwt beam="1">  1       21 0.86657276E-01 0.22609257E+03</pdfrwt>
<pdfrwt beam="2">  1       21 0.47636807E-01 0.22609257E+03</pdfrwt>
<totfact> 0.47101456E+03</totfact>
</mgrwt>
</event>
<event>
 4    1  0.4137916E+000  0.2046996E+03  0.7546771E-02  0.1145833E+00
         21   -1    0    0  501  502  0.00000000000E+00  0.00000000000E+00  0.20761731591E+03  0.20761731591E+03  0.00000000000E+00 0.  1.
         21   -1    0    0  502  503 -0.00000000000E+00 -0.00000000000E+00 -0.20212288090E+03  0.20212288090E+03  0.00000000000E+00 0.  1.
          6    1    1    2  501    0  0.10790203963E+03  0.18168004452E+02 -0.51454802247E+01  0.20476426082E+03  0.17300000000E+03 0.  1.
         -6    1    1    2    0  503 -0.10790203963E+03 -0.18168004452E+02  0.10639915237E+02  0.20497593600E+03  0.17300000000E+03 0.  1.
<mgrwt>
<rscale>  2 0.20469960E+03</rscale>
<asrwt>0</asrwt>
<pdfrwt beam="1">  1       21 0.31941126E-01 0.20469960E+03</pdfrwt>
<pdfrwt beam="2">  1       21 0.31095828E-01 0.20469960E+03</pdfrwt>
<totfact> 0.93189260E+04</totfact>
</mgrwt>
</event>
<event>
 4    1  0.4137916E+000  0.2023174E+03  0.7546771E-02  0.1147798E+00
         21   -1    0    0  501  502  0.00000000000E+00  0.00000000000E+00  0.30452167941E+03  0.30452167941E+03  0.00000000000E+00 0. -1.
         21   -1    0    0  502  503 -0.00000000000E+00 -0.00000000000E+00 -0.14327502355E+03  0.14327502355E+03  0.00000000000E+00 0.  1.
          6    1    1    2  501    0  0.69688892842E+02 -0.78401383840E+02  0.13630087490E+03  0.24394722231E+03  0.17300000000E+03 0. -1.
         -6    1    1    2    0  503 -0.69688892842E+02  0.78401383840E+02  0.24945780960E+02  0.20384948065E+03  0.17300000000E+03 0. -1.
<mgrwt>
<rscale>  2 0.20231737E+03</rscale>
<asrwt>0</asrwt>
<pdfrwt beam="1">  1       21 0.46849489E-01 0.20231737E+03</pdfrwt>
<pdfrwt beam="2">  1       21 0.22042311E-01 0.20231737E+03</pdfrwt>
<totfact> 0.83539921E+04</totfact>
</mgrwt>
</event>
<event>
 4    1  0.4137916E+000  0.2653857E+03  0.7546771E-02  0.1103950E+00
         21   -1    0    0  503  502  0.00000000000E+00  0.00000000000E+00  0.11080297382E+04  0.11080297382E+04  0.00000000000E+00 0. -1.
         21   -1    0    0  501  503 -0.00000000000E+00 -0.00000000000E+00 -0.78846973974E+02  0.78846973974E+02  0.00000000000E+00 0. -1.
          6    1    1    2  501    0 -0.96506128880E+02  0.17659887403E+03  0.25331358112E+03  0.36687513625E+03  0.17300000000E+03 0. -1.
         -6    1    1    2    0  502  0.96506128880E+02 -0.17659887403E+03  0.77586918313E+03  0.82000157595E+03  0.17300000000E+03 0. -1.
<mgrwt>
<rscale>  2 0.26538575E+03</rscale>
<asrwt>0</asrwt>
<pdfrwt beam="1">  1       21 0.17046610E+00 0.26538575E+03</pdfrwt>
<pdfrwt beam="2">  1       21 0.12130304E-01 0.26538575E+03</pdfrwt>
<totfact> 0.11607654E+04</totfact>
</mgrwt>
</event>
<event>
 4    1  0.4137916E+000  0.2498774E+03  0.7546771E-02  0.1113382E+00
         21   -1    0    0  503  502  0.00000000000E+00  0.00000000000E+00  0.10837802754E+03  0.10837802754E+03  0.00000000000E+00 0. -1.
         21   -1    0    0  501  503 -0.00000000000E+00 -0.00000000000E+00 -0.13635193905E+04  0.13635193905E+04  0.00000000000E+00 0.  1.
          6    1    1    2  501    0  0.17202923065E+03  0.53996880436E+02 -0.11868316390E+04  0.12128512104E+04  0.17300000000E+03 0.  1.
         -6    1    1    2    0  502 -0.17202923065E+03 -0.53996880436E+02 -0.68309723967E+02  0.25904620762E+03  0.17300000000E+03 0. -1.
<mgrwt>
<rscale>  2 0.24987741E+03</rscale>
<asrwt>0</asrwt>
<pdfrwt beam="1">  1       21 0.16673542E-01 0.24987741E+03</pdfrwt>
<pdfrwt beam="2">  1       21 0.20977222E+00 0.24987741E+03</pdfrwt>
<totfact> 0.35788830E+03</totfact>
</mgrwt>
</event>
<event>
 4    1  0.4137916E+000  0.2402103E+03  0.7546771E-02  0.1119653E+00
         21   -1    0    0  501  502  0.00000000000E+00  0.00000000000E+00  0.59807108336E+03  0.59807108336E+03  0.00000000000E+00 0. -1.
         21   -1    0    0  502  503 -0.00000000000E+00 -0.00000000000E+00 -0.13656186907E+03  0.13656186907E+03  0.00000000000E+00 0.  1.
          6    1    1    2  501    0  0.68499754776E+01  0.16650842259E+03  0.42975686777E+03  0.49233316194E+03  0.17300000000E+03 0. -1.
         -6    1    1    2    0  503 -0.68499754776E+01 -0.16650842259E+03  0.31752346519E+02  0.24229979048E+03  0.17300000000E+03 0.  1.
<mgrwt>
<rscale>  2 0.24021028E+03</rscale>
<asrwt>0</asrwt>
<pdfrwt beam="1">  1       21 0.92010934E-01 0.24021028E+03</pdfrwt>
<pdfrwt beam="2">  1       21 0.21009519E-01 0.24021028E+03</pdfrwt>
<totfact> 0.20449071E+04</totfact>
</mgrwt>
</event>
<event>
 4    1  0.4137916E+000  0.1770632E+03  0.7546771E-02  0.1170676E+00
         21   -1    0    0  501  502  0.00000000000E+00  0.00000000000E+00  0.10159335621E+04  0.10159335621E+04  0.00000000000E+00 0. -1.
         21   -1    0    0  502  503 -0.00000000000E+00 -0.00000000000E+00 -0.53329057923E+02  0.53329057923E+02  0.00000000000E+00 0. -1.
          6    1    1    2  501    0 -0.28875722327E+02  0.24260812885E+02  0.82833292700E+03  0.84704594464E+03  0.17300000000E+03 0. -1.
         -6    1    1    2    0  503  0.28875722327E+02 -0.24260812885E+02  0.13427157719E+03  0.22221667539E+03  0.17300000000E+03 0. -1.
<mgrwt>
<rscale>  2 0.17706325E+03</rscale>
<asrwt>0</asrwt>
<pdfrwt beam="1">  1       21 0.15629746E+00 0.17706325E+03</pdfrwt>
<pdfrwt beam="2">  1       21 0.82044712E-02 0.17706325E+03</pdfrwt>
<totfact> 0.31088311E+04</totfact>
</mgrwt>
</event>
<event>
 4    1  0.4137916E+000  0.1972647E+03  0.7546771E-02  0.1152068E+00
         21   -1    0    0  501  502  0.00000000000E+00  0.00000000000E+00  0.25744285520E+03  0.25744285520E+03  0.00000000000E+00 0. -1.
         21   -1    0    0  502  503 -0.00000000000E+00 -0.00000000000E+00 -0.45705545664E+03  0.45705545664E+03  0.00000000000E+00 0.  1.
          6    1    1    2  501    0  0.72070344381E+02  0.61564789286E+02  0.19245948312E+03  0.27559755163E+03  0.17300000000E+03 0. -1.
         -6    1    1    2    0  503 -0.72070344381E+02 -0.61564789286E+02 -0.39207208456E+03  0.43890076021E+03  0.17300000000E+03 0.  1.
<mgrwt>
<rscale>  2 0.19726469E+03</rscale>
<asrwt>0</asrwt>
<pdfrwt beam="1">  1       21 0.39606594E-01 0.19726469E+03</pdfrwt>
<pdfrwt beam="2">  1       21 0.70316223E-01 0.19726469E+03</pdfrwt>
<totfact> 0.11238340E+04</totfact>
</mgrwt>
</event>
<event>
 4    1  0.4137916E+000  0.1920443E+03  0.7546771E-02  0.1156630E+00
         21   -1    0    0  503  502  0.00000000000E+00  0.00000000000E+00  0.14013858136E+03  0.14013858136E+03  0.00000000000E+00 0. -1.
         21   -1    0    0  501  503 -0.00000000000E+00 -0.00000000000E+00 -0.44463568374E+03  0.44463568374E+03  0.00000000000E+00 0. -1.
          6    1    1    2  501    0  0.75669974548E+02 -0.35015467917E+02 -0.33903565360E+03  0.38964881939E+03  0.17300000000E+03 0. -1.
         -6    1    1    2    0  502 -0.75669974548E+02  0.35015467917E+02  0.34538551226E+02  0.19512544571E+03  0.17300000000E+03 0. -1.
<mgrwt>
<rscale>  2 0.19204434E+03</rscale>
<asrwt>0</asrwt>
<pdfrwt beam="1">  1       21 0.21559782E-01 0.19204434E+03</pdfrwt>
<pdfrwt beam="2">  1       21 0.68405490E-01 0.19204434E+03</pdfrwt>
<totfact> 0.39101003E+04</totfact>
</mgrwt>
</event>
<event>
 4    1  0.4137916E+000  0.2121500E+03  0.7546771E-02  0.1139875E+00
         21   -1    0    0  501  502  0.00000000000E+00  0.00000000000E+00  0.50345794297E+02  0.50345794297E+02  0.00000000000E+00 0.  1.
         21   -1    0    0  502  503 -0.00000000000E+00 -0.00000000000E+00 -0.92159533522E+03  0.92159533522E+03  0.00000000000E+00 0.  1.
          6    1    1    2  501    0  0.55928171875E+02 -0.10931904698E+03 -0.35148603209E+03  0.41054846875E+03  0.17300000000E+03 0.  1.
         -6    1    1    2    0  503 -0.55928171875E+02  0.10931904698E+03 -0.51976350884E+03  0.56139266077E+03  0.17300000000E+03 0.  1.
<mgrwt>
<rscale>  2 0.21214998E+03</rscale>
<asrwt>0</asrwt>
<pdfrwt beam="1">  1       21 0.77455070E-02 0.21214998E+03</pdfrwt>
<pdfrwt beam="2">  1       21 0.14178390E+00 0.21214998E+03</pdfrwt>
<totfact> 0.43477544E+04</totfact>
</mgrwt>
</event>
<event>
 4    1  0.4137916E+000  0.2116233E+03  0.7546771E-02  0.1140287E+00
         21   -1    0    0  501  502  0.00000000000E+00  0.00000000000E+00  0.15860452385E+03  0.15860452385E+03  0.00000000000E+00 0.  1.
         21   -1    0    0  502  503 -0.00000000000E+00 -0.00000000000E+00 -0.32466009924E+03  0.32466009924E+03  0.00000000000E+00 0. -1.
          6    1    1    2  501    0  0.10727493793E+03  0.57857578487E+02  0.41857909320E+01  0.21166467004E+03  0.17300000000E+03 0.  1.
         -6    1    1    2    0  503 -0.10727493793E+03 -0.57857578487E+02 -0.17024136632E+03  0.27159995306E+03  0.17300000000E+03 0. -1.
<mgrwt>
<rscale>  2 0.21162328E+03</rscale>
<asrwt>0</asrwt>
<pdfrwt beam="1">  1       21 0.24400696E-01 0.21162328E+03</pdfrwt>
<pdfrwt beam="2">  1       21 0.49947707E-01 0.21162328E+03</pdfrwt>
<totfact> 0.60053251E+04</totfact>
</mgrwt>
</event>
<event>
 4    1  0.4137916E+000  0.1748312E+03  0.7546771E-02  0.1172901E+00
         21   -1    0    0  501  502  0.00000000000E+00  0.00000000000E+00  0.18487939188E+03  0.18487939188E+03  0.00000000000E+00 0. -1.
         21   -1    0    0  502  503 -0.00000000000E+00 -0.00000000000E+00 -0.24777600485E+03  0.24777600485E+03  0.00000000000E+00 0. -1.
          6    1    1    2  501    0  0.24483925467E+02 -0.61231767665E+01  0.93338740535E+02  0.19818697330E+03  0.17300000000E+03 0. -1.
         -6    1    1    2    0  503 -0.24483925467E+02  0.61231767665E+01 -0.15623535351E+03  0.23446842343E+03  0.17300000000E+03 0. -1.
<mgrwt>
<rscale>  2 0.17483122E+03</rscale>
<asrwt>0</asrwt>
<pdfrwt beam="1">  1       21 0.28442983E-01 0.17483122E+03</pdfrwt>
<pdfrwt beam="2">  1       21 0.38119385E-01 0.17483122E+03</pdfrwt>
<totfact> 0.79016521E+04</totfact>
</mgrwt>
</event>
<event>
 4    1  0.4137916E+000  0.3092373E+03  0.7546771E-02  0.1080712E+00
         21   -1    0    0  503  502  0.00000000000E+00  0.00000000000E+00  0.54262308572E+02  0.54262308572E+02  0.00000000000E+00 0.  1.
         21   -1    0    0  501  503 -0.00000000000E+00 -0.00000000000E+00 -0.25564333844E+04  0.25564333844E+04  0.00000000000E+00 0. -1.
          6    1    1    2  501    0  0.48358476041E+02 -0.25171441736E+03 -0.19786133110E+04  0.20026328482E+04  0.17300000000E+03 0. -1.
         -6    1    1    2    0  502 -0.48358476041E+02  0.25171441736E+03 -0.52355776483E+03  0.60806284480E+03  0.17300000000E+03 0.  1.
<mgrwt>
<rscale>  2 0.30923727E+03</rscale>
<asrwt>0</asrwt>
<pdfrwt beam="1">  1       21 0.83480484E-02 0.30923727E+03</pdfrwt>
<pdfrwt beam="2">  1       21 0.39329740E+00 0.30923727E+03</pdfrwt>
<totfact> 0.93001310E+02</totfact>
</mgrwt>
</event>
<event>
 4    1  0.4137916E+000  0.1947006E+03  0.7546771E-02  0.1154289E+00
         21   -1    0    0  501  502  0.00000000000E+00  0.00000000000E+00  0.70277164878E+03  0.70277164878E+03  0.00000000000E+00 0. -1.
         21   -1    0    0  502  503 -0.00000000000E+00 -0.00000000000E+00 -0.15231215343E+03  0.15231215343E+03  0.00000000000E+00 0.  1.
          6    1    1    2  501    0 -0.88631626295E+02  0.11125187787E+02  0.61882320070E+03  0.64872990428E+03  0.17300000000E+03 0. -1.
         -6    1    1    2    0  503  0.88631626295E+02 -0.11125187787E+02 -0.68363705347E+02  0.20635389793E+03  0.17300000000E+03 0.  1.
<mgrwt>
<rscale>  2 0.19470063E+03</rscale>
<asrwt>0</asrwt>
<pdfrwt beam="1">  1       21 0.10811871E+00 0.19470063E+03</pdfrwt>
<pdfrwt beam="2">  1       21 0.23432639E-01 0.19470063E+03</pdfrwt>
<totfact> 0.11649609E+04</totfact>
</mgrwt>
</event>
<event>
 4    1  0.4137916E+000  0.1735827E+03  0.7546771E-02  0.1174162E+00
         21   -1    0    0  503  502  0.00000000000E+00  0.00000000000E+00  0.83230351102E+02  0.83230351102E+02  0.00000000000E+00 0. -1.
         21   -1    0    0  501  503 -0.00000000000E+00 -0.00000000000E+00 -0.41391274787E+03  0.41391274787E+03  0.00000000000E+00 0. -1.
          6    1    1    2  501    0  0.44151677373E+01 -0.13508365693E+02 -0.25335574945E+03  0.30711578505E+03  0.17300000000E+03 0. -1.
         -6    1    1    2    0  502 -0.44151677373E+01  0.13508365693E+02 -0.77326647321E+02  0.19002731392E+03  0.17300000000E+03 0. -1.
<mgrwt>
<rscale>  2 0.17358275E+03</rscale>
<asrwt>0</asrwt>
<pdfrwt beam="1">  1       21 0.12804670E-01 0.17358275E+03</pdfrwt>
<pdfrwt beam="2">  1       21 0.63678883E-01 0.17358275E+03</pdfrwt>
<totfact> 0.11987138E+05</totfact>
</mgrwt>
</event>
<event>
 4    1  0.4137916E+000  0.1782878E+03  0.7546771E-02  0.1169470E+00
         21   -1    0    0  503  502  0.00000000000E+00  0.00000000000E+00  0.61692828066E+03  0.61692828066E+03  0.00000000000E+00 0. -1.
         21   -1    0    0  501  503 -0.00000000000E+00 -0.00000000000E+00 -0.89795161346E+02  0.89795161346E+02  0.00000000000E+00 0. -1.
          6    1    1    2  501    0  0.62223316478E+01 -0.42647590692E+02  0.32876131621E+02  0.18129361388E+03  0.17300000000E+03 0. -1.
         -6    1    1    2    0  502 -0.62223316478E+01  0.42647590692E+02  0.49425698770E+03  0.52542982813E+03  0.17300000000E+03 0. -1.
<mgrwt>
<rscale>  2 0.17828779E+03</rscale>
<asrwt>0</asrwt>
<pdfrwt beam="1">  1       21 0.94912040E-01 0.17828779E+03</pdfrwt>
<pdfrwt beam="2">  1       21 0.13814641E-01 0.17828779E+03</pdfrwt>
<totfact> 0.42602162E+04</totfact>
</mgrwt>
</event>
<event>
 4    1  0.4137916E+000  0.2009989E+03  0.7546771E-02  0.1148899E+00
         21   -1    0    0  503  502  0.00000000000E+00  0.00000000000E+00  0.15117097624E+03  0.15117097624E+03  0.00000000000E+00 0. -1.
         21   -1    0    0  501  503 -0.00000000000E+00 -0.00000000000E+00 -0.26743793018E+03  0.26743793018E+03  0.00000000000E+00 0.  1.
          6    1    1    2  501    0 -0.46372815258E+01 -0.10222542668E+03 -0.52594769458E+02  0.20776609929E+03  0.17300000000E+03 0. -1.
         -6    1    1    2    0  502  0.46372815258E+01  0.10222542668E+03 -0.63672184482E+02  0.21084280713E+03  0.17300000000E+03 0.  1.
<mgrwt>
<rscale>  2 0.20099886E+03</rscale>
<asrwt>0</asrwt>
<pdfrwt beam="1">  1       21 0.23257073E-01 0.20099886E+03</pdfrwt>
<pdfrwt beam="2">  1       21 0.41144297E-01 0.20099886E+03</pdfrwt>
<totfact> 0.98537063E+04</totfact>
</mgrwt>
</event>
<event>
 4    1  0.4137916E+000  0.4095408E+03  0.7546771E-02  0.1040525E+00
         21   -1    0    0  503  502  0.00000000000E+00  0.00000000000E+00  0.85735571435E+02  0.85735571435E+02  0.00000000000E+00 0.  1.
         21   -1    0    0  501  503 -0.00000000000E+00 -0.00000000000E+00 -0.24340512284E+04  0.24340512284E+04  0.00000000000E+00 0. -1.
          6    1    1    2  501    0  0.16371384902E+03 -0.33315530255E+03 -0.17323377221E+04  0.17800892290E+04  0.17300000000E+03 0. -1.
         -6    1    1    2    0  502 -0.16371384902E+03  0.33315530255E+03 -0.61597793484E+03  0.73969757075E+03  0.17300000000E+03 0.  1.
<mgrwt>
<rscale>  2 0.40954082E+03</rscale>
<asrwt>0</asrwt>
<pdfrwt beam="1">  1       21 0.13190089E-01 0.40954082E+03</pdfrwt>
<pdfrwt beam="2">  1       21 0.37446940E+00 0.40954082E+03</pdfrwt>
<totfact> 0.49493267E+02</totfact>
</mgrwt>
</event>
<event>
 4    1  0.4137916E+000  0.2029855E+03  0.7546771E-02  0.1147244E+00
         21   -1    0    0  501  502  0.00000000000E+00  0.00000000000E+00  0.22337842557E+03  0.22337842557E+03  0.00000000000E+00 0.  1.
         21   -1    0    0  502  503 -0.00000000000E+00 -0.00000000000E+00 -0.20207971758E+03  0.20207971758E+03  0.00000000000E+00 0.  1.
          6    1    1    2  501    0  0.28723231406E+02  0.10222075595E+03 -0.52176068547E+02  0.20958399056E+03  0.17300000000E+03 0.  1.
         -6    1    1    2    0  503 -0.28723231406E+02 -0.10222075595E+03  0.73474776538E+02  0.21587415259E+03  0.17300000000E+03 0.  1.
<mgrwt>
<rscale>  2 0.20298548E+03</rscale>
<asrwt>0</asrwt>
<pdfrwt beam="1">  1       21 0.34365912E-01 0.20298548E+03</pdfrwt>
<pdfrwt beam="2">  1       21 0.31089187E-01 0.20298548E+03</pdfrwt>
<totfact> 0.80744765E+04</totfact>
</mgrwt>
</event>
<event>
 4    1  0.4137916E+000  0.2882923E+03  0.7546771E-02  0.1091244E+00
         21   -1    0    0  501  502  0.00000000000E+00  0.00000000000E+00  0.31558113992E+03  0.31558113992E+03  0.00000000000E+00 0.  1.
         21   -1    0    0  502  503 -0.00000000000E+00 -0.00000000000E+00 -0.36575083345E+03  0.36575083345E+03  0.00000000000E+00 0.  1.
          6    1    1    2  501    0  0.62072174210E+02  0.22210473743E+03  0.15515872920E+03  0.32739380026E+03  0.17300000000E+03 0.  1.
         -6    1    1    2    0  503 -0.62072174210E+02 -0.22210473743E+03 -0.20532842274E+03  0.35393817311E+03  0.17300000000E+03 0.  1.
<mgrwt>
<rscale>  2 0.28829233E+03</rscale>
<asrwt>0</asrwt>
<pdfrwt beam="1">  1       21 0.48550944E-01 0.28829233E+03</pdfrwt>
<pdfrwt beam="2">  1       21 0.56269359E-01 0.28829233E+03</pdfrwt>
<totfact> 0.11409377E+04</totfact>
</mgrwt>
</event>
<event>
 4    1  0.4137916E+000  0.1863665E+03  0.7546771E-02  0.1161780E+00
         21   -1    0    0  503  502  0.00000000000E+00  0.00000000000E+00  0.15094521521E+03  0.15094521521E+03  0.00000000000E+00 0.  1.
         21   -1    0    0  501  503 -0.00000000000E+00 -0.00000000000E+00 -0.31746339540E+03  0.31746339540E+03  0.00000000000E+00 0.  1.
          6    1    1    2  501    0 -0.68994058747E+01 -0.68962784803E+02 -0.20611986072E+03  0.27788102575E+03  0.17300000000E+03 0. -1.
         -6    1    1    2    0  502  0.68994058747E+01  0.68962784803E+02  0.39601680529E+02  0.19052758485E+03  0.17300000000E+03 0. -1.
<mgrwt>
<rscale>  2 0.18636649E+03</rscale>
<asrwt>0</asrwt>
<pdfrwt beam="1">  1       21 0.23222341E-01 0.18636649E+03</pdfrwt>
<pdfrwt beam="2">  1       21 0.48840522E-01 0.18636649E+03</pdfrwt>
<totfact> 0.69917877E+04</totfact>
</mgrwt>
</event>
<event>
 4    1  0.4137916E+000  0.1974798E+03  0.7546771E-02  0.1151883E+00
         21   -1    0    0  501  502  0.00000000000E+00  0.00000000000E+00  0.86978411666E+03  0.86978411666E+03  0.00000000000E+00 0.  1.
         21   -1    0    0  502  503 -0.00000000000E+00 -0.00000000000E+00 -0.65582650346E+02  0.65582650346E+02  0.00000000000E+00 0.  1.
          6    1    1    2  501    0 -0.92175627616E+02  0.23935569095E+02  0.66514208358E+03  0.69383877749E+03  0.17300000000E+03 0.  1.
         -6    1    1    2    0  503  0.92175627616E+02 -0.23935569095E+02  0.13905938273E+03  0.24152798952E+03  0.17300000000E+03 0.  1.
<mgrwt>
<rscale>  2 0.19747977E+03</rscale>
<asrwt>0</asrwt>
<pdfrwt beam="1">  1       21 0.13381293E+00 0.19747977E+03</pdfrwt>
<pdfrwt beam="2">  1       21 0.10089639E-01 0.19747977E+03</pdfrwt>
<totfact> 0.31997757E+04</totfact>
</mgrwt>
</event>
<event>
 4    1  0.4137916E+000  0.1761373E+03  0.7546771E-02  0.1171595E+00
         21   -1    0    0  503  502  0.00000000000E+00  0.00000000000E+00  0.57613232605E+03  0.57613232605E+03  0.00000000000E+00 0. -1.
         21   -1    0    0  501  503 -0.00000000000E+00 -0.00000000000E+00 -0.12765026444E+03  0.12765026444E+03  0.00000000000E+00 0.  1.
          6    1    1    2  501    0 -0.31210786432E+02 -0.11011247887E+02  0.49180552830E+03  0.52239548087E+03  0.17300000000E+03 0. -1.
         -6    1    1    2    0  502  0.31210786432E+02  0.11011247887E+02 -0.43323466682E+02  0.18138710962E+03  0.17300000000E+03 0.  1.
<mgrwt>
<rscale>  2 0.17613733E+03</rscale>
<asrwt>0</asrwt>
<pdfrwt beam="1">  1       21 0.88635741E-01 0.17613733E+03</pdfrwt>
<pdfrwt beam="2">  1       21 0.19638503E-01 0.17613733E+03</pdfrwt>
<totfact> 0.26241820E+04</totfact>
</mgrwt>
</event>
<event>
 4    1  0.4137916E+000  0.2300956E+03  0.7546771E-02  0.1126573E+00
         21   -1    0    0  503  502  0.00000000000E+00  0.00000000000E+00  0.27509198485E+03  0.27509198485E+03  0.00000000000E+00 0. -1.
         21   -1    0    0  501  503 -0.00000000000E+00 -0.00000000000E+00 -0.20964370079E+03  0.20964370079E+03  0.00000000000E+00 0.  1.
          6    1    1    2  501    0 -0.13008418710E+03 -0.78058178334E+02 -0.36666824117E+02  0.23299877882E+03  0.17300000000E+03 0.  1.
         -6    1    1    2    0  502  0.13008418710E+03  0.78058178334E+02  0.10211510818E+03  0.25173690683E+03  0.17300000000E+03 0. -1.
<mgrwt>
<rscale>  2 0.23009558E+03</rscale>
<asrwt>0</asrwt>
<pdfrwt beam="1">  1       21 0.42321844E-01 0.23009558E+03</pdfrwt>
<pdfrwt beam="2">  1       21 0.32252877E-01 0.23009558E+03</pdfrwt>
<totfact> 0.48822739E+04</totfact>
</mgrwt>
</event>
<event>
 4    1  0.4137916E+000  0.2296258E+03  0.7546771E-02  0.1126903E+00
         21   -1    0    0  501  502  0.00000000000E+00  0.00000000000E+00  0.34063700011E+03  0.34063700011E+03  0.00000000000E+00 0.  1.
         21   -1    0    0  502  503 -0.00000000000E+00 -0.00000000000E+00 -0.16536104487E+03  0.16536104487E+03  0.00000000000E+00 0.  1.
          6    1    1    2  501    0 -0.10448529881E+03  0.10900374819E+03  0.15159869683E+03  0.27515479219E+03  0.17300000000E+03 0.  1.
         -6    1    1    2    0  503  0.10448529881E+03 -0.10900374819E+03  0.23677258416E+02  0.23084325278E+03  0.17300000000E+03 0.  1.
<mgrwt>
<rscale>  2 0.22962577E+03</rscale>
<asrwt>0</asrwt>
<pdfrwt beam="1">  1       21 0.52405692E-01 0.22962577E+03</pdfrwt>
<pdfrwt beam="2">  1       21 0.25440161E-01 0.22962577E+03</pdfrwt>
<totfact> 0.49730182E+04</totfact>
</mgrwt>
</event>
<event>
 4    1  0.4137916E+000  0.2393056E+03  0.7546771E-02  0.1120256E+00
         21   -1    0    0  501  502  0.00000000000E+00  0.00000000000E+00  0.11811954395E+04  0.11811954395E+04  0.00000000000E+00 0. -1.
         21   -1    0    0  502  503 -0.00000000000E+00 -0.00000000000E+00 -0.48919370687E+02  0.48919370687E+02  0.00000000000E+00 0. -1.
          6    1    1    2  501    0 -0.52304083255E+02 -0.15685173520E+03  0.62426850249E+03  0.66856439268E+03  0.17300000000E+03 0. -1.
         -6    1    1    2    0  503  0.52304083255E+02  0.15685173520E+03  0.50800756631E+03  0.56155041749E+03  0.17300000000E+03 0. -1.
<mgrwt>
<rscale>  2 0.23930563E+03</rscale>
<asrwt>0</asrwt>
<pdfrwt beam="1">  1       21 0.18172235E+00 0.23930563E+03</pdfrwt>
<pdfrwt beam="2">  1       21 0.75260579E-02 0.23930563E+03</pdfrwt>
<totfact> 0.22920437E+04</totfact>
</mgrwt>
</event>
<event>
 4    1  0.4137916E+000  0.2156585E+03  0.7546771E-02  0.1137162E+00
         21   -1    0    0  501  502  0.00000000000E+00  0.00000000000E+00  0.34947945335E+03  0.34947945335E+03  0.00000000000E+00 0.  1.
         21   -1    0    0  502  503 -0.00000000000E+00 -0.00000000000E+00 -0.41479780587E+03  0.41479780587E+03  0.00000000000E+00 0. -1.
          6    1    1    2  501    0 -0.10432460792E+03  0.75471525232E+02  0.28226804241E+03  0.35522362352E+03  0.17300000000E+03 0.  1.
         -6    1    1    2    0  503  0.10432460792E+03 -0.75471525232E+02 -0.34758639493E+03  0.40905363570E+03  0.17300000000E+03 0. -1.
<mgrwt>
<rscale>  2 0.21565847E+03</rscale>
<asrwt>0</asrwt>
<pdfrwt beam="1">  1       21 0.53766070E-01 0.21565847E+03</pdfrwt>
<pdfrwt beam="2">  1       21 0.63815047E-01 0.21565847E+03</pdfrwt>
<totfact> 0.73023196E+03</totfact>
</mgrwt>
</event>
<event>
 4    1  0.4137916E+000  0.1891800E+03  0.7546771E-02  0.1159203E+00
         21   -1    0    0  501  502  0.00000000000E+00  0.00000000000E+00  0.98472997168E+02  0.98472997168E+02  0.00000000000E+00 0.  1.
         21   -1    0    0  502  503 -0.00000000000E+00 -0.00000000000E+00 -0.52461673659E+03  0.52461673659E+03  0.00000000000E+00 0.  1.
          6    1    1    2  501    0  0.19132554929E+02 -0.74121525632E+02 -0.40388581497E+02  0.19344325456E+03  0.17300000000E+03 0.  1.
         -6    1    1    2    0  503 -0.19132554929E+02  0.74121525632E+02 -0.38575515792E+03  0.42964647920E+03  0.17300000000E+03 0.  1.
<mgrwt>
<rscale>  2 0.18917995E+03</rscale>
<asrwt>0</asrwt>
<pdfrwt beam="1">  1       21 0.15149692E-01 0.18917995E+03</pdfrwt>
<pdfrwt beam="2">  1       21 0.80710269E-01 0.18917995E+03</pdfrwt>
<totfact> 0.52023534E+04</totfact>
</mgrwt>
</event>
<event>
 4    1  0.4137916E+000  0.2100594E+03  0.7546771E-02  0.1141519E+00
         21   -1    0    0  501  502  0.00000000000E+00  0.00000000000E+00  0.52472150537E+02  0.52472150537E+02  0.00000000000E+00 0.  1.
         21   -1    0    0  502  503 -0.00000000000E+00 -0.00000000000E+00 -0.94641076760E+03  0.94641076760E+03  0.00000000000E+00 0.  1.
          6    1    1    2  501    0 -0.99233564920E+02  0.65944438973E+02 -0.28022596549E+03  0.35021644903E+03  0.17300000000E+03 0.  1.
         -6    1    1    2    0  503  0.99233564920E+02 -0.65944438973E+02 -0.61371265158E+03  0.64866646911E+03  0.17300000000E+03 0.  1.
<mgrwt>
<rscale>  2 0.21005944E+03</rscale>
<asrwt>0</asrwt>
<pdfrwt beam="1">  1       21 0.80726388E-02 0.21005944E+03</pdfrwt>
<pdfrwt beam="2">  1       21 0.14560165E+00 0.21005944E+03</pdfrwt>
<totfact> 0.37785354E+04</totfact>
</mgrwt>
</event>
<event>
 4    1  0.4137916E+000  0.1940711E+03  0.7546771E-02  0.1154840E+00
         21   -1    0    0  501  502  0.00000000000E+00  0.00000000000E+00  0.64514437901E+03  0.64514437901E+03  0.00000000000E+00 0.  1.
         21   -1    0    0  502  503 -0.00000000000E+00 -0.00000000000E+00 -0.66042264544E+02  0.66042264544E+02  0.00000000000E+00 0.  1.
          6    1    1    2  501    0  0.83863994119E+02 -0.26484216683E+02  0.41067187640E+03  0.45421908074E+03  0.17300000000E+03 0.  1.
         -6    1    1    2    0  503 -0.83863994119E+02  0.26484216683E+02  0.16843023806E+03  0.25696756281E+03  0.17300000000E+03 0.  1.
<mgrwt>
<rscale>  2 0.19407108E+03</rscale>
<asrwt>0</asrwt>
<pdfrwt beam="1">  1       21 0.99252977E-01 0.19407108E+03</pdfrwt>
<pdfrwt beam="2">  1       21 0.10160349E-01 0.19407108E+03</pdfrwt>
<totfact> 0.65888554E+04</totfact>
</mgrwt>
</event>
<event>
 4    1  0.4137916E+000  0.2159444E+03  0.7546771E-02  0.1136943E+00
         21   -1    0    0  501  502  0.00000000000E+00  0.00000000000E+00  0.93965704735E+02  0.93965704735E+02  0.00000000000E+00 0.  1.
         21   -1    0    0  502  503 -0.00000000000E+00 -0.00000000000E+00 -0.56230545268E+03  0.56230545268E+03  0.00000000000E+00 0.  1.
          6    1    1    2  501    0 -0.92588789189E+02 -0.90168226530E+02 -0.12171750505E+03  0.24788534445E+03  0.17300000000E+03 0.  1.
         -6    1    1    2    0  503  0.92588789189E+02  0.90168226530E+02 -0.34662224290E+03  0.40838581296E+03  0.17300000000E+03 0.  1.
<mgrwt>
<rscale>  2 0.21594442E+03</rscale>
<asrwt>0</asrwt>
<pdfrwt beam="1">  1       21 0.14456263E-01 0.21594442E+03</pdfrwt>
<pdfrwt beam="2">  1       21 0.86508530E-01 0.21594442E+03</pdfrwt>
<totfact> 0.47725907E+04</totfact>
</mgrwt>
</event>
<event>
 4    1  0.4137916E+000  0.2274589E+03  0.7546771E-02  0.1128441E+00
         21   -1    0    0  501  502  0.00000000000E+00  0.00000000000E+00  0.51164042342E+02  0.51164042342E+02  0.00000000000E+00 0. -1.
         21   -1    0    0  502  503 -0.00000000000E+00 -0.00000000000E+00 -0.15141338779E+04  0.15141338779E+04  0.00000000000E+00 0. -1.
          6    1    1    2  501    0 -0.65897025868E+02  0.13215958254E+03 -0.28042300862E+03  0.36107428188E+03  0.17300000000E+03 0. -1.
         -6    1    1    2    0  503  0.65897025868E+02 -0.13215958254E+03 -0.11825468269E+04  0.12042236383E+04  0.17300000000E+03 0. -1.
<mgrwt>
<rscale>  2 0.22745895E+03</rscale>
<asrwt>0</asrwt>
<pdfrwt beam="1">  1       21 0.78713904E-02 0.22745895E+03</pdfrwt>
<pdfrwt beam="2">  1       21 0.23294370E+00 0.22745895E+03</pdfrwt>
<totfact> 0.10056880E+04</totfact>
</mgrwt>
</event>
<event>
 4    1  0.4137916E+000  0.1812517E+03  0.7546771E-02  0.1166597E+00
         21   -1    0    0  503  502  0.00000000000E+00  0.00000000000E+00  0.12157462919E+03  0.12157462919E+03  0.00000000000E+00 0.  1.
         21   -1    0    0  501  503 -0.00000000000E+00 -0.00000000000E+00 -0.10175683756E+04  0.10175683756E+04  0.00000000000E+00 0. -1.
          6    1    1    2  501    0 -0.30451001783E+02 -0.44675583503E+02 -0.93611770374E+03  0.95350329131E+03  0.17300000000E+03 0. -1.
         -6    1    1    2    0  502  0.30451001783E+02  0.44675583503E+02  0.40123957326E+02  0.18563971348E+03  0.17300000000E+03 0.  1.
<mgrwt>
<rscale>  2 0.18125168E+03</rscale>
<asrwt>0</asrwt>
<pdfrwt beam="1">  1       21 0.18703789E-01 0.18125168E+03</pdfrwt>
<pdfrwt beam="2">  1       21 0.15654898E+00 0.18125168E+03</pdfrwt>
<totfact> 0.70449712E+03</totfact>
</mgrwt>
</event>
<event>
 4    1  0.4137916E+000  0.2288778E+03  0.7546771E-02  0.1127432E+00
         21   -1    0    0  503  502  0.00000000000E+00  0.00000000000E+00  0.22583153565E+03  0.22583153565E+03  0.00000000000E+00 0.  1.
         21   -1    0    0  501  503 -0.00000000000E+00 -0.00000000000E+00 -0.60301735670E+03  0.60301735670E+03  0.00000000000E+00 0. -1.
          6    1    1    2  501    0 -0.14116097128E+03  0.50295327618E+02 -0.51367869961E+03  0.56236184634E+03  0.17300000000E+03 0. -1.
         -6    1    1    2    0  502  0.14116097128E+03 -0.50295327618E+02  0.13649287855E+03  0.26648704600E+03  0.17300000000E+03 0.  1.
<mgrwt>
<rscale>  2 0.22887778E+03</rscale>
<asrwt>0</asrwt>
<pdfrwt beam="1">  1       21 0.34743313E-01 0.22887778E+03</pdfrwt>
<pdfrwt beam="2">  1       21 0.92771901E-01 0.22887778E+03</pdfrwt>
<totfact> 0.76236964E+03</totfact>
</mgrwt>
</event>
<event>
 4    1  0.4137916E+000  0.2351395E+03  0.7546771E-02  0.1123074E+00
         21   -1    0    0  501  502  0.00000000000E+00  0.00000000000E+00  0.78312144968E+03  0.78312144968E+03  0.00000000000E+00 0.  1.
         21   -1    0    0  502  503 -0.00000000000E+00 -0.00000000000E+00 -0.10129276199E+04  0.10129276199E+04  0.00000000000E+00 0. -1.
          6    1    1    2  501    0  0.14817816013E+03  0.58350827555E+02  0.75125927051E+03  0.78719824552E+03  0.17300000000E+03 0.  1.
         -6    1    1    2    0  503 -0.14817816013E+03 -0.58350827555E+02 -0.98106544073E+03  0.10088508241E+04  0.17300000000E+03 0. -1.
<mgrwt>
<rscale>  2 0.23513950E+03</rscale>
<asrwt>0</asrwt>
<pdfrwt beam="1">  1       21 0.12048022E+00 0.23513950E+03</pdfrwt>
<pdfrwt beam="2">  1       21 0.15583502E+00 0.23513950E+03</pdfrwt>
<totfact> 0.13403965E+02</totfact>
</mgrwt>
</event>
<event>
 4    1  0.4137916E+000  0.2281887E+03  0.7546771E-02  0.1127921E+00
         21   -1    0    0  501  502  0.00000000000E+00  0.00000000000E+00  0.10653719647E+03  0.10653719647E+03  0.00000000000E+00 0. -1.
         21   -1    0    0  502  503 -0.00000000000E+00 -0.00000000000E+00 -0.53432779769E+03  0.53432779769E+03  0.00000000000E+00 0. -1.
          6    1    1    2  501    0 -0.13141156764E+03 -0.69800240986E+02 -0.12030981690E+03  0.25796225653E+03  0.17300000000E+03 0. -1.
         -6    1    1    2    0  503  0.13141156764E+03  0.69800240986E+02 -0.30748078433E+03  0.38290273763E+03  0.17300000000E+03 0. -1.
<mgrwt>
<rscale>  2 0.22818868E+03</rscale>
<asrwt>0</asrwt>
<pdfrwt beam="1">  1       21 0.16390338E-01 0.22818868E+03</pdfrwt>
<pdfrwt beam="2">  1       21 0.82204278E-01 0.22818868E+03</pdfrwt>
<totfact> 0.42388230E+04</totfact>
</mgrwt>
</event>
<event>
 4    1  0.4137916E+000  0.1748293E+03  0.7546771E-02  0.1172903E+00
         21   -1    0    0  501  502  0.00000000000E+00  0.00000000000E+00  0.52712900758E+03  0.52712900758E+03  0.00000000000E+00 0.  1.
         21   -1    0    0  502  503 -0.00000000000E+00 -0.00000000000E+00 -0.73844775625E+02  0.73844775625E+02  0.00000000000E+00 0.  1.
          6    1    1    2  501    0  0.13664235232E+02  0.21202724906E+02  0.36590076554E+03  0.40552267149E+03  0.17300000000E+03 0.  1.
         -6    1    1    2    0  503 -0.13664235232E+02 -0.21202724906E+02  0.87383466410E+02  0.19545111171E+03  0.17300000000E+03 0.  1.
<mgrwt>
<rscale>  2 0.17482925E+03</rscale>
<asrwt>0</asrwt>
<pdfrwt beam="1">  1       21 0.81096768E-01 0.17482925E+03</pdfrwt>
<pdfrwt beam="2">  1       21 0.11360735E-01 0.17482925E+03</pdfrwt>
<totfact> 0.86939437E+04</totfact>
</mgrwt>
</event>
<event>
 4    1  0.4137916E+000  0.2741850E+03  0.7546771E-02  0.1098908E+00
         21   -1    0    0  503  502  0.00000000000E+00  0.00000000000E+00  0.16572552079E+04  0.16572552079E+04  0.00000000000E+00 0.  1.
         21   -1    0    0  501  503 -0.00000000000E+00 -0.00000000000E+00 -0.59099946262E+02  0.59099946262E+02  0.00000000000E+00 0. -1.
          6    1    1    2  501    0 -0.20242585778E+03 -0.65361770699E+02  0.12128249533E+04  0.12434314441E+04  0.17300000000E+03 0.  1.
         -6    1    1    2    0  502  0.20242585778E+03  0.65361770699E+02  0.38533030836E+03  0.47292371003E+03  0.17300000000E+03 0.  1.
<mgrwt>
<rscale>  2 0.27418495E+03</rscale>
<asrwt>0</asrwt>
<pdfrwt beam="1">  1       21 0.25496230E+00 0.27418495E+03</pdfrwt>
<pdfrwt beam="2">  1       21 0.90923007E-02 0.27418495E+03</pdfrwt>
<totfact> 0.55554255E+03</totfact>
</mgrwt>
</event>
<event>
 4    1  0.4137916E+000  0.2222094E+03  0.7546771E-02  0.1132246E+00
         21   -1    0    0  501  502  0.00000000000E+00  0.00000000000E+00  0.23200519103E+03  0.23200519103E+03  0.00000000000E+00 0.  1.
         21   -1    0    0  502  503 -0.00000000000E+00 -0.00000000000E+00 -0.21781508467E+03  0.21781508467E+03  0.00000000000E+00 0.  1.
          6    1    1    2  501    0 -0.97166332732E+02 -0.10003368696E+03  0.41129569877E+02  0.22598379646E+03  0.17300000000E+03 0.  1.
         -6    1    1    2    0  503  0.97166332732E+02  0.10003368696E+03 -0.26939463522E+02  0.22383647924E+03  0.17300000000E+03 0.  1.
<mgrwt>
<rscale>  2 0.22220944E+03</rscale>
<asrwt>0</asrwt>
<pdfrwt beam="1">  1       21 0.35693106E-01 0.22220944E+03</pdfrwt>
<pdfrwt beam="2">  1       21 0.33510013E-01 0.22220944E+03</pdfrwt>
<totfact> 0.64075134E+04</totfact>
</mgrwt>
</event>
<event>
 4    1  0.4137916E+000  0.2047581E+03  0.7546771E-02  0.1145786E+00
         21   -1    0    0  501  502  0.00000000000E+00  0.00000000000E+00  0.43608433718E+02  0.43608433718E+02  0.00000000000E+00 0. -1.
         21   -1    0    0  502  503 -0.00000000000E+00 -0.00000000000E+00 -0.10091908212E+04  0.10091908212E+04  0.00000000000E+00 0. -1.
          6    1    1    2  501    0 -0.43208261315E+02  0.10064743500E+03 -0.36825915482E+03  0.42135574652E+03  0.17300000000E+03 0. -1.
         -6    1    1    2    0  503  0.43208261315E+02 -0.10064743500E+03 -0.59732323267E+03  0.63144350840E+03  0.17300000000E+03 0. -1.
<mgrwt>
<rscale>  2 0.20475805E+03</rscale>
<asrwt>0</asrwt>
<pdfrwt beam="1">  1       21 0.67089903E-02 0.20475805E+03</pdfrwt>
<pdfrwt beam="2">  1       21 0.15526012E+00 0.20475805E+03</pdfrwt>
<totfact> 0.44094771E+04</totfact>
</mgrwt>
</event>
<event>
 4    1  0.4137916E+000  0.2149167E+03  0.7546771E-02  0.1137731E+00
         21   -1    0    0  501  502  0.00000000000E+00  0.00000000000E+00  0.88875938545E+03  0.88875938545E+03  0.00000000000E+00 0. -1.
         21   -1    0    0  502  503 -0.00000000000E+00 -0.00000000000E+00 -0.52308243945E+02  0.52308243945E+02  0.00000000000E+00 0.  1.
          6    1    1    2  501    0  0.12560495895E+03 -0.21990632479E+02  0.45603973760E+03  0.50414426100E+03  0.17300000000E+03 0. -1.
         -6    1    1    2    0  503 -0.12560495895E+03  0.21990632479E+02  0.38041140391E+03  0.43692336840E+03  0.17300000000E+03 0. -1.
<mgrwt>
<rscale>  2 0.21491671E+03</rscale>
<asrwt>0</asrwt>
<pdfrwt beam="1">  1       21 0.13673220E+00 0.21491671E+03</pdfrwt>
<pdfrwt beam="2">  1       21 0.80474228E-02 0.21491671E+03</pdfrwt>
<totfact> 0.44614957E+04</totfact>
</mgrwt>
</event>
<event>
 4    1  0.4137916E+000  0.2873331E+03  0.7546771E-02  0.1091750E+00
         21   -1    0    0  501  502  0.00000000000E+00  0.00000000000E+00  0.34787336558E+03  0.34787336558E+03  0.00000000000E+00 0. -1.
         21   -1    0    0  502  503 -0.00000000000E+00 -0.00000000000E+00 -0.32014098713E+03  0.32014098713E+03  0.00000000000E+00 0. -1.
          6    1    1    2  501    0 -0.22867826441E+03 -0.18373617101E+02  0.18374237905E+03  0.34105952600E+03  0.17300000000E+03 0. -1.
         -6    1    1    2    0  503  0.22867826441E+03  0.18373617101E+02 -0.15601000060E+03  0.32695482671E+03  0.17300000000E+03 0. -1.
<mgrwt>
<rscale>  2 0.28733315E+03</rscale>
<asrwt>0</asrwt>
<pdfrwt beam="1">  1       21 0.53518979E-01 0.28733315E+03</pdfrwt>
<pdfrwt beam="2">  1       21 0.49252460E-01 0.28733315E+03</pdfrwt>
<totfact> 0.12327150E+04</totfact>
</mgrwt>
</event>
<event>
 4    1  0.4137916E+000  0.1941868E+03  0.7546771E-02  0.1154738E+00
         21   -1    0    0  503  502  0.00000000000E+00  0.00000000000E+00  0.62381470122E+02  0.62381470122E+02  0.00000000000E+00 0.  1.
         21   -1    0    0  501  503 -0.00000000000E+00 -0.00000000000E+00 -0.61013081402E+03  0.61013081402E+03  0.00000000000E+00 0.  1.
          6    1    1    2  501    0 -0.54173530218E+02 -0.69604119215E+02 -0.30622804271E+03  0.36260738951E+03  0.17300000000E+03 0.  1.
         -6    1    1    2    0  502  0.54173530218E+02  0.69604119215E+02 -0.24152130119E+03  0.30990489463E+03  0.17300000000E+03 0.  1.
<mgrwt>
<rscale>  2 0.19418678E+03</rscale>
<asrwt>0</asrwt>
<pdfrwt beam="1">  1       21 0.95971491E-02 0.19418678E+03</pdfrwt>
<pdfrwt beam="2">  1       21 0.93866281E-01 0.19418678E+03</pdfrwt>
<totfact> 0.83072012E+04</totfact>
</mgrwt>
</event>
<event>
 4    1  0.4137916E+000  0.1976813E+03  0.7546771E-02  0.1151710E+00
         21   -1    0    0  501  502  0.00000000000E+00  0.00000000000E+00  0.45874857545E+02  0.45874857545E+02  0.00000000000E+00 0. -1.
         21   -1    0    0  502  503 -0.00000000000E+00 -0.00000000000E+00 -0.10482804530E+04  0.10482804530E+04  0.00000000000E+00 0. -1.
          6    1    1    2  501    0  0.39208475887E+02  0.87244522503E+02 -0.73802846268E+03  0.76404445094E+03  0.17300000000E+03 0. -1.
         -6    1    1    2    0  503 -0.39208475887E+02 -0.87244522503E+02 -0.26437713273E+03  0.33011085956E+03  0.17300000000E+03 0. -1.
<mgrwt>
<rscale>  2 0.19768134E+03</rscale>
<asrwt>0</asrwt>
<pdfrwt beam="1">  1       21 0.70576704E-02 0.19768134E+03</pdfrwt>
<pdfrwt beam="2">  1       21 0.16127392E+00 0.19768134E+03</pdfrwt>
<totfact> 0.36626865E+04</totfact>
</mgrwt>
</event>
<event>
 4    1  0.4137916E+000  0.2305825E+03  0.7546771E-02  0.1126230E+00
         21   -1    0    0  501  502  0.00000000000E+00  0.00000000000E+00  0.33882517981E+03  0.33882517981E+03  0.00000000000E+00 0.  1.
         21   -1    0    0  502  503 -0.00000000000E+00 -0.00000000000E+00 -0.15853013146E+03  0.15853013146E+03  0.00000000000E+00 0.  1.
          6    1    1    2  501    0  0.45038683156E+02 -0.14563928827E+03  0.11521300111E+03  0.25776407991E+03  0.17300000000E+03 0.  1.
         -6    1    1    2    0  503 -0.45038683156E+02  0.14563928827E+03  0.65082047244E+02  0.23959123135E+03  0.17300000000E+03 0.  1.
<mgrwt>
<rscale>  2 0.23058249E+03</rscale>
<asrwt>0</asrwt>
<pdfrwt beam="1">  1       21 0.52126951E-01 0.23058249E+03</pdfrwt>
<pdfrwt beam="2">  1       21 0.24389251E-01 0.23058249E+03</pdfrwt>
<totfact> 0.54505451E+04</totfact>
</mgrwt>
</event>
<event>
 4    1  0.4137916E+000  0.2995435E+03  0.7546771E-02  0.1085469E+00
         21   -1    0    0  503  502  0.00000000000E+00  0.00000000000E+00  0.61846302859E+03  0.61846302859E+03  0.00000000000E+00 0. -1.
         21   -1    0    0  501  503 -0.00000000000E+00 -0.00000000000E+00 -0.14983598516E+03  0.14983598516E+03  0.00000000000E+00 0. -1.
          6    1    1    2  501    0 -0.16584799196E+03 -0.17969910705E+03  0.30275729110E+03  0.42589705661E+03  0.17300000000E+03 0. -1.
         -6    1    1    2    0  502  0.16584799196E+03  0.17969910705E+03  0.16586975233E+03  0.34240195714E+03  0.17300000000E+03 0. -1.
<mgrwt>
<rscale>  2 0.29954353E+03</rscale>
<asrwt>0</asrwt>
<pdfrwt beam="1">  1       21 0.95148157E-01 0.29954353E+03</pdfrwt>
<pdfrwt beam="2">  1       21 0.23051690E-01 0.29954353E+03</pdfrwt>
<totfact> 0.15409536E+04</totfact>
</mgrwt>
</event>
<event>
 4    1  0.4137916E+000  0.1782160E+03  0.7546771E-02  0.1169541E+00
         21   -1    0    0  503  502  0.00000000000E+00  0.00000000000E+00  0.25664943166E+02  0.25664943166E+02  0.00000000000E+00 0. -1.
         21   -1    0    0  501  503 -0.00000000000E+00 -0.00000000000E+00 -0.16483286071E+04  0.16483286071E+04  0.00000000000E+00 0. -1.
          6    1    1    2  501    0 -0.36269968677E+02 -0.22725252748E+02 -0.39348196497E+03  0.43195949404E+03  0.17300000000E+03 0. -1.
         -6    1    1    2    0  502  0.36269968677E+02  0.22725252748E+02 -0.12291816990E+04  0.12420340563E+04  0.17300000000E+03 0. -1.
<mgrwt>
<rscale>  2 0.17821601E+03</rscale>
<asrwt>0</asrwt>
<pdfrwt beam="1">  1       21 0.39484528E-02 0.17821601E+03</pdfrwt>
<pdfrwt beam="2">  1       21 0.25358902E+00 0.17821601E+03</pdfrwt>
<totfact> 0.25690347E+04</totfact>
</mgrwt>
</event>
<event>
 4    1  0.4137916E+000  0.1856350E+03  0.7546771E-02  0.1162458E+00
         21   -1    0    0  503  502  0.00000000000E+00  0.00000000000E+00  0.21900386902E+03  0.21900386902E+03  0.00000000000E+00 0.  1.
         21   -1    0    0  501  503 -0.00000000000E+00 -0.00000000000E+00 -0.15892494012E+03  0.15892494012E+03  0.00000000000E+00 0. -1.
          6    1    1    2  501    0 -0.59560349251E+02 -0.31367543778E+02  0.11230991913E+02  0.18597444229E+03  0.17300000000E+03 0. -1.
         -6    1    1    2    0  502  0.59560349251E+02  0.31367543778E+02  0.48847936980E+02  0.19195436685E+03  0.17300000000E+03 0.  1.
<mgrwt>
<rscale>  2 0.18563501E+03</rscale>
<asrwt>0</asrwt>
<pdfrwt beam="1">  1       21 0.33692903E-01 0.18563501E+03</pdfrwt>
<pdfrwt beam="2">  1       21 0.24449991E-01 0.18563501E+03</pdfrwt>
<totfact> 0.13441171E+05</totfact>
</mgrwt>
</event>
<event>
 4    1  0.4137916E+000  0.1925992E+03  0.7546771E-02  0.1156138E+00
         21   -1    0    0  501  502  0.00000000000E+00  0.00000000000E+00  0.10058089662E+03  0.10058089662E+03  0.00000000000E+00 0. -1.
         21   -1    0    0  502  503 -0.00000000000E+00 -0.00000000000E+00 -0.60119149414E+03  0.60119149414E+03  0.00000000000E+00 0. -1.
          6    1    1    2  501    0  0.62807122956E+02 -0.56751500257E+02 -0.32148968180E+02  0.19526398447E+03  0.17300000000E+03 0. -1.
         -6    1    1    2    0  503 -0.62807122956E+02  0.56751500257E+02 -0.46846162935E+03  0.50650840629E+03  0.17300000000E+03 0. -1.
<mgrwt>
<rscale>  2 0.19259924E+03</rscale>
<asrwt>0</asrwt>
<pdfrwt beam="1">  1       21 0.15473984E-01 0.19259924E+03</pdfrwt>
<pdfrwt beam="2">  1       21 0.92490998E-01 0.19259924E+03</pdfrwt>
<totfact> 0.36552247E+04</totfact>
</mgrwt>
</event>
<event>
 4    1  0.4137916E+000  0.2830539E+03  0.7546771E-02  0.1094033E+00
         21   -1    0    0  501  502  0.00000000000E+00  0.00000000000E+00  0.35825337446E+03  0.35825337446E+03  0.00000000000E+00 0. -1.
         21   -1    0    0  502  503 -0.00000000000E+00 -0.00000000000E+00 -0.28937727254E+03  0.28937727254E+03  0.00000000000E+00 0. -1.
          6    1    1    2  501    0 -0.21206072729E+03  0.72254631086E+02 -0.11990028087E+03  0.30740130307E+03  0.17300000000E+03 0. -1.
         -6    1    1    2    0  503  0.21206072729E+03 -0.72254631086E+02  0.18877638279E+03  0.34022934393E+03  0.17300000000E+03 0. -1.
<mgrwt>
<rscale>  2 0.28305385E+03</rscale>
<asrwt>0</asrwt>
<pdfrwt beam="1">  1       21 0.55115903E-01 0.28305385E+03</pdfrwt>
<pdfrwt beam="2">  1       21 0.44519581E-01 0.28305385E+03</pdfrwt>
<totfact> 0.14320808E+04</totfact>
</mgrwt>
</event>
<event>
 4    1  0.4137916E+000  0.4124458E+03  0.7546771E-02  0.1039553E+00
         21   -1    0    0  501  502  0.00000000000E+00  0.00000000000E+00  0.18711671767E+03  0.18711671767E+03  0.00000000000E+00 0. -1.
         21   -1    0    0  502  503 -0.00000000000E+00 -0.00000000000E+00 -0.91105747846E+03  0.91105747846E+03  0.00000000000E+00 0. -1.
          6    1    1    2  501    0 -0.30532547313E+03  0.21669997287E+03 -0.33664807076E+03  0.53239407053E+03  0.17300000000E+03 0. -1.
         -6    1    1    2    0  503  0.30532547313E+03 -0.21669997287E+03 -0.38729269003E+03  0.56578012561E+03  0.17300000000E+03 0. -1.
<mgrwt>
<rscale>  2 0.41244578E+03</rscale>
<asrwt>0</asrwt>
<pdfrwt beam="1">  1       21 0.28787187E-01 0.41244578E+03</pdfrwt>
<pdfrwt beam="2">  1       21 0.14016269E+00 0.41244578E+03</pdfrwt>
<totfact> 0.36243280E+03</totfact>
</mgrwt>
</event>
<event>
 4    1  0.4137916E+000  0.2223865E+03  0.7546771E-02  0.1132116E+00
         21   -1    0    0  501  502  0.00000000000E+00  0.00000000000E+00  0.93878794385E+02  0.93878794385E+02  0.00000000000E+00 0. -1.
         21   -1    0    0  502  503 -0.00000000000E+00 -0.00000000000E+00 -0.53831335771E+03  0.53831335771E+03  0.00000000000E+00 0.  1.
          6    1    1    2  501    0 -0.10803400494E+03  0.88630866596E+02 -0.17599870667E+03  0.28360416338E+03  0.17300000000E+03 0.  1.
         -6    1    1    2    0  503  0.10803400494E+03 -0.88630866596E+02 -0.26843585666E+03  0.34858798872E+03  0.17300000000E+03 0.  1.
<mgrwt>
<rscale>  2 0.22238655E+03</rscale>
<asrwt>0</asrwt>
<pdfrwt beam="1">  1       21 0.14442891E-01 0.22238655E+03</pdfrwt>
<pdfrwt beam="2">  1       21 0.82817442E-01 0.22238655E+03</pdfrwt>
<totfact> 0.52678093E+04</totfact>
</mgrwt>
</event>
<event>
 4    1  0.4137916E+000  0.2745063E+03  0.7546771E-02  0.1098728E+00
         21   -1    0    0  503  502  0.00000000000E+00  0.00000000000E+00  0.88654450074E+03  0.88654450074E+03  0.00000000000E+00 0.  1.
         21   -1    0    0  501  503 -0.00000000000E+00 -0.00000000000E+00 -0.11663672263E+03  0.11663672263E+03  0.00000000000E+00 0. -1.
          6    1    1    2  501    0 -0.10129659837E+03  0.18751982806E+03  0.12370913105E+03  0.30109406481E+03  0.17300000000E+03 0. -1.
         -6    1    1    2    0  502  0.10129659837E+03 -0.18751982806E+03  0.64619864705E+03  0.70208715856E+03  0.17300000000E+03 0.  1.
<mgrwt>
<rscale>  2 0.27450626E+03</rscale>
<asrwt>0</asrwt>
<pdfrwt beam="1">  1       21 0.13639146E+00 0.27450626E+03</pdfrwt>
<pdfrwt beam="2">  1       21 0.17944112E-01 0.27450626E+03</pdfrwt>
<totfact> 0.10261736E+04</totfact>
</mgrwt>
</event>
<event>
 4    1  0.4137916E+000  0.1824148E+03  0.7546771E-02  0.1165486E+00
         21   -1    0    0  501  502  0.00000000000E+00  0.00000000000E+00  0.36562363136E+03  0.36562363136E+03  0.00000000000E+00 0.  1.
         21   -1    0    0  502  503 -0.00000000000E+00 -0.00000000000E+00 -0.11951177651E+03  0.11951177651E+03  0.00000000000E+00 0.  1.
          6    1    1    2  501    0  0.13534378376E+02 -0.56240465428E+02  0.45967978913E+01  0.18247273742E+03  0.17300000000E+03 0.  1.
         -6    1    1    2    0  503 -0.13534378376E+02  0.56240465428E+02  0.24151505695E+03  0.30266267045E+03  0.17300000000E+03 0.  1.
<mgrwt>
<rscale>  2 0.18241483E+03</rscale>
<asrwt>0</asrwt>
<pdfrwt beam="1">  1       21 0.56249789E-01 0.18241483E+03</pdfrwt>
<pdfrwt beam="2">  1       21 0.18386427E-01 0.18241483E+03</pdfrwt>
<totfact> 0.80618083E+04</totfact>
</mgrwt>
</event>
<event>
 4    1  0.4137916E+000  0.1999172E+03  0.7546771E-02  0.1149809E+00
         21   -1    0    0  503  502  0.00000000000E+00  0.00000000000E+00  0.34285027426E+03  0.34285027426E+03  0.00000000000E+00 0. -1.
         21   -1    0    0  501  503 -0.00000000000E+00 -0.00000000000E+00 -0.12653525035E+03  0.12653525035E+03  0.00000000000E+00 0. -1.
          6    1    1    2  501    0 -0.24246174031E+02 -0.97211103708E+02  0.17401208965E+03  0.26504166273E+03  0.17300000000E+03 0. -1.
         -6    1    1    2    0  502  0.24246174031E+02  0.97211103708E+02  0.42302934256E+02  0.20434386187E+03  0.17300000000E+03 0. -1.
<mgrwt>
<rscale>  2 0.19991717E+03</rscale>
<asrwt>0</asrwt>
<pdfrwt beam="1">  1       21 0.52746195E-01 0.19991717E+03</pdfrwt>
<pdfrwt beam="2">  1       21 0.19466962E-01 0.19991717E+03</pdfrwt>
<totfact> 0.82449174E+04</totfact>
</mgrwt>
</event>
<event>
 4    1  0.4137916E+000  0.1789098E+03  0.7546771E-02  0.1168862E+00
         21   -1    0    0  503  502  0.00000000000E+00  0.00000000000E+00  0.21096842646E+03  0.21096842646E+03  0.00000000000E+00 0. -1.
         21   -1    0    0  501  503 -0.00000000000E+00 -0.00000000000E+00 -0.15659210074E+03  0.15659210074E+03  0.00000000000E+00 0. -1.
          6    1    1    2  501    0  0.42719518464E+02 -0.15960850196E+02  0.59596017560E+02  0.18857463060E+03  0.17300000000E+03 0. -1.
         -6    1    1    2    0  502 -0.42719518464E+02  0.15960850196E+02 -0.52196918363E+01  0.17898589659E+03  0.17300000000E+03 0. -1.
<mgrwt>
<rscale>  2 0.17890977E+03</rscale>
<asrwt>0</asrwt>
<pdfrwt beam="1">  1       21 0.32456681E-01 0.17890977E+03</pdfrwt>
<pdfrwt beam="2">  1       21 0.24091093E-01 0.17890977E+03</pdfrwt>
<totfact> 0.14913032E+05</totfact>
</mgrwt>
</event>
<event>
 4    1  0.4137916E+000  0.2273742E+03  0.7546771E-02  0.1128502E+00
         21   -1    0    0  501  502  0.00000000000E+00  0.00000000000E+00  0.45232593434E+03  0.45232593434E+03  0.00000000000E+00 0.  1.
         21   -1    0    0  502  503 -0.00000000000E+00 -0.00000000000E+00 -0.24438358647E+03  0.24438358647E+03  0.00000000000E+00 0.  1.
          6    1    1    2  501    0  0.10889183773E+03 -0.99562080548E+02  0.35812911199E+03  0.42421162297E+03  0.17300000000E+03 0.  1.
         -6    1    1    2    0  503 -0.10889183773E+03  0.99562080548E+02 -0.15018676412E+03  0.27249789783E+03  0.17300000000E+03 0.  1.
<mgrwt>
<rscale>  2 0.22737423E+03</rscale>
<asrwt>0</asrwt>
<pdfrwt beam="1">  1       21 0.69588605E-01 0.22737423E+03</pdfrwt>
<pdfrwt beam="2">  1       21 0.37597475E-01 0.22737423E+03</pdfrwt>
<totfact> 0.12529327E+04</totfact>
</mgrwt>
</event>
<event>
 4    1  0.4137916E+000  0.1857315E+03  0.7546771E-02  0.1162369E+00
         21   -1    0    0  501  502  0.00000000000E+00  0.00000000000E+00  0.16160394109E+04  0.16160394109E+04  0.00000000000E+00 0.  1.
         21   -1    0    0  502  503 -0.00000000000E+00 -0.00000000000E+00 -0.33283514873E+02  0.33283514873E+02  0.00000000000E+00 0.  1.
          6    1    1    2  501    0  0.29476916059E+02  0.60813592591E+02  0.12852515019E+04  0.12986021734E+04  0.17300000000E+03 0.  1.
         -6    1    1    2    0  503 -0.29476916059E+02 -0.60813592591E+02  0.29750439417E+03  0.35072075241E+03  0.17300000000E+03 0.  1.
<mgrwt>
<rscale>  2 0.18573148E+03</rscale>
<asrwt>0</asrwt>
<pdfrwt beam="1">  1       21 0.24862139E+00 0.18573148E+03</pdfrwt>
<pdfrwt beam="2">  1       21 0.51205420E-02 0.18573148E+03</pdfrwt>
<totfact> 0.17610634E+04</totfact>
</mgrwt>
</event>
<event>
 4    1  0.4137916E+000  0.1896964E+03  0.7546771E-02  0.1158735E+00
         21   -1    0    0  501  502  0.00000000000E+00  0.00000000000E+00  0.12126163150E+03  0.12126163150E+03  0.00000000000E+00 0. -1.
         21   -1    0    0  502  503 -0.00000000000E+00 -0.00000000000E+00 -0.50920053990E+03  0.50920053990E+03  0.00000000000E+00 0. -1.
          6    1    1    2  501    0 -0.38622095097E+02 -0.67557729814E+02  0.96460289127E+01  0.18994146193E+03  0.17300000000E+03 0. -1.
         -6    1    1    2    0  503  0.38622095097E+02  0.67557729814E+02 -0.39758493731E+03  0.44052070946E+03  0.17300000000E+03 0. -1.
<mgrwt>
<rscale>  2 0.18969637E+03</rscale>
<asrwt>0</asrwt>
<pdfrwt beam="1">  1       21 0.18655635E-01 0.18969637E+03</pdfrwt>
<pdfrwt beam="2">  1       21 0.78338547E-01 0.18969637E+03</pdfrwt>
<totfact> 0.37949154E+04</totfact>
</mgrwt>
</event>
<event>
 4    1  0.4137916E+000  0.2097839E+03  0.7546771E-02  0.1141737E+00
         21   -1    0    0  501  502  0.00000000000E+00  0.00000000000E+00  0.84113608024E+03  0.84113608024E+03  0.00000000000E+00 0. -1.
         21   -1    0    0  502  503 -0.00000000000E+00 -0.00000000000E+00 -0.10997612480E+03  0.10997612480E+03  0.00000000000E+00 0. -1.
          6    1    1    2  501    0 -0.11373709187E+03 -0.33825601441E+02  0.70990655184E+03  0.74025442230E+03  0.17300000000E+03 0. -1.
         -6    1    1    2    0  503  0.11373709187E+03  0.33825601441E+02  0.21253403600E+02  0.21085778274E+03  0.17300000000E+03 0. -1.
<mgrwt>
<rscale>  2 0.20978393E+03</rscale>
<asrwt>0</asrwt>
<pdfrwt beam="1">  1       21 0.12940555E+00 0.20978393E+03</pdfrwt>
<pdfrwt beam="2">  1       21 0.16919404E-01 0.20978393E+03</pdfrwt>
<totfact> 0.13600808E+04</totfact>
</mgrwt>
</event>
<event>
 4    1  0.4137916E+000  0.1961495E+03  0.7546771E-02  0.1153029E+00
         21   -1    0    0  501  502  0.00000000000E+00  0.00000000000E+00  0.11430365751E+03  0.11430365751E+03  0.00000000000E+00 0.  1.
         21   -1    0    0  502  503 -0.00000000000E+00 -0.00000000000E+00 -0.35019433054E+03  0.35019433054E+03  0.00000000000E+00 0.  1.
          6    1    1    2  501    0  0.41746371567E+02  0.82479481037E+02 -0.16370431830E+03  0.25548723679E+03  0.17300000000E+03 0.  1.
         -6    1    1    2    0  503 -0.41746371567E+02 -0.82479481037E+02 -0.72186354730E+02  0.20901075126E+03  0.17300000000E+03 0.  1.
<mgrwt>
<rscale>  2 0.19614949E+03</rscale>
<asrwt>0</asrwt>
<pdfrwt beam="1">  1       21 0.17585178E-01 0.19614949E+03</pdfrwt>
<pdfrwt beam="2">  1       21 0.53876050E-01 0.19614949E+03</pdfrwt>
<totfact> 0.95367813E+04</totfact>
</mgrwt>
</event>
<event>
 4    1  0.4137916E+000  0.1827914E+03  0.7546771E-02  0.1165129E+00
         21   -1    0    0  503  502  0.00000000000E+00  0.00000000000E+00  0.90271485075E+03  0.90271485075E+03  0.00000000000E+00 0. -1.
         21   -1    0    0  501  503 -0.00000000000E+00 -0.00000000000E+00 -0.67727719071E+02  0.67727719071E+02  0.00000000000E+00 0. -1.
          6    1    1    2  501    0 -0.37358745084E+02 -0.45694691436E+02  0.90735731727E+02  0.20407266763E+03  0.17300000000E+03 0. -1.
         -6    1    1    2    0  502  0.37358745084E+02  0.45694691436E+02  0.74425139996E+03  0.76636990220E+03  0.17300000000E+03 0. -1.
<mgrwt>
<rscale>  2 0.18279136E+03</rscale>
<asrwt>0</asrwt>
<pdfrwt beam="1">  1       21 0.13887920E+00 0.18279136E+03</pdfrwt>
<pdfrwt beam="2">  1       21 0.10419650E-01 0.18279136E+03</pdfrwt>
<totfact> 0.27733678E+04</totfact>
</mgrwt>
</event>
<event>
 4    1  0.4137916E+000  0.2998317E+03  0.7546771E-02  0.1085325E+00
         21   -1    0    0  503  502  0.00000000000E+00  0.00000000000E+00  0.97549275794E+03  0.97549275794E+03  0.00000000000E+00 0. -1.
         21   -1    0    0  501  503 -0.00000000000E+00 -0.00000000000E+00 -0.20698603937E+03  0.20698603937E+03  0.00000000000E+00 0.  1.
          6    1    1    2  501    0  0.13486143153E+03  0.20440759769E+03 -0.56116483272E+02  0.30503791798E+03  0.17300000000E+03 0.  1.
         -6    1    1    2    0  502 -0.13486143153E+03 -0.20440759769E+03  0.82462320184E+03  0.87744087934E+03  0.17300000000E+03 0. -1.
<mgrwt>
<rscale>  2 0.29983174E+03</rscale>
<asrwt>0</asrwt>
<pdfrwt beam="1">  1       21 0.15007581E+00 0.29983174E+03</pdfrwt>
<pdfrwt beam="2">  1       21 0.31844007E-01 0.29983174E+03</pdfrwt>
<totfact> 0.26133064E+03</totfact>
</mgrwt>
</event>
<event>
 4    1  0.4137916E+000  0.1810993E+03  0.7546771E-02  0.1166743E+00
         21   -1    0    0  501  502  0.00000000000E+00  0.00000000000E+00  0.35120935749E+03  0.35120935749E+03  0.00000000000E+00 0. -1.
         21   -1    0    0  502  503 -0.00000000000E+00 -0.00000000000E+00 -0.10270944866E+03  0.10270944866E+03  0.00000000000E+00 0. -1.
          6    1    1    2  501    0 -0.12817005680E+02  0.51996944748E+02  0.19264156419E+03  0.26440069998E+03  0.17300000000E+03 0. -1.
         -6    1    1    2    0  503  0.12817005680E+02 -0.51996944748E+02  0.55858344647E+02  0.18951810617E+03  0.17300000000E+03 0. -1.
<mgrwt>
<rscale>  2 0.18109930E+03</rscale>
<asrwt>0</asrwt>
<pdfrwt beam="1">  1       21 0.54032208E-01 0.18109930E+03</pdfrwt>
<pdfrwt beam="2">  1       21 0.15801454E-01 0.18109930E+03</pdfrwt>
<totfact> 0.11600778E+05</totfact>
</mgrwt>
</event>
<event>
 4    1  0.4137916E+000  0.1898412E+03  0.7546771E-02  0.1158605E+00
         21   -1    0    0  503  502  0.00000000000E+00  0.00000000000E+00  0.13799042216E+04  0.13799042216E+04  0.00000000000E+00 0.  1.
         21   -1    0    0  501  503 -0.00000000000E+00 -0.00000000000E+00 -0.35344591614E+02  0.35344591614E+02  0.00000000000E+00 0.  1.
          6    1    1    2  501    0  0.33644094845E+02 -0.70560239165E+02  0.31072568452E+03  0.36412926755E+03  0.17300000000E+03 0.  1.
         -6    1    1    2    0  502 -0.33644094845E+02  0.70560239165E+02  0.10338339454E+04  0.10511195456E+04  0.17300000000E+03 0.  1.
<mgrwt>
<rscale>  2 0.18984118E+03</rscale>
<asrwt>0</asrwt>
<pdfrwt beam="1">  1       21 0.21229292E+00 0.18984118E+03</pdfrwt>
<pdfrwt beam="2">  1       21 0.54376306E-02 0.18984118E+03</pdfrwt>
<totfact> 0.26243377E+04</totfact>
</mgrwt>
</event>
<event>
 4    1  0.4137916E+000  0.1783985E+03  0.7546771E-02  0.1169362E+00
         21   -1    0    0  503  502  0.00000000000E+00  0.00000000000E+00  0.37389184075E+02  0.37389184075E+02  0.00000000000E+00 0. -1.
         21   -1    0    0  501  503 -0.00000000000E+00 -0.00000000000E+00 -0.10366836868E+04  0.10366836868E+04  0.00000000000E+00 0. -1.
          6    1    1    2  501    0  0.38847262501E+02 -0.19695532689E+02 -0.72680236063E+03  0.74837670677E+03  0.17300000000E+03 0. -1.
         -6    1    1    2    0  502 -0.38847262501E+02  0.19695532689E+02 -0.27249214209E+03  0.32569616410E+03  0.17300000000E+03 0. -1.
<mgrwt>
<rscale>  2 0.17839850E+03</rscale>
<asrwt>0</asrwt>
<pdfrwt beam="1">  1       21 0.57521829E-02 0.17839850E+03</pdfrwt>
<pdfrwt beam="2">  1       21 0.15948978E+00 0.17839850E+03</pdfrwt>
<totfact> 0.54240118E+04</totfact>
</mgrwt>
</event>
<event>
 4    1  0.4137916E+000  0.1831171E+03  0.7546771E-02  0.1164820E+00
         21   -1    0    0  501  502  0.00000000000E+00  0.00000000000E+00  0.79411482248E+03  0.79411482248E+03  0.00000000000E+00 0. -1.
         21   -1    0    0  502  503 -0.00000000000E+00 -0.00000000000E+00 -0.64727435062E+02  0.64727435062E+02  0.00000000000E+00 0. -1.
          6    1    1    2  501    0  0.59984993390E+02  0.21655976343E+01  0.61788525048E+03  0.64444865739E+03  0.17300000000E+03 0. -1.
         -6    1    1    2    0  503 -0.59984993390E+02 -0.21655976343E+01  0.11150213693E+03  0.21439360015E+03  0.17300000000E+03 0. -1.
<mgrwt>
<rscale>  2 0.18311715E+03</rscale>
<asrwt>0</asrwt>
<pdfrwt beam="1">  1       21 0.12217150E+00 0.18311715E+03</pdfrwt>
<pdfrwt beam="2">  1       21 0.99580675E-02 0.18311715E+03</pdfrwt>
<totfact> 0.41504297E+04</totfact>
</mgrwt>
</event>
<event>
 4    1  0.4137916E+000  0.1795743E+03  0.7546771E-02  0.1168216E+00
         21   -1    0    0  503  502  0.00000000000E+00  0.00000000000E+00  0.69761258483E+02  0.69761258483E+02  0.00000000000E+00 0.  1.
         21   -1    0    0  501  503 -0.00000000000E+00 -0.00000000000E+00 -0.73328154132E+03  0.73328154132E+03  0.00000000000E+00 0.  1.
          6    1    1    2  501    0  0.44653654142E+02 -0.17999664114E+02 -0.57587015351E+03  0.60321917280E+03  0.17300000000E+03 0.  1.
         -6    1    1    2    0  502 -0.44653654142E+02  0.17999664114E+02 -0.87650129333E+02  0.19982362700E+03  0.17300000000E+03 0.  1.
<mgrwt>
<rscale>  2 0.17957432E+03</rscale>
<asrwt>0</asrwt>
<pdfrwt beam="1">  1       21 0.10732501E-01 0.17957432E+03</pdfrwt>
<pdfrwt beam="2">  1       21 0.11281255E+00 0.17957432E+03</pdfrwt>
<totfact> 0.44288198E+04</totfact>
</mgrwt>
</event>
<event>
 4    1  0.4137916E+000  0.1805943E+03  0.7546771E-02  0.1167229E+00
         21   -1    0    0  503  502  0.00000000000E+00  0.00000000000E+00  0.27501361452E+03  0.27501361452E+03  0.00000000000E+00 0.  1.
         21   -1    0    0  501  503 -0.00000000000E+00 -0.00000000000E+00 -0.11881034161E+03  0.11881034161E+03  0.00000000000E+00 0.  1.
          6    1    1    2  501    0 -0.51099253524E+01  0.51567185789E+02  0.69651226480E+02  0.19356027314E+03  0.17300000000E+03 0.  1.
         -6    1    1    2    0  502  0.51099253524E+01 -0.51567185789E+02  0.86552046431E+02  0.20026368300E+03  0.17300000000E+03 0.  1.
<mgrwt>
<rscale>  2 0.18059426E+03</rscale>
<asrwt>0</asrwt>
<pdfrwt beam="1">  1       21 0.42309787E-01 0.18059426E+03</pdfrwt>
<pdfrwt beam="2">  1       21 0.18278514E-01 0.18059426E+03</pdfrwt>
<totfact> 0.14726276E+05</totfact>
</mgrwt>
</event>
<event>
 4    1  0.4137916E+000  0.2530206E+03  0.7546771E-02  0.1111411E+00
         21   -1    0    0  503  502  0.00000000000E+00  0.00000000000E+00  0.38232871175E+03  0.38232871175E+03  0.00000000000E+00 0. -1.
         21   -1    0    0  501  503 -0.00000000000E+00 -0.00000000000E+00 -0.18850780005E+03  0.18850780005E+03  0.00000000000E+00 0.  1.
          6    1    1    2  501    0  0.17815278025E+03  0.48497733745E+02  0.15070181801E+01  0.25302512601E+03  0.17300000000E+03 0. -1.
         -6    1    1    2    0  502 -0.17815278025E+03 -0.48497733745E+02  0.19231389353E+03  0.31781138578E+03  0.17300000000E+03 0. -1.
<mgrwt>
<rscale>  2 0.25302064E+03</rscale>
<asrwt>0</asrwt>
<pdfrwt beam="1">  1       21 0.58819802E-01 0.25302064E+03</pdfrwt>
<pdfrwt beam="2">  1       21 0.29001200E-01 0.25302064E+03</pdfrwt>
<totfact> 0.29861913E+04</totfact>
</mgrwt>
</event>
<event>
 4    1  0.4137916E+000  0.1760233E+03  0.7546771E-02  0.1171708E+00
         21   -1    0    0  501  502  0.00000000000E+00  0.00000000000E+00  0.50358216895E+03  0.50358216895E+03  0.00000000000E+00 0. -1.
         21   -1    0    0  502  503 -0.00000000000E+00 -0.00000000000E+00 -0.63261389317E+02  0.63261389317E+02  0.00000000000E+00 0. -1.
          6    1    1    2  501    0  0.31681527140E+02 -0.71755959271E+01  0.26708066021E+03  0.31986917232E+03  0.17300000000E+03 0. -1.
         -6    1    1    2    0  503 -0.31681527140E+02  0.71755959271E+01  0.17324011942E+03  0.24697438595E+03  0.17300000000E+03 0. -1.
<mgrwt>
<rscale>  2 0.17602332E+03</rscale>
<asrwt>0</asrwt>
<pdfrwt beam="1">  1       21 0.77474177E-01 0.17602332E+03</pdfrwt>
<pdfrwt beam="2">  1       21 0.97325218E-02 0.17602332E+03</pdfrwt>
<totfact> 0.12661604E+05</totfact>
</mgrwt>
</event>
<event>
 4    1  0.4137916E+000  0.1751196E+03  0.7546771E-02  0.1172612E+00
         21   -1    0    0  503  502  0.00000000000E+00  0.00000000000E+00  0.22228637266E+03  0.22228637266E+03  0.00000000000E+00 0.  1.
         21   -1    0    0  501  503 -0.00000000000E+00 -0.00000000000E+00 -0.18058242882E+03  0.18058242882E+03  0.00000000000E+00 0.  1.
          6    1    1    2  501    0 -0.14221372846E+02 -0.23143263169E+02 -0.77009043804E+02  0.19130407968E+03  0.17300000000E+03 0.  1.
         -6    1    1    2    0  502  0.14221372846E+02  0.23143263169E+02  0.11871298764E+03  0.21156472180E+03  0.17300000000E+03 0.  1.
<mgrwt>
<rscale>  2 0.17511955E+03</rscale>
<asrwt>0</asrwt>
<pdfrwt beam="1">  1       21 0.34197903E-01 0.17511955E+03</pdfrwt>
<pdfrwt beam="2">  1       21 0.27781912E-01 0.17511955E+03</pdfrwt>
<totfact> 0.10258747E+05</totfact>
</mgrwt>
</event>
<event>
 4    1  0.4137916E+000  0.2558194E+03  0.7546771E-02  0.1109681E+00
         21   -1    0    0  501  502  0.00000000000E+00  0.00000000000E+00  0.16786553132E+03  0.16786553132E+03  0.00000000000E+00 0.  1.
         21   -1    0    0  502  503 -0.00000000000E+00 -0.00000000000E+00 -0.44065476161E+03  0.44065476161E+03  0.00000000000E+00 0. -1.
          6    1    1    2  501    0  0.16474397169E+03 -0.91509624610E+02 -0.23969863671E+03  0.35056957091E+03  0.17300000000E+03 0.  1.
         -6    1    1    2    0  503 -0.16474397169E+03  0.91509624610E+02 -0.33090593579E+02  0.25795072202E+03  0.17300000000E+03 0.  1.
<mgrwt>
<rscale>  2 0.25581944E+03</rscale>
<asrwt>0</asrwt>
<pdfrwt beam="1">  1       21 0.25825466E-01 0.25581944E+03</pdfrwt>
<pdfrwt beam="2">  1       21 0.67793040E-01 0.25581944E+03</pdfrwt>
<totfact> 0.27406349E+04</totfact>
</mgrwt>
</event>
<event>
 4    1  0.4137916E+000  0.2226328E+03  0.7546771E-02  0.1131935E+00
         21   -1    0    0  503  502  0.00000000000E+00  0.00000000000E+00  0.96480497029E+02  0.96480497029E+02  0.00000000000E+00 0.  1.
         21   -1    0    0  501  503 -0.00000000000E+00 -0.00000000000E+00 -0.11709225194E+04  0.11709225194E+04  0.00000000000E+00 0. -1.
          6    1    1    2  501    0 -0.10216239903E+03  0.95912503987E+02 -0.10119715492E+04  0.10361716946E+04  0.17300000000E+03 0. -1.
         -6    1    1    2    0  502  0.10216239903E+03 -0.95912503987E+02 -0.62470473162E+02  0.23123132187E+03  0.17300000000E+03 0.  1.
<mgrwt>
<rscale>  2 0.22263280E+03</rscale>
<asrwt>0</asrwt>
<pdfrwt beam="1">  1       21 0.14843153E-01 0.22263280E+03</pdfrwt>
<pdfrwt beam="2">  1       21 0.18014193E+00 0.22263280E+03</pdfrwt>
<totfact> 0.70855804E+03</totfact>
</mgrwt>
</event>
<event>
 4    1  0.4137916E+000  0.2010324E+03  0.7546771E-02  0.1148871E+00
         21   -1    0    0  501  502  0.00000000000E+00  0.00000000000E+00  0.11618249403E+03  0.11618249403E+03  0.00000000000E+00 0.  1.
         21   -1    0    0  502  503 -0.00000000000E+00 -0.00000000000E+00 -0.34792159021E+03  0.34792159021E+03  0.00000000000E+00 0. -1.
          6    1    1    2  501    0 -0.60130928703E+02  0.82881154145E+02 -0.11921145455E+03  0.23372074190E+03  0.17300000000E+03 0.  1.
         -6    1    1    2    0  503  0.60130928703E+02 -0.82881154145E+02 -0.11252764163E+03  0.23038334234E+03  0.17300000000E+03 0. -1.
<mgrwt>
<rscale>  2 0.20103237E+03</rscale>
<asrwt>0</asrwt>
<pdfrwt beam="1">  1       21 0.17874229E-01 0.20103237E+03</pdfrwt>
<pdfrwt beam="2">  1       21 0.53526400E-01 0.20103237E+03</pdfrwt>
<totfact> 0.93624918E+04</totfact>
</mgrwt>
</event>
<event>
 4    1  0.4137916E+000  0.2290423E+03  0.7546771E-02  0.1127316E+00
         21   -1    0    0  503  502  0.00000000000E+00  0.00000000000E+00  0.71807594776E+02  0.71807594776E+02  0.00000000000E+00 0.  1.
         21   -1    0    0  501  503 -0.00000000000E+00 -0.00000000000E+00 -0.77781988723E+03  0.77781988723E+03  0.00000000000E+00 0.  1.
          6    1    1    2  501    0  0.14492395937E+03 -0.39095160946E+02 -0.45771058969E+03  0.51181966504E+03  0.17300000000E+03 0.  1.
         -6    1    1    2    0  502 -0.14492395937E+03  0.39095160946E+02 -0.24830170276E+03  0.33780781697E+03  0.17300000000E+03 0.  1.
<mgrwt>
<rscale>  2 0.22904232E+03</rscale>
<asrwt>0</asrwt>
<pdfrwt beam="1">  1       21 0.11047322E-01 0.22904232E+03</pdfrwt>
<pdfrwt beam="2">  1       21 0.11966460E+00 0.22904232E+03</pdfrwt>
<totfact> 0.35458274E+04</totfact>
</mgrwt>
</event>
<event>
 4    1  0.4137916E+000  0.1880146E+03  0.7546771E-02  0.1160264E+00
         21   -1    0    0  503  502  0.00000000000E+00  0.00000000000E+00  0.24322206823E+03  0.24322206823E+03  0.00000000000E+00 0.  1.
         21   -1    0    0  501  503 -0.00000000000E+00 -0.00000000000E+00 -0.15642510424E+03  0.15642510424E+03  0.00000000000E+00 0.  1.
          6    1    1    2  501    0  0.33707771282E+02  0.65454501703E+02  0.96596420371E+02  0.21137732628E+03  0.17300000000E+03 0.  1.
         -6    1    1    2    0  502 -0.33707771282E+02 -0.65454501703E+02 -0.97994563784E+01  0.18826984619E+03  0.17300000000E+03 0.  1.
<mgrwt>
<rscale>  2 0.18801464E+03</rscale>
<asrwt>0</asrwt>
<pdfrwt beam="1">  1       21 0.37418780E-01 0.18801464E+03</pdfrwt>
<pdfrwt beam="2">  1       21 0.24065401E-01 0.18801464E+03</pdfrwt>
<totfact> 0.11237574E+05</totfact>
</mgrwt>
</event>
<event>
 4    1  0.4137916E+000  0.2506517E+03  0.7546771E-02  0.1112894E+00
         21   -1    0    0  503  502  0.00000000000E+00  0.00000000000E+00  0.24133302662E+03  0.24133302662E+03  0.00000000000E+00 0.  1.
         21   -1    0    0  501  503 -0.00000000000E+00 -0.00000000000E+00 -0.26958303309E+03  0.26958303309E+03  0.00000000000E+00 0. -1.
          6    1    1    2  501    0  0.54761105824E+02 -0.17291174556E+03  0.33202439572E+02  0.25284116053E+03  0.17300000000E+03 0. -1.
         -6    1    1    2    0  502 -0.54761105824E+02  0.17291174556E+03 -0.61452446040E+02  0.25807489918E+03  0.17300000000E+03 0. -1.
<mgrwt>
<rscale>  2 0.25065165E+03</rscale>
<asrwt>0</asrwt>
<pdfrwt beam="1">  1       21 0.37128158E-01 0.25065165E+03</pdfrwt>
<pdfrwt beam="2">  1       21 0.41474313E-01 0.25065165E+03</pdfrwt>
<totfact> 0.38104306E+04</totfact>
</mgrwt>
</event>
<event>
 4    1  0.4137916E+000  0.2433281E+03  0.7546771E-02  0.1117595E+00
         21   -1    0    0  501  502  0.00000000000E+00  0.00000000000E+00  0.49857135568E+03  0.49857135568E+03  0.00000000000E+00 0.  1.
         21   -1    0    0  502  503 -0.00000000000E+00 -0.00000000000E+00 -0.22114864876E+03  0.22114864876E+03  0.00000000000E+00 0.  1.
          6    1    1    2  501    0 -0.14259979967E+03  0.94577158394E+02  0.38357536692E+03  0.45424509229E+03  0.17300000000E+03 0.  1.
         -6    1    1    2    0  503  0.14259979967E+03 -0.94577158394E+02 -0.10615266000E+03  0.26547491215E+03  0.17300000000E+03 0.  1.
<mgrwt>
<rscale>  2 0.24332805E+03</rscale>
<asrwt>0</asrwt>
<pdfrwt beam="1">  1       21 0.76703285E-01 0.24332805E+03</pdfrwt>
<pdfrwt beam="2">  1       21 0.34022869E-01 0.24332805E+03</pdfrwt>
<totfact> 0.12199719E+04</totfact>
</mgrwt>
</event>
<event>
 4    1  0.4137916E+000  0.1759760E+03  0.7546771E-02  0.1171755E+00
         21   -1    0    0  501  502  0.00000000000E+00  0.00000000000E+00  0.11619669777E+04  0.11619669777E+04  0.00000000000E+00 0. -1.
         21   -1    0    0  502  503 -0.00000000000E+00 -0.00000000000E+00 -0.43593270942E+02  0.43593270942E+02  0.00000000000E+00 0. -1.
          6    1    1    2  501    0 -0.32212519395E+02 -0.94818565930E+00  0.93496836489E+03  0.95138498454E+03  0.17300000000E+03 0. -1.
         -6    1    1    2    0  503  0.32212519395E+02  0.94818565930E+00  0.18340534191E+03  0.25417526415E+03  0.17300000000E+03 0. -1.
<mgrwt>
<rscale>  2 0.17597598E+03</rscale>
<asrwt>0</asrwt>
<pdfrwt beam="1">  1       21 0.17876413E+00 0.17597598E+03</pdfrwt>
<pdfrwt beam="2">  1       21 0.67066579E-02 0.17597598E+03</pdfrwt>
<totfact> 0.30559766E+04</totfact>
</mgrwt>
</event>
<event>
 4    1  0.4137916E+000  0.1738263E+03  0.7546771E-02  0.1173915E+00
         21   -1    0    0  503  502  0.00000000000E+00  0.00000000000E+00  0.42497417779E+03  0.42497417779E+03  0.00000000000E+00 0.  1.
         21   -1    0    0  501  503 -0.00000000000E+00 -0.00000000000E+00 -0.92007985129E+02  0.92007985129E+02  0.00000000000E+00 0.  1.
          6    1    1    2  501    0 -0.67951778607E+01 -0.15504841853E+02  0.43260293974E+02  0.17912852257E+03  0.17300000000E+03 0.  1.
         -6    1    1    2    0  502  0.67951778607E+01  0.15504841853E+02  0.28970589868E+03  0.33785364035E+03  0.17300000000E+03 0.  1.
<mgrwt>
<rscale>  2 0.17382628E+03</rscale>
<asrwt>0</asrwt>
<pdfrwt beam="1">  1       21 0.65380641E-01 0.17382628E+03</pdfrwt>
<pdfrwt beam="2">  1       21 0.14155075E-01 0.17382628E+03</pdfrwt>
<totfact> 0.94499165E+04</totfact>
</mgrwt>
</event>
<event>
 4    1  0.4137916E+000  0.1734300E+03  0.7546771E-02  0.1174317E+00
         21   -1    0    0  503  502  0.00000000000E+00  0.00000000000E+00  0.10384417510E+03  0.10384417510E+03  0.00000000000E+00 0.  1.
         21   -1    0    0  501  503 -0.00000000000E+00 -0.00000000000E+00 -0.32684815775E+03  0.32684815775E+03  0.00000000000E+00 0.  1.
          6    1    1    2  501    0  0.93587721248E+01 -0.78349110914E+01 -0.38849159809E+02  0.17772796534E+03  0.17300000000E+03 0.  1.
         -6    1    1    2    0  502 -0.93587721248E+01  0.78349110914E+01 -0.18415482284E+03  0.25296436750E+03  0.17300000000E+03 0.  1.
<mgrwt>
<rscale>  2 0.17343002E+03</rscale>
<asrwt>0</asrwt>
<pdfrwt beam="1">  1       21 0.15976027E-01 0.17343002E+03</pdfrwt>
<pdfrwt beam="2">  1       21 0.50284331E-01 0.17343002E+03</pdfrwt>
<totfact> 0.13254067E+05</totfact>
</mgrwt>
</event>
<event>
 4    1  0.4137916E+000  0.2188719E+03  0.7546771E-02  0.1134727E+00
         21   -1    0    0  503  502  0.00000000000E+00  0.00000000000E+00  0.89030116677E+02  0.89030116677E+02  0.00000000000E+00 0. -1.
         21   -1    0    0  501  503 -0.00000000000E+00 -0.00000000000E+00 -0.72140497416E+03  0.72140497416E+03  0.00000000000E+00 0.  1.
          6    1    1    2  501    0  0.12721802066E+03  0.42325709436E+02 -0.11191240242E+03  0.24582366907E+03  0.17300000000E+03 0. -1.
         -6    1    1    2    0  502 -0.12721802066E+03 -0.42325709436E+02 -0.52046245506E+03  0.56461142176E+03  0.17300000000E+03 0.  1.
<mgrwt>
<rscale>  2 0.21887186E+03</rscale>
<asrwt>0</asrwt>
<pdfrwt beam="1">  1       21 0.13696940E-01 0.21887186E+03</pdfrwt>
<pdfrwt beam="2">  1       21 0.11098539E+00 0.21887186E+03</pdfrwt>
<totfact> 0.29128898E+04</totfact>
</mgrwt>
</event>
<event>
 4    1  0.4137916E+000  0.3439511E+03  0.7546771E-02  0.1065125E+00
         21   -1    0    0  503  502  0.00000000000E+00  0.00000000000E+00  0.13924413316E+03  0.13924413316E+03  0.00000000000E+00 0.  1.
         21   -1    0    0  501  503 -0.00000000000E+00 -0.00000000000E+00 -0.10636457599E+04  0.10636457599E+04  0.00000000000E+00 0.  1.
          6    1    1    2  501    0  0.27353889358E+03  0.11640384263E+03 -0.73200368584E+03  0.80878413496E+03  0.17300000000E+03 0.  1.
         -6    1    1    2    0  502 -0.27353889358E+03 -0.11640384263E+03 -0.19239794086E+03  0.39410575805E+03  0.17300000000E+03 0.  1.
<mgrwt>
<rscale>  2 0.34395113E+03</rscale>
<asrwt>0</asrwt>
<pdfrwt beam="1">  1       21 0.21422175E-01 0.34395113E+03</pdfrwt>
<pdfrwt beam="2">  1       21 0.16363780E+00 0.34395113E+03</pdfrwt>
<totfact> 0.43516878E+03</totfact>
</mgrwt>
</event>
<event>
 4    1  0.4137916E+000  0.2150298E+03  0.7546771E-02  0.1137644E+00
         21   -1    0    0  501  502  0.00000000000E+00  0.00000000000E+00  0.27877331064E+03  0.27877331064E+03  0.00000000000E+00 0.  1.
         21   -1    0    0  502  503 -0.00000000000E+00 -0.00000000000E+00 -0.21123322609E+03  0.21123322609E+03  0.00000000000E+00 0.  1.
          6    1    1    2  501    0  0.12179818338E+03 -0.38392715215E+02  0.14731889491E+03  0.26065428225E+03  0.17300000000E+03 0.  1.
         -6    1    1    2    0  503 -0.12179818338E+03  0.38392715215E+02 -0.79778810353E+02  0.22935225448E+03  0.17300000000E+03 0.  1.
<mgrwt>
<rscale>  2 0.21502976E+03</rscale>
<asrwt>0</asrwt>
<pdfrwt beam="1">  1       21 0.42888202E-01 0.21502976E+03</pdfrwt>
<pdfrwt beam="2">  1       21 0.32497419E-01 0.21502976E+03</pdfrwt>
<totfact> 0.47126945E+04</totfact>
</mgrwt>
</event>
<event>
 4    1  0.4137916E+000  0.2460976E+03  0.7546771E-02  0.1115796E+00
         21   -1    0    0  503  502  0.00000000000E+00  0.00000000000E+00  0.11793081804E+04  0.11793081804E+04  0.00000000000E+00 0. -1.
         21   -1    0    0  501  503 -0.00000000000E+00 -0.00000000000E+00 -0.84369852036E+02  0.84369852036E+02  0.00000000000E+00 0.  1.
          6    1    1    2  501    0  0.15492549835E+03 -0.81443823749E+02  0.15222639514E+03  0.28937325696E+03  0.17300000000E+03 0.  1.
         -6    1    1    2    0  502 -0.15492549835E+03  0.81443823749E+02  0.94271193319E+03  0.97430477544E+03  0.17300000000E+03 0. -1.
<mgrwt>
<rscale>  2 0.24609755E+03</rscale>
<asrwt>0</asrwt>
<pdfrwt beam="1">  1       21 0.18143202E+00 0.24609755E+03</pdfrwt>
<pdfrwt beam="2">  1       21 0.12979978E-01 0.24609755E+03</pdfrwt>
<totfact> 0.87143899E+03</totfact>
</mgrwt>
</event>
<event>
 4    1  0.4137916E+000  0.2364059E+03  0.7546771E-02  0.1122211E+00
         21   -1    0    0  503  502  0.00000000000E+00  0.00000000000E+00  0.10703725953E+04  0.10703725953E+04  0.00000000000E+00 0. -1.
         21   -1    0    0  501  503 -0.00000000000E+00 -0.00000000000E+00 -0.13070879277E+03  0.13070879277E+03  0.00000000000E+00 0. -1.
          6    1    1    2  501    0 -0.63980674139E+02 -0.14786888323E+03  0.44470138896E+01  0.23644768813E+03  0.17300000000E+03 0. -1.
         -6    1    1    2    0  502  0.63980674139E+02  0.14786888323E+03  0.93521678869E+03  0.96463369998E+03  0.17300000000E+03 0. -1.
<mgrwt>
<rscale>  2 0.23640587E+03</rscale>
<asrwt>0</asrwt>
<pdfrwt beam="1">  1       21 0.16467270E+00 0.23640587E+03</pdfrwt>
<pdfrwt beam="2">  1       21 0.20109046E-01 0.23640587E+03</pdfrwt>
<totfact> 0.51369548E+03</totfact>
</mgrwt>
</event>
<event>
 4    1  0.4137916E+000  0.1894163E+03  0.7546771E-02  0.1158989E+00
         21   -1    0    0  503  502  0.00000000000E+00  0.00000000000E+00  0.19681489428E+03  0.19681489428E+03  0.00000000000E+00 0.  1.
         21   -1    0    0  501  503 -0.00000000000E+00 -0.00000000000E+00 -0.30184148980E+03  0.30184148980E+03  0.00000000000E+00 0. -1.
          6    1    1    2  501    0  0.22399194604E+02 -0.73809265752E+02 -0.20942265854E+03  0.28237631193E+03  0.17300000000E+03 0. -1.
         -6    1    1    2    0  502 -0.22399194604E+02  0.73809265752E+02  0.10439606302E+03  0.21628007214E+03  0.17300000000E+03 0.  1.
<mgrwt>
<rscale>  2 0.18941629E+03</rscale>
<asrwt>0</asrwt>
<pdfrwt beam="1">  1       21 0.30279215E-01 0.18941629E+03</pdfrwt>
<pdfrwt beam="2">  1       21 0.46437152E-01 0.18941629E+03</pdfrwt>
<totfact> 0.46557549E+04</totfact>
</mgrwt>
</event>
<event>
 4    1  0.4137916E+000  0.1738851E+03  0.7546771E-02  0.1173856E+00
         21   -1    0    0  501  502  0.00000000000E+00  0.00000000000E+00  0.66242675422E+03  0.66242675422E+03  0.00000000000E+00 0. -1.
         21   -1    0    0  502  503 -0.00000000000E+00 -0.00000000000E+00 -0.66524570985E+02  0.66524570985E+02  0.00000000000E+00 0. -1.
          6    1    1    2  501    0 -0.17210454628E+02  0.32895366045E+01  0.93755990788E+02  0.19755051660E+03  0.17300000000E+03 0. -1.
         -6    1    1    2    0  503  0.17210454628E+02 -0.32895366045E+01  0.50214619245E+03  0.53140080861E+03  0.17300000000E+03 0. -1.
<mgrwt>
<rscale>  2 0.17388508E+03</rscale>
<asrwt>0</asrwt>
<pdfrwt beam="1">  1       21 0.10191180E+00 0.17388508E+03</pdfrwt>
<pdfrwt beam="2">  1       21 0.10234550E-01 0.17388508E+03</pdfrwt>
<totfact> 0.61674605E+04</totfact>
</mgrwt>
</event>
<event>
 4    1  0.4137916E+000  0.2099179E+03  0.7546771E-02  0.1141631E+00
         21   -1    0    0  501  502  0.00000000000E+00  0.00000000000E+00  0.32928033299E+03  0.32928033299E+03  0.00000000000E+00 0.  1.
         21   -1    0    0  502  503 -0.00000000000E+00 -0.00000000000E+00 -0.22811343675E+03  0.22811343675E+03  0.00000000000E+00 0.  1.
          6    1    1    2  501    0  0.11541856055E+03  0.28549693942E+02  0.22976313603E+03  0.31121797477E+03  0.17300000000E+03 0.  1.
         -6    1    1    2    0  503 -0.11541856055E+03 -0.28549693942E+02 -0.12859623979E+03  0.24617579497E+03  0.17300000000E+03 0.  1.
<mgrwt>
<rscale>  2 0.20991791E+03</rscale>
<asrwt>0</asrwt>
<pdfrwt beam="1">  1       21 0.50658513E-01 0.20991791E+03</pdfrwt>
<pdfrwt beam="2">  1       21 0.35094375E-01 0.20991791E+03</pdfrwt>
<totfact> 0.28747809E+04</totfact>
</mgrwt>
</event>
<event>
 4    1  0.4137916E+000  0.2050435E+03  0.7546771E-02  0.1145552E+00
         21   -1    0    0  503  502  0.00000000000E+00  0.00000000000E+00  0.32066152044E+04  0.32066152044E+04  0.00000000000E+00 0.  1.
         21   -1    0    0  501  503 -0.00000000000E+00 -0.00000000000E+00 -0.16108763059E+02  0.16108763059E+02  0.00000000000E+00 0. -1.
          6    1    1    2  501    0  0.47169570768E+02  0.99442765449E+02  0.90016434959E+03  0.92322190630E+03  0.17300000000E+03 0. -1.
         -6    1    1    2    0  502 -0.47169570768E+02 -0.99442765449E+02  0.22903420917E+04  0.22995020611E+04  0.17300000000E+03 0.  1.
<mgrwt>
<rscale>  2 0.20504349E+03</rscale>
<asrwt>0</asrwt>
<pdfrwt beam="1">  1       21 0.49332491E+00 0.20504349E+03</pdfrwt>
<pdfrwt beam="2">  1       21 0.24782738E-02 0.20504349E+03</pdfrwt>
<totfact> 0.17951479E+03</totfact>
</mgrwt>
</event>
<event>
 4    1  0.4137916E+000  0.1794647E+03  0.7546771E-02  0.1168322E+00
         21   -1    0    0  501  502  0.00000000000E+00  0.00000000000E+00  0.16649232193E+03  0.16649232193E+03  0.00000000000E+00 0.  1.
         21   -1    0    0  502  503 -0.00000000000E+00 -0.00000000000E+00 -0.14034700364E+04  0.14034700364E+04  0.00000000000E+00 0.  1.
          6    1    1    2  501    0  0.41694597324E+02  0.23240996303E+02  0.11038829460E+03  0.21069684131E+03  0.17300000000E+03 0.  1.
         -6    1    1    2    0  503 -0.41694597324E+02 -0.23240996303E+02 -0.13473660090E+04  0.13592655170E+04  0.17300000000E+03 0.  1.
<mgrwt>
<rscale>  2 0.17946471E+03</rscale>
<asrwt>0</asrwt>
<pdfrwt beam="1">  1       21 0.25614202E-01 0.17946471E+03</pdfrwt>
<pdfrwt beam="2">  1       21 0.21591848E+00 0.17946471E+03</pdfrwt>
<totfact> 0.15647338E+03</totfact>
</mgrwt>
</event>
<event>
 4    1  0.4137916E+000  0.2120756E+03  0.7546771E-02  0.1139933E+00
         21   -1    0    0  503  502  0.00000000000E+00  0.00000000000E+00  0.32636217203E+03  0.32636217203E+03  0.00000000000E+00 0. -1.
         21   -1    0    0  501  503 -0.00000000000E+00 -0.00000000000E+00 -0.22471170761E+03  0.22471170761E+03  0.00000000000E+00 0. -1.
          6    1    1    2  501    0  0.86031087807E+02 -0.87439800472E+02 -0.12052330532E+03  0.24393018243E+03  0.17300000000E+03 0. -1.
         -6    1    1    2    0  502 -0.86031087807E+02  0.87439800472E+02  0.22217376974E+03  0.30714369721E+03  0.17300000000E+03 0. -1.
<mgrwt>
<rscale>  2 0.21207562E+03</rscale>
<asrwt>0</asrwt>
<pdfrwt beam="1">  1       21 0.50209565E-01 0.21207562E+03</pdfrwt>
<pdfrwt beam="2">  1       21 0.34571032E-01 0.21207562E+03</pdfrwt>
<totfact> 0.30141989E+04</totfact>
</mgrwt>
</event>
<event>
 4    1  0.4137916E+000  0.1908143E+03  0.7546771E-02  0.1157729E+00
         21   -1    0    0  503  502  0.00000000000E+00  0.00000000000E+00  0.45929144479E+03  0.45929144479E+03  0.00000000000E+00 0. -1.
         21   -1    0    0  501  503 -0.00000000000E+00 -0.00000000000E+00 -0.12709551906E+03  0.12709551906E+03  0.00000000000E+00 0. -1.
          6    1    1    2  501    0  0.54278965617E+02 -0.59455020204E+02 -0.13747111009E+02  0.19130888269E+03  0.17300000000E+03 0. -1.
         -6    1    1    2    0  502 -0.54278965617E+02  0.59455020204E+02  0.34594303675E+03  0.39507808115E+03  0.17300000000E+03 0. -1.
<mgrwt>
<rscale>  2 0.19081432E+03</rscale>
<asrwt>0</asrwt>
<pdfrwt beam="1">  1       21 0.70660221E-01 0.19081432E+03</pdfrwt>
<pdfrwt beam="2">  1       21 0.19553157E-01 0.19081432E+03</pdfrwt>
<totfact> 0.43739196E+04</totfact>
</mgrwt>
</event>
<event>
 4    1  0.4137916E+000  0.1893656E+03  0.7546771E-02  0.1159035E+00
         21   -1    0    0  503  502  0.00000000000E+00  0.00000000000E+00  0.34972955724E+02  0.34972955724E+02  0.00000000000E+00 0. -1.
         21   -1    0    0  501  503 -0.00000000000E+00 -0.00000000000E+00 -0.14660828041E+04  0.14660828041E+04  0.00000000000E+00 0. -1.
          6    1    1    2  501    0 -0.75368022319E+02  0.15810857339E+02 -0.11270627128E+04  0.11428603067E+04  0.17300000000E+03 0. -1.
         -6    1    1    2    0  502  0.75368022319E+02 -0.15810857339E+02 -0.30404713554E+03  0.35819545311E+03  0.17300000000E+03 0. -1.
<mgrwt>
<rscale>  2 0.18936558E+03</rscale>
<asrwt>0</asrwt>
<pdfrwt beam="1">  1       21 0.53804540E-02 0.18936558E+03</pdfrwt>
<pdfrwt beam="2">  1       21 0.22555123E+00 0.18936558E+03</pdfrwt>
<totfact> 0.22156142E+04</totfact>
</mgrwt>
</event>
<event>
 4    1  0.4137916E+000  0.2306584E+03  0.7546771E-02  0.1126177E+00
         21   -1    0    0  503  502  0.00000000000E+00  0.00000000000E+00  0.95280033193E+02  0.95280033193E+02  0.00000000000E+00 0.  1.
         21   -1    0    0  501  503 -0.00000000000E+00 -0.00000000000E+00 -0.75347611666E+03  0.75347611666E+03  0.00000000000E+00 0.  1.
          6    1    1    2  501    0  0.76633439722E+02  0.13191524063E+03 -0.11315830005E+03  0.25692044618E+03  0.17300000000E+03 0.  1.
         -6    1    1    2    0  502 -0.76633439722E+02 -0.13191524063E+03 -0.54503778341E+03  0.59183570367E+03  0.17300000000E+03 0.  1.
<mgrwt>
<rscale>  2 0.23065844E+03</rscale>
<asrwt>0</asrwt>
<pdfrwt beam="1">  1       21 0.14658466E-01 0.23065844E+03</pdfrwt>
<pdfrwt beam="2">  1       21 0.11591941E+00 0.23065844E+03</pdfrwt>
<totfact> 0.23002276E+04</totfact>
</mgrwt>
</event>
<event>
 4    1  0.4137916E+000  0.2010445E+03  0.7546771E-02  0.1148861E+00
         21   -1    0    0  503  502  0.00000000000E+00  0.00000000000E+00  0.57341990995E+03  0.57341990995E+03  0.00000000000E+00 0.  1.
         21   -1    0    0  501  503 -0.00000000000E+00 -0.00000000000E+00 -0.11539113975E+03  0.11539113975E+03  0.00000000000E+00 0. -1.
          6    1    1    2  501    0  0.61693650763E+02 -0.81754372218E+02  0.14169465224E+02  0.20154319057E+03  0.17300000000E+03 0. -1.
         -6    1    1    2    0  502 -0.61693650763E+02  0.81754372218E+02  0.44385930498E+03  0.48726785913E+03  0.17300000000E+03 0.  1.
<mgrwt>
<rscale>  2 0.20104448E+03</rscale>
<asrwt>0</asrwt>
<pdfrwt beam="1">  1       21 0.88218446E-01 0.20104448E+03</pdfrwt>
<pdfrwt beam="2">  1       21 0.17752483E-01 0.20104448E+03</pdfrwt>
<totfact> 0.31541835E+04</totfact>
</mgrwt>
</event>
<event>
 4    1  0.4137916E+000  0.2465599E+03  0.7546771E-02  0.1115498E+00
         21   -1    0    0  503  502  0.00000000000E+00  0.00000000000E+00  0.17665053536E+03  0.17665053536E+03  0.00000000000E+00 0.  1.
         21   -1    0    0  501  503 -0.00000000000E+00 -0.00000000000E+00 -0.38481062853E+03  0.38481062853E+03  0.00000000000E+00 0.  1.
          6    1    1    2  501    0 -0.16833065730E+03  0.50274742437E+02 -0.19535034421E+03  0.31456877928E+03  0.17300000000E+03 0.  1.
         -6    1    1    2    0  502  0.16833065730E+03 -0.50274742437E+02 -0.12809748957E+02  0.24689238462E+03  0.17300000000E+03 0.  1.
<mgrwt>
<rscale>  2 0.24655985E+03</rscale>
<asrwt>0</asrwt>
<pdfrwt beam="1">  1       21 0.27177005E-01 0.24655985E+03</pdfrwt>
<pdfrwt beam="2">  1       21 0.59201635E-01 0.24655985E+03</pdfrwt>
<totfact> 0.33512712E+04</totfact>
</mgrwt>
</event>
<event>
 4    1  0.4137916E+000  0.2586391E+03  0.7546771E-02  0.1107964E+00
         21   -1    0    0  503  502  0.00000000000E+00  0.00000000000E+00  0.53011483039E+03  0.53011483039E+03  0.00000000000E+00 0.  1.
         21   -1    0    0  501  503 -0.00000000000E+00 -0.00000000000E+00 -0.27097754556E+03  0.27097754556E+03  0.00000000000E+00 0. -1.
          6    1    1    2  501    0  0.19017055620E+03  0.28290273824E+02 -0.16322012547E+03  0.30583490546E+03  0.17300000000E+03 0. -1.
         -6    1    1    2    0  502 -0.19017055620E+03 -0.28290273824E+02  0.42235741030E+03  0.49525747049E+03  0.17300000000E+03 0.  1.
<mgrwt>
<rscale>  2 0.25863909E+03</rscale>
<asrwt>0</asrwt>
<pdfrwt beam="1">  1       21 0.81556128E-01 0.25863909E+03</pdfrwt>
<pdfrwt beam="2">  1       21 0.41688853E-01 0.25863909E+03</pdfrwt>
<totfact> 0.69848058E+03</totfact>
</mgrwt>
</event>
<event>
 4    1  0.4137916E+000  0.1964268E+03  0.7546771E-02  0.1152789E+00
         21   -1    0    0  501  502  0.00000000000E+00  0.00000000000E+00  0.10964787408E+03  0.10964787408E+03  0.00000000000E+00 0.  1.
         21   -1    0    0  502  503 -0.00000000000E+00 -0.00000000000E+00 -0.41926140765E+03  0.41926140765E+03  0.00000000000E+00 0. -1.
          6    1    1    2  501    0  0.24699509674E+02 -0.89690675492E+02 -0.48793193498E+02  0.20239629142E+03  0.17300000000E+03 0.  1.
         -6    1    1    2    0  503 -0.24699509674E+02  0.89690675492E+02 -0.26082034007E+03  0.32651299031E+03  0.17300000000E+03 0. -1.
<mgrwt>
<rscale>  2 0.19642679E+03</rscale>
<asrwt>0</asrwt>
<pdfrwt beam="1">  1       21 0.16868904E-01 0.19642679E+03</pdfrwt>
<pdfrwt beam="2">  1       21 0.64501755E-01 0.19642679E+03</pdfrwt>
<totfact> 0.70014787E+04</totfact>
</mgrwt>
</event>
<event>
 4    1  0.4137916E+000  0.1759195E+03  0.7546771E-02  0.1171812E+00
         21   -1    0    0  501  502  0.00000000000E+00  0.00000000000E+00  0.67985380934E+03  0.67985380934E+03  0.00000000000E+00 0. -1.
         21   -1    0    0  502  503 -0.00000000000E+00 -0.00000000000E+00 -0.12707561457E+03  0.12707561457E+03  0.00000000000E+00 0. -1.
          6    1    1    2  501    0  0.31677764498E+02 -0.38988295303E+01  0.59960929826E+03  0.62488318284E+03  0.17300000000E+03 0. -1.
         -6    1    1    2    0  503 -0.31677764498E+02  0.38988295303E+01 -0.46831103481E+02  0.18204624107E+03  0.17300000000E+03 0. -1.
<mgrwt>
<rscale>  2 0.17591953E+03</rscale>
<asrwt>0</asrwt>
<pdfrwt beam="1">  1       21 0.10459289E+00 0.17591953E+03</pdfrwt>
<pdfrwt beam="2">  1       21 0.19550095E-01 0.17591953E+03</pdfrwt>
<totfact> 0.17953222E+04</totfact>
</mgrwt>
</event>
<event>
 4    1  0.4137916E+000  0.2188486E+03  0.7546771E-02  0.1134744E+00
         21   -1    0    0  501  502  0.00000000000E+00  0.00000000000E+00  0.25149160011E+03  0.25149160011E+03  0.00000000000E+00 0. -1.
         21   -1    0    0  502  503 -0.00000000000E+00 -0.00000000000E+00 -0.27518223146E+03  0.27518223146E+03  0.00000000000E+00 0.  1.
          6    1    1    2  501    0  0.63251374611E+02 -0.11817354735E+03  0.13428648627E+03  0.25676367360E+03  0.17300000000E+03 0. -1.
         -6    1    1    2    0  503 -0.63251374611E+02  0.11817354735E+03 -0.15797711763E+03  0.26991015797E+03  0.17300000000E+03 0.  1.
<mgrwt>
<rscale>  2 0.21884863E+03</rscale>
<asrwt>0</asrwt>
<pdfrwt beam="1">  1       21 0.38691015E-01 0.21884863E+03</pdfrwt>
<pdfrwt beam="2">  1       21 0.42335728E-01 0.21884863E+03</pdfrwt>
<totfact> 0.34112709E+04</totfact>
</mgrwt>
</event>
<event>
 4    1  0.4137916E+000  0.1981977E+03  0.7546771E-02  0.1151269E+00
         21   -1    0    0  503  502  0.00000000000E+00  0.00000000000E+00  0.47231464966E+02  0.47231464966E+02  0.00000000000E+00 0. -1.
         21   -1    0    0  501  503 -0.00000000000E+00 -0.00000000000E+00 -0.95356392731E+03  0.95356392731E+03  0.00000000000E+00 0. -1.
          6    1    1    2  501    0 -0.14795565032E+02 -0.95574112006E+02 -0.63205429635E+03  0.66240090064E+03  0.17300000000E+03 0. -1.
         -6    1    1    2    0  502  0.14795565032E+02  0.95574112006E+02 -0.27427816600E+03  0.33839449164E+03  0.17300000000E+03 0. -1.
<mgrwt>
<rscale>  2 0.19819768E+03</rscale>
<asrwt>0</asrwt>
<pdfrwt beam="1">  1       21 0.72663793E-02 0.19819768E+03</pdfrwt>
<pdfrwt beam="2">  1       21 0.14670214E+00 0.19819768E+03</pdfrwt>
<totfact> 0.44788945E+04</totfact>
</mgrwt>
</event>
<event>
 4    1  0.4137916E+000  0.1802190E+03  0.7546771E-02  0.1167591E+00
         21   -1    0    0  503  502  0.00000000000E+00  0.00000000000E+00  0.28391868523E+03  0.28391868523E+03  0.00000000000E+00 0. -1.
         21   -1    0    0  501  503 -0.00000000000E+00 -0.00000000000E+00 -0.14556837521E+03  0.14556837521E+03  0.00000000000E+00 0. -1.
          6    1    1    2  501    0 -0.40469284723E+02  0.30201674193E+02 -0.30200005530E+02  0.18273189230E+03  0.17300000000E+03 0. -1.
         -6    1    1    2    0  502  0.40469284723E+02 -0.30201674193E+02  0.16855031555E+03  0.24675516814E+03  0.17300000000E+03 0. -1.
<mgrwt>
<rscale>  2 0.18021904E+03</rscale>
<asrwt>0</asrwt>
<pdfrwt beam="1">  1       21 0.43679798E-01 0.18021904E+03</pdfrwt>
<pdfrwt beam="2">  1       21 0.22395135E-01 0.18021904E+03</pdfrwt>
<totfact> 0.94466052E+04</totfact>
</mgrwt>
</event>
<event>
 4    1  0.4137916E+000  0.1755702E+03  0.7546771E-02  0.1172160E+00
         21   -1    0    0  503  502  0.00000000000E+00  0.00000000000E+00  0.28383647515E+03  0.28383647515E+03  0.00000000000E+00 0.  1.
         21   -1    0    0  501  503 -0.00000000000E+00 -0.00000000000E+00 -0.14081862395E+03  0.14081862395E+03  0.00000000000E+00 0.  1.
          6    1    1    2  501    0 -0.44788964462E+01  0.29594591644E+02 -0.30051295893E+02  0.17812349860E+03  0.17300000000E+03 0.  1.
         -6    1    1    2    0  502  0.44788964462E+01 -0.29594591644E+02  0.17306914710E+03  0.24653160050E+03  0.17300000000E+03 0.  1.
<mgrwt>
<rscale>  2 0.17557021E+03</rscale>
<asrwt>0</asrwt>
<pdfrwt beam="1">  1       21 0.43667150E-01 0.17557021E+03</pdfrwt>
<pdfrwt beam="2">  1       21 0.21664404E-01 0.17557021E+03</pdfrwt>
<totfact> 0.10079275E+05</totfact>
</mgrwt>
</event>
<event>
 4    1  0.4137916E+000  0.2482968E+03  0.7546771E-02  0.1114386E+00
         21   -1    0    0  503  502  0.00000000000E+00  0.00000000000E+00  0.61453136366E+03  0.61453136366E+03  0.00000000000E+00 0.  1.
         21   -1    0    0  501  503 -0.00000000000E+00 -0.00000000000E+00 -0.10160441438E+03  0.10160441438E+03  0.00000000000E+00 0.  1.
          6    1    1    2  501    0 -0.14596252879E+03  0.10206500237E+03  0.21624384161E+03  0.32926087462E+03  0.17300000000E+03 0.  1.
         -6    1    1    2    0  502  0.14596252879E+03 -0.10206500237E+03  0.29668310767E+03  0.38687490342E+03  0.17300000000E+03 0.  1.
<mgrwt>
<rscale>  2 0.24829685E+03</rscale>
<asrwt>0</asrwt>
<pdfrwt beam="1">  1       21 0.94543284E-01 0.24829685E+03</pdfrwt>
<pdfrwt beam="2">  1       21 0.15631449E-01 0.24829685E+03</pdfrwt>
<totfact> 0.33136943E+04</totfact>
</mgrwt>
</event>
<event>
 4    1  0.4137916E+000  0.1768122E+03  0.7546771E-02  0.1170924E+00
         21   -1    0    0  501  502  0.00000000000E+00  0.00000000000E+00  0.61158119943E+02  0.61158119943E+02  0.00000000000E+00 0.  1.
         21   -1    0    0  502  503 -0.00000000000E+00 -0.00000000000E+00 -0.85417085693E+03  0.85417085693E+03  0.00000000000E+00 0.  1.
          6    1    1    2  501    0 -0.34017239456E+02 -0.13280392095E+02 -0.10649243115E+03  0.20640537611E+03  0.17300000000E+03 0.  1.
         -6    1    1    2    0  503  0.34017239456E+02  0.13280392095E+02 -0.68652030584E+03  0.70892360076E+03  0.17300000000E+03 0.  1.
<mgrwt>
<rscale>  2 0.17681216E+03</rscale>
<asrwt>0</asrwt>
<pdfrwt beam="1">  1       21 0.94089413E-02 0.17681216E+03</pdfrwt>
<pdfrwt beam="2">  1       21 0.13141090E+00 0.17681216E+03</pdfrwt>
<totfact> 0.38347623E+04</totfact>
</mgrwt>
</event>
<event>
 4    1  0.4137916E+000  0.1988629E+03  0.7546771E-02  0.1150702E+00
         21   -1    0    0  503  502  0.00000000000E+00  0.00000000000E+00  0.95979141414E+02  0.95979141414E+02  0.00000000000E+00 0.  1.
         21   -1    0    0  501  503 -0.00000000000E+00 -0.00000000000E+00 -0.47149097705E+03  0.47149097705E+03  0.00000000000E+00 0.  1.
          6    1    1    2  501    0 -0.51325746059E+02  0.83565037322E+02 -0.28851545503E+03  0.35041063834E+03  0.17300000000E+03 0.  1.
         -6    1    1    2    0  502  0.51325746059E+02 -0.83565037322E+02 -0.86996380599E+02  0.21705948012E+03  0.17300000000E+03 0.  1.
<mgrwt>
<rscale>  2 0.19886289E+03</rscale>
<asrwt>0</asrwt>
<pdfrwt beam="1">  1       21 0.14766022E-01 0.19886289E+03</pdfrwt>
<pdfrwt beam="2">  1       21 0.72537073E-01 0.19886289E+03</pdfrwt>
<totfact> 0.68935728E+04</totfact>
</mgrwt>
</event>
<event>
 4    1  0.4137916E+000  0.1868841E+03  0.7546771E-02  0.1161302E+00
         21   -1    0    0  501  502  0.00000000000E+00  0.00000000000E+00  0.12088232202E+03  0.12088232202E+03  0.00000000000E+00 0.  1.
         21   -1    0    0  502  503 -0.00000000000E+00 -0.00000000000E+00 -0.32176916026E+03  0.32176916026E+03  0.00000000000E+00 0.  1.
          6    1    1    2  501    0 -0.10274407868E+02 -0.69936544800E+02 -0.29729975391E+02  0.18923412798E+03  0.17300000000E+03 0.  1.
         -6    1    1    2    0  503  0.10274407868E+02  0.69936544800E+02 -0.17115686285E+03  0.25341735429E+03  0.17300000000E+03 0.  1.
<mgrwt>
<rscale>  2 0.18688415E+03</rscale>
<asrwt>0</asrwt>
<pdfrwt beam="1">  1       21 0.18597280E-01 0.18688415E+03</pdfrwt>
<pdfrwt beam="2">  1       21 0.49502947E-01 0.18688415E+03</pdfrwt>
<totfact> 0.10304615E+05</totfact>
</mgrwt>
</event>
<event>
 4    1  0.4137916E+000  0.1825107E+03  0.7546771E-02  0.1165395E+00
         21   -1    0    0  501  502  0.00000000000E+00  0.00000000000E+00  0.98415368623E+02  0.98415368623E+02  0.00000000000E+00 0. -1.
         21   -1    0    0  502  503 -0.00000000000E+00 -0.00000000000E+00 -0.37864797129E+03  0.37864797129E+03  0.00000000000E+00 0. -1.
          6    1    1    2  501    0  0.47172220968E+02  0.33998886357E+02 -0.62411101673E+02  0.19288672406E+03  0.17300000000E+03 0. -1.
         -6    1    1    2    0  503 -0.47172220968E+02 -0.33998886357E+02 -0.21782150099E+03  0.28417661586E+03  0.17300000000E+03 0. -1.
<mgrwt>
<rscale>  2 0.18251066E+03</rscale>
<asrwt>0</asrwt>
<pdfrwt beam="1">  1       21 0.15140826E-01 0.18251066E+03</pdfrwt>
<pdfrwt beam="2">  1       21 0.58253535E-01 0.18251066E+03</pdfrwt>
<totfact> 0.10686291E+05</totfact>
</mgrwt>
</event>
<event>
 4    1  0.4137916E+000  0.2049075E+03  0.7546771E-02  0.1145663E+00
         21   -1    0    0  501  502  0.00000000000E+00  0.00000000000E+00  0.10644407829E+03  0.10644407829E+03  0.00000000000E+00 0.  1.
         21   -1    0    0  502  503 -0.00000000000E+00 -0.00000000000E+00 -0.44445068593E+03  0.44445068593E+03  0.00000000000E+00 0.  1.
          6    1    1    2  501    0 -0.10351318536E+03  0.36648288760E+02 -0.76617280304E+02  0.21876307791E+03  0.17300000000E+03 0.  1.
         -6    1    1    2    0  503  0.10351318536E+03 -0.36648288760E+02 -0.26138932733E+03  0.33213168632E+03  0.17300000000E+03 0.  1.
<mgrwt>
<rscale>  2 0.20490748E+03</rscale>
<asrwt>0</asrwt>
<pdfrwt beam="1">  1       21 0.16376012E-01 0.20490748E+03</pdfrwt>
<pdfrwt beam="2">  1       21 0.68377028E-01 0.20490748E+03</pdfrwt>
<totfact> 0.64826533E+04</totfact>
</mgrwt>
</event>
<event>
 4    1  0.4137916E+000  0.1862214E+03  0.7546771E-02  0.1161914E+00
         21   -1    0    0  503  502  0.00000000000E+00  0.00000000000E+00  0.20050322367E+03  0.20050322367E+03  0.00000000000E+00 0.  1.
         21   -1    0    0  501  503 -0.00000000000E+00 -0.00000000000E+00 -0.43231839622E+03  0.43231839622E+03  0.00000000000E+00 0.  1.
          6    1    1    2  501    0 -0.63140062282E+02  0.27618126385E+02 -0.36098435980E+03  0.40618731687E+03  0.17300000000E+03 0.  1.
         -6    1    1    2    0  502  0.63140062282E+02 -0.27618126385E+02  0.12916918725E+03  0.22663430302E+03  0.17300000000E+03 0.  1.
<mgrwt>
<rscale>  2 0.18622145E+03</rscale>
<asrwt>0</asrwt>
<pdfrwt beam="1">  1       21 0.30846650E-01 0.18622145E+03</pdfrwt>
<pdfrwt beam="2">  1       21 0.66510522E-01 0.18622145E+03</pdfrwt>
<totfact> 0.21001461E+04</totfact>
</mgrwt>
</event>
<event>
 4    1  0.4137916E+000  0.2142832E+03  0.7546771E-02  0.1138218E+00
         21   -1    0    0  503  502  0.00000000000E+00  0.00000000000E+00  0.21890003268E+03  0.21890003268E+03  0.00000000000E+00 0. -1.
         21   -1    0    0  501  503 -0.00000000000E+00 -0.00000000000E+00 -0.38344024414E+03  0.38344024414E+03  0.00000000000E+00 0.  1.
          6    1    1    2  501    0  0.58816888696E+01 -0.12630787687E+03 -0.28496074169E+03  0.35653877535E+03  0.17300000000E+03 0.  1.
         -6    1    1    2    0  502 -0.58816888696E+01  0.12630787687E+03  0.12042053023E+03  0.24580150147E+03  0.17300000000E+03 0. -1.
<mgrwt>
<rscale>  2 0.21428316E+03</rscale>
<asrwt>0</asrwt>
<pdfrwt beam="1">  1       21 0.33676928E-01 0.21428316E+03</pdfrwt>
<pdfrwt beam="2">  1       21 0.58990806E-01 0.21428316E+03</pdfrwt>
<totfact> 0.22540595E+04</totfact>
</mgrwt>
</event>
<event>
 4    1  0.4137916E+000  0.1828871E+03  0.7546771E-02  0.1165038E+00
         21   -1    0    0  501  502  0.00000000000E+00  0.00000000000E+00  0.79449045990E+02  0.79449045990E+02  0.00000000000E+00 0. -1.
         21   -1    0    0  502  503 -0.00000000000E+00 -0.00000000000E+00 -0.45697485068E+03  0.45697485068E+03  0.00000000000E+00 0. -1.
          6    1    1    2  501    0 -0.53396759638E+02 -0.25835467187E+02 -0.11350379680E+03  0.21524589937E+03  0.17300000000E+03 0. -1.
         -6    1    1    2    0  503  0.53396759638E+02  0.25835467187E+02 -0.26402200789E+03  0.32117799731E+03  0.17300000000E+03 0. -1.
<mgrwt>
<rscale>  2 0.18288708E+03</rscale>
<asrwt>0</asrwt>
<pdfrwt beam="1">  1       21 0.12222930E-01 0.18288708E+03</pdfrwt>
<pdfrwt beam="2">  1       21 0.70303823E-01 0.18288708E+03</pdfrwt>
<totfact> 0.10459585E+05</totfact>
</mgrwt>
</event>
<event>
 4    1  0.4137916E+000  0.2079886E+03  0.7546771E-02  0.1143169E+00
         21   -1    0    0  501  502  0.00000000000E+00  0.00000000000E+00  0.84814478096E+02  0.84814478096E+02  0.00000000000E+00 0.  1.
         21   -1    0    0  502  503 -0.00000000000E+00 -0.00000000000E+00 -0.51113864492E+03  0.51113864492E+03  0.00000000000E+00 0. -1.
          6    1    1    2  501    0 -0.56208968705E+02 -0.10085046200E+03 -0.22694060165E+03  0.30783323493E+03  0.17300000000E+03 0. -1.
         -6    1    1    2    0  503  0.56208968705E+02  0.10085046200E+03 -0.19938356517E+03  0.28811988808E+03  0.17300000000E+03 0.  1.
<mgrwt>
<rscale>  2 0.20798861E+03</rscale>
<asrwt>0</asrwt>
<pdfrwt beam="1">  1       21 0.13048381E-01 0.20798861E+03</pdfrwt>
<pdfrwt beam="2">  1       21 0.78636716E-01 0.20798861E+03</pdfrwt>
<totfact> 0.71689957E+04</totfact>
</mgrwt>
</event>
<event>
 4    1  0.4137916E+000  0.1873002E+03  0.7546771E-02  0.1160919E+00
         21   -1    0    0  503  502  0.00000000000E+00  0.00000000000E+00  0.10511529164E+04  0.10511529164E+04  0.00000000000E+00 0.  1.
         21   -1    0    0  501  503 -0.00000000000E+00 -0.00000000000E+00 -0.16127585313E+03  0.16127585313E+03  0.00000000000E+00 0.  1.
          6    1    1    2  501    0  0.56186560467E+02  0.44670383130E+02 -0.94919623861E+02  0.20997882679E+03  0.17300000000E+03 0.  1.
         -6    1    1    2    0  502 -0.56186560467E+02 -0.44670383130E+02  0.98479668709E+03  0.10024499427E+04  0.17300000000E+03 0.  1.
<mgrwt>
<rscale>  2 0.18730022E+03</rscale>
<asrwt>0</asrwt>
<pdfrwt beam="1">  1       21 0.16171583E+00 0.18730022E+03</pdfrwt>
<pdfrwt beam="2">  1       21 0.24811670E-01 0.18730022E+03</pdfrwt>
<totfact> 0.37761287E+03</totfact>
</mgrwt>
</event>
<event>
 4    1  0.4137916E+000  0.1836974E+03  0.7546771E-02  0.1164272E+00
         21   -1    0    0  503  502  0.00000000000E+00  0.00000000000E+00  0.30487868548E+03  0.30487868548E+03  0.00000000000E+00 0. -1.
         21   -1    0    0  501  503 -0.00000000000E+00 -0.00000000000E+00 -0.21018357445E+03  0.21018357445E+03  0.00000000000E+00 0. -1.
          6    1    1    2  501    0 -0.28239084156E+02 -0.54938994796E+02 -0.12984448271E+03  0.22495405912E+03  0.17300000000E+03 0. -1.
         -6    1    1    2    0  502  0.28239084156E+02  0.54938994796E+02  0.22453959374E+03  0.29010820081E+03  0.17300000000E+03 0. -1.
<mgrwt>
<rscale>  2 0.18369741E+03</rscale>
<asrwt>0</asrwt>
<pdfrwt beam="1">  1       21 0.46904414E-01 0.18369741E+03</pdfrwt>
<pdfrwt beam="2">  1       21 0.32335934E-01 0.18369741E+03</pdfrwt>
<totfact> 0.40213529E+04</totfact>
</mgrwt>
</event>
<event>
 4    1  0.4137916E+000  0.2131573E+03  0.7546771E-02  0.1139090E+00
         21   -1    0    0  501  502  0.00000000000E+00  0.00000000000E+00  0.43850149027E+03  0.43850149027E+03  0.00000000000E+00 0. -1.
         21   -1    0    0  502  503 -0.00000000000E+00 -0.00000000000E+00 -0.36913839747E+03  0.36913839747E+03  0.00000000000E+00 0. -1.
          6    1    1    2  501    0  0.12114163735E+03  0.28840144476E+02  0.37716785244E+03  0.43323393120E+03  0.17300000000E+03 0. -1.
         -6    1    1    2    0  503 -0.12114163735E+03 -0.28840144476E+02 -0.30780475964E+03  0.37440595654E+03  0.17300000000E+03 0. -1.
<mgrwt>
<rscale>  2 0.21315734E+03</rscale>
<asrwt>0</asrwt>
<pdfrwt beam="1">  1       21 0.67461767E-01 0.21315734E+03</pdfrwt>
<pdfrwt beam="2">  1       21 0.56790523E-01 0.21315734E+03</pdfrwt>
<totfact> 0.57677022E+03</totfact>
</mgrwt>
</event>
<event>
 4    1  0.4137916E+000  0.1944084E+03  0.7546771E-02  0.1154544E+00
         21   -1    0    0  501  502  0.00000000000E+00  0.00000000000E+00  0.17318079778E+03  0.17318079778E+03  0.00000000000E+00 0.  1.
         21   -1    0    0  502  503 -0.00000000000E+00 -0.00000000000E+00 -0.22208924096E+03  0.22208924096E+03  0.00000000000E+00 0.  1.
          6    1    1    2  501    0 -0.22946791214E+02  0.85668287550E+02  0.15717572216E+01  0.19441471431E+03  0.17300000000E+03 0.  1.
         -6    1    1    2    0  503  0.22946791214E+02 -0.85668287550E+02 -0.50480200408E+02  0.20085532443E+03  0.17300000000E+03 0.  1.
<mgrwt>
<rscale>  2 0.19440836E+03</rscale>
<asrwt>0</asrwt>
<pdfrwt beam="1">  1       21 0.26643200E-01 0.19440836E+03</pdfrwt>
<pdfrwt beam="2">  1       21 0.34167575E-01 0.19440836E+03</pdfrwt>
<totfact> 0.11059924E+05</totfact>
</mgrwt>
</event>
<event>
 4    1  0.4137916E+000  0.2005253E+03  0.7546771E-02  0.1149297E+00
         21   -1    0    0  501  502  0.00000000000E+00  0.00000000000E+00  0.17461051637E+03  0.17461051637E+03  0.00000000000E+00 0.  1.
         21   -1    0    0  502  503 -0.00000000000E+00 -0.00000000000E+00 -0.37433046446E+03  0.37433046446E+03  0.00000000000E+00 0.  1.
          6    1    1    2  501    0  0.82535966748E+02  0.58900029887E+02  0.70401345990E+02  0.21252470173E+03  0.17300000000E+03 0.  1.
         -6    1    1    2    0  503 -0.82535966748E+02 -0.58900029887E+02 -0.27012129408E+03  0.33641627910E+03  0.17300000000E+03 0.  1.
<mgrwt>
<rscale>  2 0.20052531E+03</rscale>
<asrwt>0</asrwt>
<pdfrwt beam="1">  1       21 0.26863157E-01 0.20052531E+03</pdfrwt>
<pdfrwt beam="2">  1       21 0.57589302E-01 0.20052531E+03</pdfrwt>
<totfact> 0.37180028E+04</totfact>
</mgrwt>
</event>
