<event>
 8    1  0.3007389E-007  0.9118800E+02  0.7816164E-02  0.1184000E+00
        -11   -1    0    0    0    0  0.00000000000E+00  0.00000000000E+00  0.45593999997E+02  0.45594000000E+02  0.51100000000E-03 0. -1.
         11   -1    0    0    0    0 -0.00000000000E+00 -0.00000000000E+00 -0.45593999997E+02  0.45594000000E+02  0.51100000000E-03 0.  1.
         23    2    1    2    0    0  0.00000000000E+00  0.00000000000E+00  0.00000000000E+00  0.91188000000E+02  0.91188000000E+02 0.  0.
    9900012    2    3    3    0    0  0.34157924798E+02  0.86020216098E+01  0.10724807464E+02  0.54367080710E+02  0.39999992094E+02 0.  0.
        -12    1    3    3    0    0 -0.34157924798E+02 -0.86020216098E+01 -0.10724807464E+02  0.36820919290E+02  0.00000000000E+00 0.  1.
         11    1    4    4    0    0  0.32801727881E+02  0.37372263360E+01  0.64115644004E+01  0.33630765245E+02  0.51100000000E-03 0. -1.
        -11    1    4    4    0    0  0.23193553873E+01  0.15452055301E+01 -0.77246444238E+01  0.82120156647E+01  0.51100000000E-03 0.  1.
        -12    1    4    4    0    0 -0.96315847082E+00  0.33195897437E+01  0.12037887487E+02  0.12524299799E+02  0.00000000000E+00 0.  1.
</event>
<event>
 8    1  0.3007389E-007  0.9118800E+02  0.7816164E-02  0.1184000E+00
        -11   -1    0    0    0    0  0.00000000000E+00  0.00000000000E+00  0.45593999997E+02  0.45594000000E+02  0.51100000000E-03 0.  1.
         11   -1    0    0    0    0 -0.00000000000E+00 -0.00000000000E+00 -0.45593999997E+02  0.45594000000E+02  0.51100000000E-03 0. -1.
         23    2    1    2    0    0 -0.17763568394E-14 -0.35527136788E-14  0.00000000000E+00  0.91188000000E+02  0.91188000000E+02 0.  0.
    9900012    2    3    3    0    0  0.32275041559E+01  0.23944086143E+02 -0.27785648252E+02  0.54367105211E+02  0.40000047950E+02 0.  0.
        -12    1    3    3    0    0 -0.32275041559E+01 -0.23944086143E+02  0.27785648252E+02  0.36820894789E+02  0.00000000000E+00 0.  1.
         11    1    4    4    0    0  0.13739166529E+02  0.86330202043E+01 -0.13933896371E+02  0.21388015408E+02  0.51100000000E-03 0. -1.
        -11    1    4    4    0    0 -0.23029033943E+01  0.20995683167E+01  0.65917450409E+01  0.72912724613E+01  0.51100000000E-03 0.  1.
         12    1    4    4    0    0 -0.82087589790E+01  0.13211497622E+02 -0.20443496922E+02  0.25687817341E+02  0.00000000000E+00 0. -1.
</event>
<event>
 8    1  0.3007389E-007  0.9118800E+02  0.7816164E-02  0.1184000E+00
        -11   -1    0    0    0    0  0.00000000000E+00  0.00000000000E+00  0.45593999997E+02  0.45594000000E+02  0.51100000000E-03 0. -1.
         11   -1    0    0    0    0 -0.00000000000E+00 -0.00000000000E+00 -0.45593999997E+02  0.45594000000E+02  0.51100000000E-03 0.  1.
         23    2    1    2    0    0 -0.71054273576E-14  0.00000000000E+00  0.00000000000E+00  0.91188000000E+02  0.91188000000E+02 0.  0.
    9900012    2    3    3    0    0 -0.23787425778E+02  0.16058691813E+02 -0.23066321129E+02  0.54367104053E+02  0.40000045309E+02 0.  0.
         12    1    3    3    0    0  0.23787425778E+02 -0.16058691813E+02  0.23066321129E+02  0.36820895947E+02  0.00000000000E+00 0. -1.
         11    1    4    4    0    0 -0.35903659708E+00  0.20976593962E+02 -0.18296105973E+02  0.27836916057E+02  0.51100000000E-03 0. -1.
        -11    1    4    4    0    0 -0.11902042439E+02 -0.28609542383E+00 -0.71423228349E+01  0.13883560082E+02  0.51100000000E-03 0.  1.
         12    1    4    4    0    0 -0.11526346742E+02 -0.46318067254E+01  0.23721076781E+01  0.12646627914E+02  0.00000000000E+00 0. -1.
</event>
<event>
 8    1  0.3007389E-007  0.9118800E+02  0.7816164E-02  0.1184000E+00
        -11   -1    0    0    0    0  0.00000000000E+00  0.00000000000E+00  0.45593999997E+02  0.45594000000E+02  0.51100000000E-03 0.  1.
         11   -1    0    0    0    0 -0.00000000000E+00 -0.00000000000E+00 -0.45593999997E+02  0.45594000000E+02  0.51100000000E-03 0. -1.
         23    2    1    2    0    0  0.35527136788E-14 -0.17763568394E-14 -0.35527136788E-14  0.91188000000E+02  0.91188000000E+02 0.  0.
    9900012    2    3    3    0    0 -0.20057494025E+02  0.11123723411E+02  0.28805195061E+02  0.54367088121E+02  0.40000008990E+02 0.  0.
         12    1    3    3    0    0  0.20057494025E+02 -0.11123723411E+02 -0.28805195061E+02  0.36820911879E+02  0.00000000000E+00 0. -1.
         11    1    4    4    0    0 -0.11112610071E+02  0.82229046649E-01  0.12228741999E+02  0.16523891652E+02  0.51100000000E-03 0. -1.
        -11    1    4    4    0    0  0.88157745623E+01  0.11016397094E+02  0.14035618780E+02  0.19901695427E+02  0.51100000000E-03 0.  1.
         12    1    4    4    0    0 -0.17760658516E+02  0.25097270674E-01  0.25408342828E+01  0.17941501043E+02  0.00000000000E+00 0. -1.
</event>
<event>
 8    1  0.3007389E-007  0.9118800E+02  0.7816164E-02  0.1184000E+00
        -11   -1    0    0    0    0  0.00000000000E+00  0.00000000000E+00  0.45593999997E+02  0.45594000000E+02  0.51100000000E-03 0.  1.
         11   -1    0    0    0    0 -0.00000000000E+00 -0.00000000000E+00 -0.45593999997E+02  0.45594000000E+02  0.51100000000E-03 0. -1.
         23    2    1    2    0    0  0.00000000000E+00  0.00000000000E+00  0.00000000000E+00  0.91188000000E+02  0.91188000000E+02 0.  0.
    9900012    2    3    3    0    0 -0.11631896187E+02  0.96338894533E+01  0.33580754878E+02  0.54367082941E+02  0.39999997180E+02 0.  0.
         12    1    3    3    0    0  0.11631896187E+02 -0.96338894533E+01 -0.33580754878E+02  0.36820917059E+02  0.00000000000E+00 0. -1.
         11    1    4    4    0    0 -0.33271547157E+01  0.80696875402E+00  0.14698672870E+02  0.15092121834E+02  0.51100000000E-03 0.  1.
        -11    1    4    4    0    0  0.74216540195E+01  0.58380730835E+01 -0.48758580773E+01  0.10627230964E+02  0.51100000000E-03 0. -1.
         12    1    4    4    0    0 -0.15726395491E+02  0.29888476158E+01  0.23757940085E+02  0.28647730142E+02  0.00000000000E+00 0. -1.
</event>
<event>
 8    1  0.3007389E-007  0.9118800E+02  0.7816164E-02  0.1184000E+00
        -11   -1    0    0    0    0  0.00000000000E+00  0.00000000000E+00  0.45593999997E+02  0.45594000000E+02  0.51100000000E-03 0. -1.
         11   -1    0    0    0    0 -0.00000000000E+00 -0.00000000000E+00 -0.45593999997E+02  0.45594000000E+02  0.51100000000E-03 0.  1.
         23    2    1    2    0    0  0.00000000000E+00  0.00000000000E+00 -0.35527136788E-14  0.91188000000E+02  0.91188000000E+02 0.  0.
    9900012    2    3    3    0    0  0.12131500991E+02  0.18482230568E+02  0.29445103174E+02  0.54367078448E+02  0.39999986937E+02 0.  0.
        -12    1    3    3    0    0 -0.12131500991E+02 -0.18482230568E+02 -0.29445103174E+02  0.36820921552E+02  0.00000000000E+00 0.  1.
         11    1    4    4    0    0 -0.26828692832E+01  0.20347021471E+01  0.14918547368E+02  0.15293817583E+02  0.51100000000E-03 0. -1.
        -11    1    4    4    0    0 -0.77957772004E+01  0.27663912476E+01  0.87129126343E+01  0.12014237784E+02  0.51100000000E-03 0.  1.
        -12    1    4    4    0    0  0.22610147475E+02  0.13681137173E+02  0.58136431711E+01  0.27059023081E+02  0.00000000000E+00 0.  1.
</event>
<event>
 8    1  0.3007389E-007  0.9118800E+02  0.7816164E-02  0.1184000E+00
        -11   -1    0    0    0    0  0.00000000000E+00  0.00000000000E+00  0.45593999997E+02  0.45594000000E+02  0.51100000000E-03 0.  1.
         11   -1    0    0    0    0 -0.00000000000E+00 -0.00000000000E+00 -0.45593999997E+02  0.45594000000E+02  0.51100000000E-03 0. -1.
         23    2    1    2    0    0  0.17763568394E-14 -0.35527136788E-14 -0.17763568394E-14  0.91188000000E+02  0.91188000000E+02 0.  0.
    9900012    2    3    3    0    0  0.15951905137E+02 -0.29826522001E+02 -0.14549735107E+02  0.54367089040E+02  0.40000011085E+02 0.  0.
        -12    1    3    3    0    0 -0.15951905137E+02  0.29826522001E+02  0.14549735107E+02  0.36820910960E+02  0.00000000000E+00 0.  1.
         11    1    4    4    0    0 -0.49116950885E+01 -0.17377635585E+02 -0.18087248886E+02  0.25558864210E+02  0.51100000000E-03 0. -1.
        -11    1    4    4    0    0  0.59456441306E+01  0.38553923348E-01 -0.48008203905E+01  0.76419923590E+01  0.51100000000E-03 0.  1.
        -12    1    4    4    0    0  0.14917956095E+02 -0.12487440340E+02  0.83383341695E+01  0.21166232471E+02  0.00000000000E+00 0.  1.
</event>
<event>
 8    1  0.3007389E-007  0.9118800E+02  0.7816164E-02  0.1184000E+00
        -11   -1    0    0    0    0  0.00000000000E+00  0.00000000000E+00  0.45593999997E+02  0.45594000000E+02  0.51100000000E-03 0. -1.
         11   -1    0    0    0    0 -0.00000000000E+00 -0.00000000000E+00 -0.45593999997E+02  0.45594000000E+02  0.51100000000E-03 0.  1.
         23    2    1    2    0    0 -0.35527136788E-14 -0.17763568394E-14 -0.35527136788E-14  0.91188000000E+02  0.91188000000E+02 0.  0.
    9900012    2    3    3    0    0 -0.22151312729E+02  0.46825634674E+01  0.29037445694E+02  0.54367077841E+02  0.39999985553E+02 0.  0.
        -12    1    3    3    0    0  0.22151312729E+02 -0.46825634674E+01 -0.29037445694E+02  0.36820922159E+02  0.00000000000E+00 0.  1.
         11    1    4    4    0    0 -0.13980736208E+02 -0.13734947888E+02  0.12234390521E+02  0.23103897724E+02  0.51100000000E-03 0.  1.
        -11    1    4    4    0    0 -0.64375315102E+01  0.11593183678E+02  0.19618895957E+02  0.23680050645E+02  0.51100000000E-03 0. -1.
        -12    1    4    4    0    0 -0.17330450111E+01  0.68243276770E+01 -0.28158407834E+01  0.75831294708E+01  0.00000000000E+00 0.  1.
</event>
<event>
 8    1  0.3007389E-007  0.9118800E+02  0.7816164E-02  0.1184000E+00
        -11   -1    0    0    0    0  0.00000000000E+00  0.00000000000E+00  0.45593999997E+02  0.45594000000E+02  0.51100000000E-03 0. -1.
         11   -1    0    0    0    0 -0.00000000000E+00 -0.00000000000E+00 -0.45593999997E+02  0.45594000000E+02  0.51100000000E-03 0.  1.
         23    2    1    2    0    0  0.00000000000E+00  0.00000000000E+00  0.26645352591E-14  0.91188000000E+02  0.91188000000E+02 0.  0.
    9900012    2    3    3    0    0 -0.36072706330E+02  0.52577291997E+01  0.51865148579E+01  0.54367030503E+02  0.39999877638E+02 0.  0.
        -12    1    3    3    0    0  0.36072706330E+02 -0.52577291997E+01 -0.51865148579E+01  0.36820969497E+02  0.00000000000E+00 0.  1.
         11    1    4    4    0    0 -0.97719502767E+01  0.10652472208E+02 -0.23037859008E+01  0.14638087514E+02  0.51100000000E-03 0. -1.
        -11    1    4    4    0    0  0.20197242981E+01 -0.72215499360E+01  0.84958534937E+01  0.11331795823E+02  0.51100000000E-03 0.  1.
         12    1    4    4    0    0 -0.28320480351E+02  0.18268069281E+01 -0.10055527350E+01  0.28397147166E+02  0.00000000000E+00 0. -1.
</event>
<event>
 8    1  0.3007389E-007  0.9118800E+02  0.7816164E-02  0.1184000E+00
        -11   -1    0    0    0    0  0.00000000000E+00  0.00000000000E+00  0.45593999997E+02  0.45594000000E+02  0.51100000000E-03 0.  1.
         11   -1    0    0    0    0 -0.00000000000E+00 -0.00000000000E+00 -0.45593999997E+02  0.45594000000E+02  0.51100000000E-03 0. -1.
         23    2    1    2    0    0 -0.35527136788E-14 -0.44408920985E-15  0.00000000000E+00  0.91188000000E+02  0.91188000000E+02 0.  0.
    9900012    2    3    3    0    0 -0.29523668882E+02  0.25196143290E+01 -0.21858278978E+02  0.54367084197E+02  0.40000000045E+02 0.  0.
        -12    1    3    3    0    0  0.29523668882E+02 -0.25196143290E+01  0.21858278978E+02  0.36820915803E+02  0.00000000000E+00 0.  1.
         11    1    4    4    0    0 -0.56662510665E+00 -0.71427093390E+01  0.18036026868E+01  0.73886631826E+01  0.51100000000E-03 0. -1.
        -11    1    4    4    0    0 -0.26008719326E+02  0.66885313685E+00 -0.56386813942E+01  0.26621336811E+02  0.51100000000E-03 0.  1.
         12    1    4    4    0    0 -0.29483244497E+01  0.89934705311E+01 -0.18023200271E+02  0.20357084203E+02  0.00000000000E+00 0. -1.
</event>
<event>
 8    1  0.3007389E-007  0.9118800E+02  0.7816164E-02  0.1184000E+00
        -11   -1    0    0    0    0  0.00000000000E+00  0.00000000000E+00  0.45593999997E+02  0.45594000000E+02  0.51100000000E-03 0.  1.
         11   -1    0    0    0    0 -0.00000000000E+00 -0.00000000000E+00 -0.45593999997E+02  0.45594000000E+02  0.51100000000E-03 0. -1.
         23    2    1    2    0    0  0.00000000000E+00 -0.17763568394E-14 -0.71054273576E-14  0.91188000000E+02  0.91188000000E+02 0.  0.
    9900012    2    3    3    0    0  0.11950671073E+02 -0.15775894523E+02 -0.31049677566E+02  0.54367083878E+02  0.39999999316E+02 0.  0.
        -12    1    3    3    0    0 -0.11950671073E+02  0.15775894523E+02  0.31049677566E+02  0.36820916122E+02  0.00000000000E+00 0.  1.
         11    1    4    4    0    0 -0.40421994028E+01  0.62933545259E+01 -0.87908965312E+01  0.11542337254E+02  0.51100000000E-03 0.  1.
        -11    1    4    4    0    0  0.10615281552E+02 -0.23571034334E+02 -0.25547421233E+02  0.36344856499E+02  0.51100000000E-03 0. -1.
         12    1    4    4    0    0  0.53775889242E+01  0.15017852846E+01  0.32886401981E+01  0.64798901249E+01  0.00000000000E+00 0. -1.
</event>
<event>
 8    1  0.3007389E-007  0.9118800E+02  0.7816164E-02  0.1184000E+00
        -11   -1    0    0    0    0  0.00000000000E+00  0.00000000000E+00  0.45593999997E+02  0.45594000000E+02  0.51100000000E-03 0. -1.
         11   -1    0    0    0    0 -0.00000000000E+00 -0.00000000000E+00 -0.45593999997E+02  0.45594000000E+02  0.51100000000E-03 0.  1.
         23    2    1    2    0    0  0.35527136788E-14  0.35527136788E-14  0.00000000000E+00  0.91188000000E+02  0.91188000000E+02 0.  0.
    9900012    2    3    3    0    0 -0.11986726635E+02 -0.14014324036E+02 -0.31870031593E+02  0.54367057489E+02  0.39999939158E+02 0.  0.
         12    1    3    3    0    0  0.11986726635E+02  0.14014324036E+02  0.31870031593E+02  0.36820942511E+02  0.00000000000E+00 0. -1.
         11    1    4    4    0    0 -0.68479565498E+01 -0.13587534312E+01 -0.23213893884E+02  0.24240989858E+02  0.51100000000E-03 0. -1.
        -11    1    4    4    0    0 -0.33436551819E+01 -0.19827025421E+02 -0.20490251891E+01  0.20211122470E+02  0.51100000000E-03 0.  1.
        -12    1    4    4    0    0 -0.17951149036E+01  0.71714548156E+01 -0.66071125201E+01  0.99149451608E+01  0.00000000000E+00 0.  1.
</event>
<event>
 8    1  0.3007389E-007  0.9118800E+02  0.7816164E-02  0.1184000E+00
        -11   -1    0    0    0    0  0.00000000000E+00  0.00000000000E+00  0.45593999997E+02  0.45594000000E+02  0.51100000000E-03 0. -1.
         11   -1    0    0    0    0 -0.00000000000E+00 -0.00000000000E+00 -0.45593999997E+02  0.45594000000E+02  0.51100000000E-03 0.  1.
         23    2    1    2    0    0 -0.88817841970E-15  0.00000000000E+00 -0.35527136788E-14  0.91188000000E+02  0.91188000000E+02 0.  0.
    9900012    2    3    3    0    0 -0.46145718964E+01  0.27590928217E+02 -0.23942069952E+02  0.54367132177E+02  0.40000109423E+02 0.  0.
         12    1    3    3    0    0  0.46145718964E+01 -0.27590928217E+02  0.23942069952E+02  0.36820867823E+02  0.00000000000E+00 0. -1.
         11    1    4    4    0    0  0.14465660703E+01  0.27401440886E+02 -0.30460356255E+02  0.40997131844E+02  0.51100000000E-03 0.  1.
        -11    1    4    4    0    0  0.12060006563E+01 -0.33568549934E+01  0.23622753153E+01  0.42782307039E+01  0.51100000000E-03 0. -1.
        -12    1    4    4    0    0 -0.72671386230E+01  0.35463423252E+01  0.41560109875E+01  0.90917696287E+01  0.00000000000E+00 0.  1.
</event>
<event>
 8    1  0.3007389E-007  0.9118800E+02  0.7816164E-02  0.1184000E+00
        -11   -1    0    0    0    0  0.00000000000E+00  0.00000000000E+00  0.45593999997E+02  0.45594000000E+02  0.51100000000E-03 0.  1.
         11   -1    0    0    0    0 -0.00000000000E+00 -0.00000000000E+00 -0.45593999997E+02  0.45594000000E+02  0.51100000000E-03 0. -1.
         23    2    1    2    0    0 -0.17763568394E-14 -0.13322676296E-14  0.00000000000E+00  0.91188000000E+02  0.91188000000E+02 0.  0.
    9900012    2    3    3    0    0  0.11685984624E+02 -0.14000892024E+01  0.34889214369E+02  0.54367085214E+02  0.40000002363E+02 0.  0.
         12    1    3    3    0    0 -0.11685984624E+02  0.14000892024E+01 -0.34889214369E+02  0.36820914786E+02  0.00000000000E+00 0. -1.
         11    1    4    4    0    0  0.83293282363E+00  0.80439557642E+01  0.43208213309E+01  0.91688875367E+01  0.51100000000E-03 0. -1.
        -11    1    4    4    0    0 -0.20859833864E+01  0.97113121385E+01  0.67655125378E+01  0.12018031049E+02  0.51100000000E-03 0.  1.
        -12    1    4    4    0    0  0.12939035187E+02 -0.19155357105E+02  0.23802880500E+02  0.33180166628E+02  0.00000000000E+00 0.  1.
</event>
<event>
 8    1  0.3007389E-007  0.9118800E+02  0.7816164E-02  0.1184000E+00
        -11   -1    0    0    0    0  0.00000000000E+00  0.00000000000E+00  0.45593999997E+02  0.45594000000E+02  0.51100000000E-03 0. -1.
         11   -1    0    0    0    0 -0.00000000000E+00 -0.00000000000E+00 -0.45593999997E+02  0.45594000000E+02  0.51100000000E-03 0.  1.
         23    2    1    2    0    0 -0.35527136788E-14  0.00000000000E+00  0.00000000000E+00  0.91188000000E+02  0.91188000000E+02 0.  0.
    9900012    2    3    3    0    0 -0.20254376562E+02  0.26054361619E+01  0.30639023116E+02  0.54367111839E+02  0.40000063059E+02 0.  0.
        -12    1    3    3    0    0  0.20254376562E+02 -0.26054361619E+01 -0.30639023116E+02  0.36820888161E+02  0.00000000000E+00 0.  1.
         11    1    4    4    0    0 -0.25836440333E+02  0.21709959150E+01  0.98445202971E+01  0.27733543814E+02  0.51100000000E-03 0.  1.
        -11    1    4    4    0    0 -0.31132268621E+01  0.29949773830E+01  0.15598100980E+02  0.16185265690E+02  0.51100000000E-03 0. -1.
         12    1    4    4    0    0  0.86952906332E+01 -0.25605371361E+01  0.51964018387E+01  0.10448302335E+02  0.00000000000E+00 0. -1.
</event>
<event>
 8    1  0.3007389E-007  0.9118800E+02  0.7816164E-02  0.1184000E+00
        -11   -1    0    0    0    0  0.00000000000E+00  0.00000000000E+00  0.45593999997E+02  0.45594000000E+02  0.51100000000E-03 0. -1.
         11   -1    0    0    0    0 -0.00000000000E+00 -0.00000000000E+00 -0.45593999997E+02  0.45594000000E+02  0.51100000000E-03 0.  1.
         23    2    1    2    0    0  0.17763568394E-14  0.00000000000E+00  0.00000000000E+00  0.91188000000E+02  0.91188000000E+02 0.  0.
    9900012    2    3    3    0    0  0.14198724195E+02  0.28461163764E+02  0.18550970887E+02  0.54367080235E+02  0.39999991011E+02 0.  0.
        -12    1    3    3    0    0 -0.14198724195E+02 -0.28461163764E+02 -0.18550970887E+02  0.36820919765E+02  0.00000000000E+00 0.  1.
         11    1    4    4    0    0  0.14050375925E+01 -0.13512892167E+00  0.65248773782E+01  0.66758082300E+01  0.51100000000E-03 0. -1.
        -11    1    4    4    0    0 -0.11473696402E+02  0.10965630190E+02  0.66952893102E+01  0.17225494297E+02  0.51100000000E-03 0.  1.
         12    1    4    4    0    0  0.24267383004E+02  0.17630662496E+02  0.53308041982E+01  0.30465777707E+02  0.00000000000E+00 0. -1.
</event>
<event>
 8    1  0.3007389E-007  0.9118800E+02  0.7816164E-02  0.1184000E+00
        -11   -1    0    0    0    0  0.00000000000E+00  0.00000000000E+00  0.45593999997E+02  0.45594000000E+02  0.51100000000E-03 0. -1.
         11   -1    0    0    0    0 -0.00000000000E+00 -0.00000000000E+00 -0.45593999997E+02  0.45594000000E+02  0.51100000000E-03 0.  1.
         23    2    1    2    0    0 -0.71054273576E-14 -0.88817841970E-15 -0.35527136788E-14  0.91188000000E+02  0.91188000000E+02 0.  0.
    9900012    2    3    3    0    0 -0.31229772145E+02 -0.64773427676E+01 -0.18399073354E+02  0.54367074729E+02  0.39999978460E+02 0.  0.
         12    1    3    3    0    0  0.31229772145E+02  0.64773427676E+01  0.18399073354E+02  0.36820925271E+02  0.00000000000E+00 0. -1.
         11    1    4    4    0    0 -0.18950066299E+02  0.99597333808E+01 -0.19596404149E+02  0.29022755858E+02  0.51100000000E-03 0. -1.
        -11    1    4    4    0    0 -0.36366817034E+00 -0.10402915885E+02  0.48695114007E+01  0.11491956100E+02  0.51100000000E-03 0.  1.
        -12    1    4    4    0    0 -0.11916037675E+02 -0.60341602631E+01 -0.36721806048E+01  0.13852362772E+02  0.00000000000E+00 0.  1.
</event>
<event>
 8    1  0.3007389E-007  0.9118800E+02  0.7816164E-02  0.1184000E+00
        -11   -1    0    0    0    0  0.00000000000E+00  0.00000000000E+00  0.45593999997E+02  0.45594000000E+02  0.51100000000E-03 0. -1.
         11   -1    0    0    0    0 -0.00000000000E+00 -0.00000000000E+00 -0.45593999997E+02  0.45594000000E+02  0.51100000000E-03 0.  1.
         23    2    1    2    0    0 -0.35527136788E-14  0.35527136788E-14 -0.17763568394E-14  0.91188000000E+02  0.91188000000E+02 0.  0.
    9900012    2    3    3    0    0  0.22879598913E+02 -0.25369608829E+02  0.13736330160E+02  0.54367083868E+02  0.39999999293E+02 0.  0.
        -12    1    3    3    0    0 -0.22879598913E+02  0.25369608829E+02 -0.13736330160E+02  0.36820916132E+02  0.00000000000E+00 0.  1.
         11    1    4    4    0    0 -0.24085256745E+01 -0.41051299885E+00  0.29480999932E+00  0.24609815204E+01  0.51100000000E-03 0. -1.
        -11    1    4    4    0    0  0.25114314669E+02 -0.43227678856E+01 -0.28102292117E+01  0.25638106638E+02  0.51100000000E-03 0.  1.
         12    1    4    4    0    0  0.17380991834E+00 -0.20636327945E+02  0.16251749372E+02  0.26267995709E+02  0.00000000000E+00 0. -1.
</event>
<event>
 8    1  0.3007389E-007  0.9118800E+02  0.7816164E-02  0.1184000E+00
        -11   -1    0    0    0    0  0.00000000000E+00  0.00000000000E+00  0.45593999997E+02  0.45594000000E+02  0.51100000000E-03 0. -1.
         11   -1    0    0    0    0 -0.00000000000E+00 -0.00000000000E+00 -0.45593999997E+02  0.45594000000E+02  0.51100000000E-03 0.  1.
         23    2    1    2    0    0  0.00000000000E+00  0.17763568394E-14  0.17763568394E-14  0.91188000000E+02  0.91188000000E+02 0.  0.
    9900012    2    3    3    0    0 -0.34813603119E+02  0.11771687543E+02  0.22848486148E+01  0.54367080363E+02  0.39999991304E+02 0.  0.
         12    1    3    3    0    0  0.34813603119E+02 -0.11771687543E+02 -0.22848486148E+01  0.36820919637E+02  0.00000000000E+00 0. -1.
         11    1    4    4    0    0  0.38042834943E+01 -0.65204344504E+00  0.10798814334E+02  0.11467873597E+02  0.51100000000E-03 0. -1.
        -11    1    4    4    0    0 -0.71247423951E+00  0.24693698534E+01 -0.17996077587E+01  0.31375142009E+01  0.51100000000E-03 0.  1.
        -12    1    4    4    0    0 -0.37905412374E+02  0.99543611348E+01 -0.67143579605E+01  0.39761692565E+02  0.00000000000E+00 0.  1.
</event>
<event>
 8    1  0.3007389E-007  0.9118800E+02  0.7816164E-02  0.1184000E+00
        -11   -1    0    0    0    0  0.00000000000E+00  0.00000000000E+00  0.45593999997E+02  0.45594000000E+02  0.51100000000E-03 0.  1.
         11   -1    0    0    0    0 -0.00000000000E+00 -0.00000000000E+00 -0.45593999997E+02  0.45594000000E+02  0.51100000000E-03 0. -1.
         23    2    1    2    0    0  0.00000000000E+00  0.49960036108E-15  0.00000000000E+00  0.91188000000E+02  0.91188000000E+02 0.  0.
    9900012    2    3    3    0    0 -0.17812951383E+02 -0.34854698508E+00  0.32223520835E+02  0.54367108960E+02  0.40000056496E+02 0.  0.
         12    1    3    3    0    0  0.17812951383E+02  0.34854698508E+00 -0.32223520835E+02  0.36820891040E+02  0.00000000000E+00 0. -1.
         11    1    4    4    0    0  0.46129787863E+01 -0.11924530311E+02  0.37786426520E+01  0.13332371768E+02  0.51100000000E-03 0. -1.
        -11    1    4    4    0    0 -0.15905697530E+02  0.29657324766E+01  0.83171941227E+01  0.18192374814E+02  0.51100000000E-03 0.  1.
         12    1    4    4    0    0 -0.65202326390E+01  0.86102508490E+01  0.20127684061E+02  0.22842362378E+02  0.00000000000E+00 0. -1.
</event>
<event>
 8    1  0.3007389E-007  0.9118800E+02  0.7816164E-02  0.1184000E+00
        -11   -1    0    0    0    0  0.00000000000E+00  0.00000000000E+00  0.45593999997E+02  0.45594000000E+02  0.51100000000E-03 0.  1.
         11   -1    0    0    0    0 -0.00000000000E+00 -0.00000000000E+00 -0.45593999997E+02  0.45594000000E+02  0.51100000000E-03 0. -1.
         23    2    1    2    0    0 -0.44408920985E-15  0.00000000000E+00  0.00000000000E+00  0.91188000000E+02  0.91188000000E+02 0.  0.
    9900012    2    3    3    0    0  0.28312245339E+01 -0.34404794370E+02 -0.12809133870E+02  0.54367087212E+02  0.40000006918E+02 0.  0.
         12    1    3    3    0    0 -0.28312245339E+01  0.34404794370E+02  0.12809133870E+02  0.36820912788E+02  0.00000000000E+00 0. -1.
         11    1    4    4    0    0  0.18901565118E+01  0.24299954009E+01 -0.16992548089E+02  0.17269170800E+02  0.51100000000E-03 0. -1.
        -11    1    4    4    0    0  0.92170944678E+00 -0.35218787999E+02  0.37862832508E+01  0.35433720064E+02  0.51100000000E-03 0.  1.
         12    1    4    4    0    0  0.19358575394E-01 -0.16160017723E+01  0.39713096851E+00  0.16641963492E+01  0.00000000000E+00 0. -1.
</event>
<event>
 8    1  0.3007389E-007  0.9118800E+02  0.7816164E-02  0.1184000E+00
        -11   -1    0    0    0    0  0.00000000000E+00  0.00000000000E+00  0.45593999997E+02  0.45594000000E+02  0.51100000000E-03 0.  1.
         11   -1    0    0    0    0 -0.00000000000E+00 -0.00000000000E+00 -0.45593999997E+02  0.45594000000E+02  0.51100000000E-03 0. -1.
         23    2    1    2    0    0  0.88817841970E-15  0.00000000000E+00 -0.35527136788E-14  0.91188000000E+02  0.91188000000E+02 0.  0.
    9900012    2    3    3    0    0 -0.41269645740E+01  0.32690534115E+02  0.16433888478E+02  0.54367142490E+02  0.40000132933E+02 0.  0.
         12    1    3    3    0    0  0.41269645740E+01 -0.32690534115E+02 -0.16433888478E+02  0.36820857510E+02  0.00000000000E+00 0. -1.
         11    1    4    4    0    0  0.36429325871E+01  0.19323260271E+02 -0.26025244859E+01  0.19835132450E+02  0.51100000000E-03 0. -1.
        -11    1    4    4    0    0 -0.14665966734E+02  0.14766814430E+02  0.10031053966E+02  0.23103493947E+02  0.51100000000E-03 0.  1.
        -12    1    4    4    0    0  0.68960695725E+01 -0.13995405865E+01  0.90053589975E+01  0.11428516092E+02  0.00000000000E+00 0.  1.
</event>
<event>
 8    1  0.3007389E-007  0.9118800E+02  0.7816164E-02  0.1184000E+00
        -11   -1    0    0    0    0  0.00000000000E+00  0.00000000000E+00  0.45593999997E+02  0.45594000000E+02  0.51100000000E-03 0.  1.
         11   -1    0    0    0    0 -0.00000000000E+00 -0.00000000000E+00 -0.45593999997E+02  0.45594000000E+02  0.51100000000E-03 0. -1.
         23    2    1    2    0    0 -0.35527136788E-14  0.00000000000E+00  0.88817841970E-15  0.91188000000E+02  0.91188000000E+02 0.  0.
    9900012    2    3    3    0    0  0.28365605850E+02 -0.22533521556E+02 -0.65898257870E+01  0.54366905599E+02  0.39999592893E+02 0.  0.
        -12    1    3    3    0    0 -0.28365605850E+02  0.22533521556E+02  0.65898257870E+01  0.36821094401E+02  0.00000000000E+00 0.  1.
         11    1    4    4    0    0  0.17322596575E+01  0.35450848183E+01  0.10886699664E+01  0.40931103634E+01  0.51100000000E-03 0. -1.
        -11    1    4    4    0    0  0.17582158530E+02  0.39118474785E+01  0.32880843182E-01  0.18012105115E+02  0.51100000000E-03 0.  1.
         12    1    4    4    0    0  0.90511876623E+01 -0.29990453853E+02 -0.77113765967E+01  0.32261690121E+02  0.00000000000E+00 0. -1.
</event>
<event>
 8    1  0.3007389E-007  0.9118800E+02  0.7816164E-02  0.1184000E+00
        -11   -1    0    0    0    0  0.00000000000E+00  0.00000000000E+00  0.45593999997E+02  0.45594000000E+02  0.51100000000E-03 0.  1.
         11   -1    0    0    0    0 -0.00000000000E+00 -0.00000000000E+00 -0.45593999997E+02  0.45594000000E+02  0.51100000000E-03 0. -1.
         23    2    1    2    0    0  0.00000000000E+00  0.00000000000E+00  0.00000000000E+00  0.91188000000E+02  0.91188000000E+02 0.  0.
    9900012    2    3    3    0    0  0.24771006546E+02  0.81946690363E+01 -0.25981230503E+02  0.54367086046E+02  0.40000004259E+02 0.  0.
        -12    1    3    3    0    0 -0.24771006546E+02 -0.81946690363E+01  0.25981230503E+02  0.36820913954E+02  0.00000000000E+00 0.  1.
         11    1    4    4    0    0  0.19231167477E+01  0.10458128656E+02  0.12311080473E+00  0.10634189652E+02  0.51100000000E-03 0. -1.
        -11    1    4    4    0    0  0.10125169503E+02 -0.14201101139E+02 -0.15381939327E+02  0.23254986320E+02  0.51100000000E-03 0.  1.
        -12    1    4    4    0    0  0.12722720296E+02  0.11937641519E+02 -0.10722401981E+02  0.20477910074E+02  0.00000000000E+00 0.  1.
</event>
<event>
 8    1  0.3007389E-007  0.9118800E+02  0.7816164E-02  0.1184000E+00
        -11   -1    0    0    0    0  0.00000000000E+00  0.00000000000E+00  0.45593999997E+02  0.45594000000E+02  0.51100000000E-03 0.  1.
         11   -1    0    0    0    0 -0.00000000000E+00 -0.00000000000E+00 -0.45593999997E+02  0.45594000000E+02  0.51100000000E-03 0. -1.
         23    2    1    2    0    0  0.00000000000E+00 -0.17763568394E-14  0.00000000000E+00  0.91188000000E+02  0.91188000000E+02 0.  0.
    9900012    2    3    3    0    0 -0.88594678393E+01  0.93519132482E+01  0.34493923304E+02  0.54367092940E+02  0.40000019975E+02 0.  0.
         12    1    3    3    0    0  0.88594678393E+01 -0.93519132482E+01 -0.34493923304E+02  0.36820907060E+02  0.00000000000E+00 0. -1.
         11    1    4    4    0    0  0.26306576449E+01 -0.74630748676E+01  0.63611648738E+01  0.10152943659E+02  0.51100000000E-03 0. -1.
        -11    1    4    4    0    0  0.22443072687E+01 -0.48054312423E+01 -0.10269776572E+01  0.54022002841E+01  0.51100000000E-03 0.  1.
         12    1    4    4    0    0 -0.13734432753E+02  0.21620419358E+02  0.29159736088E+02  0.38811948997E+02  0.00000000000E+00 0. -1.
</event>
<event>
 8    1  0.3007389E-007  0.9118800E+02  0.7816164E-02  0.1184000E+00
        -11   -1    0    0    0    0  0.00000000000E+00  0.00000000000E+00  0.45593999997E+02  0.45594000000E+02  0.51100000000E-03 0. -1.
         11   -1    0    0    0    0 -0.00000000000E+00 -0.00000000000E+00 -0.45593999997E+02  0.45594000000E+02  0.51100000000E-03 0.  1.
         23    2    1    2    0    0  0.00000000000E+00  0.13322676296E-14  0.00000000000E+00  0.91188000000E+02  0.91188000000E+02 0.  0.
    9900012    2    3    3    0    0  0.86503093662E+01  0.25849416617E+01 -0.35696921783E+02  0.54367082028E+02  0.39999995099E+02 0.  0.
         12    1    3    3    0    0 -0.86503093662E+01 -0.25849416617E+01  0.35696921783E+02  0.36820917972E+02  0.00000000000E+00 0. -1.
         11    1    4    4    0    0 -0.27925798090E+01 -0.59449560390E+01 -0.77428723668E+01  0.10153476106E+02  0.51100000000E-03 0. -1.
        -11    1    4    4    0    0  0.32425472834E+01 -0.10919739664E+02 -0.35146054834E+01  0.11920875772E+02  0.51100000000E-03 0.  1.
        -12    1    4    4    0    0  0.82003418918E+01  0.19449637365E+02 -0.24439443933E+02  0.32292730149E+02  0.00000000000E+00 0.  1.
</event>
<event>
 8    1  0.3007389E-007  0.9118800E+02  0.7816164E-02  0.1184000E+00
        -11   -1    0    0    0    0  0.00000000000E+00  0.00000000000E+00  0.45593999997E+02  0.45594000000E+02  0.51100000000E-03 0.  1.
         11   -1    0    0    0    0 -0.00000000000E+00 -0.00000000000E+00 -0.45593999997E+02  0.45594000000E+02  0.51100000000E-03 0. -1.
         23    2    1    2    0    0  0.00000000000E+00  0.88817841970E-15  0.88817841970E-15  0.91188000000E+02  0.91188000000E+02 0.  0.
    9900012    2    3    3    0    0 -0.35862254072E+02  0.34297653898E+01 -0.76102194342E+01  0.54367082065E+02  0.39999995184E+02 0.  0.
         12    1    3    3    0    0  0.35862254072E+02 -0.34297653898E+01  0.76102194342E+01  0.36820917935E+02  0.00000000000E+00 0. -1.
         11    1    4    4    0    0 -0.18036080169E+02 -0.15245302111E+02 -0.10281032918E+02  0.25756922612E+02  0.51100000000E-03 0. -1.
        -11    1    4    4    0    0 -0.68961891414E+00  0.24882062728E+01  0.42626784627E+01  0.49836906646E+01  0.51100000000E-03 0.  1.
        -12    1    4    4    0    0 -0.17136554988E+02  0.16186861228E+02 -0.15918649788E+01  0.23626468788E+02  0.00000000000E+00 0.  1.
</event>
<event>
 8    1  0.3007389E-007  0.9118800E+02  0.7816164E-02  0.1184000E+00
        -11   -1    0    0    0    0  0.00000000000E+00  0.00000000000E+00  0.45593999997E+02  0.45594000000E+02  0.51100000000E-03 0.  1.
         11   -1    0    0    0    0 -0.00000000000E+00 -0.00000000000E+00 -0.45593999997E+02  0.45594000000E+02  0.51100000000E-03 0. -1.
         23    2    1    2    0    0  0.00000000000E+00  0.00000000000E+00  0.17763568394E-14  0.91188000000E+02  0.91188000000E+02 0.  0.
    9900012    2    3    3    0    0 -0.34583158452E+02  0.52798325716E+01 -0.11485162279E+02  0.54367076151E+02  0.39999981702E+02 0.  0.
        -12    1    3    3    0    0  0.34583158452E+02 -0.52798325716E+01  0.11485162279E+02  0.36820923849E+02  0.00000000000E+00 0.  1.
         11    1    4    4    0    0 -0.23897692911E+02  0.54899116526E+01  0.56277608714E+01  0.25157713511E+02  0.51100000000E-03 0. -1.
        -11    1    4    4    0    0 -0.56883952078E+01 -0.57295071588E+00  0.43408151041E+01  0.71783555632E+01  0.51100000000E-03 0.  1.
         12    1    4    4    0    0 -0.49970703329E+01  0.36287163487E+00 -0.21453738254E+02  0.22031007077E+02  0.00000000000E+00 0. -1.
</event>
<event>
 8    1  0.3007389E-007  0.9118800E+02  0.7816164E-02  0.1184000E+00
        -11   -1    0    0    0    0  0.00000000000E+00  0.00000000000E+00  0.45593999997E+02  0.45594000000E+02  0.51100000000E-03 0. -1.
         11   -1    0    0    0    0 -0.00000000000E+00 -0.00000000000E+00 -0.45593999997E+02  0.45594000000E+02  0.51100000000E-03 0.  1.
         23    2    1    2    0    0  0.00000000000E+00  0.35527136788E-14  0.17763568394E-14  0.91188000000E+02  0.91188000000E+02 0.  0.
    9900012    2    3    3    0    0 -0.12724942415E+02 -0.31661229849E+02  0.13835551318E+02  0.54367080467E+02  0.39999991540E+02 0.  0.
        -12    1    3    3    0    0  0.12724942415E+02  0.31661229849E+02 -0.13835551318E+02  0.36820919533E+02  0.00000000000E+00 0.  1.
         11    1    4    4    0    0 -0.29377925740E+01  0.21014186014E+01 -0.39104647786E+01  0.53233749062E+01  0.51100000000E-03 0.  1.
        -11    1    4    4    0    0  0.23225276713E+01 -0.17982511054E+02 -0.50181959721E+01  0.18813482657E+02  0.51100000000E-03 0. -1.
        -12    1    4    4    0    0 -0.12109677512E+02 -0.15780137396E+02  0.22764212069E+02  0.30230222903E+02  0.00000000000E+00 0.  1.
</event>
<event>
 8    1  0.3007389E-007  0.9118800E+02  0.7816164E-02  0.1184000E+00
        -11   -1    0    0    0    0  0.00000000000E+00  0.00000000000E+00  0.45593999997E+02  0.45594000000E+02  0.51100000000E-03 0. -1.
         11   -1    0    0    0    0 -0.00000000000E+00 -0.00000000000E+00 -0.45593999997E+02  0.45594000000E+02  0.51100000000E-03 0.  1.
         23    2    1    2    0    0  0.71054273576E-14  0.00000000000E+00  0.00000000000E+00  0.91188000000E+02  0.91188000000E+02 0.  0.
    9900012    2    3    3    0    0 -0.33268761125E+02  0.57225512954E+01  0.14704504656E+02  0.54367075008E+02  0.39999979095E+02 0.  0.
        -12    1    3    3    0    0  0.33268761125E+02 -0.57225512954E+01 -0.14704504656E+02  0.36820924992E+02  0.00000000000E+00 0.  1.
         11    1    4    4    0    0 -0.78312191990E+01 -0.75861044466E+01 -0.44512464920E+01  0.11776696074E+02  0.51100000000E-03 0. -1.
        -11    1    4    4    0    0  0.23855432214E+01  0.78792147700E+01  0.96651704790E+01  0.12695997893E+02  0.51100000000E-03 0.  1.
         12    1    4    4    0    0 -0.27823085147E+02  0.54294409720E+01  0.94905806689E+01  0.29894381041E+02  0.00000000000E+00 0. -1.
</event>
<event>
 8    1  0.3007389E-007  0.9118800E+02  0.7816164E-02  0.1184000E+00
        -11   -1    0    0    0    0  0.00000000000E+00  0.00000000000E+00  0.45593999997E+02  0.45594000000E+02  0.51100000000E-03 0. -1.
         11   -1    0    0    0    0 -0.00000000000E+00 -0.00000000000E+00 -0.45593999997E+02  0.45594000000E+02  0.51100000000E-03 0.  1.
         23    2    1    2    0    0 -0.35527136788E-14  0.22204460493E-15  0.35527136788E-14  0.91188000000E+02  0.91188000000E+02 0.  0.
    9900012    2    3    3    0    0  0.25363008366E+02  0.16388401022E+01 -0.26642267628E+02  0.54367103560E+02  0.40000044187E+02 0.  0.
         12    1    3    3    0    0 -0.25363008366E+02 -0.16388401022E+01  0.26642267628E+02  0.36820896440E+02  0.00000000000E+00 0. -1.
         11    1    4    4    0    0 -0.66864521716E+01 -0.66616161571E+01 -0.51819349111E+01  0.10767461268E+02  0.51100000000E-03 0. -1.
        -11    1    4    4    0    0  0.23916052127E+02  0.17460726968E+01 -0.22775014723E+02  0.33071552959E+02  0.51100000000E-03 0.  1.
         12    1    4    4    0    0  0.81334084103E+01  0.65543835624E+01  0.13146820057E+01  0.10528089334E+02  0.00000000000E+00 0. -1.
</event>
<event>
 8    1  0.3007389E-007  0.9118800E+02  0.7816164E-02  0.1184000E+00
        -11   -1    0    0    0    0  0.00000000000E+00  0.00000000000E+00  0.45593999997E+02  0.45594000000E+02  0.51100000000E-03 0. -1.
         11   -1    0    0    0    0 -0.00000000000E+00 -0.00000000000E+00 -0.45593999997E+02  0.45594000000E+02  0.51100000000E-03 0.  1.
         23    2    1    2    0    0  0.35527136788E-14  0.00000000000E+00  0.00000000000E+00  0.91188000000E+02  0.91188000000E+02 0.  0.
    9900012    2    3    3    0    0  0.31795037459E+02  0.84798526475E+01  0.16521234672E+02  0.54367034464E+02  0.39999886667E+02 0.  0.
         12    1    3    3    0    0 -0.31795037459E+02 -0.84798526475E+01 -0.16521234672E+02  0.36820965536E+02  0.00000000000E+00 0. -1.
         11    1    4    4    0    0  0.24701217425E+02  0.11951411017E+02  0.24548682278E+02  0.36818801847E+02  0.51100000000E-03 0. -1.
        -11    1    4    4    0    0  0.11088120998E+02 -0.33206651628E+01 -0.64547945544E+01  0.13252834315E+02  0.51100000000E-03 0.  1.
         12    1    4    4    0    0 -0.39943009639E+01 -0.15089320674E+00 -0.15726530520E+01  0.42953983020E+01  0.00000000000E+00 0. -1.
</event>
<event>
 8    1  0.3007389E-007  0.9118800E+02  0.7816164E-02  0.1184000E+00
        -11   -1    0    0    0    0  0.00000000000E+00  0.00000000000E+00  0.45593999997E+02  0.45594000000E+02  0.51100000000E-03 0.  1.
         11   -1    0    0    0    0 -0.00000000000E+00 -0.00000000000E+00 -0.45593999997E+02  0.45594000000E+02  0.51100000000E-03 0. -1.
         23    2    1    2    0    0  0.35527136788E-14  0.00000000000E+00  0.35527136788E-14  0.91188000000E+02  0.91188000000E+02 0.  0.
    9900012    2    3    3    0    0  0.15186183446E+02  0.14195064668E+02  0.30391772749E+02  0.54367083669E+02  0.39999998841E+02 0.  0.
         12    1    3    3    0    0 -0.15186183446E+02 -0.14195064668E+02 -0.30391772749E+02  0.36820916331E+02  0.00000000000E+00 0. -1.
         11    1    4    4    0    0 -0.11999142837E+01  0.24884693016E+01 -0.34666533782E+01  0.44328275016E+01  0.51100000000E-03 0. -1.
        -11    1    4    4    0    0  0.10337745079E+02 -0.78204165619E+01  0.36635149220E+01  0.13470309215E+02  0.51100000000E-03 0.  1.
         12    1    4    4    0    0  0.60483526514E+01  0.19527011928E+02  0.30194911205E+02  0.36463946952E+02  0.00000000000E+00 0. -1.
</event>
<event>
 8    1  0.3007389E-007  0.9118800E+02  0.7816164E-02  0.1184000E+00
        -11   -1    0    0    0    0  0.00000000000E+00  0.00000000000E+00  0.45593999997E+02  0.45594000000E+02  0.51100000000E-03 0.  1.
         11   -1    0    0    0    0 -0.00000000000E+00 -0.00000000000E+00 -0.45593999997E+02  0.45594000000E+02  0.51100000000E-03 0. -1.
         23    2    1    2    0    0  0.00000000000E+00  0.00000000000E+00  0.00000000000E+00  0.91188000000E+02  0.91188000000E+02 0.  0.
    9900012    2    3    3    0    0  0.21031083284E+02  0.28253887706E+02  0.10732825006E+02  0.54367052603E+02  0.39999928019E+02 0.  0.
         12    1    3    3    0    0 -0.21031083284E+02 -0.28253887706E+02 -0.10732825006E+02  0.36820947397E+02  0.00000000000E+00 0. -1.
         11    1    4    4    0    0 -0.71246440039E+01  0.37097336945E+01  0.85128811521E+01  0.11704350560E+02  0.51100000000E-03 0. -1.
        -11    1    4    4    0    0  0.21559907482E+02  0.27774102286E+02  0.29428010962E+01  0.35283005073E+02  0.51100000000E-03 0.  1.
         12    1    4    4    0    0  0.65958198059E+01 -0.32299482751E+01 -0.72285724213E+00  0.73796969697E+01  0.00000000000E+00 0. -1.
</event>
<event>
 8    1  0.3007389E-007  0.9118800E+02  0.7816164E-02  0.1184000E+00
        -11   -1    0    0    0    0  0.00000000000E+00  0.00000000000E+00  0.45593999997E+02  0.45594000000E+02  0.51100000000E-03 0.  1.
         11   -1    0    0    0    0 -0.00000000000E+00 -0.00000000000E+00 -0.45593999997E+02  0.45594000000E+02  0.51100000000E-03 0. -1.
         23    2    1    2    0    0  0.35527136788E-14  0.88817841970E-15  0.71054273576E-14  0.91188000000E+02  0.91188000000E+02 0.  0.
    9900012    2    3    3    0    0  0.25524627098E+02  0.46654753401E+01  0.26124801958E+02  0.54367102048E+02  0.40000040738E+02 0.  0.
         12    1    3    3    0    0 -0.25524627098E+02 -0.46654753401E+01 -0.26124801958E+02  0.36820897952E+02  0.00000000000E+00 0. -1.
         11    1    4    4    0    0  0.18216824238E+02 -0.10656738329E+02  0.22930620262E+02  0.31164596949E+02  0.51100000000E-03 0. -1.
        -11    1    4    4    0    0  0.18964808471E+01 -0.26147210599E+01  0.30852221557E+01  0.44667663735E+01  0.51100000000E-03 0.  1.
         12    1    4    4    0    0  0.54113220128E+01  0.17936934729E+02  0.10895954044E+00  0.18735738725E+02  0.00000000000E+00 0. -1.
</event>
<event>
 8    1  0.3007389E-007  0.9118800E+02  0.7816164E-02  0.1184000E+00
        -11   -1    0    0    0    0  0.00000000000E+00  0.00000000000E+00  0.45593999997E+02  0.45594000000E+02  0.51100000000E-03 0. -1.
         11   -1    0    0    0    0 -0.00000000000E+00 -0.00000000000E+00 -0.45593999997E+02  0.45594000000E+02  0.51100000000E-03 0.  1.
         23    2    1    2    0    0  0.00000000000E+00  0.00000000000E+00  0.00000000000E+00  0.91188000000E+02  0.91188000000E+02 0.  0.
    9900012    2    3    3    0    0 -0.33381203351E+02 -0.13429984813E+02 -0.78173601408E+01  0.54367077295E+02  0.39999984310E+02 0.  0.
        -12    1    3    3    0    0  0.33381203351E+02  0.13429984813E+02  0.78173601408E+01  0.36820922705E+02  0.00000000000E+00 0.  1.
         11    1    4    4    0    0 -0.19939239729E+02 -0.51361378663E+01 -0.37048334285E+01  0.20920778765E+02  0.51100000000E-03 0. -1.
        -11    1    4    4    0    0 -0.54398005716E+01  0.61590683317E+01  0.91227758388E+01  0.12278053276E+02  0.51100000000E-03 0.  1.
        -12    1    4    4    0    0 -0.80021630509E+01 -0.14452915278E+02 -0.13235302551E+02  0.21168245255E+02  0.00000000000E+00 0.  1.
</event>
<event>
 8    1  0.3007389E-007  0.9118800E+02  0.7816164E-02  0.1184000E+00
        -11   -1    0    0    0    0  0.00000000000E+00  0.00000000000E+00  0.45593999997E+02  0.45594000000E+02  0.51100000000E-03 0.  1.
         11   -1    0    0    0    0 -0.00000000000E+00 -0.00000000000E+00 -0.45593999997E+02  0.45594000000E+02  0.51100000000E-03 0. -1.
         23    2    1    2    0    0  0.35527136788E-14  0.35527136788E-14  0.00000000000E+00  0.91188000000E+02  0.91188000000E+02 0.  0.
    9900012    2    3    3    0    0 -0.27228864480E+02 -0.20678796624E+02 -0.13665973066E+02  0.54367047941E+02  0.39999917391E+02 0.  0.
         12    1    3    3    0    0  0.27228864480E+02  0.20678796624E+02  0.13665973066E+02  0.36820952059E+02  0.00000000000E+00 0. -1.
         11    1    4    4    0    0 -0.20138544139E+02 -0.11777956454E+02 -0.19388033304E+02  0.30334420283E+02  0.51100000000E-03 0. -1.
        -11    1    4    4    0    0 -0.98115803335E+01  0.11132033538E+00  0.97138938222E+01  0.13807216747E+02  0.51100000000E-03 0.  1.
        -12    1    4    4    0    0  0.27212599925E+01 -0.90121605057E+01 -0.39918335844E+01  0.10225410911E+02  0.00000000000E+00 0.  1.
</event>
<event>
 8    1  0.3007389E-007  0.9118800E+02  0.7816164E-02  0.1184000E+00
        -11   -1    0    0    0    0  0.00000000000E+00  0.00000000000E+00  0.45593999997E+02  0.45594000000E+02  0.51100000000E-03 0.  1.
         11   -1    0    0    0    0 -0.00000000000E+00 -0.00000000000E+00 -0.45593999997E+02  0.45594000000E+02  0.51100000000E-03 0. -1.
         23    2    1    2    0    0  0.00000000000E+00  0.00000000000E+00  0.00000000000E+00  0.91188000000E+02  0.91188000000E+02 0.  0.
    9900012    2    3    3    0    0  0.21500255243E+02 -0.75700047291E+01  0.28917366634E+02  0.54367081487E+02  0.39999993866E+02 0.  0.
         12    1    3    3    0    0 -0.21500255243E+02  0.75700047291E+01 -0.28917366634E+02  0.36820918513E+02  0.00000000000E+00 0. -1.
         11    1    4    4    0    0  0.11935078024E+02  0.36470411647E+01  0.10756729348E+02  0.16475867905E+02  0.51100000000E-03 0.  1.
        -11    1    4    4    0    0 -0.34648570345E+01 -0.57723613046E+00 -0.68799082288E+01  0.77247377507E+01  0.51100000000E-03 0. -1.
         12    1    4    4    0    0  0.13030034254E+02 -0.10639809763E+02  0.25040545514E+02  0.30166475832E+02  0.00000000000E+00 0. -1.
</event>
<event>
 8    1  0.3007389E-007  0.9118800E+02  0.7816164E-02  0.1184000E+00
        -11   -1    0    0    0    0  0.00000000000E+00  0.00000000000E+00  0.45593999997E+02  0.45594000000E+02  0.51100000000E-03 0. -1.
         11   -1    0    0    0    0 -0.00000000000E+00 -0.00000000000E+00 -0.45593999997E+02  0.45594000000E+02  0.51100000000E-03 0.  1.
         23    2    1    2    0    0 -0.88817841970E-15  0.17763568394E-14  0.00000000000E+00  0.91188000000E+02  0.91188000000E+02 0.  0.
    9900012    2    3    3    0    0  0.55531716529E+01 -0.10580169320E+02  0.34828186786E+02  0.54367078053E+02  0.39999986037E+02 0.  0.
        -12    1    3    3    0    0 -0.55531716529E+01  0.10580169320E+02 -0.34828186786E+02  0.36820921947E+02  0.00000000000E+00 0.  1.
         11    1    4    4    0    0  0.14581274682E+00 -0.82565983050E+01  0.97773127019E+01  0.12797988938E+02  0.51100000000E-03 0. -1.
        -11    1    4    4    0    0 -0.10966454893E+02  0.80205081901E+01  0.80095516668E+01  0.15771639189E+02  0.51100000000E-03 0.  1.
        -12    1    4    4    0    0  0.16373813799E+02 -0.10344079205E+02  0.17041322417E+02  0.25797449926E+02  0.00000000000E+00 0.  1.
</event>
<event>
 8    1  0.3007389E-007  0.9118800E+02  0.7816164E-02  0.1184000E+00
        -11   -1    0    0    0    0  0.00000000000E+00  0.00000000000E+00  0.45593999997E+02  0.45594000000E+02  0.51100000000E-03 0.  1.
         11   -1    0    0    0    0 -0.00000000000E+00 -0.00000000000E+00 -0.45593999997E+02  0.45594000000E+02  0.51100000000E-03 0. -1.
         23    2    1    2    0    0  0.88817841970E-15  0.88817841970E-15  0.00000000000E+00  0.91188000000E+02  0.91188000000E+02 0.  0.
    9900012    2    3    3    0    0 -0.47992850525E+01  0.44895466964E+01  0.36229651467E+02  0.54367125323E+02  0.40000093800E+02 0.  0.
         12    1    3    3    0    0  0.47992850525E+01 -0.44895466964E+01 -0.36229651467E+02  0.36820874677E+02  0.00000000000E+00 0. -1.
         11    1    4    4    0    0  0.72363374901E+01 -0.27411184861E+01  0.36840074053E+01  0.85703104757E+01  0.51100000000E-03 0. -1.
        -11    1    4    4    0    0  0.33171322441E+01 -0.39476879360E+01  0.24727488607E+02  0.25259380424E+02  0.51100000000E-03 0.  1.
         12    1    4    4    0    0 -0.15352754787E+02  0.11178353118E+02  0.78181554549E+01  0.20537434424E+02  0.00000000000E+00 0. -1.
</event>
<event>
 8    1  0.3007389E-007  0.9118800E+02  0.7816164E-02  0.1184000E+00
        -11   -1    0    0    0    0  0.00000000000E+00  0.00000000000E+00  0.45593999997E+02  0.45594000000E+02  0.51100000000E-03 0. -1.
         11   -1    0    0    0    0 -0.00000000000E+00 -0.00000000000E+00 -0.45593999997E+02  0.45594000000E+02  0.51100000000E-03 0.  1.
         23    2    1    2    0    0  0.44408920985E-15  0.00000000000E+00 -0.35527136788E-14  0.91188000000E+02  0.91188000000E+02 0.  0.
    9900012    2    3    3    0    0  0.38312259948E+01 -0.29377445482E+02 -0.21864778695E+02  0.54367066511E+02  0.39999959724E+02 0.  0.
         12    1    3    3    0    0 -0.38312259948E+01  0.29377445482E+02  0.21864778695E+02  0.36820933489E+02  0.00000000000E+00 0. -1.
         11    1    4    4    0    0  0.80113502424E+01 -0.63971674893E+01 -0.99738022415E+01  0.14303223972E+02  0.51100000000E-03 0. -1.
        -11    1    4    4    0    0 -0.11495611717E+02 -0.14914639801E+02 -0.19244157338E+02  0.26924582839E+02  0.51100000000E-03 0.  1.
         12    1    4    4    0    0  0.73154874691E+01 -0.80656381910E+01  0.73531808840E+01  0.13139259700E+02  0.00000000000E+00 0. -1.
</event>
<event>
 8    1  0.3007389E-007  0.9118800E+02  0.7816164E-02  0.1184000E+00
        -11   -1    0    0    0    0  0.00000000000E+00  0.00000000000E+00  0.45593999997E+02  0.45594000000E+02  0.51100000000E-03 0.  1.
         11   -1    0    0    0    0 -0.00000000000E+00 -0.00000000000E+00 -0.45593999997E+02  0.45594000000E+02  0.51100000000E-03 0. -1.
         23    2    1    2    0    0 -0.17763568394E-14  0.35527136788E-14  0.00000000000E+00  0.91188000000E+02  0.91188000000E+02 0.  0.
    9900012    2    3    3    0    0  0.67523192482E+01  0.27221634504E+02  0.23857250591E+02  0.54367087381E+02  0.40000007303E+02 0.  0.
         12    1    3    3    0    0 -0.67523192482E+01 -0.27221634504E+02 -0.23857250591E+02  0.36820912619E+02  0.00000000000E+00 0. -1.
         11    1    4    4    0    0 -0.94534338891E+01  0.24672880802E+02  0.11020342990E+02  0.28628070477E+02  0.51100000000E-03 0. -1.
        -11    1    4    4    0    0 -0.58018592182E+00 -0.32228994436E+01  0.57679907411E+01  0.66327531220E+01  0.51100000000E-03 0.  1.
        -12    1    4    4    0    0  0.16785939059E+02  0.57716531465E+01  0.70689168603E+01  0.19106263782E+02  0.00000000000E+00 0.  1.
</event>
<event>
 8    1  0.3007389E-007  0.9118800E+02  0.7816164E-02  0.1184000E+00
        -11   -1    0    0    0    0  0.00000000000E+00  0.00000000000E+00  0.45593999997E+02  0.45594000000E+02  0.51100000000E-03 0.  1.
         11   -1    0    0    0    0 -0.00000000000E+00 -0.00000000000E+00 -0.45593999997E+02  0.45594000000E+02  0.51100000000E-03 0. -1.
         23    2    1    2    0    0  0.00000000000E+00  0.35527136788E-14 -0.35527136788E-14  0.91188000000E+02  0.91188000000E+02 0.  0.
    9900012    2    3    3    0    0 -0.12148876806E+02 -0.16831249618E+02  0.30412188915E+02  0.54366981465E+02  0.39999765846E+02 0.  0.
         12    1    3    3    0    0  0.12148876806E+02  0.16831249618E+02 -0.30412188915E+02  0.36821018535E+02  0.00000000000E+00 0. -1.
         11    1    4    4    0    0 -0.12519316685E+01 -0.13022010618E+02 -0.86947449549E+00  0.13110914522E+02  0.51100000000E-03 0. -1.
        -11    1    4    4    0    0 -0.67714121410E+01 -0.10367533063E+02  0.31134551988E+02  0.33506687272E+02  0.51100000000E-03 0.  1.
         12    1    4    4    0    0 -0.41255329961E+01  0.65582940632E+01  0.14711142240E+00  0.77493796714E+01  0.00000000000E+00 0. -1.
</event>
<event>
 8    1  0.3007389E-007  0.9118800E+02  0.7816164E-02  0.1184000E+00
        -11   -1    0    0    0    0  0.00000000000E+00  0.00000000000E+00  0.45593999997E+02  0.45594000000E+02  0.51100000000E-03 0. -1.
         11   -1    0    0    0    0 -0.00000000000E+00 -0.00000000000E+00 -0.45593999997E+02  0.45594000000E+02  0.51100000000E-03 0.  1.
         23    2    1    2    0    0 -0.22204460493E-15 -0.35527136788E-14  0.00000000000E+00  0.91188000000E+02  0.91188000000E+02 0.  0.
    9900012    2    3    3    0    0  0.15209824852E+01 -0.64969518698E+01 -0.36211268904E+02  0.54367085197E+02  0.40000002324E+02 0.  0.
         12    1    3    3    0    0 -0.15209824852E+01  0.64969518698E+01  0.36211268904E+02  0.36820914803E+02  0.00000000000E+00 0. -1.
         11    1    4    4    0    0 -0.33944704740E+01 -0.56106784497E+01 -0.19669293047E+02  0.20733625628E+02  0.51100000000E-03 0. -1.
        -11    1    4    4    0    0  0.36278703547E+01 -0.10803358878E+02 -0.20027690696E+02  0.23043055380E+02  0.51100000000E-03 0.  1.
         12    1    4    4    0    0  0.12875826045E+01  0.99170854583E+01  0.34857148390E+01  0.10590404189E+02  0.00000000000E+00 0. -1.
</event>
<event>
 8    1  0.3007389E-007  0.9118800E+02  0.7816164E-02  0.1184000E+00
        -11   -1    0    0    0    0  0.00000000000E+00  0.00000000000E+00  0.45593999997E+02  0.45594000000E+02  0.51100000000E-03 0. -1.
         11   -1    0    0    0    0 -0.00000000000E+00 -0.00000000000E+00 -0.45593999997E+02  0.45594000000E+02  0.51100000000E-03 0.  1.
         23    2    1    2    0    0 -0.44408920985E-15  0.26645352591E-14  0.71054273576E-14  0.91188000000E+02  0.91188000000E+02 0.  0.
    9900012    2    3    3    0    0 -0.17847867702E+01 -0.75240599577E+01 -0.35999764000E+02  0.54367082709E+02  0.39999996652E+02 0.  0.
         12    1    3    3    0    0  0.17847867702E+01  0.75240599577E+01  0.35999764000E+02  0.36820917291E+02  0.00000000000E+00 0. -1.
         11    1    4    4    0    0 -0.41633976624E+01 -0.20575423169E+01  0.15870947754E+00  0.46467783937E+01  0.51100000000E-03 0. -1.
        -11    1    4    4    0    0 -0.47168451782E+00 -0.16797949148E+02 -0.33876012005E+02  0.37815046893E+02  0.51100000000E-03 0.  1.
        -12    1    4    4    0    0  0.28502954100E+01  0.11331431507E+02 -0.22824614729E+01  0.11905257423E+02  0.00000000000E+00 0.  1.
</event>
<event>
 8    1  0.3007389E-007  0.9118800E+02  0.7816164E-02  0.1184000E+00
        -11   -1    0    0    0    0  0.00000000000E+00  0.00000000000E+00  0.45593999997E+02  0.45594000000E+02  0.51100000000E-03 0.  1.
         11   -1    0    0    0    0 -0.00000000000E+00 -0.00000000000E+00 -0.45593999997E+02  0.45594000000E+02  0.51100000000E-03 0. -1.
         23    2    1    2    0    0 -0.35527136788E-14 -0.17763568394E-14  0.00000000000E+00  0.91188000000E+02  0.91188000000E+02 0.  0.
    9900012    2    3    3    0    0  0.27793050062E+02 -0.72010537400E+01  0.23053672306E+02  0.54367073701E+02  0.39999976117E+02 0.  0.
         12    1    3    3    0    0 -0.27793050062E+02  0.72010537400E+01 -0.23053672306E+02  0.36820926299E+02  0.00000000000E+00 0. -1.
         11    1    4    4    0    0  0.14145423038E+02 -0.17214261679E+02  0.14271162063E+02  0.26459211344E+02  0.51100000000E-03 0.  1.
        -11    1    4    4    0    0 -0.18664517555E+01  0.94308092412E+01  0.77500444310E+01  0.12348562428E+02  0.51100000000E-03 0. -1.
        -12    1    4    4    0    0  0.15514078780E+02  0.58239869806E+00  0.10324658122E+01  0.15559299929E+02  0.00000000000E+00 0.  1.
</event>
<event>
 8    1  0.3007389E-007  0.9118800E+02  0.7816164E-02  0.1184000E+00
        -11   -1    0    0    0    0  0.00000000000E+00  0.00000000000E+00  0.45593999997E+02  0.45594000000E+02  0.51100000000E-03 0.  1.
         11   -1    0    0    0    0 -0.00000000000E+00 -0.00000000000E+00 -0.45593999997E+02  0.45594000000E+02  0.51100000000E-03 0. -1.
         23    2    1    2    0    0  0.00000000000E+00  0.17763568394E-14 -0.35527136788E-14  0.91188000000E+02  0.91188000000E+02 0.  0.
    9900012    2    3    3    0    0 -0.29093433607E+02 -0.14984896539E+02 -0.16876157516E+02  0.54367086163E+02  0.40000004525E+02 0.  0.
        -12    1    3    3    0    0  0.29093433607E+02  0.14984896539E+02  0.16876157516E+02  0.36820913837E+02  0.00000000000E+00 0.  1.
         11    1    4    4    0    0 -0.24113183647E+02 -0.12526647044E+02 -0.14874994832E+02  0.30977862794E+02  0.51100000000E-03 0. -1.
        -11    1    4    4    0    0 -0.74988571620E+01 -0.10607772180E+02 -0.55808109880E+01  0.14138710722E+02  0.51100000000E-03 0.  1.
        -12    1    4    4    0    0  0.25186072027E+01  0.81495226849E+01  0.35796483041E+01  0.92505126460E+01  0.00000000000E+00 0.  1.
</event>
<event>
 8    1  0.3007389E-007  0.9118800E+02  0.7816164E-02  0.1184000E+00
        -11   -1    0    0    0    0  0.00000000000E+00  0.00000000000E+00  0.45593999997E+02  0.45594000000E+02  0.51100000000E-03 0.  1.
         11   -1    0    0    0    0 -0.00000000000E+00 -0.00000000000E+00 -0.45593999997E+02  0.45594000000E+02  0.51100000000E-03 0. -1.
         23    2    1    2    0    0  0.35527136788E-14  0.35527136788E-14 -0.35527136788E-14  0.91188000000E+02  0.91188000000E+02 0.  0.
    9900012    2    3    3    0    0 -0.11375296827E+02  0.23727209336E+02  0.25756672860E+02  0.54367027205E+02  0.39999870118E+02 0.  0.
         12    1    3    3    0    0  0.11375296827E+02 -0.23727209336E+02 -0.25756672860E+02  0.36820972795E+02  0.00000000000E+00 0. -1.
         11    1    4    4    0    0 -0.20178906333E+02  0.15712003340E+02  0.13703377922E+02  0.29014442551E+02  0.51100000000E-03 0. -1.
        -11    1    4    4    0    0  0.56078870075E+01  0.75908936899E+01  0.17002398727E+02  0.19446121115E+02  0.51100000000E-03 0.  1.
         12    1    4    4    0    0  0.31957224987E+01  0.42431230615E+00 -0.49491037892E+01  0.59064635391E+01  0.00000000000E+00 0. -1.
</event>
<event>
 8    1  0.3007389E-007  0.9118800E+02  0.7816164E-02  0.1184000E+00
        -11   -1    0    0    0    0  0.00000000000E+00  0.00000000000E+00  0.45593999997E+02  0.45594000000E+02  0.51100000000E-03 0.  1.
         11   -1    0    0    0    0 -0.00000000000E+00 -0.00000000000E+00 -0.45593999997E+02  0.45594000000E+02  0.51100000000E-03 0. -1.
         23    2    1    2    0    0  0.35527136788E-14  0.35527136788E-14 -0.71054273576E-14  0.91188000000E+02  0.91188000000E+02 0.  0.
    9900012    2    3    3    0    0  0.17258514147E+02  0.27350786107E+02 -0.17602833760E+02  0.54367060745E+02  0.39999946580E+02 0.  0.
        -12    1    3    3    0    0 -0.17258514147E+02 -0.27350786107E+02  0.17602833760E+02  0.36820939255E+02  0.00000000000E+00 0.  1.
         11    1    4    4    0    0 -0.38213347679E+00  0.13398876483E+02 -0.19058968755E+02  0.23300648215E+02  0.51100000000E-03 0. -1.
        -11    1    4    4    0    0 -0.44280020914E+01  0.38705076699E+01  0.32829610320E+01  0.67354187355E+01  0.51100000000E-03 0.  1.
         12    1    4    4    0    0  0.22068649715E+02  0.10081401955E+02 -0.18268260373E+01  0.24330993794E+02  0.00000000000E+00 0. -1.
</event>
<event>
 8    1  0.3007389E-007  0.9118800E+02  0.7816164E-02  0.1184000E+00
        -11   -1    0    0    0    0  0.00000000000E+00  0.00000000000E+00  0.45593999997E+02  0.45594000000E+02  0.51100000000E-03 0.  1.
         11   -1    0    0    0    0 -0.00000000000E+00 -0.00000000000E+00 -0.45593999997E+02  0.45594000000E+02  0.51100000000E-03 0. -1.
         23    2    1    2    0    0  0.00000000000E+00  0.00000000000E+00  0.00000000000E+00  0.91188000000E+02  0.91188000000E+02 0.  0.
    9900012    2    3    3    0    0  0.15880263184E+02  0.32973628031E+02  0.40420944512E+01  0.54367062588E+02  0.39999950782E+02 0.  0.
         12    1    3    3    0    0 -0.15880263184E+02 -0.32973628031E+02 -0.40420944512E+01  0.36820937412E+02  0.00000000000E+00 0. -1.
         11    1    4    4    0    0 -0.46691153990E+01  0.69049040789E+00  0.20698370646E+00  0.47244320429E+01  0.51100000000E-03 0. -1.
        -11    1    4    4    0    0  0.11891591014E+02 -0.32872653599E+01 -0.22218635198E+01  0.12536057122E+02  0.51100000000E-03 0.  1.
        -12    1    4    4    0    0  0.86577875686E+01  0.35570402983E+02  0.60569742645E+01  0.37106573423E+02  0.00000000000E+00 0.  1.
</event>
<event>
 8    1  0.3007389E-007  0.9118800E+02  0.7816164E-02  0.1184000E+00
        -11   -1    0    0    0    0  0.00000000000E+00  0.00000000000E+00  0.45593999997E+02  0.45594000000E+02  0.51100000000E-03 0. -1.
         11   -1    0    0    0    0 -0.00000000000E+00 -0.00000000000E+00 -0.45593999997E+02  0.45594000000E+02  0.51100000000E-03 0.  1.
         23    2    1    2    0    0  0.35527136788E-14  0.71054273576E-14  0.00000000000E+00  0.91188000000E+02  0.91188000000E+02 0.  0.
    9900012    2    3    3    0    0  0.18835753837E+02  0.30506668485E+02 -0.83867631109E+01  0.54367078771E+02  0.39999987675E+02 0.  0.
        -12    1    3    3    0    0 -0.18835753837E+02 -0.30506668485E+02  0.83867631109E+01  0.36820921229E+02  0.00000000000E+00 0.  1.
         11    1    4    4    0    0  0.54768522407E+01  0.19676023096E+02 -0.21851440094E+02  0.29910319788E+02  0.51100000000E-03 0. -1.
        -11    1    4    4    0    0  0.77115579499E+01  0.17967114385E+00  0.23609690640E+01  0.80668818583E+01  0.51100000000E-03 0.  1.
        -12    1    4    4    0    0  0.56473436466E+01  0.10650974245E+02  0.11103707919E+02  0.16389877125E+02  0.00000000000E+00 0.  1.
</event>
<event>
 8    1  0.3007389E-007  0.9118800E+02  0.7816164E-02  0.1184000E+00
        -11   -1    0    0    0    0  0.00000000000E+00  0.00000000000E+00  0.45593999997E+02  0.45594000000E+02  0.51100000000E-03 0. -1.
         11   -1    0    0    0    0 -0.00000000000E+00 -0.00000000000E+00 -0.45593999997E+02  0.45594000000E+02  0.51100000000E-03 0.  1.
         23    2    1    2    0    0 -0.99920072216E-15  0.00000000000E+00  0.00000000000E+00  0.91188000000E+02  0.91188000000E+02 0.  0.
    9900012    2    3    3    0    0 -0.34208661743E+00 -0.13488328437E+02 -0.34259689534E+02  0.54367104380E+02  0.40000046055E+02 0.  0.
         12    1    3    3    0    0  0.34208661743E+00  0.13488328437E+02  0.34259689534E+02  0.36820895620E+02  0.00000000000E+00 0. -1.
         11    1    4    4    0    0 -0.85277314163E+01 -0.84920603803E+01 -0.70623973077E+01  0.13954022667E+02  0.51100000000E-03 0. -1.
        -11    1    4    4    0    0 -0.32108606226E+00  0.25538575128E+01 -0.28810458999E+02  0.28925211018E+02  0.51100000000E-03 0.  1.
         12    1    4    4    0    0  0.85067308611E+01 -0.75501255692E+01  0.16131667727E+01  0.11487870694E+02  0.00000000000E+00 0. -1.
</event>
<event>
 8    1  0.3007389E-007  0.9118800E+02  0.7816164E-02  0.1184000E+00
        -11   -1    0    0    0    0  0.00000000000E+00  0.00000000000E+00  0.45593999997E+02  0.45594000000E+02  0.51100000000E-03 0.  1.
         11   -1    0    0    0    0 -0.00000000000E+00 -0.00000000000E+00 -0.45593999997E+02  0.45594000000E+02  0.51100000000E-03 0. -1.
         23    2    1    2    0    0  0.35527136788E-14  0.00000000000E+00  0.00000000000E+00  0.91188000000E+02  0.91188000000E+02 0.  0.
    9900012    2    3    3    0    0 -0.35449345742E+01  0.35202711414E+02  0.10197173457E+02  0.54367084768E+02  0.40000001345E+02 0.  0.
         12    1    3    3    0    0  0.35449345742E+01 -0.35202711414E+02 -0.10197173457E+02  0.36820915232E+02  0.00000000000E+00 0. -1.
         11    1    4    4    0    0  0.52533708320E+01  0.65978462030E+01 -0.22323996151E+01  0.87242815131E+01  0.51100000000E-03 0. -1.
        -11    1    4    4    0    0  0.83988638042E+01  0.16428827028E+02 -0.40525338165E+01  0.18891011125E+02  0.51100000000E-03 0.  1.
        -12    1    4    4    0    0 -0.17197169210E+02  0.12176038183E+02  0.16482106889E+02  0.26751792130E+02  0.00000000000E+00 0.  1.
</event>
<event>
 8    1  0.3007389E-007  0.9118800E+02  0.7816164E-02  0.1184000E+00
        -11   -1    0    0    0    0  0.00000000000E+00  0.00000000000E+00  0.45593999997E+02  0.45594000000E+02  0.51100000000E-03 0. -1.
         11   -1    0    0    0    0 -0.00000000000E+00 -0.00000000000E+00 -0.45593999997E+02  0.45594000000E+02  0.51100000000E-03 0.  1.
         23    2    1    2    0    0  0.00000000000E+00  0.17763568394E-14  0.00000000000E+00  0.91188000000E+02  0.91188000000E+02 0.  0.
    9900012    2    3    3    0    0 -0.27936054278E+02 -0.14303197539E+02  0.19255490396E+02  0.54367102416E+02  0.40000041579E+02 0.  0.
        -12    1    3    3    0    0  0.27936054278E+02  0.14303197539E+02 -0.19255490396E+02  0.36820897584E+02  0.00000000000E+00 0.  1.
         11    1    4    4    0    0 -0.23298689293E+02 -0.72937307293E+01 -0.48812586084E+01  0.24896869614E+02  0.51100000000E-03 0. -1.
        -11    1    4    4    0    0 -0.43094617233E+01 -0.49083371203E+00  0.22260382894E+02  0.22678999645E+02  0.51100000000E-03 0.  1.
        -12    1    4    4    0    0 -0.32790326184E+00 -0.65186330978E+01  0.18763661112E+01  0.67912331572E+01  0.00000000000E+00 0.  1.
</event>
<event>
 8    1  0.3007389E-007  0.9118800E+02  0.7816164E-02  0.1184000E+00
        -11   -1    0    0    0    0  0.00000000000E+00  0.00000000000E+00  0.45593999997E+02  0.45594000000E+02  0.51100000000E-03 0. -1.
         11   -1    0    0    0    0 -0.00000000000E+00 -0.00000000000E+00 -0.45593999997E+02  0.45594000000E+02  0.51100000000E-03 0.  1.
         23    2    1    2    0    0  0.35527136788E-14 -0.71054273576E-14  0.00000000000E+00  0.91188000000E+02  0.91188000000E+02 0.  0.
    9900012    2    3    3    0    0 -0.23048501074E+02  0.17941634508E+02 -0.22419721779E+02  0.54367087800E+02  0.40000008259E+02 0.  0.
         12    1    3    3    0    0  0.23048501074E+02 -0.17941634508E+02  0.22419721779E+02  0.36820912200E+02  0.00000000000E+00 0. -1.
         11    1    4    4    0    0 -0.73631851494E+00  0.73651029689E+01  0.39995045787E+00  0.74126154175E+01  0.51100000000E-03 0. -1.
        -11    1    4    4    0    0 -0.32041275472E+01  0.17393795046E+02 -0.19621537079E+02  0.26416193084E+02  0.51100000000E-03 0.  1.
        -12    1    4    4    0    0 -0.19108055012E+02 -0.68172635078E+01 -0.31981351582E+01  0.20538279299E+02  0.00000000000E+00 0.  1.
</event>
<event>
 8    1  0.3007389E-007  0.9118800E+02  0.7816164E-02  0.1184000E+00
        -11   -1    0    0    0    0  0.00000000000E+00  0.00000000000E+00  0.45593999997E+02  0.45594000000E+02  0.51100000000E-03 0.  1.
         11   -1    0    0    0    0 -0.00000000000E+00 -0.00000000000E+00 -0.45593999997E+02  0.45594000000E+02  0.51100000000E-03 0. -1.
         23    2    1    2    0    0  0.72164496601E-15  0.00000000000E+00  0.00000000000E+00  0.91188000000E+02  0.91188000000E+02 0.  0.
    9900012    2    3    3    0    0  0.47801803391E+00 -0.18722720186E+02  0.31701905524E+02  0.54367087922E+02  0.40000008536E+02 0.  0.
         12    1    3    3    0    0 -0.47801803391E+00  0.18722720186E+02 -0.31701905524E+02  0.36820912078E+02  0.00000000000E+00 0. -1.
         11    1    4    4    0    0  0.58041323740E+01 -0.88164935992E+01 -0.49721298245E+01  0.11667929861E+02  0.51100000000E-03 0. -1.
        -11    1    4    4    0    0  0.35631774953E+01  0.30022341748E+01  0.16540997617E+02  0.17184709667E+02  0.51100000000E-03 0.  1.
        -12    1    4    4    0    0 -0.88892918354E+01 -0.12908460762E+02  0.20133037731E+02  0.25514448394E+02  0.00000000000E+00 0.  1.
</event>
<event>
 8    1  0.3007389E-007  0.9118800E+02  0.7816164E-02  0.1184000E+00
        -11   -1    0    0    0    0  0.00000000000E+00  0.00000000000E+00  0.45593999997E+02  0.45594000000E+02  0.51100000000E-03 0. -1.
         11   -1    0    0    0    0 -0.00000000000E+00 -0.00000000000E+00 -0.45593999997E+02  0.45594000000E+02  0.51100000000E-03 0.  1.
         23    2    1    2    0    0  0.00000000000E+00  0.35527136788E-14  0.71054273576E-14  0.91188000000E+02  0.91188000000E+02 0.  0.
    9900012    2    3    3    0    0 -0.82419766361E+01 -0.23224150882E+02 -0.27358490260E+02  0.54367104406E+02  0.40000046114E+02 0.  0.
         12    1    3    3    0    0  0.82419766361E+01  0.23224150882E+02  0.27358490260E+02  0.36820895594E+02  0.00000000000E+00 0. -1.
         11    1    4    4    0    0 -0.37760073923E+01  0.54108210167E+01 -0.13568699060E+02  0.15087902782E+02  0.51100000000E-03 0. -1.
        -11    1    4    4    0    0 -0.10253209758E+02 -0.18749313602E+02 -0.17084709238E+02  0.27359684956E+02  0.51100000000E-03 0.  1.
        -12    1    4    4    0    0  0.57872405146E+01 -0.98856582965E+01  0.32949180381E+01  0.11919516668E+02  0.00000000000E+00 0.  1.
</event>
<event>
 8    1  0.3007389E-007  0.9118800E+02  0.7816164E-02  0.1184000E+00
        -11   -1    0    0    0    0  0.00000000000E+00  0.00000000000E+00  0.45593999997E+02  0.45594000000E+02  0.51100000000E-03 0.  1.
         11   -1    0    0    0    0 -0.00000000000E+00 -0.00000000000E+00 -0.45593999997E+02  0.45594000000E+02  0.51100000000E-03 0. -1.
         23    2    1    2    0    0  0.17763568394E-14  0.13322676296E-14  0.00000000000E+00  0.91188000000E+02  0.91188000000E+02 0.  0.
    9900012    2    3    3    0    0  0.54044005616E+01 -0.26473605425E+01  0.36325792736E+02  0.54367091793E+02  0.40000017360E+02 0.  0.
         12    1    3    3    0    0 -0.54044005616E+01  0.26473605425E+01 -0.36325792736E+02  0.36820908207E+02  0.00000000000E+00 0. -1.
         11    1    4    4    0    0 -0.13173774134E+02  0.81470233947E+01  0.67627525955E+01  0.16901394560E+02  0.51100000000E-03 0. -1.
        -11    1    4    4    0    0  0.27690083443E+01 -0.49363426066E+01  0.11122001538E+02  0.12479335079E+02  0.51100000000E-03 0.  1.
         12    1    4    4    0    0  0.15809166351E+02 -0.58580413307E+01  0.18441038602E+02  0.24986362154E+02  0.00000000000E+00 0. -1.
</event>
<event>
 8    1  0.3007389E-007  0.9118800E+02  0.7816164E-02  0.1184000E+00
        -11   -1    0    0    0    0  0.00000000000E+00  0.00000000000E+00  0.45593999997E+02  0.45594000000E+02  0.51100000000E-03 0.  1.
         11   -1    0    0    0    0 -0.00000000000E+00 -0.00000000000E+00 -0.45593999997E+02  0.45594000000E+02  0.51100000000E-03 0. -1.
         23    2    1    2    0    0 -0.35527136788E-14  0.00000000000E+00  0.35527136788E-14  0.91188000000E+02  0.91188000000E+02 0.  0.
    9900012    2    3    3    0    0 -0.25491775554E+02  0.17327694026E+02  0.20142016370E+02  0.54367076267E+02  0.39999981965E+02 0.  0.
         12    1    3    3    0    0  0.25491775554E+02 -0.17327694026E+02 -0.20142016370E+02  0.36820923733E+02  0.00000000000E+00 0. -1.
         11    1    4    4    0    0  0.74739414781E+00 -0.83366965133E+00  0.18610060759E+01  0.21718533503E+01  0.51100000000E-03 0. -1.
        -11    1    4    4    0    0 -0.13930630138E+02  0.88645519065E+01  0.29027933154E+02  0.33395563178E+02  0.51100000000E-03 0.  1.
        -12    1    4    4    0    0 -0.12308539564E+02  0.92968117710E+01 -0.10746922860E+02  0.18799659738E+02  0.00000000000E+00 0.  1.
</event>
<event>
 8    1  0.3007389E-007  0.9118800E+02  0.7816164E-02  0.1184000E+00
        -11   -1    0    0    0    0  0.00000000000E+00  0.00000000000E+00  0.45593999997E+02  0.45594000000E+02  0.51100000000E-03 0.  1.
         11   -1    0    0    0    0 -0.00000000000E+00 -0.00000000000E+00 -0.45593999997E+02  0.45594000000E+02  0.51100000000E-03 0. -1.
         23    2    1    2    0    0  0.35527136788E-14  0.35527136788E-14  0.00000000000E+00  0.91188000000E+02  0.91188000000E+02 0.  0.
    9900012    2    3    3    0    0  0.27276740826E+02  0.15702124370E+02 -0.19110187548E+02  0.54367128637E+02  0.40000101354E+02 0.  0.
        -12    1    3    3    0    0 -0.27276740826E+02 -0.15702124370E+02  0.19110187548E+02  0.36820871363E+02  0.00000000000E+00 0.  1.
         11    1    4    4    0    0  0.10296228475E+02 -0.48840596196E+01 -0.48277728853E+01  0.12376338331E+02  0.51100000000E-03 0. -1.
        -11    1    4    4    0    0  0.13485099920E+02  0.81686024094E+01  0.68835825286E+01  0.17203420993E+02  0.51100000000E-03 0.  1.
         12    1    4    4    0    0  0.34954124302E+01  0.12417581580E+02 -0.21165997192E+02  0.24787369313E+02  0.00000000000E+00 0. -1.
</event>
<event>
 8    1  0.3007389E-007  0.9118800E+02  0.7816164E-02  0.1184000E+00
        -11   -1    0    0    0    0  0.00000000000E+00  0.00000000000E+00  0.45593999997E+02  0.45594000000E+02  0.51100000000E-03 0. -1.
         11   -1    0    0    0    0 -0.00000000000E+00 -0.00000000000E+00 -0.45593999997E+02  0.45594000000E+02  0.51100000000E-03 0.  1.
         23    2    1    2    0    0 -0.13322676296E-14  0.00000000000E+00  0.00000000000E+00  0.91188000000E+02  0.91188000000E+02 0.  0.
    9900012    2    3    3    0    0 -0.18096587846E+01  0.30000029506E+02  0.21272104683E+02  0.54367094621E+02  0.40000023808E+02 0.  0.
        -12    1    3    3    0    0  0.18096587846E+01 -0.30000029506E+02 -0.21272104683E+02  0.36820905379E+02  0.00000000000E+00 0.  1.
         11    1    4    4    0    0  0.78074051395E+01  0.22560872221E+01  0.46387479779E+01  0.93575364082E+01  0.51100000000E-03 0. -1.
        -11    1    4    4    0    0  0.35205024425E+01 -0.30883624821E+01 -0.35590535558E+01  0.58820729970E+01  0.51100000000E-03 0.  1.
         12    1    4    4    0    0 -0.13137566367E+02  0.30832304766E+02  0.20192410261E+02  0.39127485216E+02  0.00000000000E+00 0. -1.
</event>
<event>
 8    1  0.3007389E-007  0.9118800E+02  0.7816164E-02  0.1184000E+00
        -11   -1    0    0    0    0  0.00000000000E+00  0.00000000000E+00  0.45593999997E+02  0.45594000000E+02  0.51100000000E-03 0.  1.
         11   -1    0    0    0    0 -0.00000000000E+00 -0.00000000000E+00 -0.45593999997E+02  0.45594000000E+02  0.51100000000E-03 0. -1.
         23    2    1    2    0    0  0.88817841970E-15  0.14210854715E-13  0.44408920985E-15  0.91188000000E+02  0.91188000000E+02 0.  0.
    9900012    2    3    3    0    0  0.58202299642E+01  0.36356881490E+02  0.28497970680E+00  0.54367093956E+02  0.40000022291E+02 0.  0.
        -12    1    3    3    0    0 -0.58202299642E+01 -0.36356881490E+02 -0.28497970680E+00  0.36820906044E+02  0.00000000000E+00 0.  1.
         11    1    4    4    0    0 -0.68266409751E+01  0.38144632936E+02 -0.33639702999E+01  0.38896431009E+02  0.51100000000E-03 0. -1.
        -11    1    4    4    0    0  0.97712694481E+01  0.23486294939E+00  0.57841810002E+01  0.11357359611E+02  0.51100000000E-03 0.  1.
         12    1    4    4    0    0  0.28756014913E+01 -0.20226143957E+01 -0.21352309936E+01  0.41133033351E+01  0.00000000000E+00 0. -1.
</event>
<event>
 8    1  0.3007389E-007  0.9118800E+02  0.7816164E-02  0.1184000E+00
        -11   -1    0    0    0    0  0.00000000000E+00  0.00000000000E+00  0.45593999997E+02  0.45594000000E+02  0.51100000000E-03 0.  1.
         11   -1    0    0    0    0 -0.00000000000E+00 -0.00000000000E+00 -0.45593999997E+02  0.45594000000E+02  0.51100000000E-03 0. -1.
         23    2    1    2    0    0  0.00000000000E+00  0.00000000000E+00  0.71054273576E-14  0.91188000000E+02  0.91188000000E+02 0.  0.
    9900012    2    3    3    0    0 -0.21105583445E+02  0.44423630739E+01 -0.29842923118E+02  0.54367077925E+02  0.39999985746E+02 0.  0.
         12    1    3    3    0    0  0.21105583445E+02 -0.44423630739E+01  0.29842923118E+02  0.36820922075E+02  0.00000000000E+00 0. -1.
         11    1    4    4    0    0 -0.16321023666E+02 -0.18586073127E+01  0.27492326906E+00  0.16428810600E+02  0.51100000000E-03 0.  1.
        -11    1    4    4    0    0 -0.14757823050E+01  0.13955719441E+02 -0.23148707707E+02  0.27070328910E+02  0.51100000000E-03 0. -1.
         12    1    4    4    0    0 -0.33087774739E+01 -0.76547490546E+01 -0.69691386798E+01  0.10867938415E+02  0.00000000000E+00 0. -1.
</event>
<event>
 8    1  0.3007389E-007  0.9118800E+02  0.7816164E-02  0.1184000E+00
        -11   -1    0    0    0    0  0.00000000000E+00  0.00000000000E+00  0.45593999997E+02  0.45594000000E+02  0.51100000000E-03 0.  1.
         11   -1    0    0    0    0 -0.00000000000E+00 -0.00000000000E+00 -0.45593999997E+02  0.45594000000E+02  0.51100000000E-03 0. -1.
         23    2    1    2    0    0  0.00000000000E+00 -0.35527136788E-14 -0.17763568394E-14  0.91188000000E+02  0.91188000000E+02 0.  0.
    9900012    2    3    3    0    0 -0.23484335049E+02  0.26790174819E+02  0.93033097800E+01  0.54367095172E+02  0.40000025063E+02 0.  0.
         12    1    3    3    0    0  0.23484335049E+02 -0.26790174819E+02 -0.93033097800E+01  0.36820904828E+02  0.00000000000E+00 0. -1.
         11    1    4    4    0    0 -0.45869164494E+01  0.18723451491E+01  0.67478316336E+01  0.83713028190E+01  0.51100000000E-03 0.  1.
        -11    1    4    4    0    0  0.43399078064E+01  0.12866807031E+02 -0.10097429087E+02  0.16921808336E+02  0.51100000000E-03 0. -1.
         12    1    4    4    0    0 -0.23237326406E+02  0.12051022639E+02  0.12652907234E+02  0.29073984017E+02  0.00000000000E+00 0. -1.
</event>
<event>
 8    1  0.3007389E-007  0.9118800E+02  0.7816164E-02  0.1184000E+00
        -11   -1    0    0    0    0  0.00000000000E+00  0.00000000000E+00  0.45593999997E+02  0.45594000000E+02  0.51100000000E-03 0. -1.
         11   -1    0    0    0    0 -0.00000000000E+00 -0.00000000000E+00 -0.45593999997E+02  0.45594000000E+02  0.51100000000E-03 0.  1.
         23    2    1    2    0    0  0.88817841970E-15  0.71054273576E-14 -0.17763568394E-14  0.91188000000E+02  0.91188000000E+02 0.  0.
    9900012    2    3    3    0    0 -0.76561054343E+01  0.33341119876E+02 -0.13621116989E+02  0.54367067733E+02  0.39999962510E+02 0.  0.
         12    1    3    3    0    0  0.76561054343E+01 -0.33341119876E+02  0.13621116989E+02  0.36820932267E+02  0.00000000000E+00 0. -1.
         11    1    4    4    0    0  0.12860917647E+02  0.11617943044E+02 -0.14110452748E+02  0.22349153906E+02  0.51100000000E-03 0. -1.
        -11    1    4    4    0    0 -0.11429101970E+02  0.73148186447E+01 -0.44512785477E+01  0.14280925202E+02  0.51100000000E-03 0.  1.
        -12    1    4    4    0    0 -0.90879211116E+01  0.14408358187E+02  0.49406143058E+01  0.17736988626E+02  0.00000000000E+00 0.  1.
</event>
<event>
 8    1  0.3007389E-007  0.9118800E+02  0.7816164E-02  0.1184000E+00
        -11   -1    0    0    0    0  0.00000000000E+00  0.00000000000E+00  0.45593999997E+02  0.45594000000E+02  0.51100000000E-03 0. -1.
         11   -1    0    0    0    0 -0.00000000000E+00 -0.00000000000E+00 -0.45593999997E+02  0.45594000000E+02  0.51100000000E-03 0.  1.
         23    2    1    2    0    0 -0.77715611724E-15  0.00000000000E+00 -0.88817841970E-15  0.91188000000E+02  0.91188000000E+02 0.  0.
    9900012    2    3    3    0    0 -0.76685084144E+00 -0.36205139463E+02 -0.66622673953E+01  0.54367000684E+02  0.39999809660E+02 0.  0.
        -12    1    3    3    0    0  0.76685084144E+00  0.36205139463E+02  0.66622673953E+01  0.36820999316E+02  0.00000000000E+00 0.  1.
         11    1    4    4    0    0 -0.89826304667E+01  0.30745030262E+00 -0.50467033961E+01  0.10307831548E+02  0.51100000000E-03 0. -1.
        -11    1    4    4    0    0 -0.73734084244E+00  0.30686695529E+01 -0.14607373651E+01  0.34776656328E+01  0.51100000000E-03 0.  1.
         12    1    4    4    0    0  0.89531204677E+01 -0.39581259318E+02 -0.15482663416E+00  0.40581503504E+02  0.00000000000E+00 0. -1.
</event>
<event>
 8    1  0.3007389E-007  0.9118800E+02  0.7816164E-02  0.1184000E+00
        -11   -1    0    0    0    0  0.00000000000E+00  0.00000000000E+00  0.45593999997E+02  0.45594000000E+02  0.51100000000E-03 0.  1.
         11   -1    0    0    0    0 -0.00000000000E+00 -0.00000000000E+00 -0.45593999997E+02  0.45594000000E+02  0.51100000000E-03 0. -1.
         23    2    1    2    0    0  0.00000000000E+00  0.00000000000E+00 -0.35527136788E-14  0.91188000000E+02  0.91188000000E+02 0.  0.
    9900012    2    3    3    0    0 -0.21834779834E+02 -0.60367750052E+01  0.29027215315E+02  0.54367088933E+02  0.40000010841E+02 0.  0.
         12    1    3    3    0    0  0.21834779834E+02  0.60367750052E+01 -0.29027215315E+02  0.36820911067E+02  0.00000000000E+00 0. -1.
         11    1    4    4    0    0  0.54886170562E+01 -0.62941434463E+01  0.14762484998E+02  0.16960899813E+02  0.51100000000E-03 0. -1.
        -11    1    4    4    0    0 -0.33814805334E+00  0.41542141477E+01  0.86028857433E+01  0.95593662271E+01  0.51100000000E-03 0.  1.
        -12    1    4    4    0    0 -0.26985248837E+02 -0.38968457067E+01  0.56618445736E+01  0.27846822893E+02  0.00000000000E+00 0.  1.
</event>
<event>
 8    1  0.3007389E-007  0.9118800E+02  0.7816164E-02  0.1184000E+00
        -11   -1    0    0    0    0  0.00000000000E+00  0.00000000000E+00  0.45593999997E+02  0.45594000000E+02  0.51100000000E-03 0.  1.
         11   -1    0    0    0    0 -0.00000000000E+00 -0.00000000000E+00 -0.45593999997E+02  0.45594000000E+02  0.51100000000E-03 0. -1.
         23    2    1    2    0    0  0.66613381478E-15 -0.71054273576E-14  0.88817841970E-15  0.91188000000E+02  0.91188000000E+02 0.  0.
    9900012    2    3    3    0    0 -0.10405715309E+01  0.35973313546E+02 -0.77857147231E+01  0.54367089768E+02  0.40000012744E+02 0.  0.
        -12    1    3    3    0    0  0.10405715309E+01 -0.35973313546E+02  0.77857147231E+01  0.36820910232E+02  0.00000000000E+00 0.  1.
         11    1    4    4    0    0  0.83447239812E+01  0.21473485881E+01 -0.10771567694E+02  0.13793918773E+02  0.51100000000E-03 0. -1.
        -11    1    4    4    0    0 -0.43131843751E+01  0.47091911949E+01  0.83736840941E+01  0.10530841692E+02  0.51100000000E-03 0.  1.
         12    1    4    4    0    0 -0.50721111370E+01  0.29116773763E+02 -0.53878311233E+01  0.30042329303E+02  0.00000000000E+00 0. -1.
</event>
<event>
 8    1  0.3007389E-007  0.9118800E+02  0.7816164E-02  0.1184000E+00
        -11   -1    0    0    0    0  0.00000000000E+00  0.00000000000E+00  0.45593999997E+02  0.45594000000E+02  0.51100000000E-03 0.  1.
         11   -1    0    0    0    0 -0.00000000000E+00 -0.00000000000E+00 -0.45593999997E+02  0.45594000000E+02  0.51100000000E-03 0. -1.
         23    2    1    2    0    0  0.35527136788E-14  0.44408920985E-15  0.00000000000E+00  0.91188000000E+02  0.91188000000E+02 0.  0.
    9900012    2    3    3    0    0  0.31233754404E+02  0.34001664304E+01  0.19200809358E+02  0.54367087112E+02  0.40000006689E+02 0.  0.
         12    1    3    3    0    0 -0.31233754404E+02 -0.34001664304E+01 -0.19200809358E+02  0.36820912888E+02  0.00000000000E+00 0. -1.
         11    1    4    4    0    0  0.39216801168E+01 -0.72991490274E+01  0.16549257203E+02  0.18507702875E+02  0.51100000000E-03 0. -1.
        -11    1    4    4    0    0  0.23057924706E+02  0.46884870533E+01 -0.62119575755E+01  0.24335945016E+02  0.51100000000E-03 0.  1.
        -12    1    4    4    0    0  0.42541495806E+01  0.60108284045E+01  0.88635097299E+01  0.11523439222E+02  0.00000000000E+00 0.  1.
</event>
<event>
 8    1  0.3007389E-007  0.9118800E+02  0.7816164E-02  0.1184000E+00
        -11   -1    0    0    0    0  0.00000000000E+00  0.00000000000E+00  0.45593999997E+02  0.45594000000E+02  0.51100000000E-03 0.  1.
         11   -1    0    0    0    0 -0.00000000000E+00 -0.00000000000E+00 -0.45593999997E+02  0.45594000000E+02  0.51100000000E-03 0. -1.
         23    2    1    2    0    0  0.71054273576E-14  0.00000000000E+00 -0.88817841970E-15  0.91188000000E+02  0.91188000000E+02 0.  0.
    9900012    2    3    3    0    0 -0.35923790471E+02  0.31485633956E+01 -0.74396424734E+01  0.54367075875E+02  0.39999981073E+02 0.  0.
        -12    1    3    3    0    0  0.35923790471E+02 -0.31485633956E+01  0.74396424734E+01  0.36820924125E+02  0.00000000000E+00 0.  1.
         11    1    4    4    0    0 -0.64397341388E+01  0.56267247240E+01 -0.21326185341E+00  0.85542789163E+01  0.51100000000E-03 0. -1.
        -11    1    4    4    0    0  0.61909779191E+01 -0.27468101584E+01  0.46458133018E+01  0.82132061424E+01  0.51100000000E-03 0.  1.
         12    1    4    4    0    0 -0.35675034252E+02  0.26864882991E+00 -0.11872193922E+02  0.37599590816E+02  0.00000000000E+00 0. -1.
</event>
<event>
 8    1  0.3007389E-007  0.9118800E+02  0.7816164E-02  0.1184000E+00
        -11   -1    0    0    0    0  0.00000000000E+00  0.00000000000E+00  0.45593999997E+02  0.45594000000E+02  0.51100000000E-03 0. -1.
         11   -1    0    0    0    0 -0.00000000000E+00 -0.00000000000E+00 -0.45593999997E+02  0.45594000000E+02  0.51100000000E-03 0.  1.
         23    2    1    2    0    0  0.35527136788E-14  0.22204460493E-15 -0.35527136788E-14  0.91188000000E+02  0.91188000000E+02 0.  0.
    9900012    2    3    3    0    0  0.19730404298E+02 -0.55167521134E+00 -0.31083517413E+02  0.54367105741E+02  0.40000049157E+02 0.  0.
         12    1    3    3    0    0 -0.19730404298E+02  0.55167521134E+00  0.31083517413E+02  0.36820894259E+02  0.00000000000E+00 0. -1.
         11    1    4    4    0    0  0.18290466761E+01 -0.58830186411E+01 -0.14440763667E+02  0.15700031071E+02  0.51100000000E-03 0. -1.
        -11    1    4    4    0    0  0.13653731238E+02  0.15987005229E+02 -0.17227963855E+02  0.27181086287E+02  0.51100000000E-03 0.  1.
         12    1    4    4    0    0  0.42476263836E+01 -0.10655661799E+02  0.58521010871E+00  0.11485988383E+02  0.00000000000E+00 0. -1.
</event>
<event>
 8    1  0.3007389E-007  0.9118800E+02  0.7816164E-02  0.1184000E+00
        -11   -1    0    0    0    0  0.00000000000E+00  0.00000000000E+00  0.45593999997E+02  0.45594000000E+02  0.51100000000E-03 0. -1.
         11   -1    0    0    0    0 -0.00000000000E+00 -0.00000000000E+00 -0.45593999997E+02  0.45594000000E+02  0.51100000000E-03 0.  1.
         23    2    1    2    0    0  0.00000000000E+00 -0.35527136788E-14 -0.35527136788E-14  0.91188000000E+02  0.91188000000E+02 0.  0.
    9900012    2    3    3    0    0  0.24674174180E+02  0.16198949716E+02  0.22012711789E+02  0.54367077637E+02  0.39999985090E+02 0.  0.
        -12    1    3    3    0    0 -0.24674174180E+02 -0.16198949716E+02 -0.22012711789E+02  0.36820922363E+02  0.00000000000E+00 0.  1.
         11    1    4    4    0    0  0.39644072888E+01  0.11018521372E+02  0.21481005941E+02  0.24465444097E+02  0.51100000000E-03 0. -1.
        -11    1    4    4    0    0  0.24948247783E+02  0.38482053466E+01  0.17222275574E+01  0.25301972647E+02  0.51100000000E-03 0.  1.
        -12    1    4    4    0    0 -0.42384808919E+01  0.13322229971E+01 -0.11905217097E+01  0.45996608925E+01  0.00000000000E+00 0.  1.
</event>
<event>
 8    1  0.3007389E-007  0.9118800E+02  0.7816164E-02  0.1184000E+00
        -11   -1    0    0    0    0  0.00000000000E+00  0.00000000000E+00  0.45593999997E+02  0.45594000000E+02  0.51100000000E-03 0. -1.
         11   -1    0    0    0    0 -0.00000000000E+00 -0.00000000000E+00 -0.45593999997E+02  0.45594000000E+02  0.51100000000E-03 0.  1.
         23    2    1    2    0    0  0.00000000000E+00  0.17763568394E-14 -0.35527136788E-14  0.91188000000E+02  0.91188000000E+02 0.  0.
    9900012    2    3    3    0    0  0.24439500953E+02 -0.11751243094E+02  0.24907858219E+02  0.54367050499E+02  0.39999923222E+02 0.  0.
         12    1    3    3    0    0 -0.24439500953E+02  0.11751243094E+02 -0.24907858219E+02  0.36820949501E+02  0.00000000000E+00 0. -1.
         11    1    4    4    0    0  0.43214830743E+01  0.86049923727E+00  0.14445655128E+02  0.15102735754E+02  0.51100000000E-03 0. -1.
        -11    1    4    4    0    0  0.27446440956E+02 -0.11087080688E+02  0.50537420730E+01  0.30029498639E+02  0.51100000000E-03 0.  1.
         12    1    4    4    0    0 -0.73284230770E+01 -0.15246616436E+01  0.54084610178E+01  0.92348161056E+01  0.00000000000E+00 0. -1.
</event>
<event>
 8    1  0.3007389E-007  0.9118800E+02  0.7816164E-02  0.1184000E+00
        -11   -1    0    0    0    0  0.00000000000E+00  0.00000000000E+00  0.45593999997E+02  0.45594000000E+02  0.51100000000E-03 0. -1.
         11   -1    0    0    0    0 -0.00000000000E+00 -0.00000000000E+00 -0.45593999997E+02  0.45594000000E+02  0.51100000000E-03 0.  1.
         23    2    1    2    0    0  0.35527136788E-14  0.00000000000E+00  0.35527136788E-14  0.91188000000E+02  0.91188000000E+02 0.  0.
    9900012    2    3    3    0    0 -0.14442594778E+02  0.26272459389E+02  0.21376381873E+02  0.54367077032E+02  0.39999983709E+02 0.  0.
        -12    1    3    3    0    0  0.14442594778E+02 -0.26272459389E+02 -0.21376381873E+02  0.36820922968E+02  0.00000000000E+00 0.  1.
         11    1    4    4    0    0  0.74361203859E+01  0.24813346570E+02  0.12308516001E+02  0.28679219320E+02  0.51100000000E-03 0. -1.
        -11    1    4    4    0    0 -0.18533967033E+02 -0.21133946755E+01  0.49698407744E+01  0.19304758186E+02  0.51100000000E-03 0.  1.
        -12    1    4    4    0    0 -0.33447481309E+01  0.35725074946E+01  0.40980250971E+01  0.63830995257E+01  0.00000000000E+00 0.  1.
</event>
<event>
 8    1  0.3007389E-007  0.9118800E+02  0.7816164E-02  0.1184000E+00
        -11   -1    0    0    0    0  0.00000000000E+00  0.00000000000E+00  0.45593999997E+02  0.45594000000E+02  0.51100000000E-03 0.  1.
         11   -1    0    0    0    0 -0.00000000000E+00 -0.00000000000E+00 -0.45593999997E+02  0.45594000000E+02  0.51100000000E-03 0. -1.
         23    2    1    2    0    0  0.00000000000E+00  0.00000000000E+00  0.35527136788E-14  0.91188000000E+02  0.91188000000E+02 0.  0.
    9900012    2    3    3    0    0 -0.26314763091E+02  0.18108553780E+02  0.18313773790E+02  0.54367071346E+02  0.39999970747E+02 0.  0.
        -12    1    3    3    0    0  0.26314763091E+02 -0.18108553780E+02 -0.18313773790E+02  0.36820928654E+02  0.00000000000E+00 0.  1.
         11    1    4    4    0    0 -0.40799070672E+01 -0.10525852284E+02 -0.23643229163E+01  0.11533829853E+02  0.51100000000E-03 0.  1.
        -11    1    4    4    0    0 -0.17761578605E+02  0.21423525357E+02  0.20098651669E+02  0.34327786303E+02  0.51100000000E-03 0. -1.
         12    1    4    4    0    0 -0.44732774182E+01  0.72108807070E+01  0.57944503744E+00  0.85054551896E+01  0.00000000000E+00 0. -1.
</event>
<event>
 8    1  0.3007389E-007  0.9118800E+02  0.7816164E-02  0.1184000E+00
        -11   -1    0    0    0    0  0.00000000000E+00  0.00000000000E+00  0.45593999997E+02  0.45594000000E+02  0.51100000000E-03 0. -1.
         11   -1    0    0    0    0 -0.00000000000E+00 -0.00000000000E+00 -0.45593999997E+02  0.45594000000E+02  0.51100000000E-03 0.  1.
         23    2    1    2    0    0  0.35527136788E-14  0.17763568394E-14 -0.71054273576E-14  0.91188000000E+02  0.91188000000E+02 0.  0.
    9900012    2    3    3    0    0  0.23301511514E+02  0.13537958301E+02 -0.25090732141E+02  0.54367060398E+02  0.39999945789E+02 0.  0.
         12    1    3    3    0    0 -0.23301511514E+02 -0.13537958301E+02  0.25090732141E+02  0.36820939602E+02  0.00000000000E+00 0. -1.
         11    1    4    4    0    0  0.53142295680E+01 -0.58792566230E+01 -0.64417164301E+01  0.10212854898E+02  0.51100000000E-03 0. -1.
        -11    1    4    4    0    0  0.83257565798E+01 -0.44201994996E+01 -0.15635666116E+02  0.18257339384E+02  0.51100000000E-03 0.  1.
         12    1    4    4    0    0  0.96615253664E+01  0.23837414424E+02 -0.30133495949E+01  0.25896866115E+02  0.00000000000E+00 0. -1.
</event>
<event>
 8    1  0.3007389E-007  0.9118800E+02  0.7816164E-02  0.1184000E+00
        -11   -1    0    0    0    0  0.00000000000E+00  0.00000000000E+00  0.45593999997E+02  0.45594000000E+02  0.51100000000E-03 0. -1.
         11   -1    0    0    0    0 -0.00000000000E+00 -0.00000000000E+00 -0.45593999997E+02  0.45594000000E+02  0.51100000000E-03 0.  1.
         23    2    1    2    0    0  0.88817841970E-15  0.13322676296E-14  0.71054273576E-14  0.91188000000E+02  0.91188000000E+02 0.  0.
    9900012    2    3    3    0    0  0.50101546128E+01 -0.38423260675E+01  0.36275506904E+02  0.54367115709E+02  0.40000071882E+02 0.  0.
        -12    1    3    3    0    0 -0.50101546128E+01  0.38423260675E+01 -0.36275506904E+02  0.36820884291E+02  0.00000000000E+00 0.  1.
         11    1    4    4    0    0  0.35354799021E+01  0.11730640913E+02  0.20654877194E+02  0.24015234884E+02  0.51100000000E-03 0. -1.
        -11    1    4    4    0    0  0.71153437981E+01 -0.12137637225E+01  0.12762059695E+02  0.14661906686E+02  0.51100000000E-03 0.  1.
        -12    1    4    4    0    0 -0.56406690874E+01 -0.14359203258E+02  0.28585700143E+01  0.15689974139E+02  0.00000000000E+00 0.  1.
</event>
<event>
 8    1  0.3007389E-007  0.9118800E+02  0.7816164E-02  0.1184000E+00
        -11   -1    0    0    0    0  0.00000000000E+00  0.00000000000E+00  0.45593999997E+02  0.45594000000E+02  0.51100000000E-03 0. -1.
         11   -1    0    0    0    0 -0.00000000000E+00 -0.00000000000E+00 -0.45593999997E+02  0.45594000000E+02  0.51100000000E-03 0.  1.
         23    2    1    2    0    0 -0.14432899320E-14  0.00000000000E+00 -0.71054273576E-14  0.91188000000E+02  0.91188000000E+02 0.  0.
    9900012    2    3    3    0    0  0.95556816172E+00 -0.16730477178E+02 -0.32786560766E+02  0.54367074645E+02  0.39999978268E+02 0.  0.
         12    1    3    3    0    0 -0.95556816172E+00  0.16730477178E+02  0.32786560766E+02  0.36820925355E+02  0.00000000000E+00 0. -1.
         11    1    4    4    0    0  0.13672677951E+02 -0.29355747039E+01 -0.51648316564E+01  0.14907555383E+02  0.51100000000E-03 0. -1.
        -11    1    4    4    0    0  0.17730122699E+00  0.27696248546E+01 -0.14368741476E+02  0.14634308642E+02  0.51100000000E-03 0.  1.
         12    1    4    4    0    0 -0.12894411017E+02 -0.16564527329E+02 -0.13252987634E+02  0.24825210620E+02  0.00000000000E+00 0. -1.
</event>
<event>
 8    1  0.3007389E-007  0.9118800E+02  0.7816164E-02  0.1184000E+00
        -11   -1    0    0    0    0  0.00000000000E+00  0.00000000000E+00  0.45593999997E+02  0.45594000000E+02  0.51100000000E-03 0. -1.
         11   -1    0    0    0    0 -0.00000000000E+00 -0.00000000000E+00 -0.45593999997E+02  0.45594000000E+02  0.51100000000E-03 0.  1.
         23    2    1    2    0    0  0.00000000000E+00 -0.35527136788E-14  0.00000000000E+00  0.91188000000E+02  0.91188000000E+02 0.  0.
    9900012    2    3    3    0    0 -0.18189666910E+02 -0.26763361582E+02 -0.17568088357E+02  0.54367092434E+02  0.40000018822E+02 0.  0.
        -12    1    3    3    0    0  0.18189666910E+02  0.26763361582E+02  0.17568088357E+02  0.36820907566E+02  0.00000000000E+00 0.  1.
         11    1    4    4    0    0 -0.19774459564E+02 -0.10201304887E+02  0.12911514589E+01  0.22288179486E+02  0.51100000000E-03 0. -1.
        -11    1    4    4    0    0 -0.34560137319E+01 -0.16824709724E+02 -0.58831137495E+01  0.18155602878E+02  0.51100000000E-03 0.  1.
         12    1    4    4    0    0  0.50408063857E+01  0.26265302883E+00 -0.12976126067E+02  0.13923310071E+02  0.00000000000E+00 0. -1.
</event>
<event>
 8    1  0.3007389E-007  0.9118800E+02  0.7816164E-02  0.1184000E+00
        -11   -1    0    0    0    0  0.00000000000E+00  0.00000000000E+00  0.45593999997E+02  0.45594000000E+02  0.51100000000E-03 0. -1.
         11   -1    0    0    0    0 -0.00000000000E+00 -0.00000000000E+00 -0.45593999997E+02  0.45594000000E+02  0.51100000000E-03 0.  1.
         23    2    1    2    0    0 -0.71054273576E-14  0.44408920985E-15 -0.53290705182E-14  0.91188000000E+02  0.91188000000E+02 0.  0.
    9900012    2    3    3    0    0 -0.34845900180E+02  0.35061351633E+01 -0.11368725779E+02  0.54367113686E+02  0.40000067269E+02 0.  0.
         12    1    3    3    0    0  0.34845900180E+02 -0.35061351633E+01  0.11368725779E+02  0.36820886314E+02  0.00000000000E+00 0. -1.
         11    1    4    4    0    0 -0.82867633955E+01  0.15966836333E+02  0.60894997534E+01  0.18991901368E+02  0.51100000000E-03 0. -1.
        -11    1    4    4    0    0 -0.21204811534E+02 -0.56954474977E+01 -0.14224501232E+02  0.26161395031E+02  0.51100000000E-03 0.  1.
         12    1    4    4    0    0 -0.53543252505E+01 -0.67652536724E+01 -0.32337243002E+01  0.92138172866E+01  0.00000000000E+00 0. -1.
</event>
<event>
 8    1  0.3007389E-007  0.9118800E+02  0.7816164E-02  0.1184000E+00
        -11   -1    0    0    0    0  0.00000000000E+00  0.00000000000E+00  0.45593999997E+02  0.45594000000E+02  0.51100000000E-03 0.  1.
         11   -1    0    0    0    0 -0.00000000000E+00 -0.00000000000E+00 -0.45593999997E+02  0.45594000000E+02  0.51100000000E-03 0. -1.
         23    2    1    2    0    0  0.00000000000E+00  0.00000000000E+00  0.17763568394E-14  0.91188000000E+02  0.91188000000E+02 0.  0.
    9900012    2    3    3    0    0 -0.23968029149E+02  0.25614717688E+02 -0.11189273086E+02  0.54367081819E+02  0.39999994622E+02 0.  0.
        -12    1    3    3    0    0  0.23968029149E+02 -0.25614717688E+02  0.11189273086E+02  0.36820918181E+02  0.00000000000E+00 0.  1.
         11    1    4    4    0    0  0.25966782476E+01  0.11018078498E+02 -0.52571219775E+01  0.12481110666E+02  0.51100000000E-03 0. -1.
        -11    1    4    4    0    0 -0.72892504265E+01  0.12497073329E+02  0.93259532893E+01  0.17212885249E+02  0.51100000000E-03 0.  1.
        -12    1    4    4    0    0 -0.19275456970E+02  0.20995658612E+01 -0.15258104398E+02  0.24673085904E+02  0.00000000000E+00 0.  1.
</event>
<event>
 8    1  0.3007389E-007  0.9118800E+02  0.7816164E-02  0.1184000E+00
        -11   -1    0    0    0    0  0.00000000000E+00  0.00000000000E+00  0.45593999997E+02  0.45594000000E+02  0.51100000000E-03 0. -1.
         11   -1    0    0    0    0 -0.00000000000E+00 -0.00000000000E+00 -0.45593999997E+02  0.45594000000E+02  0.51100000000E-03 0.  1.
         23    2    1    2    0    0 -0.17763568394E-14  0.35527136788E-14  0.35527136788E-14  0.91188000000E+02  0.91188000000E+02 0.  0.
    9900012    2    3    3    0    0  0.11753494764E+01  0.18650036920E+02  0.31726720261E+02  0.54366944855E+02  0.39999682384E+02 0.  0.
        -12    1    3    3    0    0 -0.11753494764E+01 -0.18650036920E+02 -0.31726720261E+02  0.36821055145E+02  0.00000000000E+00 0.  1.
         11    1    4    4    0    0 -0.15485587690E+02  0.16846922728E+02  0.89631905728E+01  0.24575618345E+02  0.51100000000E-03 0. -1.
        -11    1    4    4    0    0  0.24963368774E+01  0.16605231756E+01  0.21215085837E-01  0.29982470484E+01  0.51100000000E-03 0.  1.
         12    1    4    4    0    0  0.14164600289E+02  0.14259101590E+00  0.22742314602E+02  0.26793079462E+02  0.00000000000E+00 0. -1.
</event>
<event>
 8    1  0.3007389E-007  0.9118800E+02  0.7816164E-02  0.1184000E+00
        -11   -1    0    0    0    0  0.00000000000E+00  0.00000000000E+00  0.45593999997E+02  0.45594000000E+02  0.51100000000E-03 0.  1.
         11   -1    0    0    0    0 -0.00000000000E+00 -0.00000000000E+00 -0.45593999997E+02  0.45594000000E+02  0.51100000000E-03 0. -1.
         23    2    1    2    0    0  0.00000000000E+00  0.00000000000E+00  0.00000000000E+00  0.91188000000E+02  0.91188000000E+02 0.  0.
    9900012    2    3    3    0    0 -0.16679895297E+02 -0.47125705406E+01  0.32486202473E+02  0.54367074165E+02  0.39999977174E+02 0.  0.
         12    1    3    3    0    0  0.16679895297E+02  0.47125705406E+01 -0.32486202473E+02  0.36820925835E+02  0.00000000000E+00 0. -1.
         11    1    4    4    0    0 -0.73501889419E+00  0.10554792286E+02  0.47665287356E+00  0.10591085459E+02  0.51100000000E-03 0. -1.
        -11    1    4    4    0    0 -0.17014386639E+02 -0.38034769827E+01  0.13814340981E+02  0.22243916176E+02  0.51100000000E-03 0.  1.
         12    1    4    4    0    0  0.10695102355E+01 -0.11463885844E+02  0.18195208618E+02  0.21532072530E+02  0.00000000000E+00 0. -1.
</event>
<event>
 8    1  0.3007389E-007  0.9118800E+02  0.7816164E-02  0.1184000E+00
        -11   -1    0    0    0    0  0.00000000000E+00  0.00000000000E+00  0.45593999997E+02  0.45594000000E+02  0.51100000000E-03 0.  1.
         11   -1    0    0    0    0 -0.00000000000E+00 -0.00000000000E+00 -0.45593999997E+02  0.45594000000E+02  0.51100000000E-03 0. -1.
         23    2    1    2    0    0  0.35527136788E-14  0.00000000000E+00  0.00000000000E+00  0.91188000000E+02  0.91188000000E+02 0.  0.
    9900012    2    3    3    0    0 -0.18065071189E+02  0.24698767098E+02  0.20479418889E+02  0.54367048203E+02  0.39999917988E+02 0.  0.
        -12    1    3    3    0    0  0.18065071189E+02 -0.24698767098E+02 -0.20479418889E+02  0.36820951797E+02  0.00000000000E+00 0.  1.
         11    1    4    4    0    0 -0.13472362542E+02  0.24252431203E+02 -0.30440185914E+01  0.27909694035E+02  0.51100000000E-03 0. -1.
        -11    1    4    4    0    0 -0.73779742128E+01 -0.26130335372E+01  0.13357729397E+02  0.15481969598E+02  0.51100000000E-03 0.  1.
         12    1    4    4    0    0  0.27852655658E+01  0.30593694323E+01  0.10165708084E+02  0.10975384569E+02  0.00000000000E+00 0. -1.
</event>
<event>
 8    1  0.3007389E-007  0.9118800E+02  0.7816164E-02  0.1184000E+00
        -11   -1    0    0    0    0  0.00000000000E+00  0.00000000000E+00  0.45593999997E+02  0.45594000000E+02  0.51100000000E-03 0.  1.
         11   -1    0    0    0    0 -0.00000000000E+00 -0.00000000000E+00 -0.45593999997E+02  0.45594000000E+02  0.51100000000E-03 0. -1.
         23    2    1    2    0    0  0.00000000000E+00  0.00000000000E+00  0.00000000000E+00  0.91188000000E+02  0.91188000000E+02 0.  0.
    9900012    2    3    3    0    0  0.11010049915E+02  0.91886974085E+01 -0.33913485869E+02  0.54367110780E+02  0.40000060644E+02 0.  0.
        -12    1    3    3    0    0 -0.11010049915E+02 -0.91886974085E+01  0.33913485869E+02  0.36820889220E+02  0.00000000000E+00 0.  1.
         11    1    4    4    0    0 -0.61202636720E+01 -0.27322143665E+01  0.44996536290E+01  0.80727632073E+01  0.51100000000E-03 0. -1.
        -11    1    4    4    0    0 -0.16889829819E+01  0.16449916716E+01 -0.12213804696E+02  0.12439279984E+02  0.51100000000E-03 0.  1.
         12    1    4    4    0    0  0.18819296569E+02  0.10275920103E+02 -0.26199334802E+02  0.33855067588E+02  0.00000000000E+00 0. -1.
</event>
<event>
 8    1  0.3007389E-007  0.9118800E+02  0.7816164E-02  0.1184000E+00
        -11   -1    0    0    0    0  0.00000000000E+00  0.00000000000E+00  0.45593999997E+02  0.45594000000E+02  0.51100000000E-03 0. -1.
         11   -1    0    0    0    0 -0.00000000000E+00 -0.00000000000E+00 -0.45593999997E+02  0.45594000000E+02  0.51100000000E-03 0.  1.
         23    2    1    2    0    0 -0.17763568394E-14 -0.17763568394E-14  0.00000000000E+00  0.91188000000E+02  0.91188000000E+02 0.  0.
    9900012    2    3    3    0    0 -0.12589506110E+02 -0.78995984299E+01  0.33687991061E+02  0.54367081202E+02  0.39999993216E+02 0.  0.
        -12    1    3    3    0    0  0.12589506110E+02  0.78995984299E+01 -0.33687991061E+02  0.36820918798E+02  0.00000000000E+00 0.  1.
         11    1    4    4    0    0 -0.27970071355E+01 -0.54350667129E+01 -0.44040510600E+01  0.75338479604E+01  0.51100000000E-03 0. -1.
        -11    1    4    4    0    0  0.80777083436E+01  0.22173218471E+01  0.83949162832E+01  0.11859195079E+02  0.51100000000E-03 0.  1.
         12    1    4    4    0    0 -0.17870207318E+02 -0.46818535640E+01  0.29697125837E+02  0.34974038162E+02  0.00000000000E+00 0. -1.
</event>
<event>
 8    1  0.3007389E-007  0.9118800E+02  0.7816164E-02  0.1184000E+00
        -11   -1    0    0    0    0  0.00000000000E+00  0.00000000000E+00  0.45593999997E+02  0.45594000000E+02  0.51100000000E-03 0.  1.
         11   -1    0    0    0    0 -0.00000000000E+00 -0.00000000000E+00 -0.45593999997E+02  0.45594000000E+02  0.51100000000E-03 0. -1.
         23    2    1    2    0    0  0.00000000000E+00  0.00000000000E+00 -0.35527136788E-14  0.91188000000E+02  0.91188000000E+02 0.  0.
    9900012    2    3    3    0    0 -0.24845799303E+02 -0.18807959166E+02 -0.19614450100E+02  0.54367085784E+02  0.40000003661E+02 0.  0.
        -12    1    3    3    0    0  0.24845799303E+02  0.18807959166E+02  0.19614450100E+02  0.36820914216E+02  0.00000000000E+00 0.  1.
         11    1    4    4    0    0  0.12622542096E+00 -0.82855802215E+01  0.85526868597E+01  0.11908619788E+02  0.51100000000E-03 0.  1.
        -11    1    4    4    0    0 -0.20094964548E+02 -0.80782466880E+01 -0.10695351451E+02  0.24154838287E+02  0.51100000000E-03 0. -1.
         12    1    4    4    0    0 -0.48770601759E+01 -0.24441322561E+01 -0.17471785509E+02  0.18303627709E+02  0.00000000000E+00 0. -1.
</event>
<event>
 8    1  0.3007389E-007  0.9118800E+02  0.7816164E-02  0.1184000E+00
        -11   -1    0    0    0    0  0.00000000000E+00  0.00000000000E+00  0.45593999997E+02  0.45594000000E+02  0.51100000000E-03 0. -1.
         11   -1    0    0    0    0 -0.00000000000E+00 -0.00000000000E+00 -0.45593999997E+02  0.45594000000E+02  0.51100000000E-03 0.  1.
         23    2    1    2    0    0 -0.71054273576E-14 -0.35527136788E-14 -0.35527136788E-14  0.91188000000E+02  0.91188000000E+02 0.  0.
    9900012    2    3    3    0    0  0.20202070249E+02  0.25358689720E+02  0.17452595135E+02  0.54367083884E+02  0.39999999330E+02 0.  0.
        -12    1    3    3    0    0 -0.20202070249E+02 -0.25358689720E+02 -0.17452595135E+02  0.36820916116E+02  0.00000000000E+00 0.  1.
         11    1    4    4    0    0 -0.53161622168E+01  0.69187737884E+01  0.88754282105E+01  0.12446053094E+02  0.51100000000E-03 0. -1.
        -11    1    4    4    0    0  0.28488776199E+02  0.12769437442E+02  0.13331707076E+02  0.33947066378E+02  0.51100000000E-03 0.  1.
        -12    1    4    4    0    0 -0.29705437329E+01  0.56704784904E+01 -0.47545401516E+01  0.79739644113E+01  0.00000000000E+00 0.  1.
</event>
<event>
 8    1  0.3007389E-007  0.9118800E+02  0.7816164E-02  0.1184000E+00
        -11   -1    0    0    0    0  0.00000000000E+00  0.00000000000E+00  0.45593999997E+02  0.45594000000E+02  0.51100000000E-03 0.  1.
         11   -1    0    0    0    0 -0.00000000000E+00 -0.00000000000E+00 -0.45593999997E+02  0.45594000000E+02  0.51100000000E-03 0. -1.
         23    2    1    2    0    0  0.44408920985E-15 -0.71054273576E-14  0.44408920985E-15  0.91188000000E+02  0.91188000000E+02 0.  0.
    9900012    2    3    3    0    0 -0.29059748470E+01  0.36581503419E+02  0.30213937357E+01  0.54367083359E+02  0.39999998133E+02 0.  0.
         12    1    3    3    0    0  0.29059748470E+01 -0.36581503419E+02 -0.30213937357E+01  0.36820916641E+02  0.00000000000E+00 0. -1.
         11    1    4    4    0    0  0.57497252441E+01  0.16523388297E+02 -0.76419473389E+01  0.19091387078E+02  0.51100000000E-03 0. -1.
        -11    1    4    4    0    0 -0.15234638083E+02  0.22004942376E+02  0.84130154938E+01  0.28055133513E+02  0.51100000000E-03 0.  1.
        -12    1    4    4    0    0  0.65789379916E+01 -0.19468272541E+01  0.22503255807E+01  0.72205627671E+01  0.00000000000E+00 0.  1.
</event>
<event>
 8    1  0.3007389E-007  0.9118800E+02  0.7816164E-02  0.1184000E+00
        -11   -1    0    0    0    0  0.00000000000E+00  0.00000000000E+00  0.45593999997E+02  0.45594000000E+02  0.51100000000E-03 0. -1.
         11   -1    0    0    0    0 -0.00000000000E+00 -0.00000000000E+00 -0.45593999997E+02  0.45594000000E+02  0.51100000000E-03 0.  1.
         23    2    1    2    0    0  0.00000000000E+00  0.00000000000E+00  0.00000000000E+00  0.91188000000E+02  0.91188000000E+02 0.  0.
    9900012    2    3    3    0    0  0.12962581987E+02 -0.18844800970E+02  0.28855239673E+02  0.54367083227E+02  0.39999997833E+02 0.  0.
        -12    1    3    3    0    0 -0.12962581987E+02  0.18844800970E+02 -0.28855239673E+02  0.36820916773E+02  0.00000000000E+00 0.  1.
         11    1    4    4    0    0 -0.20694023866E+01  0.24464047520E+01 -0.73463535904E+01  0.80147510120E+01  0.51100000000E-03 0.  1.
        -11    1    4    4    0    0  0.73774271120E+01 -0.11220889653E+02  0.28597168609E+02  0.31593240545E+02  0.51100000000E-03 0. -1.
        -12    1    4    4    0    0  0.76545572618E+01 -0.10070316070E+02  0.76044246544E+01  0.14759091670E+02  0.00000000000E+00 0.  1.
</event>
<event>
 8    1  0.3007389E-007  0.9118800E+02  0.7816164E-02  0.1184000E+00
        -11   -1    0    0    0    0  0.00000000000E+00  0.00000000000E+00  0.45593999997E+02  0.45594000000E+02  0.51100000000E-03 0.  1.
         11   -1    0    0    0    0 -0.00000000000E+00 -0.00000000000E+00 -0.45593999997E+02  0.45594000000E+02  0.51100000000E-03 0. -1.
         23    2    1    2    0    0  0.44408920985E-15  0.00000000000E+00  0.00000000000E+00  0.91188000000E+02  0.91188000000E+02 0.  0.
    9900012    2    3    3    0    0 -0.29914017663E+01  0.30544610873E+02  0.20343496052E+02  0.54367087878E+02  0.40000008436E+02 0.  0.
         12    1    3    3    0    0  0.29914017663E+01 -0.30544610873E+02 -0.20343496052E+02  0.36820912122E+02  0.00000000000E+00 0. -1.
         11    1    4    4    0    0 -0.12717139862E+02  0.79332213179E+01  0.50875717176E+01  0.15828614374E+02  0.51100000000E-03 0. -1.
        -11    1    4    4    0    0  0.11461784844E+02  0.25200251289E+02  0.54062085261E+01  0.28207308764E+02  0.51100000000E-03 0.  1.
         12    1    4    4    0    0 -0.17360467476E+01 -0.25888617340E+01  0.98497158080E+01  0.10331164740E+02  0.00000000000E+00 0. -1.
</event>
<event>
 8    1  0.3007389E-007  0.9118800E+02  0.7816164E-02  0.1184000E+00
        -11   -1    0    0    0    0  0.00000000000E+00  0.00000000000E+00  0.45593999997E+02  0.45594000000E+02  0.51100000000E-03 0.  1.
         11   -1    0    0    0    0 -0.00000000000E+00 -0.00000000000E+00 -0.45593999997E+02  0.45594000000E+02  0.51100000000E-03 0. -1.
         23    2    1    2    0    0  0.71054273576E-14  0.13322676296E-14  0.00000000000E+00  0.91188000000E+02  0.91188000000E+02 0.  0.
    9900012    2    3    3    0    0  0.35583189022E+02  0.25248385048E+01  0.91237129309E+01  0.54367078120E+02  0.39999986191E+02 0.  0.
         12    1    3    3    0    0 -0.35583189022E+02 -0.25248385048E+01 -0.91237129309E+01  0.36820921880E+02  0.00000000000E+00 0. -1.
         11    1    4    4    0    0  0.20506037534E+02  0.52058638599E+01 -0.12750356293E+02  0.24701623018E+02  0.51100000000E-03 0. -1.
        -11    1    4    4    0    0  0.77486667530E+01  0.32163237929E+01  0.17253687074E+02  0.19185314517E+02  0.51100000000E-03 0.  1.
        -12    1    4    4    0    0  0.73284847350E+01 -0.58973491480E+01  0.46203821496E+01  0.10480140586E+02  0.00000000000E+00 0.  1.
</event>
<event>
 8    1  0.3007389E-007  0.9118800E+02  0.7816164E-02  0.1184000E+00
        -11   -1    0    0    0    0  0.00000000000E+00  0.00000000000E+00  0.45593999997E+02  0.45594000000E+02  0.51100000000E-03 0.  1.
         11   -1    0    0    0    0 -0.00000000000E+00 -0.00000000000E+00 -0.45593999997E+02  0.45594000000E+02  0.51100000000E-03 0. -1.
         23    2    1    2    0    0  0.00000000000E+00 -0.35527136788E-14  0.35527136788E-14  0.91188000000E+02  0.91188000000E+02 0.  0.
    9900012    2    3    3    0    0 -0.16869236435E+02 -0.16899493476E+02  0.28028863580E+02  0.54367065584E+02  0.39999957612E+02 0.  0.
         12    1    3    3    0    0  0.16869236435E+02  0.16899493476E+02 -0.28028863580E+02  0.36820934416E+02  0.00000000000E+00 0. -1.
         11    1    4    4    0    0  0.22315525632E+01 -0.22186995159E+02  0.13511882953E+02  0.26073234595E+02  0.51100000000E-03 0. -1.
        -11    1    4    4    0    0  0.85827852918E-01  0.50293037820E+01  0.21830626375E+01  0.54833407420E+01  0.51100000000E-03 0.  1.
         12    1    4    4    0    0 -0.19186616851E+02  0.25819790129E+00  0.12333917990E+02  0.22810490247E+02  0.00000000000E+00 0. -1.
</event>
<event>
 8    1  0.3007389E-007  0.9118800E+02  0.7816164E-02  0.1184000E+00
        -11   -1    0    0    0    0  0.00000000000E+00  0.00000000000E+00  0.45593999997E+02  0.45594000000E+02  0.51100000000E-03 0.  1.
         11   -1    0    0    0    0 -0.00000000000E+00 -0.00000000000E+00 -0.45593999997E+02  0.45594000000E+02  0.51100000000E-03 0. -1.
         23    2    1    2    0    0  0.00000000000E+00 -0.35527136788E-14  0.00000000000E+00  0.91188000000E+02  0.91188000000E+02 0.  0.
    9900012    2    3    3    0    0 -0.24240594776E+02 -0.27287379717E+02 -0.48554056762E+01  0.54367048204E+02  0.39999917990E+02 0.  0.
         12    1    3    3    0    0  0.24240594776E+02  0.27287379717E+02  0.48554056762E+01  0.36820951796E+02  0.00000000000E+00 0. -1.
         11    1    4    4    0    0 -0.31851184850E+02 -0.21591708936E+02 -0.56234548620E+01  0.38888598792E+02  0.51100000000E-03 0. -1.
        -11    1    4    4    0    0  0.30752934145E+01  0.29106497496E+01  0.33661746171E+01  0.54092923164E+01  0.51100000000E-03 0.  1.
         12    1    4    4    0    0  0.45352966595E+01 -0.86063205304E+01 -0.25981254313E+01  0.10069157096E+02  0.00000000000E+00 0. -1.
</event>
<event>
 8    1  0.3007389E-007  0.9118800E+02  0.7816164E-02  0.1184000E+00
        -11   -1    0    0    0    0  0.00000000000E+00  0.00000000000E+00  0.45593999997E+02  0.45594000000E+02  0.51100000000E-03 0.  1.
         11   -1    0    0    0    0 -0.00000000000E+00 -0.00000000000E+00 -0.45593999997E+02  0.45594000000E+02  0.51100000000E-03 0. -1.
         23    2    1    2    0    0  0.00000000000E+00 -0.35527136788E-14  0.00000000000E+00  0.91188000000E+02  0.91188000000E+02 0.  0.
    9900012    2    3    3    0    0 -0.80564433641E+01  0.29248491209E+02 -0.20866201677E+02  0.54367097103E+02  0.40000029467E+02 0.  0.
        -12    1    3    3    0    0  0.80564433641E+01 -0.29248491209E+02  0.20866201677E+02  0.36820902897E+02  0.00000000000E+00 0.  1.
         11    1    4    4    0    0  0.13842332058E+02  0.10242881706E+02 -0.51150079419E+01  0.17963576731E+02  0.51100000000E-03 0.  1.
        -11    1    4    4    0    0 -0.45846550806E+01 -0.20064600233E+01 -0.51635825075E+01  0.71907947131E+01  0.51100000000E-03 0. -1.
        -12    1    4    4    0    0 -0.17314120341E+02  0.21012069526E+02 -0.10587611228E+02  0.29212725660E+02  0.00000000000E+00 0.  1.
</event>
<event>
 8    1  0.3007389E-007  0.9118800E+02  0.7816164E-02  0.1184000E+00
        -11   -1    0    0    0    0  0.00000000000E+00  0.00000000000E+00  0.45593999997E+02  0.45594000000E+02  0.51100000000E-03 0.  1.
         11   -1    0    0    0    0 -0.00000000000E+00 -0.00000000000E+00 -0.45593999997E+02  0.45594000000E+02  0.51100000000E-03 0. -1.
         23    2    1    2    0    0  0.00000000000E+00  0.17763568394E-14  0.00000000000E+00  0.91188000000E+02  0.91188000000E+02 0.  0.
    9900012    2    3    3    0    0 -0.58523185782E+01 -0.55005870456E+01 -0.35934294784E+02  0.54367087027E+02  0.40000006495E+02 0.  0.
        -12    1    3    3    0    0  0.58523185782E+01  0.55005870456E+01  0.35934294784E+02  0.36820912973E+02  0.00000000000E+00 0.  1.
         11    1    4    4    0    0 -0.47593040099E+01 -0.10727387009E+02 -0.32709167407E+02  0.34750790486E+02  0.51100000000E-03 0. -1.
        -11    1    4    4    0    0 -0.42886247971E+01 -0.79361560444E+00  0.64470779961E+01  0.77837615153E+01  0.51100000000E-03 0.  1.
        -12    1    4    4    0    0  0.31956102288E+01  0.60204155682E+01 -0.96722053730E+01  0.11832535025E+02  0.00000000000E+00 0.  1.
</event>
<event>
 8    1  0.3007389E-007  0.9118800E+02  0.7816164E-02  0.1184000E+00
        -11   -1    0    0    0    0  0.00000000000E+00  0.00000000000E+00  0.45593999997E+02  0.45594000000E+02  0.51100000000E-03 0.  1.
         11   -1    0    0    0    0 -0.00000000000E+00 -0.00000000000E+00 -0.45593999997E+02  0.45594000000E+02  0.51100000000E-03 0. -1.
         23    2    1    2    0    0  0.00000000000E+00  0.00000000000E+00 -0.35527136788E-14  0.91188000000E+02  0.91188000000E+02 0.  0.
    9900012    2    3    3    0    0 -0.17556578379E+02  0.20738578034E+02  0.24848702944E+02  0.54367080657E+02  0.39999991974E+02 0.  0.
         12    1    3    3    0    0  0.17556578379E+02 -0.20738578034E+02 -0.24848702944E+02  0.36820919343E+02  0.00000000000E+00 0. -1.
         11    1    4    4    0    0 -0.13253030625E+02 -0.97102320156E+00  0.10036116213E+02  0.16652607474E+02  0.51100000000E-03 0.  1.
        -11    1    4    4    0    0  0.45758385800E+01  0.96046795424E+01 -0.58753389641E+01  0.12153508795E+02  0.51100000000E-03 0. -1.
        -12    1    4    4    0    0 -0.88793863341E+01  0.12104921694E+02  0.20687925695E+02  0.25560964388E+02  0.00000000000E+00 0.  1.
</event>
<event>
 8    1  0.3007389E-007  0.9118800E+02  0.7816164E-02  0.1184000E+00
        -11   -1    0    0    0    0  0.00000000000E+00  0.00000000000E+00  0.45593999997E+02  0.45594000000E+02  0.51100000000E-03 0.  1.
         11   -1    0    0    0    0 -0.00000000000E+00 -0.00000000000E+00 -0.45593999997E+02  0.45594000000E+02  0.51100000000E-03 0. -1.
         23    2    1    2    0    0 -0.88817841970E-15  0.00000000000E+00  0.00000000000E+00  0.91188000000E+02  0.91188000000E+02 0.  0.
    9900012    2    3    3    0    0 -0.45130488531E+01  0.19181569286E+02  0.31104320902E+02  0.54367095761E+02  0.40000026407E+02 0.  0.
         12    1    3    3    0    0  0.45130488531E+01 -0.19181569286E+02 -0.31104320902E+02  0.36820904239E+02  0.00000000000E+00 0. -1.
         11    1    4    4    0    0 -0.72523386477E+01  0.34706594928E+00 -0.34662643991E+01  0.80456112124E+01  0.51100000000E-03 0. -1.
        -11    1    4    4    0    0 -0.99025165527E+01  0.55384852218E+01  0.19577780156E+02  0.22627950166E+02  0.51100000000E-03 0.  1.
        -12    1    4    4    0    0  0.12641806347E+02  0.13296018114E+02  0.14992805145E+02  0.23693534383E+02  0.00000000000E+00 0.  1.
</event>
<event>
 8    1  0.3007389E-007  0.9118800E+02  0.7816164E-02  0.1184000E+00
        -11   -1    0    0    0    0  0.00000000000E+00  0.00000000000E+00  0.45593999997E+02  0.45594000000E+02  0.51100000000E-03 0.  1.
         11   -1    0    0    0    0 -0.00000000000E+00 -0.00000000000E+00 -0.45593999997E+02  0.45594000000E+02  0.51100000000E-03 0. -1.
         23    2    1    2    0    0  0.35527136788E-14 -0.35527136788E-14  0.17763568394E-14  0.91188000000E+02  0.91188000000E+02 0.  0.
    9900012    2    3    3    0    0  0.24635875757E+02 -0.26100879459E+02  0.82218011022E+01  0.54367078009E+02  0.39999985938E+02 0.  0.
         12    1    3    3    0    0 -0.24635875757E+02  0.26100879459E+02 -0.82218011022E+01  0.36820921991E+02  0.00000000000E+00 0. -1.
         11    1    4    4    0    0  0.72290925049E+01  0.27985215413E+01 -0.83336156713E+01  0.11381592669E+02  0.51100000000E-03 0. -1.
        -11    1    4    4    0    0  0.12945718951E+01 -0.13758701290E+02  0.15620197500E+02  0.20855894797E+02  0.51100000000E-03 0.  1.
         12    1    4    4    0    0  0.16112211357E+02 -0.15140699711E+02  0.93521927375E+00  0.22129590544E+02  0.00000000000E+00 0. -1.
</event>
<event>
 8    1  0.3007389E-007  0.9118800E+02  0.7816164E-02  0.1184000E+00
        -11   -1    0    0    0    0  0.00000000000E+00  0.00000000000E+00  0.45593999997E+02  0.45594000000E+02  0.51100000000E-03 0.  1.
         11   -1    0    0    0    0 -0.00000000000E+00 -0.00000000000E+00 -0.45593999997E+02  0.45594000000E+02  0.51100000000E-03 0. -1.
         23    2    1    2    0    0  0.17763568394E-14  0.00000000000E+00 -0.35527136788E-14  0.91188000000E+02  0.91188000000E+02 0.  0.
    9900012    2    3    3    0    0 -0.15512404674E+02 -0.20502379113E+02  0.26359029447E+02  0.54367072778E+02  0.39999974012E+02 0.  0.
         12    1    3    3    0    0  0.15512404674E+02  0.20502379113E+02 -0.26359029447E+02  0.36820927222E+02  0.00000000000E+00 0. -1.
         11    1    4    4    0    0 -0.25450286388E+01  0.10538138380E+02  0.88510759033E+01  0.13995394821E+02  0.51100000000E-03 0. -1.
        -11    1    4    4    0    0 -0.68185180707E+01 -0.22554701701E+02  0.18340391026E+02  0.29859281652E+02  0.51100000000E-03 0.  1.
         12    1    4    4    0    0 -0.61488579647E+01 -0.84858157916E+01 -0.83243748168E+00  0.10512396305E+02  0.00000000000E+00 0. -1.
</event>
<event>
 8    1  0.3007389E-007  0.9118800E+02  0.7816164E-02  0.1184000E+00
        -11   -1    0    0    0    0  0.00000000000E+00  0.00000000000E+00  0.45593999997E+02  0.45594000000E+02  0.51100000000E-03 0.  1.
         11   -1    0    0    0    0 -0.00000000000E+00 -0.00000000000E+00 -0.45593999997E+02  0.45594000000E+02  0.51100000000E-03 0. -1.
         23    2    1    2    0    0 -0.35527136788E-14 -0.17763568394E-14  0.35527136788E-14  0.91188000000E+02  0.91188000000E+02 0.  0.
    9900012    2    3    3    0    0  0.25208858042E+02 -0.39343202650E+01  0.26548376346E+02  0.54367059133E+02  0.39999942906E+02 0.  0.
         12    1    3    3    0    0 -0.25208858042E+02  0.39343202650E+01 -0.26548376346E+02  0.36820940867E+02  0.00000000000E+00 0. -1.
         11    1    4    4    0    0  0.42859274643E+00 -0.65173266014E+01  0.16144372513E+02  0.17415510382E+02  0.51100000000E-03 0. -1.
        -11    1    4    4    0    0  0.14679241127E+02  0.10873191772E+02  0.14428425615E+02  0.23278442502E+02  0.51100000000E-03 0.  1.
         12    1    4    4    0    0  0.10101024169E+02 -0.82901854352E+01 -0.40244217818E+01  0.13673106248E+02  0.00000000000E+00 0. -1.
</event>
<event>
 8    1  0.3007389E-007  0.9118800E+02  0.7816164E-02  0.1184000E+00
        -11   -1    0    0    0    0  0.00000000000E+00  0.00000000000E+00  0.45593999997E+02  0.45594000000E+02  0.51100000000E-03 0. -1.
         11   -1    0    0    0    0 -0.00000000000E+00 -0.00000000000E+00 -0.45593999997E+02  0.45594000000E+02  0.51100000000E-03 0.  1.
         23    2    1    2    0    0  0.00000000000E+00  0.35527136788E-14  0.00000000000E+00  0.91188000000E+02  0.91188000000E+02 0.  0.
    9900012    2    3    3    0    0  0.17558502763E+02  0.31856347100E+02  0.57142812894E+01  0.54367070076E+02  0.39999967851E+02 0.  0.
        -12    1    3    3    0    0 -0.17558502763E+02 -0.31856347100E+02 -0.57142812894E+01  0.36820929924E+02  0.00000000000E+00 0.  1.
         11    1    4    4    0    0 -0.80043477227E+01  0.53190348259E+01  0.10786439306E+02  0.14446763897E+02  0.51100000000E-03 0. -1.
        -11    1    4    4    0    0  0.98192010438E+01  0.18537931314E+02  0.16086578986E+01  0.21039472119E+02  0.51100000000E-03 0.  1.
        -12    1    4    4    0    0  0.15743649441E+02  0.79993809607E+01 -0.66808159152E+01  0.18880834059E+02  0.00000000000E+00 0.  1.
</event>
<event>
 8    1  0.3007389E-007  0.9118800E+02  0.7816164E-02  0.1184000E+00
        -11   -1    0    0    0    0  0.00000000000E+00  0.00000000000E+00  0.45593999997E+02  0.45594000000E+02  0.51100000000E-03 0.  1.
         11   -1    0    0    0    0 -0.00000000000E+00 -0.00000000000E+00 -0.45593999997E+02  0.45594000000E+02  0.51100000000E-03 0. -1.
         23    2    1    2    0    0 -0.17763568394E-14  0.71054273576E-14  0.00000000000E+00  0.91188000000E+02  0.91188000000E+02 0.  0.
    9900012    2    3    3    0    0  0.13674784487E+02 -0.32861626982E+02  0.94283381008E+01  0.54367084503E+02  0.40000000741E+02 0.  0.
         12    1    3    3    0    0 -0.13674784487E+02  0.32861626982E+02 -0.94283381008E+01  0.36820915497E+02  0.00000000000E+00 0. -1.
         11    1    4    4    0    0  0.23449707600E+02 -0.25168087670E+02  0.43467042980E+00  0.34402185427E+02  0.51100000000E-03 0. -1.
        -11    1    4    4    0    0 -0.79790624117E+01 -0.71083526131E+01  0.12215648183E+02  0.16230100882E+02  0.51100000000E-03 0.  1.
         12    1    4    4    0    0 -0.17958607016E+01 -0.58518669926E+00 -0.32219805119E+01  0.37347981943E+01  0.00000000000E+00 0. -1.
</event>
<event>
 8    1  0.3007389E-007  0.9118800E+02  0.7816164E-02  0.1184000E+00
        -11   -1    0    0    0    0  0.00000000000E+00  0.00000000000E+00  0.45593999997E+02  0.45594000000E+02  0.51100000000E-03 0. -1.
         11   -1    0    0    0    0 -0.00000000000E+00 -0.00000000000E+00 -0.45593999997E+02  0.45594000000E+02  0.51100000000E-03 0.  1.
         23    2    1    2    0    0  0.00000000000E+00  0.00000000000E+00 -0.51070259133E-14  0.91188000000E+02  0.91188000000E+02 0.  0.
    9900012    2    3    3    0    0 -0.31207782872E+02 -0.19538172008E+02 -0.33734017453E+00  0.54367086437E+02  0.40000005151E+02 0.  0.
        -12    1    3    3    0    0  0.31207782872E+02  0.19538172008E+02  0.33734017453E+00  0.36820913563E+02  0.00000000000E+00 0.  1.
         11    1    4    4    0    0 -0.25650805863E+00 -0.55122118118E+00 -0.80802584053E+01  0.81030992424E+01  0.51100000000E-03 0. -1.
        -11    1    4    4    0    0 -0.45967389606E+01 -0.89763903970E+01 -0.89646347468E+01  0.13493341693E+02  0.51100000000E-03 0.  1.
         12    1    4    4    0    0 -0.26354535853E+02 -0.10010560430E+02  0.16707552978E+02  0.32770645502E+02  0.00000000000E+00 0. -1.
</event>
<event>
 8    1  0.3007389E-007  0.9118800E+02  0.7816164E-02  0.1184000E+00
        -11   -1    0    0    0    0  0.00000000000E+00  0.00000000000E+00  0.45593999997E+02  0.45594000000E+02  0.51100000000E-03 0.  1.
         11   -1    0    0    0    0 -0.00000000000E+00 -0.00000000000E+00 -0.45593999997E+02  0.45594000000E+02  0.51100000000E-03 0. -1.
         23    2    1    2    0    0  0.71054273576E-14  0.35527136788E-14  0.35527136788E-14  0.91188000000E+02  0.91188000000E+02 0.  0.
    9900012    2    3    3    0    0  0.27118243385E+02  0.15755895529E+02  0.19290747348E+02  0.54367077939E+02  0.39999985777E+02 0.  0.
        -12    1    3    3    0    0 -0.27118243385E+02 -0.15755895529E+02 -0.19290747348E+02  0.36820922061E+02  0.00000000000E+00 0.  1.
         11    1    4    4    0    0  0.44034382035E+01 -0.70380293456E+01  0.14805936128E+01  0.84330470644E+01  0.51100000000E-03 0. -1.
        -11    1    4    4    0    0  0.19990934151E+02  0.50308592642E+01  0.18849958326E+02  0.27933276255E+02  0.51100000000E-03 0.  1.
         12    1    4    4    0    0  0.27238710305E+01  0.17763065611E+02 -0.10398045914E+01  0.18000754619E+02  0.00000000000E+00 0. -1.
</event>
<event>
 8    1  0.3007389E-007  0.9118800E+02  0.7816164E-02  0.1184000E+00
        -11   -1    0    0    0    0  0.00000000000E+00  0.00000000000E+00  0.45593999997E+02  0.45594000000E+02  0.51100000000E-03 0.  1.
         11   -1    0    0    0    0 -0.00000000000E+00 -0.00000000000E+00 -0.45593999997E+02  0.45594000000E+02  0.51100000000E-03 0. -1.
         23    2    1    2    0    0  0.00000000000E+00  0.17763568394E-14  0.00000000000E+00  0.91188000000E+02  0.91188000000E+02 0.  0.
    9900012    2    3    3    0    0 -0.34058445340E+02 -0.11477954301E+02 -0.80034821267E+01  0.54367124670E+02  0.40000092310E+02 0.  0.
        -12    1    3    3    0    0  0.34058445340E+02  0.11477954301E+02  0.80034821267E+01  0.36820875330E+02  0.00000000000E+00 0.  1.
         11    1    4    4    0    0 -0.24381912655E+02  0.54027300925E+01 -0.23206475519E+01  0.25080920288E+02  0.51100000000E-03 0. -1.
        -11    1    4    4    0    0  0.37574225059E+01  0.23370134957E+00 -0.65024423318E+01  0.75136274028E+01  0.51100000000E-03 0.  1.
        -12    1    4    4    0    0 -0.13433955190E+02 -0.17114385743E+02  0.81960775711E+00  0.21772576979E+02  0.00000000000E+00 0.  1.
</event>
<event>
 8    1  0.3007389E-007  0.9118800E+02  0.7816164E-02  0.1184000E+00
        -11   -1    0    0    0    0  0.00000000000E+00  0.00000000000E+00  0.45593999997E+02  0.45594000000E+02  0.51100000000E-03 0.  1.
         11   -1    0    0    0    0 -0.00000000000E+00 -0.00000000000E+00 -0.45593999997E+02  0.45594000000E+02  0.51100000000E-03 0. -1.
         23    2    1    2    0    0 -0.88817841970E-15  0.00000000000E+00  0.00000000000E+00  0.91188000000E+02  0.91188000000E+02 0.  0.
    9900012    2    3    3    0    0  0.56880469834E+01 -0.16311870725E+02 -0.32516895804E+02  0.54367088581E+02  0.40000010037E+02 0.  0.
        -12    1    3    3    0    0 -0.56880469834E+01  0.16311870725E+02  0.32516895804E+02  0.36820911419E+02  0.00000000000E+00 0.  1.
         11    1    4    4    0    0  0.39460012529E+01 -0.42292271609E-01 -0.18285198210E+02  0.18706180485E+02  0.51100000000E-03 0. -1.
        -11    1    4    4    0    0  0.71746091419E+01 -0.10492079073E+02 -0.21452704704E+02  0.24935462277E+02  0.51100000000E-03 0.  1.
        -12    1    4    4    0    0 -0.54325634113E+01 -0.57774993809E+01  0.72210071097E+01  0.10725445818E+02  0.00000000000E+00 0.  1.
</event>
<event>
 8    1  0.3007389E-007  0.9118800E+02  0.7816164E-02  0.1184000E+00
        -11   -1    0    0    0    0  0.00000000000E+00  0.00000000000E+00  0.45593999997E+02  0.45594000000E+02  0.51100000000E-03 0.  1.
         11   -1    0    0    0    0 -0.00000000000E+00 -0.00000000000E+00 -0.45593999997E+02  0.45594000000E+02  0.51100000000E-03 0. -1.
         23    2    1    2    0    0  0.00000000000E+00  0.00000000000E+00 -0.16653345369E-15  0.91188000000E+02  0.91188000000E+02 0.  0.
    9900012    2    3    3    0    0 -0.12918924591E+02  0.34478409294E+02 -0.34786145918E+00  0.54367077583E+02  0.39999984966E+02 0.  0.
        -12    1    3    3    0    0  0.12918924591E+02 -0.34478409294E+02  0.34786145918E+00  0.36820922417E+02  0.00000000000E+00 0.  1.
         11    1    4    4    0    0 -0.58519790482E+01  0.25150205365E+02 -0.84003379097E+01  0.27154081939E+02  0.51100000000E-03 0. -1.
        -11    1    4    4    0    0 -0.47296933817E+01  0.17928123790E+01 -0.79205101234E+01  0.93978006250E+01  0.51100000000E-03 0.  1.
         12    1    4    4    0    0 -0.23372521615E+01  0.75353915497E+01  0.15972986574E+02  0.17815195019E+02  0.00000000000E+00 0. -1.
</event>
<event>
 8    1  0.3007389E-007  0.9118800E+02  0.7816164E-02  0.1184000E+00
        -11   -1    0    0    0    0  0.00000000000E+00  0.00000000000E+00  0.45593999997E+02  0.45594000000E+02  0.51100000000E-03 0.  1.
         11   -1    0    0    0    0 -0.00000000000E+00 -0.00000000000E+00 -0.45593999997E+02  0.45594000000E+02  0.51100000000E-03 0. -1.
         23    2    1    2    0    0  0.00000000000E+00  0.17763568394E-14  0.00000000000E+00  0.91188000000E+02  0.91188000000E+02 0.  0.
    9900012    2    3    3    0    0 -0.13257830319E+02 -0.11792185631E+02 -0.32263860351E+02  0.54367049558E+02  0.39999921077E+02 0.  0.
        -12    1    3    3    0    0  0.13257830319E+02  0.11792185631E+02  0.32263860351E+02  0.36820950442E+02  0.00000000000E+00 0.  1.
         11    1    4    4    0    0  0.35168160277E+01  0.69338709306E+01  0.19316534463E+01  0.80111076858E+01  0.51100000000E-03 0. -1.
        -11    1    4    4    0    0 -0.11566995075E+01 -0.36454786964E+01  0.18721312211E+01  0.42582090422E+01  0.51100000000E-03 0.  1.
         12    1    4    4    0    0 -0.15617946839E+02 -0.15080577865E+02 -0.36067645019E+02  0.42097732830E+02  0.00000000000E+00 0. -1.
</event>
<event>
 8    1  0.3007389E-007  0.9118800E+02  0.7816164E-02  0.1184000E+00
        -11   -1    0    0    0    0  0.00000000000E+00  0.00000000000E+00  0.45593999997E+02  0.45594000000E+02  0.51100000000E-03 0.  1.
         11   -1    0    0    0    0 -0.00000000000E+00 -0.00000000000E+00 -0.45593999997E+02  0.45594000000E+02  0.51100000000E-03 0. -1.
         23    2    1    2    0    0  0.71054273576E-14  0.00000000000E+00  0.17763568394E-14  0.91188000000E+02  0.91188000000E+02 0.  0.
    9900012    2    3    3    0    0 -0.33878136842E+02 -0.14147383448E+02 -0.28112289777E+01  0.54367087156E+02  0.40000006791E+02 0.  0.
        -12    1    3    3    0    0  0.33878136842E+02  0.14147383448E+02  0.28112289777E+01  0.36820912844E+02  0.00000000000E+00 0.  1.
         11    1    4    4    0    0 -0.20521362031E+02  0.37070498015E+01  0.12585355317E+02  0.24356922764E+02  0.51100000000E-03 0.  1.
        -11    1    4    4    0    0 -0.15095519012E+02 -0.17374906029E+02 -0.11528749957E+02  0.25742457722E+02  0.51100000000E-03 0. -1.
        -12    1    4    4    0    0  0.17387442017E+01 -0.47952722040E+00 -0.38678343380E+01  0.42677066699E+01  0.00000000000E+00 0.  1.
</event>
<event>
 8    1  0.3007389E-007  0.9118800E+02  0.7816164E-02  0.1184000E+00
        -11   -1    0    0    0    0  0.00000000000E+00  0.00000000000E+00  0.45593999997E+02  0.45594000000E+02  0.51100000000E-03 0. -1.
         11   -1    0    0    0    0 -0.00000000000E+00 -0.00000000000E+00 -0.45593999997E+02  0.45594000000E+02  0.51100000000E-03 0.  1.
         23    2    1    2    0    0  0.00000000000E+00  0.35527136788E-14 -0.35527136788E-14  0.91188000000E+02  0.91188000000E+02 0.  0.
    9900012    2    3    3    0    0 -0.13573546884E+02  0.16196188921E+02  0.30153274322E+02  0.54367113768E+02  0.40000067457E+02 0.  0.
        -12    1    3    3    0    0  0.13573546884E+02 -0.16196188921E+02 -0.30153274322E+02  0.36820886232E+02  0.00000000000E+00 0.  1.
         11    1    4    4    0    0 -0.19101794036E+02  0.10104405682E+02 -0.23222088719E+00  0.21610911049E+02  0.51100000000E-03 0.  1.
        -11    1    4    4    0    0  0.53447066092E+01  0.57603525702E+01  0.11860919231E+02  0.14227753011E+02  0.51100000000E-03 0. -1.
         12    1    4    4    0    0  0.18354054243E+00  0.33143066907E+00  0.18524575978E+02  0.18528449708E+02  0.00000000000E+00 0. -1.
</event>
<event>
 8    1  0.3007389E-007  0.9118800E+02  0.7816164E-02  0.1184000E+00
        -11   -1    0    0    0    0  0.00000000000E+00  0.00000000000E+00  0.45593999997E+02  0.45594000000E+02  0.51100000000E-03 0.  1.
         11   -1    0    0    0    0 -0.00000000000E+00 -0.00000000000E+00 -0.45593999997E+02  0.45594000000E+02  0.51100000000E-03 0. -1.
         23    2    1    2    0    0  0.35527136788E-14 -0.35527136788E-14  0.00000000000E+00  0.91188000000E+02  0.91188000000E+02 0.  0.
    9900012    2    3    3    0    0 -0.30004864849E+02  0.16575411471E+02  0.13444165242E+02  0.54367058145E+02  0.39999940654E+02 0.  0.
         12    1    3    3    0    0  0.30004864849E+02 -0.16575411471E+02 -0.13444165242E+02  0.36820941855E+02  0.00000000000E+00 0. -1.
         11    1    4    4    0    0 -0.19898739764E+01 -0.52060883652E+01  0.31124509046E-01  0.55735019067E+01  0.51100000000E-03 0. -1.
        -11    1    4    4    0    0 -0.45477448268E+01  0.20117443648E+02 -0.19162326709E+01  0.20713895574E+02  0.51100000000E-03 0.  1.
         12    1    4    4    0    0 -0.23467246045E+02  0.16640561882E+01  0.15329273404E+02  0.28079660665E+02  0.00000000000E+00 0. -1.
</event>
<event>
 8    1  0.3007389E-007  0.9118800E+02  0.7816164E-02  0.1184000E+00
        -11   -1    0    0    0    0  0.00000000000E+00  0.00000000000E+00  0.45593999997E+02  0.45594000000E+02  0.51100000000E-03 0. -1.
         11   -1    0    0    0    0 -0.00000000000E+00 -0.00000000000E+00 -0.45593999997E+02  0.45594000000E+02  0.51100000000E-03 0.  1.
         23    2    1    2    0    0 -0.71054273576E-14  0.35527136788E-14  0.46143644461E-15  0.91188000000E+02  0.91188000000E+02 0.  0.
    9900012    2    3    3    0    0  0.23343645591E+02 -0.28475491247E+02 -0.25653902322E-01  0.54367081362E+02  0.39999993580E+02 0.  0.
        -12    1    3    3    0    0 -0.23343645591E+02  0.28475491247E+02  0.25653902322E-01  0.36820918638E+02  0.00000000000E+00 0.  1.
         11    1    4    4    0    0  0.32653794170E+02 -0.25602695798E+02  0.48523264372E+01  0.41776947925E+02  0.51100000000E-03 0. -1.
        -11    1    4    4    0    0 -0.90960194032E+01 -0.17385008136E+01 -0.19789656672E+01  0.94697549828E+01  0.51100000000E-03 0.  1.
        -12    1    4    4    0    0 -0.21412917575E+00 -0.11342946355E+01 -0.28990146724E+01  0.31203784538E+01  0.00000000000E+00 0.  1.
</event>
<event>
 8    1  0.3007389E-007  0.9118800E+02  0.7816164E-02  0.1184000E+00
        -11   -1    0    0    0    0  0.00000000000E+00  0.00000000000E+00  0.45593999997E+02  0.45594000000E+02  0.51100000000E-03 0.  1.
         11   -1    0    0    0    0 -0.00000000000E+00 -0.00000000000E+00 -0.45593999997E+02  0.45594000000E+02  0.51100000000E-03 0. -1.
         23    2    1    2    0    0  0.00000000000E+00  0.00000000000E+00  0.00000000000E+00  0.91188000000E+02  0.91188000000E+02 0.  0.
    9900012    2    3    3    0    0 -0.20207750377E+02  0.85048164875E+01  0.29582007501E+02  0.54367078684E+02  0.39999987476E+02 0.  0.
         12    1    3    3    0    0  0.20207750377E+02 -0.85048164875E+01 -0.29582007501E+02  0.36820921316E+02  0.00000000000E+00 0. -1.
         11    1    4    4    0    0 -0.65499894487E+00 -0.44607124907E+01  0.38766633478E+01  0.59460489836E+01  0.51100000000E-03 0. -1.
        -11    1    4    4    0    0  0.52423012601E+01  0.21856492831E+01  0.19997037139E+02  0.20787984027E+02  0.51100000000E-03 0.  1.
        -12    1    4    4    0    0 -0.24795052692E+02  0.10779879695E+02  0.57083070143E+01  0.27633045674E+02  0.00000000000E+00 0.  1.
</event>
<event>
 8    1  0.3007389E-007  0.9118800E+02  0.7816164E-02  0.1184000E+00
        -11   -1    0    0    0    0  0.00000000000E+00  0.00000000000E+00  0.45593999997E+02  0.45594000000E+02  0.51100000000E-03 0.  1.
         11   -1    0    0    0    0 -0.00000000000E+00 -0.00000000000E+00 -0.45593999997E+02  0.45594000000E+02  0.51100000000E-03 0. -1.
         23    2    1    2    0    0  0.00000000000E+00  0.55511151231E-16  0.00000000000E+00  0.91188000000E+02  0.91188000000E+02 0.  0.
    9900012    2    3    3    0    0  0.35841991764E+02 -0.86845172147E-01  0.84335248048E+01  0.54367078551E+02  0.39999987174E+02 0.  0.
        -12    1    3    3    0    0 -0.35841991764E+02  0.86845172147E-01 -0.84335248048E+01  0.36820921449E+02  0.00000000000E+00 0.  1.
         11    1    4    4    0    0  0.14075579377E+02 -0.51227640287E+00 -0.33454256376E+01  0.14476748076E+02  0.51100000000E-03 0. -1.
        -11    1    4    4    0    0  0.71293716804E+00 -0.38549464691E+01  0.17275031392E+02  0.17714276772E+02  0.51100000000E-03 0.  1.
         12    1    4    4    0    0  0.21053475219E+02  0.42803776998E+01 -0.54960809496E+01  0.22176053704E+02  0.00000000000E+00 0. -1.
</event>
<event>
 8    1  0.3007389E-007  0.9118800E+02  0.7816164E-02  0.1184000E+00
        -11   -1    0    0    0    0  0.00000000000E+00  0.00000000000E+00  0.45593999997E+02  0.45594000000E+02  0.51100000000E-03 0.  1.
         11   -1    0    0    0    0 -0.00000000000E+00 -0.00000000000E+00 -0.45593999997E+02  0.45594000000E+02  0.51100000000E-03 0. -1.
         23    2    1    2    0    0  0.00000000000E+00  0.00000000000E+00  0.35527136788E-14  0.91188000000E+02  0.91188000000E+02 0.  0.
    9900012    2    3    3    0    0 -0.95525833815E+01 -0.21597266405E+02  0.28250419874E+02  0.54367082189E+02  0.39999995466E+02 0.  0.
         12    1    3    3    0    0  0.95525833815E+01  0.21597266405E+02 -0.28250419874E+02  0.36820917811E+02  0.00000000000E+00 0. -1.
         11    1    4    4    0    0 -0.14609619627E+02 -0.59645935637E+01 -0.60878955312E+00  0.15792022891E+02  0.51100000000E-03 0. -1.
        -11    1    4    4    0    0 -0.48075341260E+00 -0.14295398186E+02  0.68848312591E+01  0.15874206590E+02  0.51100000000E-03 0.  1.
        -12    1    4    4    0    0  0.55377896579E+01 -0.13372746555E+01  0.21974378168E+02  0.22700852708E+02  0.00000000000E+00 0.  1.
</event>
<event>
 8    1  0.3007389E-007  0.9118800E+02  0.7816164E-02  0.1184000E+00
        -11   -1    0    0    0    0  0.00000000000E+00  0.00000000000E+00  0.45593999997E+02  0.45594000000E+02  0.51100000000E-03 0.  1.
         11   -1    0    0    0    0 -0.00000000000E+00 -0.00000000000E+00 -0.45593999997E+02  0.45594000000E+02  0.51100000000E-03 0. -1.
         23    2    1    2    0    0 -0.35527136788E-14 -0.35527136788E-14  0.17763568394E-14  0.91188000000E+02  0.91188000000E+02 0.  0.
    9900012    2    3    3    0    0  0.24878291836E+02  0.25484167042E+02  0.93493438149E+01  0.54367049384E+02  0.39999920680E+02 0.  0.
         12    1    3    3    0    0 -0.24878291836E+02 -0.25484167042E+02 -0.93493438149E+01  0.36820950616E+02  0.00000000000E+00 0. -1.
         11    1    4    4    0    0  0.87289180878E+01  0.28434975447E+02  0.17731277903E+02  0.34628601704E+02  0.51100000000E-03 0. -1.
        -11    1    4    4    0    0  0.12345320980E+02 -0.41714982308E+01 -0.36238870493E+01  0.13525564876E+02  0.51100000000E-03 0.  1.
         12    1    4    4    0    0  0.38040527678E+01  0.12206898255E+01 -0.47580470386E+01  0.62128828037E+01  0.00000000000E+00 0. -1.
</event>
<event>
 8    1  0.3007389E-007  0.9118800E+02  0.7816164E-02  0.1184000E+00
        -11   -1    0    0    0    0  0.00000000000E+00  0.00000000000E+00  0.45593999997E+02  0.45594000000E+02  0.51100000000E-03 0. -1.
         11   -1    0    0    0    0 -0.00000000000E+00 -0.00000000000E+00 -0.45593999997E+02  0.45594000000E+02  0.51100000000E-03 0.  1.
         23    2    1    2    0    0  0.00000000000E+00 -0.88817841970E-15  0.88817841970E-15  0.91188000000E+02  0.91188000000E+02 0.  0.
    9900012    2    3    3    0    0 -0.36707744589E+02  0.28322930466E+01  0.54771156410E+00  0.54367076809E+02  0.39999983201E+02 0.  0.
        -12    1    3    3    0    0  0.36707744589E+02 -0.28322930466E+01 -0.54771156410E+00  0.36820923191E+02  0.00000000000E+00 0.  1.
         11    1    4    4    0    0 -0.14754167181E+02  0.60947516613E+01 -0.29077606182E+01  0.16226106098E+02  0.51100000000E-03 0. -1.
        -11    1    4    4    0    0 -0.25091357691E+02 -0.39713432366E+01 -0.76887490063E+01  0.26541753134E+02  0.51100000000E-03 0.  1.
         12    1    4    4    0    0  0.31377802830E+01  0.70888462194E+00  0.11144221189E+02  0.11599217578E+02  0.00000000000E+00 0. -1.
</event>
<event>
 8    1  0.3007389E-007  0.9118800E+02  0.7816164E-02  0.1184000E+00
        -11   -1    0    0    0    0  0.00000000000E+00  0.00000000000E+00  0.45593999997E+02  0.45594000000E+02  0.51100000000E-03 0.  1.
         11   -1    0    0    0    0 -0.00000000000E+00 -0.00000000000E+00 -0.45593999997E+02  0.45594000000E+02  0.51100000000E-03 0. -1.
         23    2    1    2    0    0  0.00000000000E+00  0.00000000000E+00  0.00000000000E+00  0.91188000000E+02  0.91188000000E+02 0.  0.
    9900012    2    3    3    0    0 -0.32292151655E+02 -0.14787827599E+02 -0.97116632776E+01  0.54367091440E+02  0.40000016555E+02 0.  0.
        -12    1    3    3    0    0  0.32292151655E+02  0.14787827599E+02  0.97116632776E+01  0.36820908560E+02  0.00000000000E+00 0.  1.
         11    1    4    4    0    0 -0.16176211015E+02 -0.59791876014E+01  0.10519075990E+02  0.20200778378E+02  0.51100000000E-03 0. -1.
        -11    1    4    4    0    0  0.39354760752E+01  0.20583683569E+01 -0.52632760914E+01  0.68867211143E+01  0.51100000000E-03 0.  1.
         12    1    4    4    0    0 -0.20051416716E+02 -0.10867008354E+02 -0.14967463176E+02  0.27279591947E+02  0.00000000000E+00 0. -1.
</event>
<event>
 8    1  0.3007389E-007  0.9118800E+02  0.7816164E-02  0.1184000E+00
        -11   -1    0    0    0    0  0.00000000000E+00  0.00000000000E+00  0.45593999997E+02  0.45594000000E+02  0.51100000000E-03 0.  1.
         11   -1    0    0    0    0 -0.00000000000E+00 -0.00000000000E+00 -0.45593999997E+02  0.45594000000E+02  0.51100000000E-03 0. -1.
         23    2    1    2    0    0  0.00000000000E+00 -0.35527136788E-14  0.17763568394E-14  0.91188000000E+02  0.91188000000E+02 0.  0.
    9900012    2    3    3    0    0 -0.25819943191E+02 -0.23900392881E+02  0.10857353086E+02  0.54367077113E+02  0.39999983893E+02 0.  0.
         12    1    3    3    0    0  0.25819943191E+02  0.23900392881E+02 -0.10857353086E+02  0.36820922887E+02  0.00000000000E+00 0. -1.
         11    1    4    4    0    0 -0.73476073965E+01  0.53439584729E+01 -0.61324446753E+01  0.10961391544E+02  0.51100000000E-03 0.  1.
        -11    1    4    4    0    0  0.24019292066E+01 -0.67590313279E+01 -0.18424754428E+01  0.74059762640E+01  0.51100000000E-03 0. -1.
        -12    1    4    4    0    0 -0.20874265001E+02 -0.22485320026E+02  0.18832273204E+02  0.35999709305E+02  0.00000000000E+00 0.  1.
</event>
<event>
 8    1  0.3007389E-007  0.9118800E+02  0.7816164E-02  0.1184000E+00
        -11   -1    0    0    0    0  0.00000000000E+00  0.00000000000E+00  0.45593999997E+02  0.45594000000E+02  0.51100000000E-03 0.  1.
         11   -1    0    0    0    0 -0.00000000000E+00 -0.00000000000E+00 -0.45593999997E+02  0.45594000000E+02  0.51100000000E-03 0. -1.
         23    2    1    2    0    0  0.00000000000E+00  0.17763568394E-14 -0.17763568394E-14  0.91188000000E+02  0.91188000000E+02 0.  0.
    9900012    2    3    3    0    0  0.35426782597E+02 -0.70920228171E+01  0.71015007261E+01  0.54367013791E+02  0.39999839539E+02 0.  0.
         12    1    3    3    0    0 -0.35426782597E+02  0.70920228171E+01 -0.71015007261E+01  0.36820986209E+02  0.00000000000E+00 0. -1.
         11    1    4    4    0    0  0.50779828637E+01 -0.43140224925E+01  0.52489219512E+01  0.84822097322E+01  0.51100000000E-03 0. -1.
        -11    1    4    4    0    0  0.14692029255E+02  0.59914534972E+01  0.16373635740E+02  0.22800201452E+02  0.51100000000E-03 0.  1.
         12    1    4    4    0    0  0.15656770479E+02 -0.87694538218E+01 -0.14521056965E+02  0.23084602607E+02  0.00000000000E+00 0. -1.
</event>
<event>
 8    1  0.3007389E-007  0.9118800E+02  0.7816164E-02  0.1184000E+00
        -11   -1    0    0    0    0  0.00000000000E+00  0.00000000000E+00  0.45593999997E+02  0.45594000000E+02  0.51100000000E-03 0.  1.
         11   -1    0    0    0    0 -0.00000000000E+00 -0.00000000000E+00 -0.45593999997E+02  0.45594000000E+02  0.51100000000E-03 0. -1.
         23    2    1    2    0    0  0.17763568394E-14  0.17763568394E-14  0.35527136788E-14  0.91188000000E+02  0.91188000000E+02 0.  0.
    9900012    2    3    3    0    0 -0.14144153684E+02 -0.15345743280E+02 -0.30335293702E+02  0.54367096097E+02  0.40000027172E+02 0.  0.
        -12    1    3    3    0    0  0.14144153684E+02  0.15345743280E+02  0.30335293702E+02  0.36820903903E+02  0.00000000000E+00 0.  1.
         11    1    4    4    0    0 -0.10258544221E+02 -0.14700301296E+01 -0.20523056788E+02  0.22991184795E+02  0.51100000000E-03 0. -1.
        -11    1    4    4    0    0  0.53840253652E+01  0.36367737623E+01  0.36200653056E+01  0.74376559217E+01  0.51100000000E-03 0.  1.
         12    1    4    4    0    0 -0.92696348278E+01 -0.17512486913E+02 -0.13432302220E+02  0.23938255380E+02  0.00000000000E+00 0. -1.
</event>
<event>
 8    1  0.3007389E-007  0.9118800E+02  0.7816164E-02  0.1184000E+00
        -11   -1    0    0    0    0  0.00000000000E+00  0.00000000000E+00  0.45593999997E+02  0.45594000000E+02  0.51100000000E-03 0. -1.
         11   -1    0    0    0    0 -0.00000000000E+00 -0.00000000000E+00 -0.45593999997E+02  0.45594000000E+02  0.51100000000E-03 0.  1.
         23    2    1    2    0    0  0.00000000000E+00 -0.88817841970E-15 -0.35527136788E-14  0.91188000000E+02  0.91188000000E+02 0.  0.
    9900012    2    3    3    0    0  0.25015594181E+02 -0.50076790305E+01 -0.26550402012E+02  0.54367073226E+02  0.39999975034E+02 0.  0.
         12    1    3    3    0    0 -0.25015594181E+02  0.50076790305E+01  0.26550402012E+02  0.36820926774E+02  0.00000000000E+00 0. -1.
         11    1    4    4    0    0  0.31586911073E+01  0.13447122590E+00 -0.11448844154E+02  0.11877350073E+02  0.51100000000E-03 0. -1.
        -11    1    4    4    0    0  0.68829440498E+01  0.98447463350E+01 -0.17438874645E+02  0.21175653433E+02  0.51100000000E-03 0.  1.
         12    1    4    4    0    0  0.14973959024E+02 -0.14986896591E+02  0.23373167873E+01  0.21314069720E+02  0.00000000000E+00 0. -1.
</event>
<event>
 8    1  0.3007389E-007  0.9118800E+02  0.7816164E-02  0.1184000E+00
        -11   -1    0    0    0    0  0.00000000000E+00  0.00000000000E+00  0.45593999997E+02  0.45594000000E+02  0.51100000000E-03 0. -1.
         11   -1    0    0    0    0 -0.00000000000E+00 -0.00000000000E+00 -0.45593999997E+02  0.45594000000E+02  0.51100000000E-03 0.  1.
         23    2    1    2    0    0  0.00000000000E+00  0.00000000000E+00 -0.17763568394E-14  0.91188000000E+02  0.91188000000E+02 0.  0.
    9900012    2    3    3    0    0 -0.44818046717E+01 -0.33618226059E+02 -0.14335549483E+02  0.54367086439E+02  0.40000005155E+02 0.  0.
         12    1    3    3    0    0  0.44818046717E+01  0.33618226059E+02  0.14335549483E+02  0.36820913561E+02  0.00000000000E+00 0. -1.
         11    1    4    4    0    0  0.22123498627E+01 -0.36186665419E+02 -0.16330255532E+02  0.39762375333E+02  0.51100000000E-03 0.  1.
        -11    1    4    4    0    0 -0.70337498048E+01 -0.24802056062E+01  0.47507483318E+01  0.88427747986E+01  0.51100000000E-03 0. -1.
        -12    1    4    4    0    0  0.33959527042E+00  0.50486449664E+01 -0.27560422830E+01  0.57619363074E+01  0.00000000000E+00 0.  1.
</event>
<event>
 8    1  0.3007389E-007  0.9118800E+02  0.7816164E-02  0.1184000E+00
        -11   -1    0    0    0    0  0.00000000000E+00  0.00000000000E+00  0.45593999997E+02  0.45594000000E+02  0.51100000000E-03 0. -1.
         11   -1    0    0    0    0 -0.00000000000E+00 -0.00000000000E+00 -0.45593999997E+02  0.45594000000E+02  0.51100000000E-03 0.  1.
         23    2    1    2    0    0  0.88817841970E-15  0.17763568394E-14  0.00000000000E+00  0.91188000000E+02  0.91188000000E+02 0.  0.
    9900012    2    3    3    0    0  0.69754485116E+01  0.10675698489E+02  0.34542041307E+02  0.54367081518E+02  0.39999993937E+02 0.  0.
        -12    1    3    3    0    0 -0.69754485116E+01 -0.10675698489E+02 -0.34542041307E+02  0.36820918482E+02  0.00000000000E+00 0.  1.
         11    1    4    4    0    0 -0.74538899410E+01 -0.70577418891E+01  0.16419713231E+02  0.19364379119E+02  0.51100000000E-03 0. -1.
        -11    1    4    4    0    0  0.11779149703E+02 -0.16766223697E+00  0.59891010544E+01  0.13215362653E+02  0.51100000000E-03 0.  1.
        -12    1    4    4    0    0  0.26501887500E+01  0.17901102615E+02  0.12133227021E+02  0.21787339746E+02  0.00000000000E+00 0.  1.
</event>
<event>
 8    1  0.3007389E-007  0.9118800E+02  0.7816164E-02  0.1184000E+00
        -11   -1    0    0    0    0  0.00000000000E+00  0.00000000000E+00  0.45593999997E+02  0.45594000000E+02  0.51100000000E-03 0.  1.
         11   -1    0    0    0    0 -0.00000000000E+00 -0.00000000000E+00 -0.45593999997E+02  0.45594000000E+02  0.51100000000E-03 0. -1.
         23    2    1    2    0    0 -0.22204460493E-15  0.00000000000E+00  0.00000000000E+00  0.91188000000E+02  0.91188000000E+02 0.  0.
    9900012    2    3    3    0    0  0.17873874837E+01  0.31062870163E+02 -0.19689666459E+02  0.54367087164E+02  0.40000006809E+02 0.  0.
        -12    1    3    3    0    0 -0.17873874837E+01 -0.31062870163E+02  0.19689666459E+02  0.36820912836E+02  0.00000000000E+00 0.  1.
         11    1    4    4    0    0  0.14487977561E+02  0.14572575511E+02 -0.76360141015E+01  0.21921910556E+02  0.51100000000E-03 0. -1.
        -11    1    4    4    0    0 -0.17460550707E+01  0.14178872184E+02 -0.15155847802E+02  0.20827598219E+02  0.51100000000E-03 0.  1.
        -12    1    4    4    0    0 -0.10954535007E+02  0.23114224683E+01  0.31021954446E+01  0.11617578389E+02  0.00000000000E+00 0.  1.
</event>
<event>
 8    1  0.3007389E-007  0.9118800E+02  0.7816164E-02  0.1184000E+00
        -11   -1    0    0    0    0  0.00000000000E+00  0.00000000000E+00  0.45593999997E+02  0.45594000000E+02  0.51100000000E-03 0. -1.
         11   -1    0    0    0    0 -0.00000000000E+00 -0.00000000000E+00 -0.45593999997E+02  0.45594000000E+02  0.51100000000E-03 0.  1.
         23    2    1    2    0    0 -0.71054273576E-14  0.00000000000E+00  0.00000000000E+00  0.91188000000E+02  0.91188000000E+02 0.  0.
    9900012    2    3    3    0    0  0.32317720083E+02 -0.13117087149E+02  0.11801965314E+02  0.54367090290E+02  0.40000013934E+02 0.  0.
        -12    1    3    3    0    0 -0.32317720083E+02  0.13117087149E+02 -0.11801965314E+02  0.36820909710E+02  0.00000000000E+00 0.  1.
         11    1    4    4    0    0  0.14903419928E+01 -0.12134102590E+02  0.14671193366E+02  0.19097158950E+02  0.51100000000E-03 0. -1.
        -11    1    4    4    0    0  0.24474857968E+02 -0.73030393171E+01 -0.50773714326E+01  0.26040982254E+02  0.51100000000E-03 0.  1.
        -12    1    4    4    0    0  0.63525201218E+01  0.63200547581E+01  0.22081433799E+01  0.92289490859E+01  0.00000000000E+00 0.  1.
</event>
<event>
 8    1  0.3007389E-007  0.9118800E+02  0.7816164E-02  0.1184000E+00
        -11   -1    0    0    0    0  0.00000000000E+00  0.00000000000E+00  0.45593999997E+02  0.45594000000E+02  0.51100000000E-03 0. -1.
         11   -1    0    0    0    0 -0.00000000000E+00 -0.00000000000E+00 -0.45593999997E+02  0.45594000000E+02  0.51100000000E-03 0.  1.
         23    2    1    2    0    0  0.88817841970E-15 -0.88817841970E-15  0.00000000000E+00  0.91188000000E+02  0.91188000000E+02 0.  0.
    9900012    2    3    3    0    0 -0.49159196487E+01 -0.60782158154E+01 -0.35981566880E+02  0.54367025968E+02  0.39999867300E+02 0.  0.
         12    1    3    3    0    0  0.49159196487E+01  0.60782158154E+01  0.35981566880E+02  0.36820974032E+02  0.00000000000E+00 0. -1.
         11    1    4    4    0    0 -0.16931014851E+02 -0.52591762693E+00 -0.17520861318E+02  0.24370400793E+02  0.51100000000E-03 0. -1.
        -11    1    4    4    0    0 -0.14497780779E+01 -0.71102182482E+01 -0.13926520775E+02  0.15703663304E+02  0.51100000000E-03 0.  1.
        -12    1    4    4    0    0  0.13464873280E+02  0.15579200597E+01 -0.45341847872E+01  0.14292961871E+02  0.00000000000E+00 0.  1.
</event>
<event>
 8    1  0.3007389E-007  0.9118800E+02  0.7816164E-02  0.1184000E+00
        -11   -1    0    0    0    0  0.00000000000E+00  0.00000000000E+00  0.45593999997E+02  0.45594000000E+02  0.51100000000E-03 0. -1.
         11   -1    0    0    0    0 -0.00000000000E+00 -0.00000000000E+00 -0.45593999997E+02  0.45594000000E+02  0.51100000000E-03 0.  1.
         23    2    1    2    0    0  0.17763568394E-14 -0.35527136788E-14  0.17763568394E-14  0.91188000000E+02  0.91188000000E+02 0.  0.
    9900012    2    3    3    0    0  0.15653064242E+02 -0.30741715235E+02  0.12872764692E+02  0.54367088189E+02  0.40000009144E+02 0.  0.
        -12    1    3    3    0    0 -0.15653064242E+02  0.30741715235E+02 -0.12872764692E+02  0.36820911811E+02  0.00000000000E+00 0.  1.
         11    1    4    4    0    0  0.81563308398E+01 -0.93337023908E+01  0.12929921331E+02  0.17911633063E+02  0.51100000000E-03 0. -1.
        -11    1    4    4    0    0  0.61841971810E+01  0.51679285817E+01  0.48389925913E+01  0.94004058507E+01  0.51100000000E-03 0.  1.
         12    1    4    4    0    0  0.13125362217E+01 -0.26575941426E+02 -0.48961492303E+01  0.27055049275E+02  0.00000000000E+00 0. -1.
</event>
<event>
 8    1  0.3007389E-007  0.9118800E+02  0.7816164E-02  0.1184000E+00
        -11   -1    0    0    0    0  0.00000000000E+00  0.00000000000E+00  0.45593999997E+02  0.45594000000E+02  0.51100000000E-03 0. -1.
         11   -1    0    0    0    0 -0.00000000000E+00 -0.00000000000E+00 -0.45593999997E+02  0.45594000000E+02  0.51100000000E-03 0.  1.
         23    2    1    2    0    0  0.00000000000E+00  0.00000000000E+00  0.17763568394E-14  0.91188000000E+02  0.91188000000E+02 0.  0.
    9900012    2    3    3    0    0 -0.26209525166E+02  0.24194085478E+02 -0.91372270002E+01  0.54367056248E+02  0.39999936329E+02 0.  0.
        -12    1    3    3    0    0  0.26209525166E+02 -0.24194085478E+02  0.91372270002E+01  0.36820943752E+02  0.00000000000E+00 0.  1.
         11    1    4    4    0    0  0.41336276218E+01 -0.32164095152E+01 -0.41528963560E+01  0.66842139321E+01  0.51100000000E-03 0. -1.
        -11    1    4    4    0    0 -0.17418660673E+01  0.90644105764E+01 -0.96857937978E+01  0.13379545517E+02  0.51100000000E-03 0.  1.
         12    1    4    4    0    0 -0.28601286720E+02  0.18346084417E+02  0.47014631536E+01  0.34303296799E+02  0.00000000000E+00 0. -1.
</event>
<event>
 8    1  0.3007389E-007  0.9118800E+02  0.7816164E-02  0.1184000E+00
        -11   -1    0    0    0    0  0.00000000000E+00  0.00000000000E+00  0.45593999997E+02  0.45594000000E+02  0.51100000000E-03 0.  1.
         11   -1    0    0    0    0 -0.00000000000E+00 -0.00000000000E+00 -0.45593999997E+02  0.45594000000E+02  0.51100000000E-03 0. -1.
         23    2    1    2    0    0 -0.44408920985E-15  0.00000000000E+00  0.00000000000E+00  0.91188000000E+02  0.91188000000E+02 0.  0.
    9900012    2    3    3    0    0  0.60627302644E+00 -0.20143037044E+02  0.30816724340E+02  0.54367081932E+02  0.39999994880E+02 0.  0.
         12    1    3    3    0    0 -0.60627302644E+00  0.20143037044E+02 -0.30816724340E+02  0.36820918068E+02  0.00000000000E+00 0. -1.
         11    1    4    4    0    0  0.93036631324E+01  0.48666071882E+01 -0.14098097754E+01  0.10593846189E+02  0.51100000000E-03 0. -1.
        -11    1    4    4    0    0 -0.11062751423E+02 -0.11713112718E+02  0.17990709306E+02  0.24150509315E+02  0.51100000000E-03 0.  1.
         12    1    4    4    0    0  0.23653613169E+01 -0.13296531514E+02  0.14235824809E+02  0.19622726428E+02  0.00000000000E+00 0. -1.
</event>
<event>
 8    1  0.3007389E-007  0.9118800E+02  0.7816164E-02  0.1184000E+00
        -11   -1    0    0    0    0  0.00000000000E+00  0.00000000000E+00  0.45593999997E+02  0.45594000000E+02  0.51100000000E-03 0. -1.
         11   -1    0    0    0    0 -0.00000000000E+00 -0.00000000000E+00 -0.45593999997E+02  0.45594000000E+02  0.51100000000E-03 0.  1.
         23    2    1    2    0    0  0.00000000000E+00 -0.17763568394E-14  0.00000000000E+00  0.91188000000E+02  0.91188000000E+02 0.  0.
    9900012    2    3    3    0    0  0.56408729345E+01  0.10184899479E+02  0.34931780380E+02  0.54367069738E+02  0.39999967082E+02 0.  0.
        -12    1    3    3    0    0 -0.56408729345E+01 -0.10184899479E+02 -0.34931780380E+02  0.36820930262E+02  0.00000000000E+00 0.  1.
         11    1    4    4    0    0  0.10230334508E+02 -0.32578521678E+00  0.41297636662E+01  0.11037247317E+02  0.51100000000E-03 0. -1.
        -11    1    4    4    0    0  0.41363874008E+00  0.17202759531E+02  0.78681055021E+01  0.18921234551E+02  0.51100000000E-03 0.  1.
         12    1    4    4    0    0 -0.50031003133E+01 -0.66920748349E+01  0.22933911211E+02  0.24408587870E+02  0.00000000000E+00 0. -1.
</event>
<event>
 8    1  0.3007389E-007  0.9118800E+02  0.7816164E-02  0.1184000E+00
        -11   -1    0    0    0    0  0.00000000000E+00  0.00000000000E+00  0.45593999997E+02  0.45594000000E+02  0.51100000000E-03 0.  1.
         11   -1    0    0    0    0 -0.00000000000E+00 -0.00000000000E+00 -0.45593999997E+02  0.45594000000E+02  0.51100000000E-03 0. -1.
         23    2    1    2    0    0  0.88817841970E-15 -0.71054273576E-14  0.35527136788E-14  0.91188000000E+02  0.91188000000E+02 0.  0.
    9900012    2    3    3    0    0  0.64453856896E+01 -0.29540121733E+02  0.21015056408E+02  0.54366886701E+02  0.39999549811E+02 0.  0.
         12    1    3    3    0    0 -0.64453856896E+01  0.29540121733E+02 -0.21015056408E+02  0.36821113299E+02  0.00000000000E+00 0. -1.
         11    1    4    4    0    0 -0.85097793455E+00  0.61125449486E+01  0.77240401830E+01  0.98867672271E+01  0.51100000000E-03 0. -1.
        -11    1    4    4    0    0  0.77567214474E+01 -0.38646287584E+02  0.12227423978E+02  0.41269991144E+02  0.51100000000E-03 0.  1.
        -12    1    4    4    0    0 -0.46035782328E+00  0.29936209017E+01  0.10635922469E+01  0.32101283302E+01  0.00000000000E+00 0.  1.
</event>
<event>
 8    1  0.3007389E-007  0.9118800E+02  0.7816164E-02  0.1184000E+00
        -11   -1    0    0    0    0  0.00000000000E+00  0.00000000000E+00  0.45593999997E+02  0.45594000000E+02  0.51100000000E-03 0. -1.
         11   -1    0    0    0    0 -0.00000000000E+00 -0.00000000000E+00 -0.45593999997E+02  0.45594000000E+02  0.51100000000E-03 0.  1.
         23    2    1    2    0    0  0.00000000000E+00  0.00000000000E+00  0.00000000000E+00  0.91188000000E+02  0.91188000000E+02 0.  0.
    9900012    2    3    3    0    0  0.17570547554E+02 -0.13577419203E+02 -0.29371893359E+02  0.54367101409E+02  0.40000039282E+02 0.  0.
         12    1    3    3    0    0 -0.17570547554E+02  0.13577419203E+02  0.29371893359E+02  0.36820898591E+02  0.00000000000E+00 0. -1.
         11    1    4    4    0    0 -0.41074069723E+01  0.10986499008E+02 -0.10518667975E+02  0.15754882694E+02  0.51100000000E-03 0. -1.
        -11    1    4    4    0    0  0.20245158090E+02 -0.18450561285E+02 -0.15920858916E+02  0.31682225091E+02  0.51100000000E-03 0.  1.
         12    1    4    4    0    0  0.14327964353E+01 -0.61133569254E+01 -0.29323664686E+01  0.69299936240E+01  0.00000000000E+00 0. -1.
</event>
<event>
 8    1  0.3007389E-007  0.9118800E+02  0.7816164E-02  0.1184000E+00
        -11   -1    0    0    0    0  0.00000000000E+00  0.00000000000E+00  0.45593999997E+02  0.45594000000E+02  0.51100000000E-03 0. -1.
         11   -1    0    0    0    0 -0.00000000000E+00 -0.00000000000E+00 -0.45593999997E+02  0.45594000000E+02  0.51100000000E-03 0.  1.
         23    2    1    2    0    0 -0.22204460493E-15 -0.88817841970E-15  0.71054273576E-14  0.91188000000E+02  0.91188000000E+02 0.  0.
    9900012    2    3    3    0    0 -0.11291465446E+01  0.72674776238E+01 -0.36078924276E+02  0.54367082306E+02  0.39999995733E+02 0.  0.
         12    1    3    3    0    0  0.11291465446E+01 -0.72674776238E+01  0.36078924276E+02  0.36820917694E+02  0.00000000000E+00 0. -1.
         11    1    4    4    0    0 -0.40327387811E+01  0.77052358305E+01 -0.26768475868E+02  0.28145780178E+02  0.51100000000E-03 0.  1.
        -11    1    4    4    0    0  0.18780253304E+01 -0.83263580698E+01  0.49682574110E+01  0.98761733384E+01  0.51100000000E-03 0. -1.
         12    1    4    4    0    0  0.10255669061E+01  0.78885998631E+01 -0.14278705819E+02  0.16345128789E+02  0.00000000000E+00 0. -1.
</event>
<event>
 8    1  0.3007389E-007  0.9118800E+02  0.7816164E-02  0.1184000E+00
        -11   -1    0    0    0    0  0.00000000000E+00  0.00000000000E+00  0.45593999997E+02  0.45594000000E+02  0.51100000000E-03 0.  1.
         11   -1    0    0    0    0 -0.00000000000E+00 -0.00000000000E+00 -0.45593999997E+02  0.45594000000E+02  0.51100000000E-03 0. -1.
         23    2    1    2    0    0  0.35527136788E-14  0.17763568394E-14  0.00000000000E+00  0.91188000000E+02  0.91188000000E+02 0.  0.
    9900012    2    3    3    0    0 -0.31215240342E+02 -0.15682041931E+02  0.11638841386E+02  0.54367077991E+02  0.39999985897E+02 0.  0.
         12    1    3    3    0    0  0.31215240342E+02  0.15682041931E+02 -0.11638841386E+02  0.36820922009E+02  0.00000000000E+00 0. -1.
         11    1    4    4    0    0 -0.67527532164E+01 -0.20842729283E+02 -0.22106898702E+01  0.22020585595E+02  0.51100000000E-03 0. -1.
        -11    1    4    4    0    0 -0.12322721806E+02  0.53668181940E+00  0.14865392241E+02  0.19316246707E+02  0.51100000000E-03 0.  1.
        -12    1    4    4    0    0 -0.12139765320E+02  0.46240055326E+01 -0.10158609853E+01  0.13030245690E+02  0.00000000000E+00 0.  1.
</event>
<event>
 8    1  0.3007389E-007  0.9118800E+02  0.7816164E-02  0.1184000E+00
        -11   -1    0    0    0    0  0.00000000000E+00  0.00000000000E+00  0.45593999997E+02  0.45594000000E+02  0.51100000000E-03 0. -1.
         11   -1    0    0    0    0 -0.00000000000E+00 -0.00000000000E+00 -0.45593999997E+02  0.45594000000E+02  0.51100000000E-03 0.  1.
         23    2    1    2    0    0  0.00000000000E+00  0.00000000000E+00  0.00000000000E+00  0.91188000000E+02  0.91188000000E+02 0.  0.
    9900012    2    3    3    0    0 -0.25571094968E+02 -0.24122179760E+02  0.10955279570E+02  0.54367100979E+02  0.40000038302E+02 0.  0.
        -12    1    3    3    0    0  0.25571094968E+02  0.24122179760E+02 -0.10955279570E+02  0.36820899021E+02  0.00000000000E+00 0.  1.
         11    1    4    4    0    0 -0.24168539467E+02 -0.27597152408E+02  0.19844192019E+02  0.41707470292E+02  0.51100000000E-03 0. -1.
        -11    1    4    4    0    0  0.30666094933E+01  0.25292256673E+01 -0.21526083104E+01  0.45204865955E+01  0.51100000000E-03 0.  1.
        -12    1    4    4    0    0 -0.44691649941E+01  0.94574698014E+00 -0.67363041387E+01  0.81391440917E+01  0.00000000000E+00 0.  1.
</event>
<event>
 8    1  0.3007389E-007  0.9118800E+02  0.7816164E-02  0.1184000E+00
        -11   -1    0    0    0    0  0.00000000000E+00  0.00000000000E+00  0.45593999997E+02  0.45594000000E+02  0.51100000000E-03 0.  1.
         11   -1    0    0    0    0 -0.00000000000E+00 -0.00000000000E+00 -0.45593999997E+02  0.45594000000E+02  0.51100000000E-03 0. -1.
         23    2    1    2    0    0  0.35527136788E-14 -0.35527136788E-14 -0.17763568394E-14  0.91188000000E+02  0.91188000000E+02 0.  0.
    9900012    2    3    3    0    0  0.27458291324E+02 -0.21465671811E+02 -0.11876538512E+02  0.54367014194E+02  0.39999840457E+02 0.  0.
        -12    1    3    3    0    0 -0.27458291324E+02  0.21465671811E+02  0.11876538512E+02  0.36820985806E+02  0.00000000000E+00 0.  1.
         11    1    4    4    0    0  0.65089391379E+01 -0.28122712752E+02 -0.57289261915E+01  0.29429132790E+02  0.51100000000E-03 0. -1.
        -11    1    4    4    0    0  0.54471239576E+01  0.58732626325E+01  0.55701557176E+00  0.80297347384E+01  0.51100000000E-03 0.  1.
        -12    1    4    4    0    0  0.15502228228E+02  0.78377830806E+00 -0.67046278922E+01  0.16908146665E+02  0.00000000000E+00 0.  1.
</event>
<event>
 8    1  0.3007389E-007  0.9118800E+02  0.7816164E-02  0.1184000E+00
        -11   -1    0    0    0    0  0.00000000000E+00  0.00000000000E+00  0.45593999997E+02  0.45594000000E+02  0.51100000000E-03 0. -1.
         11   -1    0    0    0    0 -0.00000000000E+00 -0.00000000000E+00 -0.45593999997E+02  0.45594000000E+02  0.51100000000E-03 0.  1.
         23    2    1    2    0    0 -0.10658141036E-13 -0.71054273576E-14  0.00000000000E+00  0.91188000000E+02  0.91188000000E+02 0.  0.
    9900012    2    3    3    0    0 -0.28815253200E+02 -0.18499646741E+02 -0.13536013891E+02  0.54367089927E+02  0.40000013107E+02 0.  0.
         12    1    3    3    0    0  0.28815253200E+02  0.18499646741E+02  0.13536013891E+02  0.36820910073E+02  0.00000000000E+00 0. -1.
         11    1    4    4    0    0 -0.24318039386E+02 -0.82908226833E+01 -0.13382150129E+02  0.28968719729E+02  0.51100000000E-03 0.  1.
        -11    1    4    4    0    0 -0.12681997543E+02 -0.89900809434E+01  0.41240377172E+01  0.16082981826E+02  0.51100000000E-03 0. -1.
        -12    1    4    4    0    0  0.81847837294E+01 -0.12187431141E+01 -0.42779014786E+01  0.93153883728E+01  0.00000000000E+00 0.  1.
</event>
<event>
 8    1  0.3007389E-007  0.9118800E+02  0.7816164E-02  0.1184000E+00
        -11   -1    0    0    0    0  0.00000000000E+00  0.00000000000E+00  0.45593999997E+02  0.45594000000E+02  0.51100000000E-03 0.  1.
         11   -1    0    0    0    0 -0.00000000000E+00 -0.00000000000E+00 -0.45593999997E+02  0.45594000000E+02  0.51100000000E-03 0. -1.
         23    2    1    2    0    0 -0.35527136788E-14  0.00000000000E+00 -0.35527136788E-14  0.91188000000E+02  0.91188000000E+02 0.  0.
    9900012    2    3    3    0    0  0.16752057286E+02  0.23865097633E+02  0.22485673264E+02  0.54367084606E+02  0.40000000975E+02 0.  0.
         12    1    3    3    0    0 -0.16752057286E+02 -0.23865097633E+02 -0.22485673264E+02  0.36820915394E+02  0.00000000000E+00 0. -1.
         11    1    4    4    0    0  0.23479662564E+01  0.90543202099E+01 -0.85463165794E+01  0.12670169192E+02  0.51100000000E-03 0. -1.
        -11    1    4    4    0    0  0.82764530226E+01  0.85331538617E+01  0.29102000355E+01  0.12238613237E+02  0.51100000000E-03 0.  1.
         12    1    4    4    0    0  0.61276380070E+01  0.62776235612E+01  0.28121789808E+02  0.29458302177E+02  0.00000000000E+00 0. -1.
</event>
<event>
 8    1  0.3007389E-007  0.9118800E+02  0.7816164E-02  0.1184000E+00
        -11   -1    0    0    0    0  0.00000000000E+00  0.00000000000E+00  0.45593999997E+02  0.45594000000E+02  0.51100000000E-03 0.  1.
         11   -1    0    0    0    0 -0.00000000000E+00 -0.00000000000E+00 -0.45593999997E+02  0.45594000000E+02  0.51100000000E-03 0. -1.
         23    2    1    2    0    0  0.00000000000E+00  0.00000000000E+00 -0.35527136788E-14  0.91188000000E+02  0.91188000000E+02 0.  0.
    9900012    2    3    3    0    0 -0.15261357622E+02 -0.20964927322E+02 -0.26140812756E+02  0.54367091461E+02  0.40000016603E+02 0.  0.
        -12    1    3    3    0    0  0.15261357622E+02  0.20964927322E+02  0.26140812756E+02  0.36820908539E+02  0.00000000000E+00 0.  1.
         11    1    4    4    0    0 -0.11269582896E+02  0.56869392769E+01  0.26007376934E+01  0.12888313071E+02  0.51100000000E-03 0. -1.
        -11    1    4    4    0    0 -0.72228336038E+00  0.18040929060E+00 -0.63072470586E+01  0.63510319228E+01  0.51100000000E-03 0.  1.
        -12    1    4    4    0    0 -0.32694913658E+01 -0.26832275890E+02 -0.22434303391E+02  0.35127746467E+02  0.00000000000E+00 0.  1.
</event>
<event>
 8    1  0.3007389E-007  0.9118800E+02  0.7816164E-02  0.1184000E+00
        -11   -1    0    0    0    0  0.00000000000E+00  0.00000000000E+00  0.45593999997E+02  0.45594000000E+02  0.51100000000E-03 0.  1.
         11   -1    0    0    0    0 -0.00000000000E+00 -0.00000000000E+00 -0.45593999997E+02  0.45594000000E+02  0.51100000000E-03 0. -1.
         23    2    1    2    0    0  0.00000000000E+00 -0.26645352591E-14  0.35527136788E-14  0.91188000000E+02  0.91188000000E+02 0.  0.
    9900012    2    3    3    0    0 -0.25379256322E+02 -0.22290681592E+01 -0.26583914842E+02  0.54367083055E+02  0.39999997440E+02 0.  0.
        -12    1    3    3    0    0  0.25379256322E+02  0.22290681592E+01  0.26583914842E+02  0.36820916945E+02  0.00000000000E+00 0.  1.
         11    1    4    4    0    0 -0.40414927831E+01  0.10958316927E+02 -0.13823944018E+02  0.18097508178E+02  0.51100000000E-03 0. -1.
        -11    1    4    4    0    0 -0.11574207765E+01  0.19024919028E+01  0.49785487629E+01  0.54539019372E+01  0.51100000000E-03 0.  1.
         12    1    4    4    0    0 -0.20180342763E+02 -0.15089876989E+02 -0.17738519588E+02  0.30815672940E+02  0.00000000000E+00 0. -1.
</event>
<event>
 8    1  0.3007389E-007  0.9118800E+02  0.7816164E-02  0.1184000E+00
        -11   -1    0    0    0    0  0.00000000000E+00  0.00000000000E+00  0.45593999997E+02  0.45594000000E+02  0.51100000000E-03 0.  1.
         11   -1    0    0    0    0 -0.00000000000E+00 -0.00000000000E+00 -0.45593999997E+02  0.45594000000E+02  0.51100000000E-03 0. -1.
         23    2    1    2    0    0  0.35527136788E-14  0.35527136788E-14 -0.22204460493E-15  0.91188000000E+02  0.91188000000E+02 0.  0.
    9900012    2    3    3    0    0 -0.29093829921E+02 -0.22498150449E+02  0.17781367028E+01  0.54367089049E+02  0.40000011106E+02 0.  0.
         12    1    3    3    0    0  0.29093829921E+02  0.22498150449E+02 -0.17781367028E+01  0.36820910951E+02  0.00000000000E+00 0. -1.
         11    1    4    4    0    0 -0.42194633857E+01 -0.24698102695E+02 -0.48968618480E+01  0.25529970705E+02  0.51100000000E-03 0. -1.
        -11    1    4    4    0    0 -0.66309679133E+01  0.64891216118E+01  0.28935652193E+01  0.97185983917E+01  0.51100000000E-03 0.  1.
        -12    1    4    4    0    0 -0.18243398622E+02 -0.42891693656E+01  0.37814333316E+01  0.19118519953E+02  0.00000000000E+00 0.  1.
</event>
<event>
 8    1  0.3007389E-007  0.9118800E+02  0.7816164E-02  0.1184000E+00
        -11   -1    0    0    0    0  0.00000000000E+00  0.00000000000E+00  0.45593999997E+02  0.45594000000E+02  0.51100000000E-03 0.  1.
         11   -1    0    0    0    0 -0.00000000000E+00 -0.00000000000E+00 -0.45593999997E+02  0.45594000000E+02  0.51100000000E-03 0. -1.
         23    2    1    2    0    0  0.00000000000E+00 -0.71054273576E-14 -0.17763568394E-14  0.91188000000E+02  0.91188000000E+02 0.  0.
    9900012    2    3    3    0    0  0.21059049711E+02  0.28374517851E+02  0.10352916419E+02  0.54367085883E+02  0.40000003888E+02 0.  0.
         12    1    3    3    0    0 -0.21059049711E+02 -0.28374517851E+02 -0.10352916419E+02  0.36820914117E+02  0.00000000000E+00 0. -1.
         11    1    4    4    0    0 -0.21078426470E+01 -0.29997485489E+00  0.14432367092E+01  0.25721426862E+01  0.51100000000E-03 0. -1.
        -11    1    4    4    0    0  0.60643034798E+01  0.17775042996E+02  0.21008676721E+02  0.28179645633E+02  0.51100000000E-03 0.  1.
         12    1    4    4    0    0  0.17102588879E+02  0.10899449710E+02 -0.12098997011E+02  0.23615297564E+02  0.00000000000E+00 0. -1.
</event>
<event>
 8    1  0.3007389E-007  0.9118800E+02  0.7816164E-02  0.1184000E+00
        -11   -1    0    0    0    0  0.00000000000E+00  0.00000000000E+00  0.45593999997E+02  0.45594000000E+02  0.51100000000E-03 0. -1.
         11   -1    0    0    0    0 -0.00000000000E+00 -0.00000000000E+00 -0.45593999997E+02  0.45594000000E+02  0.51100000000E-03 0.  1.
         23    2    1    2    0    0  0.17763568394E-14 -0.35527136788E-14 -0.17763568394E-14  0.91188000000E+02  0.91188000000E+02 0.  0.
    9900012    2    3    3    0    0  0.15511151849E+02  0.29837332381E+02  0.14997474953E+02  0.54366993899E+02  0.39999794192E+02 0.  0.
        -12    1    3    3    0    0 -0.15511151849E+02 -0.29837332381E+02 -0.14997474953E+02  0.36821006101E+02  0.00000000000E+00 0.  1.
         11    1    4    4    0    0  0.20405169345E+01  0.17887582359E+01  0.16265087836E+02  0.16489889264E+02  0.51100000000E-03 0. -1.
        -11    1    4    4    0    0 -0.36410716278E+01  0.16174357181E+02  0.23254330175E+01  0.16741411882E+02  0.51100000000E-03 0.  1.
         12    1    4    4    0    0  0.17111706543E+02  0.11874216964E+02 -0.35930459005E+01  0.21135692753E+02  0.00000000000E+00 0. -1.
</event>
<event>
 8    1  0.3007389E-007  0.9118800E+02  0.7816164E-02  0.1184000E+00
        -11   -1    0    0    0    0  0.00000000000E+00  0.00000000000E+00  0.45593999997E+02  0.45594000000E+02  0.51100000000E-03 0. -1.
         11   -1    0    0    0    0 -0.00000000000E+00 -0.00000000000E+00 -0.45593999997E+02  0.45594000000E+02  0.51100000000E-03 0.  1.
         23    2    1    2    0    0  0.35527136788E-14  0.00000000000E+00  0.35527136788E-14  0.91188000000E+02  0.91188000000E+02 0.  0.
    9900012    2    3    3    0    0 -0.20113176668E+02 -0.99434378167E+01 -0.29195375354E+02  0.54367057951E+02  0.39999940212E+02 0.  0.
         12    1    3    3    0    0  0.20113176668E+02  0.99434378167E+01  0.29195375354E+02  0.36820942049E+02  0.00000000000E+00 0. -1.
         11    1    4    4    0    0 -0.15269392978E+01  0.65916340831E+01  0.28824204875E+01  0.73545585614E+01  0.51100000000E-03 0. -1.
        -11    1    4    4    0    0 -0.33793986918E+00  0.54026194323E+01 -0.80907219845E+01  0.97345920601E+01  0.51100000000E-03 0.  1.
        -12    1    4    4    0    0 -0.18248297501E+02 -0.21937691332E+02 -0.23987073857E+02  0.37277907330E+02  0.00000000000E+00 0.  1.
</event>
<event>
 8    1  0.3007389E-007  0.9118800E+02  0.7816164E-02  0.1184000E+00
        -11   -1    0    0    0    0  0.00000000000E+00  0.00000000000E+00  0.45593999997E+02  0.45594000000E+02  0.51100000000E-03 0.  1.
         11   -1    0    0    0    0 -0.00000000000E+00 -0.00000000000E+00 -0.45593999997E+02  0.45594000000E+02  0.51100000000E-03 0. -1.
         23    2    1    2    0    0  0.17763568394E-14  0.00000000000E+00  0.00000000000E+00  0.91188000000E+02  0.91188000000E+02 0.  0.
    9900012    2    3    3    0    0 -0.92270884250E+01  0.12074622994E+02 -0.33538690654E+02  0.54367089473E+02  0.40000012071E+02 0.  0.
        -12    1    3    3    0    0  0.92270884250E+01 -0.12074622994E+02  0.33538690654E+02  0.36820910527E+02  0.00000000000E+00 0.  1.
         11    1    4    4    0    0 -0.18700360607E+01  0.11761271017E+02 -0.27483061567E+02  0.29952348892E+02  0.51100000000E-03 0. -1.
        -11    1    4    4    0    0  0.18647908114E+01  0.45236808176E+01  0.65896347041E+01  0.82075830001E+01  0.51100000000E-03 0.  1.
         12    1    4    4    0    0 -0.92218431757E+01 -0.42103288401E+01 -0.12645263791E+02  0.16207157581E+02  0.00000000000E+00 0. -1.
</event>
<event>
 8    1  0.3007389E-007  0.9118800E+02  0.7816164E-02  0.1184000E+00
        -11   -1    0    0    0    0  0.00000000000E+00  0.00000000000E+00  0.45593999997E+02  0.45594000000E+02  0.51100000000E-03 0. -1.
         11   -1    0    0    0    0 -0.00000000000E+00 -0.00000000000E+00 -0.45593999997E+02  0.45594000000E+02  0.51100000000E-03 0.  1.
         23    2    1    2    0    0 -0.35527136788E-14 -0.35527136788E-14  0.17763568394E-14  0.91188000000E+02  0.91188000000E+02 0.  0.
    9900012    2    3    3    0    0  0.26056526573E+02 -0.22177543617E+02 -0.13601239368E+02  0.54367085695E+02  0.40000003459E+02 0.  0.
        -12    1    3    3    0    0 -0.26056526573E+02  0.22177543617E+02  0.13601239368E+02  0.36820914305E+02  0.00000000000E+00 0.  1.
         11    1    4    4    0    0 -0.30246425736E+01 -0.75351282903E+01  0.76043698508E+01  0.11124435363E+02  0.51100000000E-03 0. -1.
        -11    1    4    4    0    0  0.11951056629E+01 -0.91903140848E+01 -0.55029530602E+01  0.10778341392E+02  0.51100000000E-03 0.  1.
         12    1    4    4    0    0  0.27886063483E+02 -0.54521012415E+01 -0.15702656158E+02  0.32464308940E+02  0.00000000000E+00 0. -1.
</event>
<event>
 8    1  0.3007389E-007  0.9118800E+02  0.7816164E-02  0.1184000E+00
        -11   -1    0    0    0    0  0.00000000000E+00  0.00000000000E+00  0.45593999997E+02  0.45594000000E+02  0.51100000000E-03 0.  1.
         11   -1    0    0    0    0 -0.00000000000E+00 -0.00000000000E+00 -0.45593999997E+02  0.45594000000E+02  0.51100000000E-03 0. -1.
         23    2    1    2    0    0 -0.53290705182E-14  0.88817841970E-15  0.71054273576E-14  0.91188000000E+02  0.91188000000E+02 0.  0.
    9900012    2    3    3    0    0 -0.13600534364E+02  0.64649513258E+01  0.33600773455E+02  0.54367053415E+02  0.39999929870E+02 0.  0.
         12    1    3    3    0    0  0.13600534364E+02 -0.64649513258E+01 -0.33600773455E+02  0.36820946585E+02  0.00000000000E+00 0. -1.
         11    1    4    4    0    0 -0.20792711990E+01 -0.76404498479E+01  0.20600716647E+02  0.22070101251E+02  0.51100000000E-03 0.  1.
        -11    1    4    4    0    0 -0.14007389384E+02  0.14684269182E+02  0.17713285332E+02  0.26936874285E+02  0.51100000000E-03 0. -1.
        -12    1    4    4    0    0  0.24861262192E+01 -0.57886800781E+00 -0.47132285238E+01  0.53600778787E+01  0.00000000000E+00 0.  1.
</event>
<event>
 8    1  0.3007389E-007  0.9118800E+02  0.7816164E-02  0.1184000E+00
        -11   -1    0    0    0    0  0.00000000000E+00  0.00000000000E+00  0.45593999997E+02  0.45594000000E+02  0.51100000000E-03 0. -1.
         11   -1    0    0    0    0 -0.00000000000E+00 -0.00000000000E+00 -0.45593999997E+02  0.45594000000E+02  0.51100000000E-03 0.  1.
         23    2    1    2    0    0  0.00000000000E+00  0.35527136788E-14 -0.35527136788E-14  0.91188000000E+02  0.91188000000E+02 0.  0.
    9900012    2    3    3    0    0 -0.60304778103E+01  0.20794252823E+02  0.29782748514E+02  0.54367085805E+02  0.40000003709E+02 0.  0.
        -12    1    3    3    0    0  0.60304778103E+01 -0.20794252823E+02 -0.29782748514E+02  0.36820914195E+02  0.00000000000E+00 0.  1.
         11    1    4    4    0    0 -0.89348915363E+01  0.22602353251E+01 -0.18988340777E+01  0.94099161317E+01  0.51100000000E-03 0. -1.
        -11    1    4    4    0    0  0.26382486400E+01 -0.44908918979E+01 -0.66605236880E+00  0.52509134390E+01  0.51100000000E-03 0.  1.
         12    1    4    4    0    0  0.26616508595E+00  0.23024909396E+02  0.32347634961E+02  0.39706256234E+02  0.00000000000E+00 0. -1.
</event>
<event>
 8    1  0.3007389E-007  0.9118800E+02  0.7816164E-02  0.1184000E+00
        -11   -1    0    0    0    0  0.00000000000E+00  0.00000000000E+00  0.45593999997E+02  0.45594000000E+02  0.51100000000E-03 0. -1.
         11   -1    0    0    0    0 -0.00000000000E+00 -0.00000000000E+00 -0.45593999997E+02  0.45594000000E+02  0.51100000000E-03 0.  1.
         23    2    1    2    0    0  0.00000000000E+00 -0.88817841970E-15  0.71054273576E-14  0.91188000000E+02  0.91188000000E+02 0.  0.
    9900012    2    3    3    0    0 -0.86180465131E+01  0.79143505270E+01  0.34912333965E+02  0.54367099239E+02  0.40000034334E+02 0.  0.
        -12    1    3    3    0    0  0.86180465131E+01 -0.79143505270E+01 -0.34912333965E+02  0.36820900761E+02  0.00000000000E+00 0.  1.
         11    1    4    4    0    0  0.83464158328E+01  0.15048643088E+01 -0.14825295190E+01  0.86095974283E+01  0.51100000000E-03 0.  1.
        -11    1    4    4    0    0 -0.21826013081E+01 -0.50631096982E+01  0.20429488286E+02  0.21160406900E+02  0.51100000000E-03 0. -1.
        -12    1    4    4    0    0 -0.14781861038E+02  0.11472595916E+02  0.15965375198E+02  0.24597094910E+02  0.00000000000E+00 0.  1.
</event>
<event>
 8    1  0.3007389E-007  0.9118800E+02  0.7816164E-02  0.1184000E+00
        -11   -1    0    0    0    0  0.00000000000E+00  0.00000000000E+00  0.45593999997E+02  0.45594000000E+02  0.51100000000E-03 0.  1.
         11   -1    0    0    0    0 -0.00000000000E+00 -0.00000000000E+00 -0.45593999997E+02  0.45594000000E+02  0.51100000000E-03 0. -1.
         23    2    1    2    0    0  0.00000000000E+00 -0.35527136788E-14  0.26645352591E-14  0.91188000000E+02  0.91188000000E+02 0.  0.
    9900012    2    3    3    0    0 -0.31428669360E+02  0.18794680623E+02 -0.38442300296E+01  0.54367090424E+02  0.40000014240E+02 0.  0.
        -12    1    3    3    0    0  0.31428669360E+02 -0.18794680623E+02  0.38442300296E+01  0.36820909576E+02  0.00000000000E+00 0.  1.
         11    1    4    4    0    0 -0.95582139749E+01  0.13811705533E+02  0.15182120439E+02  0.22641100800E+02  0.51100000000E-03 0. -1.
        -11    1    4    4    0    0 -0.15170903268E+02 -0.58489063437E+00 -0.16980119029E+02  0.22777683058E+02  0.51100000000E-03 0.  1.
        -12    1    4    4    0    0 -0.66995521173E+01  0.55678657238E+01 -0.20462314402E+01  0.89483065660E+01  0.00000000000E+00 0.  1.
</event>
<event>
 8    1  0.3007389E-007  0.9118800E+02  0.7816164E-02  0.1184000E+00
        -11   -1    0    0    0    0  0.00000000000E+00  0.00000000000E+00  0.45593999997E+02  0.45594000000E+02  0.51100000000E-03 0. -1.
         11   -1    0    0    0    0 -0.00000000000E+00 -0.00000000000E+00 -0.45593999997E+02  0.45594000000E+02  0.51100000000E-03 0.  1.
         23    2    1    2    0    0 -0.35527136788E-14  0.35527136788E-14 -0.22204460493E-15  0.91188000000E+02  0.91188000000E+02 0.  0.
    9900012    2    3    3    0    0 -0.25598860839E+02  0.26461534917E+02 -0.51046613610E+00  0.54367148814E+02  0.40000147350E+02 0.  0.
        -12    1    3    3    0    0  0.25598860839E+02 -0.26461534917E+02  0.51046613610E+00  0.36820851186E+02  0.00000000000E+00 0.  1.
         11    1    4    4    0    0 -0.63773732645E+01  0.10371572323E+02  0.24956798906E+01  0.12428548611E+02  0.51100000000E-03 0. -1.
        -11    1    4    4    0    0  0.96282940631E+01  0.27884163148E+01 -0.14881450696E+01  0.10133799293E+02  0.51100000000E-03 0.  1.
        -12    1    4    4    0    0 -0.28849781637E+02  0.13301546280E+02 -0.15180009571E+01  0.31804800909E+02  0.00000000000E+00 0.  1.
</event>
<event>
 8    1  0.3007389E-007  0.9118800E+02  0.7816164E-02  0.1184000E+00
        -11   -1    0    0    0    0  0.00000000000E+00  0.00000000000E+00  0.45593999997E+02  0.45594000000E+02  0.51100000000E-03 0.  1.
         11   -1    0    0    0    0 -0.00000000000E+00 -0.00000000000E+00 -0.45593999997E+02  0.45594000000E+02  0.51100000000E-03 0. -1.
         23    2    1    2    0    0  0.00000000000E+00  0.00000000000E+00  0.00000000000E+00  0.91188000000E+02  0.91188000000E+02 0.  0.
    9900012    2    3    3    0    0 -0.15496558549E+02 -0.30698579186E+02 -0.13161684641E+02  0.54367135894E+02  0.40000117897E+02 0.  0.
        -12    1    3    3    0    0  0.15496558549E+02  0.30698579186E+02  0.13161684641E+02  0.36820864106E+02  0.00000000000E+00 0.  1.
         11    1    4    4    0    0 -0.15011546900E+02  0.52697688228E+01 -0.25440625093E+01  0.16111773897E+02  0.51100000000E-03 0.  1.
        -11    1    4    4    0    0 -0.26381412756E+01 -0.22092869221E+02 -0.35357036517E+01  0.22529000430E+02  0.51100000000E-03 0. -1.
        -12    1    4    4    0    0  0.21531296268E+01 -0.13875478788E+02 -0.70819184801E+01  0.15726361567E+02  0.00000000000E+00 0.  1.
</event>
<event>
 8    1  0.3007389E-007  0.9118800E+02  0.7816164E-02  0.1184000E+00
        -11   -1    0    0    0    0  0.00000000000E+00  0.00000000000E+00  0.45593999997E+02  0.45594000000E+02  0.51100000000E-03 0.  1.
         11   -1    0    0    0    0 -0.00000000000E+00 -0.00000000000E+00 -0.45593999997E+02  0.45594000000E+02  0.51100000000E-03 0. -1.
         23    2    1    2    0    0 -0.71054273576E-14  0.88817841970E-15 -0.17763568394E-14  0.91188000000E+02  0.91188000000E+02 0.  0.
    9900012    2    3    3    0    0  0.35475639763E+02 -0.18974221186E+01  0.96777565499E+01  0.54367079328E+02  0.39999988944E+02 0.  0.
        -12    1    3    3    0    0 -0.35475639763E+02  0.18974221186E+01 -0.96777565499E+01  0.36820920672E+02  0.00000000000E+00 0.  1.
         11    1    4    4    0    0 -0.53120640047E+01 -0.40300743086E+00 -0.39507175622E+01  0.66323908583E+01  0.51100000000E-03 0.  1.
        -11    1    4    4    0    0  0.42112399286E+02 -0.41798647937E+01  0.14292254997E+02  0.44667594478E+02  0.51100000000E-03 0. -1.
         12    1    4    4    0    0 -0.13246955184E+01  0.26854501059E+01 -0.66378088466E+00  0.30670939912E+01  0.00000000000E+00 0. -1.
</event>
<event>
 8    1  0.3007389E-007  0.9118800E+02  0.7816164E-02  0.1184000E+00
        -11   -1    0    0    0    0  0.00000000000E+00  0.00000000000E+00  0.45593999997E+02  0.45594000000E+02  0.51100000000E-03 0.  1.
         11   -1    0    0    0    0 -0.00000000000E+00 -0.00000000000E+00 -0.45593999997E+02  0.45594000000E+02  0.51100000000E-03 0. -1.
         23    2    1    2    0    0 -0.44408920985E-15 -0.88817841970E-15  0.00000000000E+00  0.91188000000E+02  0.91188000000E+02 0.  0.
    9900012    2    3    3    0    0  0.20182591299E+01 -0.32920705125E+01 -0.36617867826E+02  0.54367090963E+02  0.40000015468E+02 0.  0.
        -12    1    3    3    0    0 -0.20182591299E+01  0.32920705125E+01  0.36617867826E+02  0.36820909037E+02  0.00000000000E+00 0.  1.
         11    1    4    4    0    0 -0.38136683803E+01 -0.62013437042E+01 -0.22396855143E+02  0.23550368379E+02  0.51100000000E-03 0. -1.
        -11    1    4    4    0    0 -0.71534312248E+01 -0.39420422226E+01  0.25219670925E+01  0.85481924083E+01  0.51100000000E-03 0.  1.
        -12    1    4    4    0    0  0.12985358735E+02  0.68513154142E+01 -0.16742979776E+02  0.22268530175E+02  0.00000000000E+00 0.  1.
</event>
<event>
 8    1  0.3007389E-007  0.9118800E+02  0.7816164E-02  0.1184000E+00
        -11   -1    0    0    0    0  0.00000000000E+00  0.00000000000E+00  0.45593999997E+02  0.45594000000E+02  0.51100000000E-03 0.  1.
         11   -1    0    0    0    0 -0.00000000000E+00 -0.00000000000E+00 -0.45593999997E+02  0.45594000000E+02  0.51100000000E-03 0. -1.
         23    2    1    2    0    0 -0.35527136788E-14  0.00000000000E+00 -0.17763568394E-14  0.91188000000E+02  0.91188000000E+02 0.  0.
    9900012    2    3    3    0    0  0.31801189793E+02  0.15987186951E+02  0.94273101852E+01  0.54367082084E+02  0.39999995227E+02 0.  0.
        -12    1    3    3    0    0 -0.31801189793E+02 -0.15987186951E+02 -0.94273101852E+01  0.36820917916E+02  0.00000000000E+00 0.  1.
         11    1    4    4    0    0  0.95175346381E+01  0.10062084708E+02 -0.21108275602E+01  0.14010160867E+02  0.51100000000E-03 0. -1.
        -11    1    4    4    0    0  0.98237134732E+01 -0.64049899753E+01  0.18160822631E+02  0.21618157227E+02  0.51100000000E-03 0.  1.
        -12    1    4    4    0    0  0.12459941682E+02  0.12330092217E+02 -0.66226848854E+01  0.18738763990E+02  0.00000000000E+00 0.  1.
</event>
<event>
 8    1  0.3007389E-007  0.9118800E+02  0.7816164E-02  0.1184000E+00
        -11   -1    0    0    0    0  0.00000000000E+00  0.00000000000E+00  0.45593999997E+02  0.45594000000E+02  0.51100000000E-03 0. -1.
         11   -1    0    0    0    0 -0.00000000000E+00 -0.00000000000E+00 -0.45593999997E+02  0.45594000000E+02  0.51100000000E-03 0.  1.
         23    2    1    2    0    0  0.17763568394E-14  0.17763568394E-14  0.00000000000E+00  0.91188000000E+02  0.91188000000E+02 0.  0.
    9900012    2    3    3    0    0 -0.82683592734E+01  0.11508467521E+02 -0.33984868680E+02  0.54367056382E+02  0.39999936633E+02 0.  0.
         12    1    3    3    0    0  0.82683592734E+01 -0.11508467521E+02  0.33984868680E+02  0.36820943618E+02  0.00000000000E+00 0. -1.
         11    1    4    4    0    0 -0.86857226959E+01  0.67235956150E+01  0.35699288854E+01  0.11549584809E+02  0.51100000000E-03 0. -1.
        -11    1    4    4    0    0  0.46181200644E+01  0.11582909782E+02 -0.20731660744E+02  0.24192821030E+02  0.51100000000E-03 0.  1.
        -12    1    4    4    0    0 -0.42007566420E+01 -0.67980378757E+01 -0.16823136822E+02  0.18624650543E+02  0.00000000000E+00 0.  1.
</event>
<event>
 8    1  0.3007389E-007  0.9118800E+02  0.7816164E-02  0.1184000E+00
        -11   -1    0    0    0    0  0.00000000000E+00  0.00000000000E+00  0.45593999997E+02  0.45594000000E+02  0.51100000000E-03 0. -1.
         11   -1    0    0    0    0 -0.00000000000E+00 -0.00000000000E+00 -0.45593999997E+02  0.45594000000E+02  0.51100000000E-03 0.  1.
         23    2    1    2    0    0 -0.71054273576E-14  0.00000000000E+00  0.00000000000E+00  0.91188000000E+02  0.91188000000E+02 0.  0.
    9900012    2    3    3    0    0  0.27769429564E+02  0.16713621563E+02 -0.17472660840E+02  0.54367078761E+02  0.39999987651E+02 0.  0.
         12    1    3    3    0    0 -0.27769429564E+02 -0.16713621563E+02  0.17472660840E+02  0.36820921239E+02  0.00000000000E+00 0. -1.
         11    1    4    4    0    0  0.14881973377E+02  0.95879885973E+01 -0.96581884286E-01  0.17703445576E+02  0.51100000000E-03 0. -1.
        -11    1    4    4    0    0  0.17512485340E+02 -0.35439189462E+01 -0.29098459883E+01  0.18102864642E+02  0.51100000000E-03 0.  1.
         12    1    4    4    0    0 -0.46250291531E+01  0.10669551912E+02 -0.14466232967E+02  0.18560768543E+02  0.00000000000E+00 0. -1.
</event>
<event>
 8    1  0.3007389E-007  0.9118800E+02  0.7816164E-02  0.1184000E+00
        -11   -1    0    0    0    0  0.00000000000E+00  0.00000000000E+00  0.45593999997E+02  0.45594000000E+02  0.51100000000E-03 0. -1.
         11   -1    0    0    0    0 -0.00000000000E+00 -0.00000000000E+00 -0.45593999997E+02  0.45594000000E+02  0.51100000000E-03 0.  1.
         23    2    1    2    0    0 -0.35527136788E-14  0.35527136788E-14  0.35527136788E-14  0.91188000000E+02  0.91188000000E+02 0.  0.
    9900012    2    3    3    0    0  0.27079106391E+02  0.21980477173E+02  0.11805091615E+02  0.54367087902E+02  0.40000008491E+02 0.  0.
        -12    1    3    3    0    0 -0.27079106391E+02 -0.21980477173E+02 -0.11805091615E+02  0.36820912098E+02  0.00000000000E+00 0.  1.
         11    1    4    4    0    0  0.22169605549E+01  0.34101152298E+01  0.10121740567E+02  0.10908411082E+02  0.51100000000E-03 0. -1.
        -11    1    4    4    0    0  0.31297452922E+02  0.10621038160E+02 -0.24183519829E+00  0.33051406862E+02  0.51100000000E-03 0.  1.
        -12    1    4    4    0    0 -0.64353070864E+01  0.79493237828E+01  0.19251862470E+01  0.10407269958E+02  0.00000000000E+00 0.  1.
</event>
<event>
 8    1  0.3007389E-007  0.9118800E+02  0.7816164E-02  0.1184000E+00
        -11   -1    0    0    0    0  0.00000000000E+00  0.00000000000E+00  0.45593999997E+02  0.45594000000E+02  0.51100000000E-03 0.  1.
         11   -1    0    0    0    0 -0.00000000000E+00 -0.00000000000E+00 -0.45593999997E+02  0.45594000000E+02  0.51100000000E-03 0. -1.
         23    2    1    2    0    0  0.71054273576E-14  0.00000000000E+00  0.00000000000E+00  0.91188000000E+02  0.91188000000E+02 0.  0.
    9900012    2    3    3    0    0  0.29657002019E+02 -0.16096804672E+02 -0.14735485659E+02  0.54367089813E+02  0.40000012846E+02 0.  0.
         12    1    3    3    0    0 -0.29657002019E+02  0.16096804672E+02  0.14735485659E+02  0.36820910187E+02  0.00000000000E+00 0. -1.
         11    1    4    4    0    0  0.68890128892E+01 -0.95183455483E+01 -0.52570422942E+01  0.12872214048E+02  0.51100000000E-03 0. -1.
        -11    1    4    4    0    0  0.27613970032E+02 -0.47770827571E+01 -0.16693017879E+02  0.32619146322E+02  0.51100000000E-03 0.  1.
         12    1    4    4    0    0 -0.48459809018E+01 -0.18013763666E+01  0.72145745145E+01  0.88757294426E+01  0.00000000000E+00 0. -1.
</event>
<event>
 8    1  0.3007389E-007  0.9118800E+02  0.7816164E-02  0.1184000E+00
        -11   -1    0    0    0    0  0.00000000000E+00  0.00000000000E+00  0.45593999997E+02  0.45594000000E+02  0.51100000000E-03 0.  1.
         11   -1    0    0    0    0 -0.00000000000E+00 -0.00000000000E+00 -0.45593999997E+02  0.45594000000E+02  0.51100000000E-03 0. -1.
         23    2    1    2    0    0 -0.35527136788E-14  0.00000000000E+00  0.00000000000E+00  0.91188000000E+02  0.91188000000E+02 0.  0.
    9900012    2    3    3    0    0 -0.24177582503E+02  0.20920821617E+02  0.18263179057E+02  0.54367082276E+02  0.39999995663E+02 0.  0.
         12    1    3    3    0    0  0.24177582503E+02 -0.20920821617E+02 -0.18263179057E+02  0.36820917724E+02  0.00000000000E+00 0. -1.
         11    1    4    4    0    0  0.50812726897E+01  0.75001258476E+01  0.64507850305E+01  0.11121324006E+02  0.51100000000E-03 0. -1.
        -11    1    4    4    0    0 -0.29136439240E+02  0.15770895212E+02  0.20395710215E+01  0.33193569823E+02  0.51100000000E-03 0.  1.
         12    1    4    4    0    0 -0.12241595266E+00 -0.23501994424E+01  0.97728230046E+01  0.10052188446E+02  0.00000000000E+00 0. -1.
</event>
<event>
 8    1  0.3007389E-007  0.9118800E+02  0.7816164E-02  0.1184000E+00
        -11   -1    0    0    0    0  0.00000000000E+00  0.00000000000E+00  0.45593999997E+02  0.45594000000E+02  0.51100000000E-03 0.  1.
         11   -1    0    0    0    0 -0.00000000000E+00 -0.00000000000E+00 -0.45593999997E+02  0.45594000000E+02  0.51100000000E-03 0. -1.
         23    2    1    2    0    0 -0.44408920985E-15  0.17763568394E-14  0.00000000000E+00  0.91188000000E+02  0.91188000000E+02 0.  0.
    9900012    2    3    3    0    0  0.36543194485E+01 -0.15874765887E+02  0.33021498706E+02  0.54367060042E+02  0.39999944978E+02 0.  0.
         12    1    3    3    0    0 -0.36543194485E+01  0.15874765887E+02 -0.33021498706E+02  0.36820939958E+02  0.00000000000E+00 0. -1.
         11    1    4    4    0    0 -0.13224849629E+02  0.55456036063E+01  0.12292640069E+02  0.18888074735E+02  0.51100000000E-03 0. -1.
        -11    1    4    4    0    0  0.10534388550E+02 -0.79640432904E+01  0.58679900280E+01  0.14451042692E+02  0.51100000000E-03 0.  1.
         12    1    4    4    0    0  0.63447805268E+01 -0.13456326203E+02  0.14860868609E+02  0.21027942615E+02  0.00000000000E+00 0. -1.
</event>
<event>
 8    1  0.3007389E-007  0.9118800E+02  0.7816164E-02  0.1184000E+00
        -11   -1    0    0    0    0  0.00000000000E+00  0.00000000000E+00  0.45593999997E+02  0.45594000000E+02  0.51100000000E-03 0. -1.
         11   -1    0    0    0    0 -0.00000000000E+00 -0.00000000000E+00 -0.45593999997E+02  0.45594000000E+02  0.51100000000E-03 0.  1.
         23    2    1    2    0    0  0.00000000000E+00  0.00000000000E+00  0.00000000000E+00  0.91188000000E+02  0.91188000000E+02 0.  0.
    9900012    2    3    3    0    0 -0.15281092299E+02  0.83524682296E+01 -0.32442323432E+02  0.54367083973E+02  0.39999999534E+02 0.  0.
         12    1    3    3    0    0  0.15281092299E+02 -0.83524682296E+01  0.32442323432E+02  0.36820916027E+02  0.00000000000E+00 0. -1.
         11    1    4    4    0    0 -0.57376034267E+01  0.26254303614E+01  0.34870600489E+01  0.72092000742E+01  0.51100000000E-03 0. -1.
        -11    1    4    4    0    0  0.76036340470E+01 -0.55196302488E+01 -0.16046650687E+02  0.18595068361E+02  0.51100000000E-03 0.  1.
        -12    1    4    4    0    0 -0.17147122919E+02  0.11246668117E+02 -0.19882732794E+02  0.28562815539E+02  0.00000000000E+00 0.  1.
</event>
<event>
 8    1  0.3007389E-007  0.9118800E+02  0.7816164E-02  0.1184000E+00
        -11   -1    0    0    0    0  0.00000000000E+00  0.00000000000E+00  0.45593999997E+02  0.45594000000E+02  0.51100000000E-03 0. -1.
         11   -1    0    0    0    0 -0.00000000000E+00 -0.00000000000E+00 -0.45593999997E+02  0.45594000000E+02  0.51100000000E-03 0.  1.
         23    2    1    2    0    0  0.17763568394E-14  0.00000000000E+00  0.00000000000E+00  0.91188000000E+02  0.91188000000E+02 0.  0.
    9900012    2    3    3    0    0  0.10728832033E+02 -0.12717767528E+02 -0.32847049112E+02  0.54367108063E+02  0.40000054452E+02 0.  0.
         12    1    3    3    0    0 -0.10728832033E+02  0.12717767528E+02  0.32847049112E+02  0.36820891937E+02  0.00000000000E+00 0. -1.
         11    1    4    4    0    0  0.98605384088E+01  0.29930351308E+01 -0.16547886714E+02  0.19494128141E+02  0.51100000000E-03 0. -1.
        -11    1    4    4    0    0 -0.12267680434E+02 -0.32555969809E+01 -0.75406477908E+01  0.14763341908E+02  0.51100000000E-03 0.  1.
         12    1    4    4    0    0  0.13135974059E+02 -0.12455205678E+02 -0.87585146066E+01  0.20109638014E+02  0.00000000000E+00 0. -1.
</event>
<event>
 8    1  0.3007389E-007  0.9118800E+02  0.7816164E-02  0.1184000E+00
        -11   -1    0    0    0    0  0.00000000000E+00  0.00000000000E+00  0.45593999997E+02  0.45594000000E+02  0.51100000000E-03 0. -1.
         11   -1    0    0    0    0 -0.00000000000E+00 -0.00000000000E+00 -0.45593999997E+02  0.45594000000E+02  0.51100000000E-03 0.  1.
         23    2    1    2    0    0  0.35527136788E-14  0.00000000000E+00  0.00000000000E+00  0.91188000000E+02  0.91188000000E+02 0.  0.
    9900012    2    3    3    0    0  0.28490172695E+02  0.22492940218E+02 -0.61771781549E+01  0.54367084343E+02  0.40000000377E+02 0.  0.
         12    1    3    3    0    0 -0.28490172695E+02 -0.22492940218E+02  0.61771781549E+01  0.36820915657E+02  0.00000000000E+00 0. -1.
         11    1    4    4    0    0  0.85178898049E+01  0.55742822850E+01  0.15820094477E+02  0.18812295427E+02  0.51100000000E-03 0. -1.
        -11    1    4    4    0    0  0.15649214238E+02  0.12382606528E+02 -0.10717864979E+02  0.22651699289E+02  0.51100000000E-03 0.  1.
        -12    1    4    4    0    0  0.43230686515E+01  0.45360514052E+01 -0.11279407653E+02  0.12903089627E+02  0.00000000000E+00 0.  1.
</event>
<event>
 8    1  0.3007389E-007  0.9118800E+02  0.7816164E-02  0.1184000E+00
        -11   -1    0    0    0    0  0.00000000000E+00  0.00000000000E+00  0.45593999997E+02  0.45594000000E+02  0.51100000000E-03 0.  1.
         11   -1    0    0    0    0 -0.00000000000E+00 -0.00000000000E+00 -0.45593999997E+02  0.45594000000E+02  0.51100000000E-03 0. -1.
         23    2    1    2    0    0  0.00000000000E+00 -0.88817841970E-15 -0.35527136788E-14  0.91188000000E+02  0.91188000000E+02 0.  0.
    9900012    2    3    3    0    0 -0.25493841606E+02  0.42282692955E+01 -0.26229182936E+02  0.54367024205E+02  0.39999863279E+02 0.  0.
        -12    1    3    3    0    0  0.25493841606E+02 -0.42282692955E+01  0.26229182936E+02  0.36820975795E+02  0.00000000000E+00 0.  1.
         11    1    4    4    0    0 -0.25656232609E+01  0.53514910666E+01 -0.15134139768E+02  0.16256170094E+02  0.51100000000E-03 0. -1.
        -11    1    4    4    0    0  0.43901458823E+01  0.42558899311E+00  0.47579912267E+01  0.64879108836E+01  0.51100000000E-03 0.  1.
        -12    1    4    4    0    0 -0.27318364227E+02 -0.15488107642E+01 -0.15853034394E+02  0.31622943227E+02  0.00000000000E+00 0.  1.
</event>
<event>
 8    1  0.3007389E-007  0.9118800E+02  0.7816164E-02  0.1184000E+00
        -11   -1    0    0    0    0  0.00000000000E+00  0.00000000000E+00  0.45593999997E+02  0.45594000000E+02  0.51100000000E-03 0.  1.
         11   -1    0    0    0    0 -0.00000000000E+00 -0.00000000000E+00 -0.45593999997E+02  0.45594000000E+02  0.51100000000E-03 0. -1.
         23    2    1    2    0    0  0.00000000000E+00  0.00000000000E+00  0.35527136788E-14  0.91188000000E+02  0.91188000000E+02 0.  0.
    9900012    2    3    3    0    0 -0.16259396981E+02 -0.16296253147E+02  0.28737507769E+02  0.54367079186E+02  0.39999988621E+02 0.  0.
         12    1    3    3    0    0  0.16259396981E+02  0.16296253147E+02 -0.28737507769E+02  0.36820920814E+02  0.00000000000E+00 0. -1.
         11    1    4    4    0    0 -0.60899085362E+01 -0.14732519435E+02  0.24597931022E+01  0.16130241698E+02  0.51100000000E-03 0. -1.
        -11    1    4    4    0    0 -0.59320633473E+01  0.81346671292E+01  0.17425650240E+00  0.10069386796E+02  0.51100000000E-03 0.  1.
        -12    1    4    4    0    0 -0.42374250973E+01 -0.96984008411E+01  0.26103458165E+02  0.28167450692E+02  0.00000000000E+00 0.  1.
</event>
<event>
 8    1  0.3007389E-007  0.9118800E+02  0.7816164E-02  0.1184000E+00
        -11   -1    0    0    0    0  0.00000000000E+00  0.00000000000E+00  0.45593999997E+02  0.45594000000E+02  0.51100000000E-03 0. -1.
         11   -1    0    0    0    0 -0.00000000000E+00 -0.00000000000E+00 -0.45593999997E+02  0.45594000000E+02  0.51100000000E-03 0.  1.
         23    2    1    2    0    0 -0.17763568394E-14  0.00000000000E+00  0.00000000000E+00  0.91188000000E+02  0.91188000000E+02 0.  0.
    9900012    2    3    3    0    0 -0.51810035125E+01 -0.11018290563E+02 -0.34749596951E+02  0.54367081861E+02  0.39999994720E+02 0.  0.
         12    1    3    3    0    0  0.51810035125E+01  0.11018290563E+02  0.34749596951E+02  0.36820918139E+02  0.00000000000E+00 0. -1.
         11    1    4    4    0    0 -0.37665165467E+01  0.11840042415E+02 -0.91192229757E+01  0.15412121179E+02  0.51100000000E-03 0. -1.
        -11    1    4    4    0    0 -0.86736758531E+01 -0.14990785912E+02 -0.21185744264E+02  0.27364065403E+02  0.51100000000E-03 0.  1.
        -12    1    4    4    0    0  0.72591888873E+01 -0.78675470653E+01 -0.44446297109E+01  0.11590895280E+02  0.00000000000E+00 0.  1.
</event>
<event>
 8    1  0.3007389E-007  0.9118800E+02  0.7816164E-02  0.1184000E+00
        -11   -1    0    0    0    0  0.00000000000E+00  0.00000000000E+00  0.45593999997E+02  0.45594000000E+02  0.51100000000E-03 0.  1.
         11   -1    0    0    0    0 -0.00000000000E+00 -0.00000000000E+00 -0.45593999997E+02  0.45594000000E+02  0.51100000000E-03 0. -1.
         23    2    1    2    0    0  0.00000000000E+00 -0.17763568394E-14  0.35527136788E-14  0.91188000000E+02  0.91188000000E+02 0.  0.
    9900012    2    3    3    0    0  0.29346202158E+02 -0.95170201644E+01  0.20099925549E+02  0.54367078488E+02  0.39999987029E+02 0.  0.
         12    1    3    3    0    0 -0.29346202158E+02  0.95170201644E+01 -0.20099925549E+02  0.36820921512E+02  0.00000000000E+00 0. -1.
         11    1    4    4    0    0 -0.60750976115E+01 -0.21573004262E+01 -0.83546267916E+00  0.65006733703E+01  0.51100000000E-03 0. -1.
        -11    1    4    4    0    0  0.20165622147E+02 -0.74621179371E+01 -0.55774902064E+00  0.21509221393E+02  0.51100000000E-03 0.  1.
        -12    1    4    4    0    0  0.15255677622E+02  0.10239819894E+00  0.21493137249E+02  0.26357183725E+02  0.00000000000E+00 0.  1.
</event>
<event>
 8    1  0.3007389E-007  0.9118800E+02  0.7816164E-02  0.1184000E+00
        -11   -1    0    0    0    0  0.00000000000E+00  0.00000000000E+00  0.45593999997E+02  0.45594000000E+02  0.51100000000E-03 0. -1.
         11   -1    0    0    0    0 -0.00000000000E+00 -0.00000000000E+00 -0.45593999997E+02  0.45594000000E+02  0.51100000000E-03 0.  1.
         23    2    1    2    0    0  0.00000000000E+00  0.00000000000E+00  0.00000000000E+00  0.91188000000E+02  0.91188000000E+02 0.  0.
    9900012    2    3    3    0    0 -0.13828224955E+02 -0.10342945195E+02  0.32520488843E+02  0.54367102193E+02  0.40000041069E+02 0.  0.
        -12    1    3    3    0    0  0.13828224955E+02  0.10342945195E+02 -0.32520488843E+02  0.36820897807E+02  0.00000000000E+00 0.  1.
         11    1    4    4    0    0 -0.93081176499E+01 -0.74706041472E+01  0.98269087436E+01  0.15460243084E+02  0.51100000000E-03 0. -1.
        -11    1    4    4    0    0  0.27555781093E+01 -0.89719597944E+01 -0.42768584798E+01  0.10314106456E+02  0.51100000000E-03 0.  1.
        -12    1    4    4    0    0 -0.72756854147E+01  0.60996187468E+01  0.26970438579E+02  0.28592752653E+02  0.00000000000E+00 0.  1.
</event>
<event>
 8    1  0.3007389E-007  0.9118800E+02  0.7816164E-02  0.1184000E+00
        -11   -1    0    0    0    0  0.00000000000E+00  0.00000000000E+00  0.45593999997E+02  0.45594000000E+02  0.51100000000E-03 0.  1.
         11   -1    0    0    0    0 -0.00000000000E+00 -0.00000000000E+00 -0.45593999997E+02  0.45594000000E+02  0.51100000000E-03 0. -1.
         23    2    1    2    0    0  0.35527136788E-14 -0.17763568394E-14  0.00000000000E+00  0.91188000000E+02  0.91188000000E+02 0.  0.
    9900012    2    3    3    0    0 -0.29444776231E+02  0.80266227651E+01 -0.20599959673E+02  0.54367083949E+02  0.39999999479E+02 0.  0.
        -12    1    3    3    0    0  0.29444776231E+02 -0.80266227651E+01  0.20599959673E+02  0.36820916051E+02  0.00000000000E+00 0.  1.
         11    1    4    4    0    0 -0.27406310419E+02  0.60565416697E+01 -0.55148943238E+01  0.28604223595E+02  0.51100000000E-03 0. -1.
        -11    1    4    4    0    0 -0.83075637080E+01  0.62012102066E+01 -0.18665398887E+01  0.10533498669E+02  0.51100000000E-03 0.  1.
         12    1    4    4    0    0  0.62690978968E+01 -0.42311291112E+01 -0.13218525461E+02  0.15229361686E+02  0.00000000000E+00 0. -1.
</event>
<event>
 8    1  0.3007389E-007  0.9118800E+02  0.7816164E-02  0.1184000E+00
        -11   -1    0    0    0    0  0.00000000000E+00  0.00000000000E+00  0.45593999997E+02  0.45594000000E+02  0.51100000000E-03 0.  1.
         11   -1    0    0    0    0 -0.00000000000E+00 -0.00000000000E+00 -0.45593999997E+02  0.45594000000E+02  0.51100000000E-03 0. -1.
         23    2    1    2    0    0  0.00000000000E+00  0.00000000000E+00  0.35527136788E-14  0.91188000000E+02  0.91188000000E+02 0.  0.
    9900012    2    3    3    0    0 -0.25161050580E+02 -0.15513922659E+02  0.21954935743E+02  0.54367089283E+02  0.40000011638E+02 0.  0.
         12    1    3    3    0    0  0.25161050580E+02  0.15513922659E+02 -0.21954935743E+02  0.36820910717E+02  0.00000000000E+00 0. -1.
         11    1    4    4    0    0 -0.13735760166E+02 -0.11308179021E+02  0.23255133697E+02  0.29280492886E+02  0.51100000000E-03 0.  1.
        -11    1    4    4    0    0 -0.14686471639E+02 -0.87592991929E+01 -0.56343801230E+01  0.18004555290E+02  0.51100000000E-03 0. -1.
         12    1    4    4    0    0  0.32611812240E+01  0.45535555551E+01  0.43341821683E+01  0.70820411068E+01  0.00000000000E+00 0. -1.
</event>
<event>
 8    1  0.3007389E-007  0.9118800E+02  0.7816164E-02  0.1184000E+00
        -11   -1    0    0    0    0  0.00000000000E+00  0.00000000000E+00  0.45593999997E+02  0.45594000000E+02  0.51100000000E-03 0.  1.
         11   -1    0    0    0    0 -0.00000000000E+00 -0.00000000000E+00 -0.45593999997E+02  0.45594000000E+02  0.51100000000E-03 0. -1.
         23    2    1    2    0    0  0.71054273576E-14  0.17763568394E-14  0.53290705182E-14  0.91188000000E+02  0.91188000000E+02 0.  0.
    9900012    2    3    3    0    0  0.33689482072E+02  0.97562791758E+01  0.11207741494E+02  0.54367086717E+02  0.40000005788E+02 0.  0.
        -12    1    3    3    0    0 -0.33689482072E+02 -0.97562791758E+01 -0.11207741494E+02  0.36820913283E+02  0.00000000000E+00 0.  1.
         11    1    4    4    0    0  0.19856142404E+01  0.18049554644E+01  0.16399213869E+02  0.16617302547E+02  0.51100000000E-03 0.  1.
        -11    1    4    4    0    0  0.28807926052E+02  0.64201069720E+01  0.22690585849E+01  0.29601739882E+02  0.51100000000E-03 0. -1.
        -12    1    4    4    0    0  0.28959417800E+01  0.15312167394E+01 -0.74605309608E+01  0.81480442876E+01  0.00000000000E+00 0.  1.
</event>
<event>
 8    1  0.3007389E-007  0.9118800E+02  0.7816164E-02  0.1184000E+00
        -11   -1    0    0    0    0  0.00000000000E+00  0.00000000000E+00  0.45593999997E+02  0.45594000000E+02  0.51100000000E-03 0. -1.
         11   -1    0    0    0    0 -0.00000000000E+00 -0.00000000000E+00 -0.45593999997E+02  0.45594000000E+02  0.51100000000E-03 0.  1.
         23    2    1    2    0    0  0.17763568394E-14  0.71054273576E-14  0.88817841970E-15  0.91188000000E+02  0.91188000000E+02 0.  0.
    9900012    2    3    3    0    0 -0.14782253844E+02 -0.33544476843E+02 -0.34689228208E+01  0.54367076860E+02  0.39999983317E+02 0.  0.
        -12    1    3    3    0    0  0.14782253844E+02  0.33544476843E+02  0.34689228208E+01  0.36820923140E+02  0.00000000000E+00 0.  1.
         11    1    4    4    0    0  0.25480745275E+01 -0.61427805881E+01  0.13327910067E+02  0.14894952976E+02  0.51100000000E-03 0. -1.
        -11    1    4    4    0    0 -0.14020446796E+02 -0.16586688352E+02 -0.34717133197E+01  0.21994179969E+02  0.51100000000E-03 0.  1.
         12    1    4    4    0    0 -0.33098815754E+01 -0.10815007902E+02 -0.13325119568E+02  0.17477943914E+02  0.00000000000E+00 0. -1.
</event>
<event>
 8    1  0.3007389E-007  0.9118800E+02  0.7816164E-02  0.1184000E+00
        -11   -1    0    0    0    0  0.00000000000E+00  0.00000000000E+00  0.45593999997E+02  0.45594000000E+02  0.51100000000E-03 0.  1.
         11   -1    0    0    0    0 -0.00000000000E+00 -0.00000000000E+00 -0.45593999997E+02  0.45594000000E+02  0.51100000000E-03 0. -1.
         23    2    1    2    0    0 -0.99920072216E-15  0.17763568394E-14 -0.71054273576E-14  0.91188000000E+02  0.91188000000E+02 0.  0.
    9900012    2    3    3    0    0 -0.84795816049E+00  0.86993438873E+01  0.35768469227E+02  0.54367068345E+02  0.39999963905E+02 0.  0.
         12    1    3    3    0    0  0.84795816049E+00 -0.86993438873E+01 -0.35768469227E+02  0.36820931655E+02  0.00000000000E+00 0. -1.
         11    1    4    4    0    0 -0.10343147976E+02 -0.72742794496E+01  0.69344243232E+01  0.14421584258E+02  0.51100000000E-03 0. -1.
        -11    1    4    4    0    0  0.51466115096E+01 -0.23513753139E+01  0.16472434011E+02  0.17417165625E+02  0.51100000000E-03 0.  1.
         12    1    4    4    0    0  0.43485783059E+01  0.18324998651E+02  0.12361610893E+02  0.22528318461E+02  0.00000000000E+00 0. -1.
</event>
<event>
 8    1  0.3007389E-007  0.9118800E+02  0.7816164E-02  0.1184000E+00
        -11   -1    0    0    0    0  0.00000000000E+00  0.00000000000E+00  0.45593999997E+02  0.45594000000E+02  0.51100000000E-03 0. -1.
         11   -1    0    0    0    0 -0.00000000000E+00 -0.00000000000E+00 -0.45593999997E+02  0.45594000000E+02  0.51100000000E-03 0.  1.
         23    2    1    2    0    0  0.88817841970E-15 -0.35527136788E-14  0.00000000000E+00  0.91188000000E+02  0.91188000000E+02 0.  0.
    9900012    2    3    3    0    0  0.28218793534E+01  0.16310110946E+02 -0.32890732291E+02  0.54367041392E+02  0.39999902461E+02 0.  0.
         12    1    3    3    0    0 -0.28218793534E+01 -0.16310110946E+02  0.32890732291E+02  0.36820958608E+02  0.00000000000E+00 0. -1.
         11    1    4    4    0    0 -0.64132764166E-02  0.47270886899E+01 -0.24605814909E+01  0.53291528545E+01  0.51100000000E-03 0. -1.
        -11    1    4    4    0    0  0.57448492901E+01  0.23600527104E+02 -0.26756915576E+02  0.36137524879E+02  0.51100000000E-03 0.  1.
         12    1    4    4    0    0 -0.29165566602E+01 -0.12017504847E+02 -0.36732352240E+01  0.12900363658E+02  0.00000000000E+00 0. -1.
</event>
<event>
 8    1  0.3007389E-007  0.9118800E+02  0.7816164E-02  0.1184000E+00
        -11   -1    0    0    0    0  0.00000000000E+00  0.00000000000E+00  0.45593999997E+02  0.45594000000E+02  0.51100000000E-03 0.  1.
         11   -1    0    0    0    0 -0.00000000000E+00 -0.00000000000E+00 -0.45593999997E+02  0.45594000000E+02  0.51100000000E-03 0. -1.
         23    2    1    2    0    0  0.00000000000E+00  0.00000000000E+00  0.00000000000E+00  0.91188000000E+02  0.91188000000E+02 0.  0.
    9900012    2    3    3    0    0  0.14035262012E+02 -0.12689842039E+02  0.31587350019E+02  0.54367063674E+02  0.39999953257E+02 0.  0.
         12    1    3    3    0    0 -0.14035262012E+02  0.12689842039E+02 -0.31587350019E+02  0.36820936326E+02  0.00000000000E+00 0. -1.
         11    1    4    4    0    0 -0.11740050761E+01 -0.73140385996E+01 -0.72981890952E+01  0.10398894792E+02  0.51100000000E-03 0. -1.
        -11    1    4    4    0    0  0.31020215882E+01  0.40172900840E+01  0.77183466031E+01  0.92376421288E+01  0.51100000000E-03 0.  1.
         12    1    4    4    0    0  0.12107245500E+02 -0.93930935231E+01  0.31167192511E+02  0.34730526753E+02  0.00000000000E+00 0. -1.
</event>
<event>
 8    1  0.3007389E-007  0.9118800E+02  0.7816164E-02  0.1184000E+00
        -11   -1    0    0    0    0  0.00000000000E+00  0.00000000000E+00  0.45593999997E+02  0.45594000000E+02  0.51100000000E-03 0.  1.
         11   -1    0    0    0    0 -0.00000000000E+00 -0.00000000000E+00 -0.45593999997E+02  0.45594000000E+02  0.51100000000E-03 0. -1.
         23    2    1    2    0    0  0.00000000000E+00  0.00000000000E+00  0.00000000000E+00  0.91188000000E+02  0.91188000000E+02 0.  0.
    9900012    2    3    3    0    0  0.26193334653E+02  0.25811148944E+02 -0.18639662950E+01  0.54367074422E+02  0.39999977760E+02 0.  0.
         12    1    3    3    0    0 -0.26193334653E+02 -0.25811148944E+02  0.18639662950E+01  0.36820925578E+02  0.00000000000E+00 0. -1.
         11    1    4    4    0    0  0.14454169404E+02  0.22625696729E+02 -0.12418246525E+02  0.29581379492E+02  0.51100000000E-03 0. -1.
        -11    1    4    4    0    0  0.79967617298E+01 -0.75539456521E+01  0.43381674002E+01  0.11824973139E+02  0.51100000000E-03 0.  1.
        -12    1    4    4    0    0  0.37424035190E+01  0.10739397867E+02  0.62161128295E+01  0.12960721792E+02  0.00000000000E+00 0.  1.
</event>
<event>
 8    1  0.3007389E-007  0.9118800E+02  0.7816164E-02  0.1184000E+00
        -11   -1    0    0    0    0  0.00000000000E+00  0.00000000000E+00  0.45593999997E+02  0.45594000000E+02  0.51100000000E-03 0.  1.
         11   -1    0    0    0    0 -0.00000000000E+00 -0.00000000000E+00 -0.45593999997E+02  0.45594000000E+02  0.51100000000E-03 0. -1.
         23    2    1    2    0    0  0.31086244690E-14  0.00000000000E+00  0.00000000000E+00  0.91188000000E+02  0.91188000000E+02 0.  0.
    9900012    2    3    3    0    0 -0.30719555753E+01 -0.33829426403E+02  0.14209548858E+02  0.54367105381E+02  0.40000048336E+02 0.  0.
         12    1    3    3    0    0  0.30719555753E+01  0.33829426403E+02 -0.14209548858E+02  0.36820894619E+02  0.00000000000E+00 0. -1.
         11    1    4    4    0    0  0.22628673879E+01  0.57958577995E+01  0.18818925052E+01  0.65003120009E+01  0.51100000000E-03 0. -1.
        -11    1    4    4    0    0 -0.11189673039E+02 -0.38141892934E+02  0.82985351868E+01  0.40606384546E+02  0.51100000000E-03 0.  1.
        -12    1    4    4    0    0  0.58548500763E+01 -0.14833912685E+01  0.40291211656E+01  0.72604088341E+01  0.00000000000E+00 0.  1.
</event>
<event>
 8    1  0.3007389E-007  0.9118800E+02  0.7816164E-02  0.1184000E+00
        -11   -1    0    0    0    0  0.00000000000E+00  0.00000000000E+00  0.45593999997E+02  0.45594000000E+02  0.51100000000E-03 0.  1.
         11   -1    0    0    0    0 -0.00000000000E+00 -0.00000000000E+00 -0.45593999997E+02  0.45594000000E+02  0.51100000000E-03 0. -1.
         23    2    1    2    0    0  0.00000000000E+00  0.00000000000E+00  0.35527136788E-14  0.91188000000E+02  0.91188000000E+02 0.  0.
    9900012    2    3    3    0    0 -0.14751849730E+02  0.16756742972E+02 -0.29280954067E+02  0.54367085066E+02  0.40000002026E+02 0.  0.
        -12    1    3    3    0    0  0.14751849730E+02 -0.16756742972E+02  0.29280954067E+02  0.36820914934E+02  0.00000000000E+00 0.  1.
         11    1    4    4    0    0 -0.17771412655E+02  0.20055331389E+01 -0.13897172780E+01  0.17938132158E+02  0.51100000000E-03 0. -1.
        -11    1    4    4    0    0 -0.20728828641E+01 -0.23155294248E+01  0.25799515725E+00  0.31185063168E+01  0.51100000000E-03 0.  1.
         12    1    4    4    0    0  0.50924457887E+01  0.17066739258E+02 -0.28149231946E+02  0.33310446592E+02  0.00000000000E+00 0. -1.
</event>
<event>
 8    1  0.3007389E-007  0.9118800E+02  0.7816164E-02  0.1184000E+00
        -11   -1    0    0    0    0  0.00000000000E+00  0.00000000000E+00  0.45593999997E+02  0.45594000000E+02  0.51100000000E-03 0. -1.
         11   -1    0    0    0    0 -0.00000000000E+00 -0.00000000000E+00 -0.45593999997E+02  0.45594000000E+02  0.51100000000E-03 0.  1.
         23    2    1    2    0    0 -0.17763568394E-14  0.00000000000E+00  0.00000000000E+00  0.91188000000E+02  0.91188000000E+02 0.  0.
    9900012    2    3    3    0    0  0.11857820996E+02  0.33218508372E+02  0.10568639059E+02  0.54367172351E+02  0.40000201008E+02 0.  0.
        -12    1    3    3    0    0 -0.11857820996E+02 -0.33218508372E+02 -0.10568639059E+02  0.36820827649E+02  0.00000000000E+00 0.  1.
         11    1    4    4    0    0  0.14482452690E+02  0.54574273407E+01  0.38808631329E+01  0.15955752819E+02  0.51100000000E-03 0. -1.
        -11    1    4    4    0    0 -0.12279333584E+01  0.21419349747E+02 -0.75648851365E+01  0.22749150562E+02  0.51100000000E-03 0.  1.
         12    1    4    4    0    0 -0.13966983354E+01  0.63417312841E+01  0.14252661063E+02  0.15662268970E+02  0.00000000000E+00 0. -1.
</event>
<event>
 8    1  0.3007389E-007  0.9118800E+02  0.7816164E-02  0.1184000E+00
        -11   -1    0    0    0    0  0.00000000000E+00  0.00000000000E+00  0.45593999997E+02  0.45594000000E+02  0.51100000000E-03 0.  1.
         11   -1    0    0    0    0 -0.00000000000E+00 -0.00000000000E+00 -0.45593999997E+02  0.45594000000E+02  0.51100000000E-03 0. -1.
         23    2    1    2    0    0  0.17763568394E-14  0.00000000000E+00  0.00000000000E+00  0.91188000000E+02  0.91188000000E+02 0.  0.
    9900012    2    3    3    0    0 -0.14059316698E+02  0.31984789115E+02 -0.11622687019E+02  0.54367109540E+02  0.40000057818E+02 0.  0.
        -12    1    3    3    0    0  0.14059316698E+02 -0.31984789115E+02  0.11622687019E+02  0.36820890460E+02  0.00000000000E+00 0.  1.
         11    1    4    4    0    0 -0.24361783733E+02  0.20379202557E+02 -0.33415933324E+01  0.31937041970E+02  0.51100000000E-03 0. -1.
        -11    1    4    4    0    0  0.22206973493E+01 -0.18413768526E+01 -0.58922198925E+01  0.65605198691E+01  0.51100000000E-03 0.  1.
         12    1    4    4    0    0  0.80817696857E+01  0.13446963411E+02 -0.23888737937E+01  0.15869547701E+02  0.00000000000E+00 0. -1.
</event>
<event>
 8    1  0.3007389E-007  0.9118800E+02  0.7816164E-02  0.1184000E+00
        -11   -1    0    0    0    0  0.00000000000E+00  0.00000000000E+00  0.45593999997E+02  0.45594000000E+02  0.51100000000E-03 0.  1.
         11   -1    0    0    0    0 -0.00000000000E+00 -0.00000000000E+00 -0.45593999997E+02  0.45594000000E+02  0.51100000000E-03 0. -1.
         23    2    1    2    0    0 -0.88817841970E-15 -0.61062266354E-15  0.00000000000E+00  0.91188000000E+02  0.91188000000E+02 0.  0.
    9900012    2    3    3    0    0  0.64489122802E+01 -0.30065401929E+00 -0.36250547378E+02  0.54367067806E+02  0.39999962678E+02 0.  0.
        -12    1    3    3    0    0 -0.64489122802E+01  0.30065401929E+00  0.36250547378E+02  0.36820932194E+02  0.00000000000E+00 0.  1.
         11    1    4    4    0    0 -0.49095153419E+01 -0.17781991276E+02 -0.19603562547E+02  0.26918436422E+02  0.51100000000E-03 0. -1.
        -11    1    4    4    0    0  0.44526111549E+01  0.10807963514E+02 -0.12097247029E+02  0.16822045279E+02  0.51100000000E-03 0.  1.
        -12    1    4    4    0    0  0.69058164672E+01  0.66733737428E+01 -0.45497378022E+01  0.10626586106E+02  0.00000000000E+00 0.  1.
</event>
<event>
 8    1  0.3007389E-007  0.9118800E+02  0.7816164E-02  0.1184000E+00
        -11   -1    0    0    0    0  0.00000000000E+00  0.00000000000E+00  0.45593999997E+02  0.45594000000E+02  0.51100000000E-03 0.  1.
         11   -1    0    0    0    0 -0.00000000000E+00 -0.00000000000E+00 -0.45593999997E+02  0.45594000000E+02  0.51100000000E-03 0. -1.
         23    2    1    2    0    0  0.00000000000E+00  0.00000000000E+00 -0.35527136788E-14  0.91188000000E+02  0.91188000000E+02 0.  0.
    9900012    2    3    3    0    0  0.22708545778E+02 -0.96576924067E+01  0.27328224441E+02  0.54367069470E+02  0.39999966471E+02 0.  0.
         12    1    3    3    0    0 -0.22708545778E+02  0.96576924067E+01 -0.27328224441E+02  0.36820930530E+02  0.00000000000E+00 0. -1.
         11    1    4    4    0    0  0.13913972606E+02 -0.19174252777E+02  0.25275509891E+02  0.34642488417E+02  0.51100000000E-03 0. -1.
        -11    1    4    4    0    0 -0.12725293056E+01  0.63966437769E+01  0.56080985210E+01  0.86015784438E+01  0.51100000000E-03 0.  1.
         12    1    4    4    0    0  0.10067102478E+02  0.31199165938E+01 -0.35553839705E+01  0.11123002609E+02  0.00000000000E+00 0. -1.
</event>
<event>
 8    1  0.3007389E-007  0.9118800E+02  0.7816164E-02  0.1184000E+00
        -11   -1    0    0    0    0  0.00000000000E+00  0.00000000000E+00  0.45593999997E+02  0.45594000000E+02  0.51100000000E-03 0.  1.
         11   -1    0    0    0    0 -0.00000000000E+00 -0.00000000000E+00 -0.45593999997E+02  0.45594000000E+02  0.51100000000E-03 0. -1.
         23    2    1    2    0    0  0.35527136788E-14  0.00000000000E+00  0.17763568394E-14  0.91188000000E+02  0.91188000000E+02 0.  0.
    9900012    2    3    3    0    0 -0.30259996545E+02 -0.20159065212E+02  0.58072399500E+01  0.54367091036E+02  0.40000015634E+02 0.  0.
        -12    1    3    3    0    0  0.30259996545E+02  0.20159065212E+02 -0.58072399500E+01  0.36820908964E+02  0.00000000000E+00 0.  1.
         11    1    4    4    0    0 -0.22792961204E+02 -0.10719241583E+02  0.82464919855E+00  0.25201215588E+02  0.51100000000E-03 0. -1.
        -11    1    4    4    0    0 -0.38488681301E+01  0.42916977293E+01  0.12010042616E+02  0.13321921002E+02  0.51100000000E-03 0.  1.
         12    1    4    4    0    0 -0.36181672114E+01 -0.13731521358E+02 -0.70274518643E+01  0.15843954446E+02  0.00000000000E+00 0. -1.
</event>
<event>
 8    1  0.3007389E-007  0.9118800E+02  0.7816164E-02  0.1184000E+00
        -11   -1    0    0    0    0  0.00000000000E+00  0.00000000000E+00  0.45593999997E+02  0.45594000000E+02  0.51100000000E-03 0. -1.
         11   -1    0    0    0    0 -0.00000000000E+00 -0.00000000000E+00 -0.45593999997E+02  0.45594000000E+02  0.51100000000E-03 0.  1.
         23    2    1    2    0    0  0.17763568394E-14  0.35527136788E-14 -0.35527136788E-14  0.91188000000E+02  0.91188000000E+02 0.  0.
    9900012    2    3    3    0    0  0.96914050015E+01  0.23553157647E+02 -0.26591438168E+02  0.54367093576E+02  0.40000021424E+02 0.  0.
         12    1    3    3    0    0 -0.96914050015E+01 -0.23553157647E+02  0.26591438168E+02  0.36820906424E+02  0.00000000000E+00 0. -1.
         11    1    4    4    0    0 -0.37023563302E+01  0.11830235469E+02 -0.39353788329E+01  0.13005734138E+02  0.51100000000E-03 0. -1.
        -11    1    4    4    0    0 -0.28625315349E+01 -0.17121398678E+01  0.53488651168E+01  0.63036392675E+01  0.51100000000E-03 0.  1.
        -12    1    4    4    0    0  0.16256292867E+02  0.13435062046E+02 -0.28004924452E+02  0.35057720170E+02  0.00000000000E+00 0.  1.
</event>
<event>
 8    1  0.3007389E-007  0.9118800E+02  0.7816164E-02  0.1184000E+00
        -11   -1    0    0    0    0  0.00000000000E+00  0.00000000000E+00  0.45593999997E+02  0.45594000000E+02  0.51100000000E-03 0.  1.
         11   -1    0    0    0    0 -0.00000000000E+00 -0.00000000000E+00 -0.45593999997E+02  0.45594000000E+02  0.51100000000E-03 0. -1.
         23    2    1    2    0    0  0.35527136788E-14  0.00000000000E+00  0.35527136788E-14  0.91188000000E+02  0.91188000000E+02 0.  0.
    9900012    2    3    3    0    0 -0.16470300580E+02 -0.14174071529E+02 -0.29725495822E+02  0.54367079224E+02  0.39999988706E+02 0.  0.
        -12    1    3    3    0    0  0.16470300580E+02  0.14174071529E+02  0.29725495822E+02  0.36820920776E+02  0.00000000000E+00 0.  1.
         11    1    4    4    0    0 -0.67762044817E+01  0.13906225332E+01 -0.65378644538E+01  0.95181116870E+01  0.51100000000E-03 0. -1.
        -11    1    4    4    0    0 -0.21699237516E+02 -0.14535511544E+02 -0.13573924383E+02  0.29434493847E+02  0.51100000000E-03 0.  1.
        -12    1    4    4    0    0  0.12005141418E+02 -0.10291825189E+01 -0.96137069857E+01  0.15414473690E+02  0.00000000000E+00 0.  1.
</event>
<event>
 8    1  0.3007389E-007  0.9118800E+02  0.7816164E-02  0.1184000E+00
        -11   -1    0    0    0    0  0.00000000000E+00  0.00000000000E+00  0.45593999997E+02  0.45594000000E+02  0.51100000000E-03 0. -1.
         11   -1    0    0    0    0 -0.00000000000E+00 -0.00000000000E+00 -0.45593999997E+02  0.45594000000E+02  0.51100000000E-03 0.  1.
         23    2    1    2    0    0  0.00000000000E+00 -0.88817841970E-15  0.00000000000E+00  0.91188000000E+02  0.91188000000E+02 0.  0.
    9900012    2    3    3    0    0 -0.64907115644E+01 -0.46993889549E+01  0.35938352573E+02  0.54367098615E+02  0.40000032912E+02 0.  0.
        -12    1    3    3    0    0  0.64907115644E+01  0.46993889549E+01 -0.35938352573E+02  0.36820901385E+02  0.00000000000E+00 0.  1.
         11    1    4    4    0    0 -0.98835051532E+01  0.49077661657E+01  0.63245409053E+01  0.12718870263E+02  0.51100000000E-03 0. -1.
        -11    1    4    4    0    0 -0.27039951169E+01  0.13171821267E+01  0.28965207769E+02  0.29120951559E+02  0.51100000000E-03 0.  1.
        -12    1    4    4    0    0  0.60967887056E+01 -0.10924337247E+02  0.64860389865E+00  0.12527276792E+02  0.00000000000E+00 0.  1.
</event>
<event>
 8    1  0.3007389E-007  0.9118800E+02  0.7816164E-02  0.1184000E+00
        -11   -1    0    0    0    0  0.00000000000E+00  0.00000000000E+00  0.45593999997E+02  0.45594000000E+02  0.51100000000E-03 0.  1.
         11   -1    0    0    0    0 -0.00000000000E+00 -0.00000000000E+00 -0.45593999997E+02  0.45594000000E+02  0.51100000000E-03 0. -1.
         23    2    1    2    0    0  0.00000000000E+00  0.00000000000E+00  0.00000000000E+00  0.91188000000E+02  0.91188000000E+02 0.  0.
    9900012    2    3    3    0    0  0.86913874733E+01 -0.32262700126E+02  0.15471176794E+02  0.54367090899E+02  0.40000015323E+02 0.  0.
        -12    1    3    3    0    0 -0.86913874733E+01  0.32262700126E+02 -0.15471176794E+02  0.36820909101E+02  0.00000000000E+00 0.  1.
         11    1    4    4    0    0 -0.59606959935E+01 -0.45047014891E+01 -0.75755810041E+01  0.10640096806E+02  0.51100000000E-03 0. -1.
        -11    1    4    4    0    0 -0.47083771546E+01 -0.33780373431E+01  0.19257466781E+01  0.61064271265E+01  0.51100000000E-03 0.  1.
        -12    1    4    4    0    0  0.19360460621E+02 -0.24379961294E+02  0.21121011120E+02  0.37620566967E+02  0.00000000000E+00 0.  1.
</event>
<event>
 8    1  0.3007389E-007  0.9118800E+02  0.7816164E-02  0.1184000E+00
        -11   -1    0    0    0    0  0.00000000000E+00  0.00000000000E+00  0.45593999997E+02  0.45594000000E+02  0.51100000000E-03 0. -1.
         11   -1    0    0    0    0 -0.00000000000E+00 -0.00000000000E+00 -0.45593999997E+02  0.45594000000E+02  0.51100000000E-03 0.  1.
         23    2    1    2    0    0  0.00000000000E+00  0.00000000000E+00  0.00000000000E+00  0.91188000000E+02  0.91188000000E+02 0.  0.
    9900012    2    3    3    0    0 -0.27374461263E+02 -0.23172125551E+02  0.83349405417E+01  0.54367085212E+02  0.40000002357E+02 0.  0.
        -12    1    3    3    0    0  0.27374461263E+02  0.23172125551E+02 -0.83349405417E+01  0.36820914788E+02  0.00000000000E+00 0.  1.
         11    1    4    4    0    0 -0.94393268688E+01 -0.25411503928E+02  0.11148478333E+02  0.29310987582E+02  0.51100000000E-03 0. -1.
        -11    1    4    4    0    0 -0.81354028783E+01 -0.56976120184E+01 -0.65571671853E+01  0.11901428673E+02  0.51100000000E-03 0.  1.
        -12    1    4    4    0    0 -0.97997315158E+01  0.79369903954E+01  0.37436293939E+01  0.13154668957E+02  0.00000000000E+00 0.  1.
</event>
<event>
 8    1  0.3007389E-007  0.9118800E+02  0.7816164E-02  0.1184000E+00
        -11   -1    0    0    0    0  0.00000000000E+00  0.00000000000E+00  0.45593999997E+02  0.45594000000E+02  0.51100000000E-03 0. -1.
         11   -1    0    0    0    0 -0.00000000000E+00 -0.00000000000E+00 -0.45593999997E+02  0.45594000000E+02  0.51100000000E-03 0.  1.
         23    2    1    2    0    0  0.00000000000E+00  0.00000000000E+00 -0.35527136788E-14  0.91188000000E+02  0.91188000000E+02 0.  0.
    9900012    2    3    3    0    0 -0.17503349931E+02 -0.96710828796E+01 -0.30917354365E+02  0.54367083338E+02  0.39999998086E+02 0.  0.
         12    1    3    3    0    0  0.17503349931E+02  0.96710828796E+01  0.30917354365E+02  0.36820916662E+02  0.00000000000E+00 0. -1.
         11    1    4    4    0    0 -0.10715735261E+02 -0.18702650583E+02 -0.25472636071E+02  0.33368717531E+02  0.51100000000E-03 0. -1.
        -11    1    4    4    0    0 -0.35611016999E-01 -0.31401913776E+01  0.33038311680E+01  0.45582201220E+01  0.51100000000E-03 0.  1.
        -12    1    4    4    0    0 -0.67520036535E+01  0.12171759081E+02 -0.87485494626E+01  0.16440145685E+02  0.00000000000E+00 0.  1.
</event>
<event>
 8    1  0.3007389E-007  0.9118800E+02  0.7816164E-02  0.1184000E+00
        -11   -1    0    0    0    0  0.00000000000E+00  0.00000000000E+00  0.45593999997E+02  0.45594000000E+02  0.51100000000E-03 0. -1.
         11   -1    0    0    0    0 -0.00000000000E+00 -0.00000000000E+00 -0.45593999997E+02  0.45594000000E+02  0.51100000000E-03 0.  1.
         23    2    1    2    0    0  0.00000000000E+00  0.17763568394E-14  0.00000000000E+00  0.91188000000E+02  0.91188000000E+02 0.  0.
    9900012    2    3    3    0    0 -0.21542299284E+02 -0.11631267148E+02 -0.27503172081E+02  0.54367061549E+02  0.39999948413E+02 0.  0.
         12    1    3    3    0    0  0.21542299284E+02  0.11631267148E+02  0.27503172081E+02  0.36820938451E+02  0.00000000000E+00 0. -1.
         11    1    4    4    0    0 -0.18821594928E+02  0.38635756258E+01 -0.32933292388E+01  0.19494247100E+02  0.51100000000E-03 0. -1.
        -11    1    4    4    0    0 -0.73376172021E+01  0.14427268420E+01 -0.84156894548E+01  0.11258148880E+02  0.51100000000E-03 0.  1.
        -12    1    4    4    0    0  0.46169128455E+01 -0.16937569616E+02 -0.15794153387E+02  0.23614665569E+02  0.00000000000E+00 0.  1.
</event>
<event>
 8    1  0.3007389E-007  0.9118800E+02  0.7816164E-02  0.1184000E+00
        -11   -1    0    0    0    0  0.00000000000E+00  0.00000000000E+00  0.45593999997E+02  0.45594000000E+02  0.51100000000E-03 0.  1.
         11   -1    0    0    0    0 -0.00000000000E+00 -0.00000000000E+00 -0.45593999997E+02  0.45594000000E+02  0.51100000000E-03 0. -1.
         23    2    1    2    0    0 -0.35527136788E-14 -0.17763568394E-14  0.10658141036E-13  0.91188000000E+02  0.91188000000E+02 0.  0.
    9900012    2    3    3    0    0  0.25074484949E+02  0.13278954278E+02 -0.23467398858E+02  0.54367092469E+02  0.40000018902E+02 0.  0.
         12    1    3    3    0    0 -0.25074484949E+02 -0.13278954278E+02  0.23467398858E+02  0.36820907531E+02  0.00000000000E+00 0. -1.
         11    1    4    4    0    0 -0.34043401474E+01  0.16262617674E+02 -0.14190633162E+02  0.21850316594E+02  0.51100000000E-03 0. -1.
        -11    1    4    4    0    0  0.28843011188E+02 -0.47355373687E+01 -0.94505991149E+01  0.30719023950E+02  0.51100000000E-03 0.  1.
         12    1    4    4    0    0 -0.36418609120E+00  0.17518739727E+01  0.17383341892E+00  0.17977519247E+01  0.00000000000E+00 0. -1.
</event>
<event>
 8    1  0.3007389E-007  0.9118800E+02  0.7816164E-02  0.1184000E+00
        -11   -1    0    0    0    0  0.00000000000E+00  0.00000000000E+00  0.45593999997E+02  0.45594000000E+02  0.51100000000E-03 0. -1.
         11   -1    0    0    0    0 -0.00000000000E+00 -0.00000000000E+00 -0.45593999997E+02  0.45594000000E+02  0.51100000000E-03 0.  1.
         23    2    1    2    0    0 -0.88817841970E-15 -0.71054273576E-14  0.17763568394E-14  0.91188000000E+02  0.91188000000E+02 0.  0.
    9900012    2    3    3    0    0 -0.67667188510E+01 -0.35407586660E+02  0.75029340122E+01  0.54367086162E+02  0.40000004523E+02 0.  0.
         12    1    3    3    0    0  0.67667188510E+01  0.35407586660E+02 -0.75029340122E+01  0.36820913838E+02  0.00000000000E+00 0. -1.
         11    1    4    4    0    0 -0.21440428465E+01  0.43794776091E+01 -0.28191592378E+01  0.56324420037E+01  0.51100000000E-03 0. -1.
        -11    1    4    4    0    0  0.15393474197E+01 -0.34695844427E+02 -0.11541038063E+01  0.34749146275E+02  0.51100000000E-03 0.  1.
         12    1    4    4    0    0 -0.61620234242E+01 -0.50912198426E+01  0.11476197056E+02  0.13985497883E+02  0.00000000000E+00 0. -1.
</event>
<event>
 8    1  0.3007389E-007  0.9118800E+02  0.7816164E-02  0.1184000E+00
        -11   -1    0    0    0    0  0.00000000000E+00  0.00000000000E+00  0.45593999997E+02  0.45594000000E+02  0.51100000000E-03 0.  1.
         11   -1    0    0    0    0 -0.00000000000E+00 -0.00000000000E+00 -0.45593999997E+02  0.45594000000E+02  0.51100000000E-03 0. -1.
         23    2    1    2    0    0 -0.17763568394E-14  0.22204460493E-15  0.71054273576E-14  0.91188000000E+02  0.91188000000E+02 0.  0.
    9900012    2    3    3    0    0 -0.85276235155E+01 -0.15444971338E+01  0.35786513050E+02  0.54367077273E+02  0.39999984259E+02 0.  0.
         12    1    3    3    0    0  0.85276235155E+01  0.15444971338E+01 -0.35786513050E+02  0.36820922727E+02  0.00000000000E+00 0. -1.
         11    1    4    4    0    0 -0.11925291181E+02 -0.22607100244E+01  0.44181077426E+01  0.12916774204E+02  0.51100000000E-03 0. -1.
        -11    1    4    4    0    0 -0.51568349347E+01 -0.10577608571E+02  0.83796353305E+01  0.14446350340E+02  0.51100000000E-03 0.  1.
         12    1    4    4    0    0  0.85545026000E+01  0.11293821461E+02  0.22988769977E+02  0.27003952728E+02  0.00000000000E+00 0. -1.
</event>
<event>
 8    1  0.3007389E-007  0.9118800E+02  0.7816164E-02  0.1184000E+00
        -11   -1    0    0    0    0  0.00000000000E+00  0.00000000000E+00  0.45593999997E+02  0.45594000000E+02  0.51100000000E-03 0.  1.
         11   -1    0    0    0    0 -0.00000000000E+00 -0.00000000000E+00 -0.45593999997E+02  0.45594000000E+02  0.51100000000E-03 0. -1.
         23    2    1    2    0    0  0.00000000000E+00  0.00000000000E+00 -0.35527136788E-14  0.91188000000E+02  0.91188000000E+02 0.  0.
    9900012    2    3    3    0    0 -0.26461570782E+02 -0.19067758768E+02  0.17087603037E+02  0.54367077548E+02  0.39999984886E+02 0.  0.
         12    1    3    3    0    0  0.26461570782E+02  0.19067758768E+02 -0.17087603037E+02  0.36820922452E+02  0.00000000000E+00 0. -1.
         11    1    4    4    0    0 -0.15669712361E+00  0.40863737271E+01  0.31917544440E+01  0.51875139438E+01  0.51100000000E-03 0. -1.
        -11    1    4    4    0    0  0.20506321636E+01 -0.14815772630E+02 -0.28250670142E+01  0.15221472162E+02  0.51100000000E-03 0.  1.
         12    1    4    4    0    0 -0.28355505822E+02 -0.83383598654E+01  0.16720915607E+02  0.33958091442E+02  0.00000000000E+00 0. -1.
</event>
<event>
 8    1  0.3007389E-007  0.9118800E+02  0.7816164E-02  0.1184000E+00
        -11   -1    0    0    0    0  0.00000000000E+00  0.00000000000E+00  0.45593999997E+02  0.45594000000E+02  0.51100000000E-03 0.  1.
         11   -1    0    0    0    0 -0.00000000000E+00 -0.00000000000E+00 -0.45593999997E+02  0.45594000000E+02  0.51100000000E-03 0. -1.
         23    2    1    2    0    0  0.00000000000E+00 -0.35527136788E-14 -0.35527136788E-14  0.91188000000E+02  0.91188000000E+02 0.  0.
    9900012    2    3    3    0    0 -0.24563384755E+02  0.16694026740E+02  0.21765322592E+02  0.54367086555E+02  0.40000005419E+02 0.  0.
         12    1    3    3    0    0  0.24563384755E+02 -0.16694026740E+02 -0.21765322592E+02  0.36820913445E+02  0.00000000000E+00 0. -1.
         11    1    4    4    0    0 -0.15072850428E+02  0.77979786679E+00  0.24851840816E+02  0.29075984883E+02  0.51100000000E-03 0. -1.
        -11    1    4    4    0    0 -0.66062495205E+01  0.13929015677E+02  0.52206033476E+01  0.16276200724E+02  0.51100000000E-03 0.  1.
         12    1    4    4    0    0 -0.28842848069E+01  0.19852131965E+01 -0.83071215718E+01  0.90149009474E+01  0.00000000000E+00 0. -1.
</event>
<event>
 8    1  0.3007389E-007  0.9118800E+02  0.7816164E-02  0.1184000E+00
        -11   -1    0    0    0    0  0.00000000000E+00  0.00000000000E+00  0.45593999997E+02  0.45594000000E+02  0.51100000000E-03 0.  1.
         11   -1    0    0    0    0 -0.00000000000E+00 -0.00000000000E+00 -0.45593999997E+02  0.45594000000E+02  0.51100000000E-03 0. -1.
         23    2    1    2    0    0  0.00000000000E+00  0.00000000000E+00  0.71054273576E-14  0.91188000000E+02  0.91188000000E+02 0.  0.
    9900012    2    3    3    0    0 -0.11665800793E+02 -0.13277126540E+02 -0.32301811117E+02  0.54367082049E+02  0.39999995148E+02 0.  0.
        -12    1    3    3    0    0  0.11665800793E+02  0.13277126540E+02  0.32301811117E+02  0.36820917951E+02  0.00000000000E+00 0.  1.
         11    1    4    4    0    0 -0.76627742313E+01  0.85167574748E+01  0.14038973580E+01  0.11542278582E+02  0.51100000000E-03 0.  1.
        -11    1    4    4    0    0  0.19267449244E+01 -0.20035273831E+02 -0.24093522207E+02  0.31394623044E+02  0.51100000000E-03 0. -1.
         12    1    4    4    0    0 -0.59297714857E+01 -0.17586101831E+01 -0.96121862687E+01  0.11430180423E+02  0.00000000000E+00 0. -1.
</event>
<event>
 8    1  0.3007389E-007  0.9118800E+02  0.7816164E-02  0.1184000E+00
        -11   -1    0    0    0    0  0.00000000000E+00  0.00000000000E+00  0.45593999997E+02  0.45594000000E+02  0.51100000000E-03 0.  1.
         11   -1    0    0    0    0 -0.00000000000E+00 -0.00000000000E+00 -0.45593999997E+02  0.45594000000E+02  0.51100000000E-03 0. -1.
         23    2    1    2    0    0 -0.35527136788E-14  0.00000000000E+00  0.00000000000E+00  0.91188000000E+02  0.91188000000E+02 0.  0.
    9900012    2    3    3    0    0  0.28423271293E+02  0.81049493530E+01  0.21959283565E+02  0.54367045508E+02  0.39999911845E+02 0.  0.
         12    1    3    3    0    0 -0.28423271293E+02 -0.81049493530E+01 -0.21959283565E+02  0.36820954492E+02  0.00000000000E+00 0. -1.
         11    1    4    4    0    0  0.15187524645E+02  0.73028437513E+01  0.28374443643E+01  0.17089280923E+02  0.51100000000E-03 0. -1.
        -11    1    4    4    0    0  0.20241268559E+02 -0.40907205149E+01  0.19924118089E+02  0.28695181287E+02  0.51100000000E-03 0.  1.
        -12    1    4    4    0    0 -0.70055219107E+01  0.48928261166E+01 -0.80227888857E+00  0.85825832978E+01  0.00000000000E+00 0.  1.
</event>
<event>
 8    1  0.3007389E-007  0.9118800E+02  0.7816164E-02  0.1184000E+00
        -11   -1    0    0    0    0  0.00000000000E+00  0.00000000000E+00  0.45593999997E+02  0.45594000000E+02  0.51100000000E-03 0.  1.
         11   -1    0    0    0    0 -0.00000000000E+00 -0.00000000000E+00 -0.45593999997E+02  0.45594000000E+02  0.51100000000E-03 0. -1.
         23    2    1    2    0    0 -0.35527136788E-14 -0.35527136788E-14  0.17763568394E-14  0.91188000000E+02  0.91188000000E+02 0.  0.
    9900012    2    3    3    0    0  0.28268073417E+02  0.18881054587E+02 -0.14149262354E+02  0.54367084447E+02  0.40000000613E+02 0.  0.
         12    1    3    3    0    0 -0.28268073417E+02 -0.18881054587E+02  0.14149262354E+02  0.36820915553E+02  0.00000000000E+00 0. -1.
         11    1    4    4    0    0  0.34267485121E+01  0.17077596952E+02  0.16533393780E+01  0.17496298305E+02  0.51100000000E-03 0. -1.
        -11    1    4    4    0    0  0.17154293726E+02 -0.93088766260E+01 -0.11673587990E+02  0.22741979555E+02  0.51100000000E-03 0.  1.
         12    1    4    4    0    0  0.76870311786E+01  0.11112334261E+02 -0.41290137422E+01  0.14128806586E+02  0.00000000000E+00 0. -1.
</event>
<event>
 8    1  0.3007389E-007  0.9118800E+02  0.7816164E-02  0.1184000E+00
        -11   -1    0    0    0    0  0.00000000000E+00  0.00000000000E+00  0.45593999997E+02  0.45594000000E+02  0.51100000000E-03 0.  1.
         11   -1    0    0    0    0 -0.00000000000E+00 -0.00000000000E+00 -0.45593999997E+02  0.45594000000E+02  0.51100000000E-03 0. -1.
         23    2    1    2    0    0  0.88817841970E-15  0.00000000000E+00 -0.35527136788E-14  0.91188000000E+02  0.91188000000E+02 0.  0.
    9900012    2    3    3    0    0  0.49145464347E+01 -0.31683705294E+02  0.18104391582E+02  0.54367096394E+02  0.40000027849E+02 0.  0.
        -12    1    3    3    0    0 -0.49145464347E+01  0.31683705294E+02 -0.18104391582E+02  0.36820903606E+02  0.00000000000E+00 0.  1.
         11    1    4    4    0    0  0.23726294648E+01 -0.14327390326E+02 -0.74832873262E+01  0.16337168469E+02  0.51100000000E-03 0. -1.
        -11    1    4    4    0    0  0.11514764884E+01 -0.58273673853E+01 -0.33708389740E+01  0.68298363374E+01  0.51100000000E-03 0.  1.
        -12    1    4    4    0    0  0.13904404814E+01 -0.11528947583E+02  0.28958517882E+02  0.31200091587E+02  0.00000000000E+00 0.  1.
</event>
<event>
 8    1  0.3007389E-007  0.9118800E+02  0.7816164E-02  0.1184000E+00
        -11   -1    0    0    0    0  0.00000000000E+00  0.00000000000E+00  0.45593999997E+02  0.45594000000E+02  0.51100000000E-03 0. -1.
         11   -1    0    0    0    0 -0.00000000000E+00 -0.00000000000E+00 -0.45593999997E+02  0.45594000000E+02  0.51100000000E-03 0.  1.
         23    2    1    2    0    0  0.35527136788E-14  0.00000000000E+00  0.00000000000E+00  0.91188000000E+02  0.91188000000E+02 0.  0.
    9900012    2    3    3    0    0  0.27326598887E+02 -0.13175514626E+02  0.20867247949E+02  0.54367092497E+02  0.40000018965E+02 0.  0.
        -12    1    3    3    0    0 -0.27326598887E+02  0.13175514626E+02 -0.20867247949E+02  0.36820907503E+02  0.00000000000E+00 0.  1.
         11    1    4    4    0    0 -0.54536377420E+01 -0.88031196234E+01  0.43677054249E+01  0.11238947044E+02  0.51100000000E-03 0.  1.
        -11    1    4    4    0    0  0.32536121160E+02 -0.63510407408E+01  0.76029065523E+01  0.34010867189E+02  0.51100000000E-03 0. -1.
         12    1    4    4    0    0  0.24411546872E+00  0.19786457378E+01  0.88966359720E+01  0.91172782636E+01  0.00000000000E+00 0. -1.
</event>
<event>
 8    1  0.3007389E-007  0.9118800E+02  0.7816164E-02  0.1184000E+00
        -11   -1    0    0    0    0  0.00000000000E+00  0.00000000000E+00  0.45593999997E+02  0.45594000000E+02  0.51100000000E-03 0.  1.
         11   -1    0    0    0    0 -0.00000000000E+00 -0.00000000000E+00 -0.45593999997E+02  0.45594000000E+02  0.51100000000E-03 0. -1.
         23    2    1    2    0    0  0.00000000000E+00 -0.35527136788E-14  0.00000000000E+00  0.91188000000E+02  0.91188000000E+02 0.  0.
    9900012    2    3    3    0    0 -0.16288107226E+02  0.29138690575E+02  0.15537475078E+02  0.54367097550E+02  0.40000030486E+02 0.  0.
         12    1    3    3    0    0  0.16288107226E+02 -0.29138690575E+02 -0.15537475078E+02  0.36820902450E+02  0.00000000000E+00 0. -1.
         11    1    4    4    0    0 -0.12405313846E+02  0.19546029948E+02  0.23779760274E+01  0.23272169400E+02  0.51100000000E-03 0. -1.
        -11    1    4    4    0    0 -0.13066761505E+02  0.90339362438E+01  0.10964107320E+01  0.15923390877E+02  0.51100000000E-03 0.  1.
        -12    1    4    4    0    0  0.91839681244E+01  0.55872438263E+00  0.12063088318E+02  0.15171537273E+02  0.00000000000E+00 0.  1.
</event>
<event>
 8    1  0.3007389E-007  0.9118800E+02  0.7816164E-02  0.1184000E+00
        -11   -1    0    0    0    0  0.00000000000E+00  0.00000000000E+00  0.45593999997E+02  0.45594000000E+02  0.51100000000E-03 0. -1.
         11   -1    0    0    0    0 -0.00000000000E+00 -0.00000000000E+00 -0.45593999997E+02  0.45594000000E+02  0.51100000000E-03 0.  1.
         23    2    1    2    0    0  0.00000000000E+00 -0.35527136788E-14  0.88817841970E-15  0.91188000000E+02  0.91188000000E+02 0.  0.
    9900012    2    3    3    0    0 -0.22444135206E+02 -0.28279715077E+02  0.72318153718E+01  0.54367073294E+02  0.39999975188E+02 0.  0.
        -12    1    3    3    0    0  0.22444135206E+02  0.28279715077E+02 -0.72318153718E+01  0.36820926706E+02  0.00000000000E+00 0.  1.
         11    1    4    4    0    0 -0.21137150722E+02 -0.74763617088E+01 -0.42238589258E+01  0.22814822145E+02  0.51100000000E-03 0. -1.
        -11    1    4    4    0    0  0.37014440565E+00  0.17673292245E+01 -0.38346218711E+01  0.42384884834E+01  0.51100000000E-03 0.  1.
         12    1    4    4    0    0 -0.16771288896E+01 -0.22570682592E+02  0.15290296169E+02  0.27313762665E+02  0.00000000000E+00 0. -1.
</event>
<event>
 8    1  0.3007389E-007  0.9118800E+02  0.7816164E-02  0.1184000E+00
        -11   -1    0    0    0    0  0.00000000000E+00  0.00000000000E+00  0.45593999997E+02  0.45594000000E+02  0.51100000000E-03 0.  1.
         11   -1    0    0    0    0 -0.00000000000E+00 -0.00000000000E+00 -0.45593999997E+02  0.45594000000E+02  0.51100000000E-03 0. -1.
         23    2    1    2    0    0  0.00000000000E+00 -0.17763568394E-14  0.00000000000E+00  0.91188000000E+02  0.91188000000E+02 0.  0.
    9900012    2    3    3    0    0 -0.29734235824E+02  0.26623563634E+01 -0.21553813501E+02  0.54367084776E+02  0.40000001364E+02 0.  0.
         12    1    3    3    0    0  0.29734235824E+02 -0.26623563634E+01  0.21553813501E+02  0.36820915224E+02  0.00000000000E+00 0. -1.
         11    1    4    4    0    0 -0.64719696800E+00 -0.73418665896E+01 -0.10234497499E+01  0.74410562816E+01  0.51100000000E-03 0. -1.
        -11    1    4    4    0    0 -0.24216229204E+02 -0.60418665696E+01 -0.15657456590E+02  0.29463296754E+02  0.51100000000E-03 0.  1.
        -12    1    4    4    0    0 -0.48708096527E+01  0.16046089523E+02 -0.48729071615E+01  0.17462731741E+02  0.00000000000E+00 0.  1.
</event>
<event>
 8    1  0.3007389E-007  0.9118800E+02  0.7816164E-02  0.1184000E+00
        -11   -1    0    0    0    0  0.00000000000E+00  0.00000000000E+00  0.45593999997E+02  0.45594000000E+02  0.51100000000E-03 0. -1.
         11   -1    0    0    0    0 -0.00000000000E+00 -0.00000000000E+00 -0.45593999997E+02  0.45594000000E+02  0.51100000000E-03 0.  1.
         23    2    1    2    0    0  0.00000000000E+00  0.00000000000E+00 -0.35527136788E-14  0.91188000000E+02  0.91188000000E+02 0.  0.
    9900012    2    3    3    0    0 -0.25063190592E+02 -0.16193071907E+02  0.21573161593E+02  0.54367076579E+02  0.39999982678E+02 0.  0.
        -12    1    3    3    0    0  0.25063190592E+02  0.16193071907E+02 -0.21573161593E+02  0.36820923421E+02  0.00000000000E+00 0.  1.
         11    1    4    4    0    0  0.82794005015E-01  0.64261304570E+01  0.22004029786E+00  0.64304296506E+01  0.51100000000E-03 0. -1.
        -11    1    4    4    0    0 -0.91746833549E+01 -0.78376675937E+01 -0.55934739577E+01  0.13300030043E+02  0.51100000000E-03 0.  1.
         12    1    4    4    0    0 -0.15971301242E+02 -0.14781534771E+02  0.26946595253E+02  0.34636616885E+02  0.00000000000E+00 0. -1.
</event>
<event>
 8    1  0.3007389E-007  0.9118800E+02  0.7816164E-02  0.1184000E+00
        -11   -1    0    0    0    0  0.00000000000E+00  0.00000000000E+00  0.45593999997E+02  0.45594000000E+02  0.51100000000E-03 0.  1.
         11   -1    0    0    0    0 -0.00000000000E+00 -0.00000000000E+00 -0.45593999997E+02  0.45594000000E+02  0.51100000000E-03 0. -1.
         23    2    1    2    0    0 -0.35527136788E-14  0.44408920985E-15 -0.35527136788E-14  0.91188000000E+02  0.91188000000E+02 0.  0.
    9900012    2    3    3    0    0 -0.26821545207E+02  0.27121708392E+01  0.25080434886E+02  0.54367090560E+02  0.40000014549E+02 0.  0.
         12    1    3    3    0    0  0.26821545207E+02 -0.27121708392E+01 -0.25080434886E+02  0.36820909440E+02  0.00000000000E+00 0. -1.
         11    1    4    4    0    0 -0.79798605972E+01  0.12739514672E+02  0.23426590369E+02  0.27834844095E+02  0.51100000000E-03 0. -1.
        -11    1    4    4    0    0 -0.15082504906E+02 -0.77891195005E+01 -0.57583714070E+01  0.17925154905E+02  0.51100000000E-03 0.  1.
        -12    1    4    4    0    0 -0.37591797036E+01 -0.22382243326E+01  0.74122159238E+01  0.86070915592E+01  0.00000000000E+00 0.  1.
</event>
<event>
 8    1  0.3007389E-007  0.9118800E+02  0.7816164E-02  0.1184000E+00
        -11   -1    0    0    0    0  0.00000000000E+00  0.00000000000E+00  0.45593999997E+02  0.45594000000E+02  0.51100000000E-03 0.  1.
         11   -1    0    0    0    0 -0.00000000000E+00 -0.00000000000E+00 -0.45593999997E+02  0.45594000000E+02  0.51100000000E-03 0. -1.
         23    2    1    2    0    0  0.35527136788E-14 -0.71054273576E-14  0.00000000000E+00  0.91188000000E+02  0.91188000000E+02 0.  0.
    9900012    2    3    3    0    0 -0.24809119360E+02 -0.21599526168E+02  0.16545220205E+02  0.54367133012E+02  0.40000111328E+02 0.  0.
         12    1    3    3    0    0  0.24809119360E+02  0.21599526168E+02 -0.16545220205E+02  0.36820866988E+02  0.00000000000E+00 0. -1.
         11    1    4    4    0    0 -0.53291868673E+01 -0.54649400455E+01 -0.51224148179E+01  0.91926566451E+01  0.51100000000E-03 0. -1.
        -11    1    4    4    0    0 -0.19443558071E+02 -0.21980918962E+02  0.24906468138E+02  0.38490841823E+02  0.51100000000E-03 0.  1.
         12    1    4    4    0    0 -0.36374421690E-01  0.58463328399E+01 -0.32388331151E+01  0.66836345443E+01  0.00000000000E+00 0. -1.
</event>
<event>
 8    1  0.3007389E-007  0.9118800E+02  0.7816164E-02  0.1184000E+00
        -11   -1    0    0    0    0  0.00000000000E+00  0.00000000000E+00  0.45593999997E+02  0.45594000000E+02  0.51100000000E-03 0.  1.
         11   -1    0    0    0    0 -0.00000000000E+00 -0.00000000000E+00 -0.45593999997E+02  0.45594000000E+02  0.51100000000E-03 0. -1.
         23    2    1    2    0    0  0.35527136788E-14 -0.88817841970E-15  0.00000000000E+00  0.91188000000E+02  0.91188000000E+02 0.  0.
    9900012    2    3    3    0    0 -0.17689711375E+02 -0.70350521177E+01  0.31517632700E+02  0.54367095369E+02  0.40000025513E+02 0.  0.
         12    1    3    3    0    0  0.17689711375E+02  0.70350521177E+01 -0.31517632700E+02  0.36820904631E+02  0.00000000000E+00 0. -1.
         11    1    4    4    0    0  0.32028806832E+01 -0.15438608424E+01  0.10870203019E+02  0.11436925501E+02  0.51100000000E-03 0. -1.
        -11    1    4    4    0    0 -0.21287462402E+02  0.36639082502E+01  0.14395515434E+01  0.21648385346E+02  0.51100000000E-03 0.  1.
         12    1    4    4    0    0  0.39487034372E+00 -0.91550995254E+01  0.19207878138E+02  0.21281784523E+02  0.00000000000E+00 0. -1.
</event>
<event>
 8    1  0.3007389E-007  0.9118800E+02  0.7816164E-02  0.1184000E+00
        -11   -1    0    0    0    0  0.00000000000E+00  0.00000000000E+00  0.45593999997E+02  0.45594000000E+02  0.51100000000E-03 0. -1.
         11   -1    0    0    0    0 -0.00000000000E+00 -0.00000000000E+00 -0.45593999997E+02  0.45594000000E+02  0.51100000000E-03 0.  1.
         23    2    1    2    0    0 -0.35527136788E-14  0.00000000000E+00 -0.35527136788E-14  0.91188000000E+02  0.91188000000E+02 0.  0.
    9900012    2    3    3    0    0 -0.26659545947E+02  0.18174945919E+02 -0.17740344877E+02  0.54367083586E+02  0.39999998650E+02 0.  0.
         12    1    3    3    0    0  0.26659545947E+02 -0.18174945919E+02  0.17740344877E+02  0.36820916414E+02  0.00000000000E+00 0. -1.
         11    1    4    4    0    0 -0.44311015598E+00 -0.19798552091E+01 -0.10878916118E+01  0.23021037509E+01  0.51100000000E-03 0. -1.
        -11    1    4    4    0    0 -0.61820975664E+01 -0.86863701819E+01 -0.12919029772E+02  0.16750304109E+02  0.51100000000E-03 0.  1.
         12    1    4    4    0    0 -0.20034338224E+02  0.28841171310E+02 -0.37334234940E+01  0.35314675725E+02  0.00000000000E+00 0. -1.
</event>
<event>
 8    1  0.3007389E-007  0.9118800E+02  0.7816164E-02  0.1184000E+00
        -11   -1    0    0    0    0  0.00000000000E+00  0.00000000000E+00  0.45593999997E+02  0.45594000000E+02  0.51100000000E-03 0. -1.
         11   -1    0    0    0    0 -0.00000000000E+00 -0.00000000000E+00 -0.45593999997E+02  0.45594000000E+02  0.51100000000E-03 0.  1.
         23    2    1    2    0    0  0.35527136788E-14 -0.71054273576E-14  0.00000000000E+00  0.91188000000E+02  0.91188000000E+02 0.  0.
    9900012    2    3    3    0    0  0.27756073903E+02  0.22935165986E+02 -0.77044214007E+01  0.54367087648E+02  0.40000007912E+02 0.  0.
         12    1    3    3    0    0 -0.27756073903E+02 -0.22935165986E+02  0.77044214007E+01  0.36820912352E+02  0.00000000000E+00 0. -1.
         11    1    4    4    0    0  0.26300317856E+02  0.10545401273E+02  0.10374611675E+02  0.30175234465E+02  0.51100000000E-03 0. -1.
        -11    1    4    4    0    0 -0.39562745080E+01  0.78670308346E+01 -0.80483187417E+01  0.11929698947E+02  0.51100000000E-03 0.  1.
        -12    1    4    4    0    0  0.54120305548E+01  0.45227338783E+01 -0.10030714334E+02  0.12262154236E+02  0.00000000000E+00 0.  1.
</event>
<event>
 8    1  0.3007389E-007  0.9118800E+02  0.7816164E-02  0.1184000E+00
        -11   -1    0    0    0    0  0.00000000000E+00  0.00000000000E+00  0.45593999997E+02  0.45594000000E+02  0.51100000000E-03 0.  1.
         11   -1    0    0    0    0 -0.00000000000E+00 -0.00000000000E+00 -0.45593999997E+02  0.45594000000E+02  0.51100000000E-03 0. -1.
         23    2    1    2    0    0  0.00000000000E+00 -0.17763568394E-14  0.00000000000E+00  0.91188000000E+02  0.91188000000E+02 0.  0.
    9900012    2    3    3    0    0  0.24264015250E+02 -0.96777929445E+01  0.25949523758E+02  0.54367083450E+02  0.39999998342E+02 0.  0.
         12    1    3    3    0    0 -0.24264015250E+02  0.96777929445E+01 -0.25949523758E+02  0.36820916550E+02  0.00000000000E+00 0. -1.
         11    1    4    4    0    0  0.23644788066E+02 -0.12435469869E+02 -0.12802270405E+01  0.26746137947E+02  0.51100000000E-03 0.  1.
        -11    1    4    4    0    0  0.11190058241E+01 -0.55002694399E+00  0.58846642040E+01  0.60153118563E+01  0.51100000000E-03 0. -1.
        -12    1    4    4    0    0 -0.49977864032E+00  0.33077038689E+01  0.21345086594E+02  0.21605633647E+02  0.00000000000E+00 0.  1.
</event>
<event>
 8    1  0.3007389E-007  0.9118800E+02  0.7816164E-02  0.1184000E+00
        -11   -1    0    0    0    0  0.00000000000E+00  0.00000000000E+00  0.45593999997E+02  0.45594000000E+02  0.51100000000E-03 0.  1.
         11   -1    0    0    0    0 -0.00000000000E+00 -0.00000000000E+00 -0.45593999997E+02  0.45594000000E+02  0.51100000000E-03 0. -1.
         23    2    1    2    0    0 -0.17763568394E-14  0.00000000000E+00  0.00000000000E+00  0.91188000000E+02  0.91188000000E+02 0.  0.
    9900012    2    3    3    0    0  0.17789401357E+01 -0.35724500898E+02  0.87392786197E+01  0.54367087691E+02  0.40000008010E+02 0.  0.
         12    1    3    3    0    0 -0.17789401357E+01  0.35724500898E+02 -0.87392786197E+01  0.36820912309E+02  0.00000000000E+00 0. -1.
         11    1    4    4    0    0 -0.67857134874E+00 -0.43462867546E+01  0.93346428370E+01  0.10319216287E+02  0.51100000000E-03 0. -1.
        -11    1    4    4    0    0 -0.81164565538E+01 -0.31824025800E+02  0.27257401317E+01  0.32955654213E+02  0.51100000000E-03 0.  1.
         12    1    4    4    0    0  0.10573968038E+02  0.44581165623E+00 -0.33211043489E+01  0.11092217191E+02  0.00000000000E+00 0. -1.
</event>
<event>
 8    1  0.3007389E-007  0.9118800E+02  0.7816164E-02  0.1184000E+00
        -11   -1    0    0    0    0  0.00000000000E+00  0.00000000000E+00  0.45593999997E+02  0.45594000000E+02  0.51100000000E-03 0.  1.
         11   -1    0    0    0    0 -0.00000000000E+00 -0.00000000000E+00 -0.45593999997E+02  0.45594000000E+02  0.51100000000E-03 0. -1.
         23    2    1    2    0    0  0.00000000000E+00  0.17763568394E-14 -0.35527136788E-14  0.91188000000E+02  0.91188000000E+02 0.  0.
    9900012    2    3    3    0    0  0.30550817714E+02  0.28288720659E+01  0.20357510838E+02  0.54367038202E+02  0.39999895190E+02 0.  0.
         12    1    3    3    0    0 -0.30550817714E+02 -0.28288720659E+01 -0.20357510838E+02  0.36820961798E+02  0.00000000000E+00 0. -1.
         11    1    4    4    0    0  0.69998767520E+01 -0.22953265772E+01  0.34313256987E+00  0.73745873688E+01  0.51100000000E-03 0. -1.
        -11    1    4    4    0    0  0.17343230590E+02  0.17673076410E+02  0.21656998047E+02  0.32896061189E+02  0.51100000000E-03 0.  1.
         12    1    4    4    0    0  0.62077103729E+01 -0.12548877767E+02 -0.16426197793E+01  0.14096389645E+02  0.00000000000E+00 0. -1.
</event>
<event>
 8    1  0.3007389E-007  0.9118800E+02  0.7816164E-02  0.1184000E+00
        -11   -1    0    0    0    0  0.00000000000E+00  0.00000000000E+00  0.45593999997E+02  0.45594000000E+02  0.51100000000E-03 0.  1.
         11   -1    0    0    0    0 -0.00000000000E+00 -0.00000000000E+00 -0.45593999997E+02  0.45594000000E+02  0.51100000000E-03 0. -1.
         23    2    1    2    0    0  0.00000000000E+00  0.35527136788E-14  0.00000000000E+00  0.91188000000E+02  0.91188000000E+02 0.  0.
    9900012    2    3    3    0    0  0.33407050278E+02  0.35559472186E+01  0.15069979546E+02  0.54367081320E+02  0.39999993485E+02 0.  0.
        -12    1    3    3    0    0 -0.33407050278E+02 -0.35559472186E+01 -0.15069979546E+02  0.36820918680E+02  0.00000000000E+00 0.  1.
         11    1    4    4    0    0  0.34549281920E+01 -0.22277514547E+01  0.44356592076E+01  0.60476837072E+01  0.51100000000E-03 0.  1.
        -11    1    4    4    0    0  0.19784322034E+02  0.16682353867E+02 -0.53903328010E+01  0.26434371883E+02  0.51100000000E-03 0. -1.
         12    1    4    4    0    0  0.10167800052E+02 -0.10898655194E+02  0.16024653140E+02  0.21885025729E+02  0.00000000000E+00 0. -1.
</event>
<event>
 8    1  0.3007389E-007  0.9118800E+02  0.7816164E-02  0.1184000E+00
        -11   -1    0    0    0    0  0.00000000000E+00  0.00000000000E+00  0.45593999997E+02  0.45594000000E+02  0.51100000000E-03 0.  1.
         11   -1    0    0    0    0 -0.00000000000E+00 -0.00000000000E+00 -0.45593999997E+02  0.45594000000E+02  0.51100000000E-03 0. -1.
         23    2    1    2    0    0  0.00000000000E+00 -0.44408920985E-15  0.00000000000E+00  0.91188000000E+02  0.91188000000E+02 0.  0.
    9900012    2    3    3    0    0  0.11623237343E+02  0.33195678035E+01 -0.34780176864E+02  0.54367083670E+02  0.39999998842E+02 0.  0.
        -12    1    3    3    0    0 -0.11623237343E+02 -0.33195678035E+01  0.34780176864E+02  0.36820916330E+02  0.00000000000E+00 0.  1.
         11    1    4    4    0    0  0.31001279297E+01 -0.73970788586E+01  0.29802623290E+01  0.85562569288E+01  0.51100000000E-03 0. -1.
        -11    1    4    4    0    0  0.96779265839E+01 -0.37516926423E+01 -0.96408739079E+01  0.14166294880E+02  0.51100000000E-03 0.  1.
         12    1    4    4    0    0 -0.11548171703E+01  0.14468339304E+02 -0.28119565285E+02  0.31644531861E+02  0.00000000000E+00 0. -1.
</event>
<event>
 8    1  0.3007389E-007  0.9118800E+02  0.7816164E-02  0.1184000E+00
        -11   -1    0    0    0    0  0.00000000000E+00  0.00000000000E+00  0.45593999997E+02  0.45594000000E+02  0.51100000000E-03 0. -1.
         11   -1    0    0    0    0 -0.00000000000E+00 -0.00000000000E+00 -0.45593999997E+02  0.45594000000E+02  0.51100000000E-03 0.  1.
         23    2    1    2    0    0  0.00000000000E+00  0.00000000000E+00  0.00000000000E+00  0.91188000000E+02  0.91188000000E+02 0.  0.
    9900012    2    3    3    0    0  0.31163049934E+01  0.42768116437E+01 -0.36438674915E+02  0.54367088764E+02  0.40000010456E+02 0.  0.
         12    1    3    3    0    0 -0.31163049934E+01 -0.42768116437E+01  0.36438674915E+02  0.36820911236E+02  0.00000000000E+00 0. -1.
         11    1    4    4    0    0 -0.97302752911E+01  0.34215374593E+01 -0.12806848825E+02  0.16443860645E+02  0.51100000000E-03 0. -1.
        -11    1    4    4    0    0  0.43571975217E+01 -0.10452755722E+02 -0.11747598931E+01  0.11385312183E+02  0.51100000000E-03 0.  1.
        -12    1    4    4    0    0  0.84893827629E+01  0.11308029907E+02 -0.22457066197E+02  0.26537915936E+02  0.00000000000E+00 0.  1.
</event>
<event>
 8    1  0.3007389E-007  0.9118800E+02  0.7816164E-02  0.1184000E+00
        -11   -1    0    0    0    0  0.00000000000E+00  0.00000000000E+00  0.45593999997E+02  0.45594000000E+02  0.51100000000E-03 0. -1.
         11   -1    0    0    0    0 -0.00000000000E+00 -0.00000000000E+00 -0.45593999997E+02  0.45594000000E+02  0.51100000000E-03 0.  1.
         23    2    1    2    0    0 -0.35527136788E-14  0.17763568394E-14  0.35527136788E-14  0.91188000000E+02  0.91188000000E+02 0.  0.
    9900012    2    3    3    0    0 -0.24344610092E+02 -0.11804765666E+02 -0.24975364689E+02  0.54367063370E+02  0.39999952566E+02 0.  0.
         12    1    3    3    0    0  0.24344610092E+02  0.11804765666E+02  0.24975364689E+02  0.36820936630E+02  0.00000000000E+00 0. -1.
         11    1    4    4    0    0 -0.52353587671E+01 -0.27950729654E+01  0.54256998975E+00  0.59595131308E+01  0.51100000000E-03 0. -1.
        -11    1    4    4    0    0 -0.21611757150E+02 -0.19445295350E+02 -0.12795193889E+02  0.31763257787E+02  0.51100000000E-03 0.  1.
        -12    1    4    4    0    0  0.25025058251E+01  0.10435602649E+02 -0.12722740789E+02  0.16644292452E+02  0.00000000000E+00 0.  1.
</event>
<event>
 8    1  0.3007389E-007  0.9118800E+02  0.7816164E-02  0.1184000E+00
        -11   -1    0    0    0    0  0.00000000000E+00  0.00000000000E+00  0.45593999997E+02  0.45594000000E+02  0.51100000000E-03 0. -1.
         11   -1    0    0    0    0 -0.00000000000E+00 -0.00000000000E+00 -0.45593999997E+02  0.45594000000E+02  0.51100000000E-03 0.  1.
         23    2    1    2    0    0  0.53290705182E-14  0.00000000000E+00  0.35527136788E-14  0.91188000000E+02  0.91188000000E+02 0.  0.
    9900012    2    3    3    0    0 -0.15029054507E+02 -0.15421401881E+02 -0.29867844164E+02  0.54367078904E+02  0.39999987978E+02 0.  0.
         12    1    3    3    0    0  0.15029054507E+02  0.15421401881E+02  0.29867844164E+02  0.36820921096E+02  0.00000000000E+00 0. -1.
         11    1    4    4    0    0  0.33718413067E+01 -0.76670118665E+01  0.81888328206E+00  0.84156375189E+01  0.51100000000E-03 0. -1.
        -11    1    4    4    0    0 -0.16528491584E+02  0.27216807094E+01 -0.40014175623E+01  0.17222366931E+02  0.51100000000E-03 0.  1.
        -12    1    4    4    0    0 -0.18724042296E+01 -0.10476070724E+02 -0.26685309884E+02  0.28729074454E+02  0.00000000000E+00 0.  1.
</event>
<event>
 8    1  0.3007389E-007  0.9118800E+02  0.7816164E-02  0.1184000E+00
        -11   -1    0    0    0    0  0.00000000000E+00  0.00000000000E+00  0.45593999997E+02  0.45594000000E+02  0.51100000000E-03 0. -1.
         11   -1    0    0    0    0 -0.00000000000E+00 -0.00000000000E+00 -0.45593999997E+02  0.45594000000E+02  0.51100000000E-03 0.  1.
         23    2    1    2    0    0  0.00000000000E+00 -0.17763568394E-14  0.00000000000E+00  0.91188000000E+02  0.91188000000E+02 0.  0.
    9900012    2    3    3    0    0  0.34122612673E+02 -0.86710441704E+01  0.10781493475E+02  0.54367077901E+02  0.39999985691E+02 0.  0.
         12    1    3    3    0    0 -0.34122612673E+02  0.86710441704E+01 -0.10781493475E+02  0.36820922099E+02  0.00000000000E+00 0. -1.
         11    1    4    4    0    0  0.13156223660E+01 -0.62424262915E+01 -0.21907646726E+01  0.67452352314E+01  0.51100000000E-03 0. -1.
        -11    1    4    4    0    0  0.12682883915E+01  0.68210644363E+01 -0.64264439929E+01  0.94569899092E+01  0.51100000000E-03 0.  1.
         12    1    4    4    0    0  0.31538701916E+02 -0.92496823151E+01  0.19398702141E+02  0.38164852760E+02  0.00000000000E+00 0. -1.
</event>
<event>
 8    1  0.3007389E-007  0.9118800E+02  0.7816164E-02  0.1184000E+00
        -11   -1    0    0    0    0  0.00000000000E+00  0.00000000000E+00  0.45593999997E+02  0.45594000000E+02  0.51100000000E-03 0.  1.
         11   -1    0    0    0    0 -0.00000000000E+00 -0.00000000000E+00 -0.45593999997E+02  0.45594000000E+02  0.51100000000E-03 0. -1.
         23    2    1    2    0    0  0.00000000000E+00  0.00000000000E+00 -0.35527136788E-14  0.91188000000E+02  0.91188000000E+02 0.  0.
    9900012    2    3    3    0    0  0.13415650748E+02  0.28464718431E+02  0.19119576254E+02  0.54367108152E+02  0.40000054654E+02 0.  0.
         12    1    3    3    0    0 -0.13415650748E+02 -0.28464718431E+02 -0.19119576254E+02  0.36820891848E+02  0.00000000000E+00 0. -1.
         11    1    4    4    0    0 -0.10331289592E+02 -0.10749217521E+01  0.28861998340E+01  0.10780591410E+02  0.51100000000E-03 0. -1.
        -11    1    4    4    0    0  0.12019249171E+02  0.71738520209E+01  0.10984264984E+02  0.17792711456E+02  0.51100000000E-03 0.  1.
        -12    1    4    4    0    0  0.11727691169E+02  0.22365788162E+02  0.52491114357E+01  0.25793805286E+02  0.00000000000E+00 0.  1.
</event>
<event>
 8    1  0.3007389E-007  0.9118800E+02  0.7816164E-02  0.1184000E+00
        -11   -1    0    0    0    0  0.00000000000E+00  0.00000000000E+00  0.45593999997E+02  0.45594000000E+02  0.51100000000E-03 0.  1.
         11   -1    0    0    0    0 -0.00000000000E+00 -0.00000000000E+00 -0.45593999997E+02  0.45594000000E+02  0.51100000000E-03 0. -1.
         23    2    1    2    0    0 -0.71054273576E-14 -0.10658141036E-13  0.00000000000E+00  0.91188000000E+02  0.91188000000E+02 0.  0.
    9900012    2    3    3    0    0 -0.19826523430E+02 -0.30996294688E+02 -0.13850612821E+01  0.54367085963E+02  0.40000004071E+02 0.  0.
        -12    1    3    3    0    0  0.19826523430E+02  0.30996294688E+02  0.13850612821E+01  0.36820914037E+02  0.00000000000E+00 0.  1.
         11    1    4    4    0    0 -0.67972083165E+01  0.82679652526E+01 -0.94256094442E+00  0.10744752752E+02  0.51100000000E-03 0.  1.
        -11    1    4    4    0    0 -0.95678767445E+01 -0.36622321661E+02 -0.39140957083E+01  0.38053368506E+02  0.51100000000E-03 0. -1.
         12    1    4    4    0    0 -0.34614383693E+01 -0.26419382804E+01  0.34715953706E+01  0.55689647044E+01  0.00000000000E+00 0. -1.
</event>
<event>
 8    1  0.3007389E-007  0.9118800E+02  0.7816164E-02  0.1184000E+00
        -11   -1    0    0    0    0  0.00000000000E+00  0.00000000000E+00  0.45593999997E+02  0.45594000000E+02  0.51100000000E-03 0.  1.
         11   -1    0    0    0    0 -0.00000000000E+00 -0.00000000000E+00 -0.45593999997E+02  0.45594000000E+02  0.51100000000E-03 0. -1.
         23    2    1    2    0    0 -0.55511151231E-15 -0.35527136788E-14  0.35527136788E-14  0.91188000000E+02  0.91188000000E+02 0.  0.
    9900012    2    3    3    0    0 -0.76199587569E+00  0.26652340168E+02 -0.25393917553E+02  0.54367096659E+02  0.40000028454E+02 0.  0.
        -12    1    3    3    0    0  0.76199587569E+00 -0.26652340168E+02  0.25393917553E+02  0.36820903341E+02  0.00000000000E+00 0.  1.
         11    1    4    4    0    0 -0.18573487196E+01 -0.17566485905E+01 -0.53217137218E+01  0.59039135948E+01  0.51100000000E-03 0. -1.
        -11    1    4    4    0    0 -0.11761074341E+02 -0.24708630574E+00 -0.10115732920E+02  0.15514895233E+02  0.51100000000E-03 0.  1.
         12    1    4    4    0    0  0.12856427185E+02  0.28656075064E+02 -0.99564709113E+01  0.32948287832E+02  0.00000000000E+00 0. -1.
</event>
<event>
 8    1  0.3007389E-007  0.9118800E+02  0.7816164E-02  0.1184000E+00
        -11   -1    0    0    0    0  0.00000000000E+00  0.00000000000E+00  0.45593999997E+02  0.45594000000E+02  0.51100000000E-03 0.  1.
         11   -1    0    0    0    0 -0.00000000000E+00 -0.00000000000E+00 -0.45593999997E+02  0.45594000000E+02  0.51100000000E-03 0. -1.
         23    2    1    2    0    0  0.13322676296E-14  0.88817841970E-15  0.00000000000E+00  0.91188000000E+02  0.91188000000E+02 0.  0.
    9900012    2    3    3    0    0  0.36537791223E+01 -0.49752101092E+01  0.36299820491E+02  0.54367084949E+02  0.40000001758E+02 0.  0.
         12    1    3    3    0    0 -0.36537791223E+01  0.49752101092E+01 -0.36299820491E+02  0.36820915051E+02  0.00000000000E+00 0. -1.
         11    1    4    4    0    0 -0.25304594802E-03 -0.35337426537E+01  0.31034558647E+02  0.31235095131E+02  0.51100000000E-03 0.  1.
        -11    1    4    4    0    0 -0.62202185225E+01  0.58395670375E+01 -0.21476005250E+01  0.87979457789E+01  0.51100000000E-03 0. -1.
        -12    1    4    4    0    0  0.98742506907E+01 -0.72810344930E+01  0.74128623696E+01  0.14334044039E+02  0.00000000000E+00 0.  1.
</event>
<event>
 8    1  0.3007389E-007  0.9118800E+02  0.7816164E-02  0.1184000E+00
        -11   -1    0    0    0    0  0.00000000000E+00  0.00000000000E+00  0.45593999997E+02  0.45594000000E+02  0.51100000000E-03 0.  1.
         11   -1    0    0    0    0 -0.00000000000E+00 -0.00000000000E+00 -0.45593999997E+02  0.45594000000E+02  0.51100000000E-03 0. -1.
         23    2    1    2    0    0  0.13322676296E-14  0.00000000000E+00 -0.35527136788E-14  0.91188000000E+02  0.91188000000E+02 0.  0.
    9900012    2    3    3    0    0 -0.21480098508E+01 -0.24597740293E+02  0.27315151313E+02  0.54367078432E+02  0.39999986903E+02 0.  0.
         12    1    3    3    0    0  0.21480098508E+01  0.24597740293E+02 -0.27315151313E+02  0.36820921568E+02  0.00000000000E+00 0. -1.
         11    1    4    4    0    0  0.99528643422E+01 -0.52067180537E-01  0.53930405461E+01  0.11320207869E+02  0.51100000000E-03 0. -1.
        -11    1    4    4    0    0 -0.10971694884E+02 -0.27898827297E+02  0.11616277379E+02  0.32150591808E+02  0.51100000000E-03 0.  1.
        -12    1    4    4    0    0 -0.11291793088E+01  0.33531541849E+01  0.10305833388E+02  0.10896278755E+02  0.00000000000E+00 0.  1.
</event>
<event>
 8    1  0.3007389E-007  0.9118800E+02  0.7816164E-02  0.1184000E+00
        -11   -1    0    0    0    0  0.00000000000E+00  0.00000000000E+00  0.45593999997E+02  0.45594000000E+02  0.51100000000E-03 0. -1.
         11   -1    0    0    0    0 -0.00000000000E+00 -0.00000000000E+00 -0.45593999997E+02  0.45594000000E+02  0.51100000000E-03 0.  1.
         23    2    1    2    0    0  0.00000000000E+00  0.00000000000E+00  0.00000000000E+00  0.91188000000E+02  0.91188000000E+02 0.  0.
    9900012    2    3    3    0    0  0.23875074919E+02 -0.10505130580E+02  0.25988517955E+02  0.54367081538E+02  0.39999993982E+02 0.  0.
        -12    1    3    3    0    0 -0.23875074919E+02  0.10505130580E+02 -0.25988517955E+02  0.36820918462E+02  0.00000000000E+00 0.  1.
         11    1    4    4    0    0  0.10627918487E+02  0.31518315086E+01  0.15288256040E+02  0.18884317998E+02  0.51100000000E-03 0. -1.
        -11    1    4    4    0    0 -0.12747145979E+01  0.62555313010E+01 -0.32493573120E+01  0.71634413773E+01  0.51100000000E-03 0.  1.
         12    1    4    4    0    0  0.14521871030E+02 -0.19912493389E+02  0.13949619227E+02  0.28319322163E+02  0.00000000000E+00 0. -1.
</event>
<event>
 8    1  0.3007389E-007  0.9118800E+02  0.7816164E-02  0.1184000E+00
        -11   -1    0    0    0    0  0.00000000000E+00  0.00000000000E+00  0.45593999997E+02  0.45594000000E+02  0.51100000000E-03 0. -1.
         11   -1    0    0    0    0 -0.00000000000E+00 -0.00000000000E+00 -0.45593999997E+02  0.45594000000E+02  0.51100000000E-03 0.  1.
         23    2    1    2    0    0 -0.35527136788E-14 -0.15404344467E-14  0.00000000000E+00  0.91188000000E+02  0.91188000000E+02 0.  0.
    9900012    2    3    3    0    0  0.28434998601E+02 -0.79328900822E-01  0.23392830334E+02  0.54367082718E+02  0.39999996672E+02 0.  0.
        -12    1    3    3    0    0 -0.28434998601E+02  0.79328900822E-01 -0.23392830334E+02  0.36820917282E+02  0.00000000000E+00 0.  1.
         11    1    4    4    0    0  0.19521609805E+02 -0.18829972062E+02  0.15039384121E+02  0.31013612692E+02  0.51100000000E-03 0.  1.
        -11    1    4    4    0    0  0.51937449092E+01  0.75599589060E+01  0.68871300575E+01  0.11469983676E+02  0.51100000000E-03 0. -1.
        -12    1    4    4    0    0  0.37196438863E+01  0.11190684255E+02  0.14663161551E+01  0.11883486349E+02  0.00000000000E+00 0.  1.
</event>
<event>
 8    1  0.3007389E-007  0.9118800E+02  0.7816164E-02  0.1184000E+00
        -11   -1    0    0    0    0  0.00000000000E+00  0.00000000000E+00  0.45593999997E+02  0.45594000000E+02  0.51100000000E-03 0.  1.
         11   -1    0    0    0    0 -0.00000000000E+00 -0.00000000000E+00 -0.45593999997E+02  0.45594000000E+02  0.51100000000E-03 0. -1.
         23    2    1    2    0    0 -0.35527136788E-14  0.00000000000E+00  0.00000000000E+00  0.91188000000E+02  0.91188000000E+02 0.  0.
    9900012    2    3    3    0    0 -0.19503673063E+02  0.14748707907E+02 -0.27529302143E+02  0.54367080343E+02  0.39999991258E+02 0.  0.
        -12    1    3    3    0    0  0.19503673063E+02 -0.14748707907E+02  0.27529302143E+02  0.36820919657E+02  0.00000000000E+00 0.  1.
         11    1    4    4    0    0  0.41815327850E+01 -0.74787790006E+01 -0.13713057142E+02  0.16169888318E+02  0.51100000000E-03 0. -1.
        -11    1    4    4    0    0 -0.80252971605E+00 -0.19765952651E+01  0.93876435031E-02  0.21333239735E+01  0.51100000000E-03 0.  1.
         12    1    4    4    0    0 -0.22882676132E+02  0.24204082172E+02 -0.13825632644E+02  0.36063868051E+02  0.00000000000E+00 0. -1.
</event>
<event>
 8    1  0.3007389E-007  0.9118800E+02  0.7816164E-02  0.1184000E+00
        -11   -1    0    0    0    0  0.00000000000E+00  0.00000000000E+00  0.45593999997E+02  0.45594000000E+02  0.51100000000E-03 0. -1.
         11   -1    0    0    0    0 -0.00000000000E+00 -0.00000000000E+00 -0.45593999997E+02  0.45594000000E+02  0.51100000000E-03 0.  1.
         23    2    1    2    0    0  0.00000000000E+00 -0.17763568394E-14  0.00000000000E+00  0.91188000000E+02  0.91188000000E+02 0.  0.
    9900012    2    3    3    0    0  0.11739171768E+02 -0.12505488946E+02  0.32581962641E+02  0.54367086145E+02  0.40000004485E+02 0.  0.
        -12    1    3    3    0    0 -0.11739171768E+02  0.12505488946E+02 -0.32581962641E+02  0.36820913855E+02  0.00000000000E+00 0.  1.
         11    1    4    4    0    0 -0.44750399500E+01 -0.89723005941E+01  0.22881331032E+02  0.24981662686E+02  0.51100000000E-03 0. -1.
        -11    1    4    4    0    0  0.19769925926E+02 -0.72820242617E+01  0.11388981916E+02  0.23949671351E+02  0.51100000000E-03 0.  1.
         12    1    4    4    0    0 -0.35557142088E+01  0.37488359102E+01 -0.16883503069E+01  0.54357521076E+01  0.00000000000E+00 0. -1.
</event>
<event>
 8    1  0.3007389E-007  0.9118800E+02  0.7816164E-02  0.1184000E+00
        -11   -1    0    0    0    0  0.00000000000E+00  0.00000000000E+00  0.45593999997E+02  0.45594000000E+02  0.51100000000E-03 0.  1.
         11   -1    0    0    0    0 -0.00000000000E+00 -0.00000000000E+00 -0.45593999997E+02  0.45594000000E+02  0.51100000000E-03 0. -1.
         23    2    1    2    0    0  0.00000000000E+00  0.00000000000E+00 -0.71054273576E-14  0.91188000000E+02  0.91188000000E+02 0.  0.
    9900012    2    3    3    0    0 -0.84560950372E+01  0.53494913228E+01 -0.35435216390E+02  0.54367120579E+02  0.40000082984E+02 0.  0.
        -12    1    3    3    0    0  0.84560950372E+01 -0.53494913228E+01  0.35435216390E+02  0.36820879421E+02  0.00000000000E+00 0.  1.
         11    1    4    4    0    0 -0.71894252250E+01  0.59440492453E+01 -0.85886105552E+01  0.12680054733E+02  0.51100000000E-03 0. -1.
        -11    1    4    4    0    0  0.11129425966E+02  0.93503389028E+01 -0.19114402467E+02  0.24013607431E+02  0.51100000000E-03 0.  1.
         12    1    4    4    0    0 -0.12396095779E+02 -0.99448968253E+01 -0.77322033684E+01  0.17673458415E+02  0.00000000000E+00 0. -1.
</event>
<event>
 8    1  0.3007389E-007  0.9118800E+02  0.7816164E-02  0.1184000E+00
        -11   -1    0    0    0    0  0.00000000000E+00  0.00000000000E+00  0.45593999997E+02  0.45594000000E+02  0.51100000000E-03 0. -1.
         11   -1    0    0    0    0 -0.00000000000E+00 -0.00000000000E+00 -0.45593999997E+02  0.45594000000E+02  0.51100000000E-03 0.  1.
         23    2    1    2    0    0  0.00000000000E+00  0.00000000000E+00  0.00000000000E+00  0.91188000000E+02  0.91188000000E+02 0.  0.
    9900012    2    3    3    0    0 -0.23848114751E+02  0.10604649511E+02 -0.25972869550E+02  0.54367066809E+02  0.39999960404E+02 0.  0.
         12    1    3    3    0    0  0.23848114751E+02 -0.10604649511E+02  0.25972869550E+02  0.36820933191E+02  0.00000000000E+00 0. -1.
         11    1    4    4    0    0 -0.10337968228E+01 -0.84161699431E+01  0.27581699771E+01  0.89167345069E+01  0.51100000000E-03 0. -1.
        -11    1    4    4    0    0 -0.21740475764E+02  0.21530795423E+02 -0.20633086679E+02  0.36904575653E+02  0.51100000000E-03 0.  1.
        -12    1    4    4    0    0 -0.10738421641E+01 -0.25099759697E+01 -0.80979528486E+01  0.85457566488E+01  0.00000000000E+00 0.  1.
</event>
<event>
 8    1  0.3007389E-007  0.9118800E+02  0.7816164E-02  0.1184000E+00
        -11   -1    0    0    0    0  0.00000000000E+00  0.00000000000E+00  0.45593999997E+02  0.45594000000E+02  0.51100000000E-03 0.  1.
         11   -1    0    0    0    0 -0.00000000000E+00 -0.00000000000E+00 -0.45593999997E+02  0.45594000000E+02  0.51100000000E-03 0. -1.
         23    2    1    2    0    0  0.44408920985E-15 -0.17763568394E-14 -0.71054273576E-14  0.91188000000E+02  0.91188000000E+02 0.  0.
    9900012    2    3    3    0    0  0.19535993461E+01 -0.15956174499E+02 -0.33126472522E+02  0.54367092396E+02  0.40000018734E+02 0.  0.
        -12    1    3    3    0    0 -0.19535993461E+01  0.15956174499E+02  0.33126472522E+02  0.36820907604E+02  0.00000000000E+00 0.  1.
         11    1    4    4    0    0  0.37146667445E+01 -0.26286564611E+01  0.43105960698E+01  0.62681594229E+01  0.51100000000E-03 0.  1.
        -11    1    4    4    0    0  0.19249529243E+01 -0.17838773334E+02 -0.38218968736E+02  0.42221047468E+02  0.51100000000E-03 0. -1.
        -12    1    4    4    0    0 -0.36860203228E+01  0.45112552962E+01  0.78190014385E+00  0.58778855043E+01  0.00000000000E+00 0.  1.
</event>
<event>
 8    1  0.3007389E-007  0.9118800E+02  0.7816164E-02  0.1184000E+00
        -11   -1    0    0    0    0  0.00000000000E+00  0.00000000000E+00  0.45593999997E+02  0.45594000000E+02  0.51100000000E-03 0.  1.
         11   -1    0    0    0    0 -0.00000000000E+00 -0.00000000000E+00 -0.45593999997E+02  0.45594000000E+02  0.51100000000E-03 0. -1.
         23    2    1    2    0    0  0.00000000000E+00  0.00000000000E+00  0.00000000000E+00  0.91188000000E+02  0.91188000000E+02 0.  0.
    9900012    2    3    3    0    0  0.70284034471E+01 -0.14756652417E+02  0.32994267933E+02  0.54367096127E+02  0.40000027241E+02 0.  0.
         12    1    3    3    0    0 -0.70284034471E+01  0.14756652417E+02 -0.32994267933E+02  0.36820903873E+02  0.00000000000E+00 0. -1.
         11    1    4    4    0    0 -0.59682872977E+01 -0.11763728567E+02 -0.22230218208E+01  0.13377129339E+02  0.51100000000E-03 0. -1.
        -11    1    4    4    0    0  0.59160757922E+01  0.37737316693E+01  0.35925413769E+01  0.78833595184E+01  0.51100000000E-03 0.  1.
        -12    1    4    4    0    0  0.70806149525E+01 -0.67666555190E+01  0.31624748377E+02  0.33106607270E+02  0.00000000000E+00 0.  1.
</event>
<event>
 8    1  0.3007389E-007  0.9118800E+02  0.7816164E-02  0.1184000E+00
        -11   -1    0    0    0    0  0.00000000000E+00  0.00000000000E+00  0.45593999997E+02  0.45594000000E+02  0.51100000000E-03 0.  1.
         11   -1    0    0    0    0 -0.00000000000E+00 -0.00000000000E+00 -0.45593999997E+02  0.45594000000E+02  0.51100000000E-03 0. -1.
         23    2    1    2    0    0  0.88817841970E-15  0.17763568394E-14 -0.14210854715E-13  0.91188000000E+02  0.91188000000E+02 0.  0.
    9900012    2    3    3    0    0  0.11093483854E+01  0.15922244324E+02 -0.33181660516E+02  0.54367202714E+02  0.40000270227E+02 0.  0.
        -12    1    3    3    0    0 -0.11093483854E+01 -0.15922244324E+02  0.33181660516E+02  0.36820797286E+02  0.00000000000E+00 0.  1.
         11    1    4    4    0    0 -0.12463578609E+02  0.61069820899E+01 -0.10322121045E+02  0.17296884261E+02  0.51100000000E-03 0. -1.
        -11    1    4    4    0    0  0.12355879783E+02  0.10229824912E+02 -0.27728670419E+02  0.32034297970E+02  0.51100000000E-03 0.  1.
        -12    1    4    4    0    0  0.12170472117E+01 -0.41456267873E+00  0.48691309477E+01  0.50360204840E+01  0.00000000000E+00 0.  1.
</event>
<event>
 8    1  0.3007389E-007  0.9118800E+02  0.7816164E-02  0.1184000E+00
        -11   -1    0    0    0    0  0.00000000000E+00  0.00000000000E+00  0.45593999997E+02  0.45594000000E+02  0.51100000000E-03 0.  1.
         11   -1    0    0    0    0 -0.00000000000E+00 -0.00000000000E+00 -0.45593999997E+02  0.45594000000E+02  0.51100000000E-03 0. -1.
         23    2    1    2    0    0  0.00000000000E+00  0.88817841970E-15  0.00000000000E+00  0.91188000000E+02  0.91188000000E+02 0.  0.
    9900012    2    3    3    0    0  0.18025606469E+02 -0.55016268860E+01 -0.31632111368E+02  0.54367070400E+02  0.39999968592E+02 0.  0.
        -12    1    3    3    0    0 -0.18025606469E+02  0.55016268860E+01  0.31632111368E+02  0.36820929600E+02  0.00000000000E+00 0.  1.
         11    1    4    4    0    0  0.10806164421E+02 -0.13944328144E+02 -0.53475565871E+01  0.18434040214E+02  0.51100000000E-03 0. -1.
        -11    1    4    4    0    0  0.99383565806E+01  0.10831809913E+02 -0.28226853135E+02  0.31825371572E+02  0.51100000000E-03 0.  1.
         12    1    4    4    0    0 -0.27189145326E+01 -0.23891086552E+01  0.19422983538E+01  0.41076586150E+01  0.00000000000E+00 0. -1.
</event>
<event>
 8    1  0.3007389E-007  0.9118800E+02  0.7816164E-02  0.1184000E+00
        -11   -1    0    0    0    0  0.00000000000E+00  0.00000000000E+00  0.45593999997E+02  0.45594000000E+02  0.51100000000E-03 0. -1.
         11   -1    0    0    0    0 -0.00000000000E+00 -0.00000000000E+00 -0.45593999997E+02  0.45594000000E+02  0.51100000000E-03 0.  1.
         23    2    1    2    0    0  0.35527136788E-14 -0.17763568394E-14 -0.35527136788E-14  0.91188000000E+02  0.91188000000E+02 0.  0.
    9900012    2    3    3    0    0 -0.20989962770E+02  0.88216369501E+01  0.28937538872E+02  0.54367068839E+02  0.39999965033E+02 0.  0.
        -12    1    3    3    0    0  0.20989962770E+02 -0.88216369501E+01 -0.28937538872E+02  0.36820931161E+02  0.00000000000E+00 0.  1.
         11    1    4    4    0    0 -0.14098013391E+02  0.24395901020E+01 -0.43829488726E+00  0.14314247591E+02  0.51100000000E-03 0. -1.
        -11    1    4    4    0    0  0.74317941440E+01 -0.48268331428E+00  0.97358563720E+00  0.75108199708E+01  0.51100000000E-03 0.  1.
         12    1    4    4    0    0 -0.14323743523E+02  0.68647301623E+01  0.28402248122E+02  0.32542001277E+02  0.00000000000E+00 0. -1.
</event>
<event>
 8    1  0.3007389E-007  0.9118800E+02  0.7816164E-02  0.1184000E+00
        -11   -1    0    0    0    0  0.00000000000E+00  0.00000000000E+00  0.45593999997E+02  0.45594000000E+02  0.51100000000E-03 0. -1.
         11   -1    0    0    0    0 -0.00000000000E+00 -0.00000000000E+00 -0.45593999997E+02  0.45594000000E+02  0.51100000000E-03 0.  1.
         23    2    1    2    0    0  0.00000000000E+00  0.44408920985E-15  0.00000000000E+00  0.91188000000E+02  0.91188000000E+02 0.  0.
    9900012    2    3    3    0    0 -0.32946929031E+02 -0.24663843431E+01 -0.16254102443E+02  0.54367095197E+02  0.40000025121E+02 0.  0.
        -12    1    3    3    0    0  0.32946929031E+02  0.24663843431E+01  0.16254102443E+02  0.36820904803E+02  0.00000000000E+00 0.  1.
         11    1    4    4    0    0 -0.18987650498E+02  0.69807963354E+01 -0.53893738847E+00  0.20237411956E+02  0.51100000000E-03 0. -1.
        -11    1    4    4    0    0 -0.21077021562E+02 -0.64560140910E+01 -0.87013819822E+01  0.23698839729E+02  0.51100000000E-03 0.  1.
        -12    1    4    4    0    0  0.71177430291E+01 -0.29911665876E+01 -0.70137830721E+01  0.10430843512E+02  0.00000000000E+00 0.  1.
</event>
<event>
 8    1  0.3007389E-007  0.9118800E+02  0.7816164E-02  0.1184000E+00
        -11   -1    0    0    0    0  0.00000000000E+00  0.00000000000E+00  0.45593999997E+02  0.45594000000E+02  0.51100000000E-03 0. -1.
         11   -1    0    0    0    0 -0.00000000000E+00 -0.00000000000E+00 -0.45593999997E+02  0.45594000000E+02  0.51100000000E-03 0.  1.
         23    2    1    2    0    0  0.00000000000E+00 -0.12212453271E-14  0.00000000000E+00  0.91188000000E+02  0.91188000000E+02 0.  0.
    9900012    2    3    3    0    0  0.10877909049E+02 -0.88705118424E+00 -0.35166224292E+02  0.54367094307E+02  0.40000023092E+02 0.  0.
         12    1    3    3    0    0 -0.10877909049E+02  0.88705118424E+00  0.35166224292E+02  0.36820905693E+02  0.00000000000E+00 0. -1.
         11    1    4    4    0    0  0.20552773529E+01  0.24754906991E+01 -0.30846939813E+02  0.31014285664E+02  0.51100000000E-03 0.  1.
        -11    1    4    4    0    0  0.38337534588E+01 -0.12185074568E+02 -0.30967926901E+01  0.13143965652E+02  0.51100000000E-03 0. -1.
        -12    1    4    4    0    0  0.49888782372E+01  0.88225326851E+01 -0.12224917891E+01  0.10208842991E+02  0.00000000000E+00 0.  1.
</event>
<event>
 8    1  0.3007389E-007  0.9118800E+02  0.7816164E-02  0.1184000E+00
        -11   -1    0    0    0    0  0.00000000000E+00  0.00000000000E+00  0.45593999997E+02  0.45594000000E+02  0.51100000000E-03 0.  1.
         11   -1    0    0    0    0 -0.00000000000E+00 -0.00000000000E+00 -0.45593999997E+02  0.45594000000E+02  0.51100000000E-03 0. -1.
         23    2    1    2    0    0  0.00000000000E+00  0.00000000000E+00  0.00000000000E+00  0.91188000000E+02  0.91188000000E+02 0.  0.
    9900012    2    3    3    0    0 -0.17076454556E+02  0.41845047342E+01  0.32352225838E+02  0.54367056275E+02  0.39999936391E+02 0.  0.
         12    1    3    3    0    0  0.17076454556E+02 -0.41845047342E+01 -0.32352225838E+02  0.36820943725E+02  0.00000000000E+00 0. -1.
         11    1    4    4    0    0 -0.90704148140E+00  0.18664375587E+02  0.18046245262E+02  0.25977848421E+02  0.51100000000E-03 0. -1.
        -11    1    4    4    0    0 -0.46662575320E+01 -0.18079927029E+01  0.92948241555E+01  0.10556351326E+02  0.51100000000E-03 0.  1.
         12    1    4    4    0    0 -0.11503155543E+02 -0.12671878150E+02  0.50111564211E+01  0.17832856528E+02  0.00000000000E+00 0. -1.
</event>
<event>
 8    1  0.3007389E-007  0.9118800E+02  0.7816164E-02  0.1184000E+00
        -11   -1    0    0    0    0  0.00000000000E+00  0.00000000000E+00  0.45593999997E+02  0.45594000000E+02  0.51100000000E-03 0. -1.
         11   -1    0    0    0    0 -0.00000000000E+00 -0.00000000000E+00 -0.45593999997E+02  0.45594000000E+02  0.51100000000E-03 0.  1.
         23    2    1    2    0    0  0.00000000000E+00 -0.35527136788E-14  0.00000000000E+00  0.91188000000E+02  0.91188000000E+02 0.  0.
    9900012    2    3    3    0    0  0.22313705977E+02 -0.25803051891E+02  0.13859277875E+02  0.54367101797E+02  0.40000040166E+02 0.  0.
         12    1    3    3    0    0 -0.22313705977E+02  0.25803051891E+02 -0.13859277875E+02  0.36820898203E+02  0.00000000000E+00 0. -1.
         11    1    4    4    0    0  0.66325822358E+01 -0.58485364403E+01  0.11184059647E+02  0.14257619579E+02  0.51100000000E-03 0. -1.
        -11    1    4    4    0    0  0.13115002048E+02 -0.23011398334E+02  0.12660052127E+02  0.29356509536E+02  0.51100000000E-03 0.  1.
         12    1    4    4    0    0  0.25661216929E+01  0.30568828835E+01 -0.99848338991E+01  0.10752972682E+02  0.00000000000E+00 0. -1.
</event>
<event>
 8    1  0.3007389E-007  0.9118800E+02  0.7816164E-02  0.1184000E+00
        -11   -1    0    0    0    0  0.00000000000E+00  0.00000000000E+00  0.45593999997E+02  0.45594000000E+02  0.51100000000E-03 0. -1.
         11   -1    0    0    0    0 -0.00000000000E+00 -0.00000000000E+00 -0.45593999997E+02  0.45594000000E+02  0.51100000000E-03 0.  1.
         23    2    1    2    0    0 -0.71054273576E-14 -0.45796699766E-15 -0.88817841970E-15  0.91188000000E+02  0.91188000000E+02 0.  0.
    9900012    2    3    3    0    0 -0.36798780212E+02  0.83876073048E-01  0.12743432852E+01  0.54367065586E+02  0.39999957616E+02 0.  0.
        -12    1    3    3    0    0  0.36798780212E+02 -0.83876073048E-01 -0.12743432852E+01  0.36820934414E+02  0.00000000000E+00 0.  1.
         11    1    4    4    0    0 -0.73633961600E+01  0.33571640346E+01  0.42471475285E+01  0.91393881499E+01  0.51100000000E-03 0. -1.
        -11    1    4    4    0    0 -0.21333377982E+02  0.11082172263E+02  0.81021929150E+01  0.25368742351E+02  0.51100000000E-03 0.  1.
         12    1    4    4    0    0 -0.81020060703E+01 -0.14355460225E+02 -0.11074997158E+02  0.19858935085E+02  0.00000000000E+00 0. -1.
</event>
<event>
 8    1  0.3007389E-007  0.9118800E+02  0.7816164E-02  0.1184000E+00
        -11   -1    0    0    0    0  0.00000000000E+00  0.00000000000E+00  0.45593999997E+02  0.45594000000E+02  0.51100000000E-03 0.  1.
         11   -1    0    0    0    0 -0.00000000000E+00 -0.00000000000E+00 -0.45593999997E+02  0.45594000000E+02  0.51100000000E-03 0. -1.
         23    2    1    2    0    0  0.91593399532E-15  0.00000000000E+00 -0.35527136788E-14  0.91188000000E+02  0.91188000000E+02 0.  0.
    9900012    2    3    3    0    0 -0.23018440613E+00 -0.31398243100E+02 -0.19232216468E+02  0.54367071102E+02  0.39999970191E+02 0.  0.
        -12    1    3    3    0    0  0.23018440613E+00  0.31398243100E+02  0.19232216468E+02  0.36820928898E+02  0.00000000000E+00 0.  1.
         11    1    4    4    0    0  0.12239537800E+02 -0.98209722058E+01 -0.45805453358E+01  0.16347451681E+02  0.51100000000E-03 0. -1.
        -11    1    4    4    0    0  0.27953850271E+00 -0.15849685495E+02 -0.17651280430E+02  0.23724636418E+02  0.51100000000E-03 0.  1.
        -12    1    4    4    0    0 -0.12749260709E+02 -0.57275853991E+01  0.29996092982E+01  0.14294983003E+02  0.00000000000E+00 0.  1.
</event>
<event>
 8    1  0.3007389E-007  0.9118800E+02  0.7816164E-02  0.1184000E+00
        -11   -1    0    0    0    0  0.00000000000E+00  0.00000000000E+00  0.45593999997E+02  0.45594000000E+02  0.51100000000E-03 0. -1.
         11   -1    0    0    0    0 -0.00000000000E+00 -0.00000000000E+00 -0.45593999997E+02  0.45594000000E+02  0.51100000000E-03 0.  1.
         23    2    1    2    0    0  0.00000000000E+00  0.00000000000E+00 -0.44408920985E-15  0.91188000000E+02  0.91188000000E+02 0.  0.
    9900012    2    3    3    0    0  0.33123741947E+02  0.15731171798E+02  0.33358322384E+01  0.54367084430E+02  0.40000000574E+02 0.  0.
        -12    1    3    3    0    0 -0.33123741947E+02 -0.15731171798E+02 -0.33358322384E+01  0.36820915570E+02  0.00000000000E+00 0.  1.
         11    1    4    4    0    0  0.26981889441E+02  0.60528955644E+01  0.19196168280E+02  0.33662334729E+02  0.51100000000E-03 0. -1.
        -11    1    4    4    0    0  0.15370470051E+00  0.24735440956E+01 -0.83126321461E+01  0.86742088392E+01  0.51100000000E-03 0.  1.
         12    1    4    4    0    0  0.59881478060E+01  0.72047321379E+01 -0.75477038958E+01  0.12030540862E+02  0.00000000000E+00 0. -1.
</event>
<event>
 8    1  0.3007389E-007  0.9118800E+02  0.7816164E-02  0.1184000E+00
        -11   -1    0    0    0    0  0.00000000000E+00  0.00000000000E+00  0.45593999997E+02  0.45594000000E+02  0.51100000000E-03 0. -1.
         11   -1    0    0    0    0 -0.00000000000E+00 -0.00000000000E+00 -0.45593999997E+02  0.45594000000E+02  0.51100000000E-03 0.  1.
         23    2    1    2    0    0 -0.17763568394E-14  0.00000000000E+00  0.00000000000E+00  0.91188000000E+02  0.91188000000E+02 0.  0.
    9900012    2    3    3    0    0 -0.11762351428E+02 -0.33710995895E+02 -0.89998046536E+01  0.54367073353E+02  0.39999975323E+02 0.  0.
         12    1    3    3    0    0  0.11762351428E+02  0.33710995895E+02  0.89998046536E+01  0.36820926647E+02  0.00000000000E+00 0. -1.
         11    1    4    4    0    0  0.13835825523E+01 -0.20056750912E+02  0.13620119628E+02  0.24283640929E+02  0.51100000000E-03 0. -1.
        -11    1    4    4    0    0 -0.34800827003E-01 -0.76055826537E+00 -0.33973742067E+01  0.34816392308E+01  0.51100000000E-03 0.  1.
         12    1    4    4    0    0 -0.13111133153E+02 -0.12893686718E+02 -0.19222550075E+02  0.26601793193E+02  0.00000000000E+00 0. -1.
</event>
<event>
 8    1  0.3007389E-007  0.9118800E+02  0.7816164E-02  0.1184000E+00
        -11   -1    0    0    0    0  0.00000000000E+00  0.00000000000E+00  0.45593999997E+02  0.45594000000E+02  0.51100000000E-03 0.  1.
         11   -1    0    0    0    0 -0.00000000000E+00 -0.00000000000E+00 -0.45593999997E+02  0.45594000000E+02  0.51100000000E-03 0. -1.
         23    2    1    2    0    0  0.44408920985E-15 -0.35527136788E-14  0.00000000000E+00  0.91188000000E+02  0.91188000000E+02 0.  0.
    9900012    2    3    3    0    0 -0.24912630363E+01  0.16811968348E+02  0.32663914607E+02  0.54367082185E+02  0.39999995457E+02 0.  0.
         12    1    3    3    0    0  0.24912630363E+01 -0.16811968348E+02 -0.32663914607E+02  0.36820917815E+02  0.00000000000E+00 0. -1.
         11    1    4    4    0    0  0.12721173518E+01  0.23847782849E+02  0.22004174945E+02  0.32473354379E+02  0.51100000000E-03 0. -1.
        -11    1    4    4    0    0  0.66585539496E+01 -0.46621401816E+01  0.65610148790E+01  0.10445994844E+02  0.51100000000E-03 0.  1.
        -12    1    4    4    0    0 -0.10421934338E+02 -0.23736743197E+01  0.40987247838E+01  0.11447732962E+02  0.00000000000E+00 0.  1.
</event>
<event>
 8    1  0.3007389E-007  0.9118800E+02  0.7816164E-02  0.1184000E+00
        -11   -1    0    0    0    0  0.00000000000E+00  0.00000000000E+00  0.45593999997E+02  0.45594000000E+02  0.51100000000E-03 0.  1.
         11   -1    0    0    0    0 -0.00000000000E+00 -0.00000000000E+00 -0.45593999997E+02  0.45594000000E+02  0.51100000000E-03 0. -1.
         23    2    1    2    0    0 -0.71054273576E-14 -0.17763568394E-14  0.44408920985E-15  0.91188000000E+02  0.91188000000E+02 0.  0.
    9900012    2    3    3    0    0  0.36222845854E+02  0.56082797807E+01 -0.34974735374E+01  0.54367086309E+02  0.40000004859E+02 0.  0.
        -12    1    3    3    0    0 -0.36222845854E+02 -0.56082797807E+01  0.34974735374E+01  0.36820913691E+02  0.00000000000E+00 0.  1.
         11    1    4    4    0    0 -0.16265187205E+01  0.95843445812E+00 -0.64956122185E+01  0.67644022732E+01  0.51100000000E-03 0. -1.
        -11    1    4    4    0    0  0.55539473336E+01  0.96375926912E+01  0.90854108214E+01  0.14362249612E+02  0.51100000000E-03 0.  1.
         12    1    4    4    0    0  0.32295417241E+02 -0.49877473686E+01 -0.60872721403E+01  0.33240434424E+02  0.00000000000E+00 0. -1.
</event>
<event>
 8    1  0.3007389E-007  0.9118800E+02  0.7816164E-02  0.1184000E+00
        -11   -1    0    0    0    0  0.00000000000E+00  0.00000000000E+00  0.45593999997E+02  0.45594000000E+02  0.51100000000E-03 0. -1.
         11   -1    0    0    0    0 -0.00000000000E+00 -0.00000000000E+00 -0.45593999997E+02  0.45594000000E+02  0.51100000000E-03 0.  1.
         23    2    1    2    0    0 -0.44408920985E-15 -0.44408920985E-15  0.00000000000E+00  0.91188000000E+02  0.91188000000E+02 0.  0.
    9900012    2    3    3    0    0  0.29794172248E+01  0.29701039791E+01 -0.36579793214E+02  0.54367085886E+02  0.40000003893E+02 0.  0.
         12    1    3    3    0    0 -0.29794172248E+01 -0.29701039791E+01  0.36579793214E+02  0.36820914114E+02  0.00000000000E+00 0. -1.
         11    1    4    4    0    0 -0.62770175039E+01  0.91229236731E+01 -0.14345225058E+02  0.18122200951E+02  0.51100000000E-03 0. -1.
        -11    1    4    4    0    0  0.55548409408E+01 -0.14662541167E+02 -0.46376822684E+01  0.16350977599E+02  0.51100000000E-03 0.  1.
        -12    1    4    4    0    0  0.37015937879E+01  0.85097214734E+01 -0.17596885887E+02  0.19893907335E+02  0.00000000000E+00 0.  1.
</event>
<event>
 8    1  0.3007389E-007  0.9118800E+02  0.7816164E-02  0.1184000E+00
        -11   -1    0    0    0    0  0.00000000000E+00  0.00000000000E+00  0.45593999997E+02  0.45594000000E+02  0.51100000000E-03 0. -1.
         11   -1    0    0    0    0 -0.00000000000E+00 -0.00000000000E+00 -0.45593999997E+02  0.45594000000E+02  0.51100000000E-03 0.  1.
         23    2    1    2    0    0  0.00000000000E+00 -0.35527136788E-14  0.35527136788E-14  0.91188000000E+02  0.91188000000E+02 0.  0.
    9900012    2    3    3    0    0 -0.21168793845E+02 -0.22799591915E+02 -0.19693618151E+02  0.54367111631E+02  0.40000062586E+02 0.  0.
         12    1    3    3    0    0  0.21168793845E+02  0.22799591915E+02  0.19693618151E+02  0.36820888369E+02  0.00000000000E+00 0. -1.
         11    1    4    4    0    0 -0.73659836055E+01  0.19379933108E+01 -0.19178076698E+02  0.20635216467E+02  0.51100000000E-03 0. -1.
        -11    1    4    4    0    0 -0.17106568172E+02 -0.15057749840E+02  0.28433377498E+01  0.22966390110E+02  0.51100000000E-03 0.  1.
        -12    1    4    4    0    0  0.33037579319E+01 -0.96798353861E+01 -0.33588792028E+01  0.10765505054E+02  0.00000000000E+00 0.  1.
</event>
<event>
 8    1  0.3007389E-007  0.9118800E+02  0.7816164E-02  0.1184000E+00
        -11   -1    0    0    0    0  0.00000000000E+00  0.00000000000E+00  0.45593999997E+02  0.45594000000E+02  0.51100000000E-03 0. -1.
         11   -1    0    0    0    0 -0.00000000000E+00 -0.00000000000E+00 -0.45593999997E+02  0.45594000000E+02  0.51100000000E-03 0.  1.
         23    2    1    2    0    0  0.00000000000E+00  0.00000000000E+00  0.00000000000E+00  0.91188000000E+02  0.91188000000E+02 0.  0.
    9900012    2    3    3    0    0  0.20930441085E+02 -0.25519067924E+02 -0.16324114766E+02  0.54367042454E+02  0.39999904883E+02 0.  0.
         12    1    3    3    0    0 -0.20930441085E+02  0.25519067924E+02  0.16324114766E+02  0.36820957546E+02  0.00000000000E+00 0. -1.
         11    1    4    4    0    0  0.12536458290E+02 -0.23531001604E+02 -0.69031576489E+00  0.26671095948E+02  0.51100000000E-03 0. -1.
        -11    1    4    4    0    0  0.10482945055E+02  0.61589844808E+01 -0.30073629973E+01  0.12524753863E+02  0.51100000000E-03 0.  1.
         12    1    4    4    0    0 -0.20889622605E+01 -0.81470507999E+01 -0.12626436004E+02  0.15171192643E+02  0.00000000000E+00 0. -1.
</event>
<event>
 8    1  0.3007389E-007  0.9118800E+02  0.7816164E-02  0.1184000E+00
        -11   -1    0    0    0    0  0.00000000000E+00  0.00000000000E+00  0.45593999997E+02  0.45594000000E+02  0.51100000000E-03 0. -1.
         11   -1    0    0    0    0 -0.00000000000E+00 -0.00000000000E+00 -0.45593999997E+02  0.45594000000E+02  0.51100000000E-03 0.  1.
         23    2    1    2    0    0  0.00000000000E+00  0.00000000000E+00  0.00000000000E+00  0.91188000000E+02  0.91188000000E+02 0.  0.
    9900012    2    3    3    0    0 -0.16367876982E+02 -0.27799143158E+02  0.17750810660E+02  0.54366932168E+02  0.39999653462E+02 0.  0.
        -12    1    3    3    0    0  0.16367876982E+02  0.27799143158E+02 -0.17750810660E+02  0.36821067832E+02  0.00000000000E+00 0.  1.
         11    1    4    4    0    0 -0.61827702160E+01 -0.43732342276E+00  0.54668093588E+00  0.62222792952E+01  0.51100000000E-03 0. -1.
        -11    1    4    4    0    0  0.72971669470E+01  0.31964152665E+01  0.89545707275E+01  0.11985410013E+02  0.51100000000E-03 0.  1.
        -12    1    4    4    0    0 -0.17482273713E+02 -0.30558235001E+02  0.82495589964E+01  0.36159242860E+02  0.00000000000E+00 0.  1.
</event>
<event>
 8    1  0.3007389E-007  0.9118800E+02  0.7816164E-02  0.1184000E+00
        -11   -1    0    0    0    0  0.00000000000E+00  0.00000000000E+00  0.45593999997E+02  0.45594000000E+02  0.51100000000E-03 0.  1.
         11   -1    0    0    0    0 -0.00000000000E+00 -0.00000000000E+00 -0.45593999997E+02  0.45594000000E+02  0.51100000000E-03 0. -1.
         23    2    1    2    0    0  0.17763568394E-14 -0.35527136788E-14  0.00000000000E+00  0.91188000000E+02  0.91188000000E+02 0.  0.
    9900012    2    3    3    0    0 -0.93260840753E+01  0.24351317478E+02 -0.25996485018E+02  0.54367085557E+02  0.40000003145E+02 0.  0.
        -12    1    3    3    0    0  0.93260840753E+01 -0.24351317478E+02  0.25996485018E+02  0.36820914443E+02  0.00000000000E+00 0.  1.
         11    1    4    4    0    0  0.20231444075E+01  0.20539808393E+01 -0.13747176712E+01  0.31940255977E+01  0.51100000000E-03 0. -1.
        -11    1    4    4    0    0 -0.14406412588E+02 -0.64687225542E+01 -0.67843785180E+01  0.17187695810E+02  0.51100000000E-03 0.  1.
        -12    1    4    4    0    0  0.30571841049E+01  0.28766059193E+02 -0.17837388828E+02  0.33985364150E+02  0.00000000000E+00 0.  1.
</event>
<event>
 8    1  0.3007389E-007  0.9118800E+02  0.7816164E-02  0.1184000E+00
        -11   -1    0    0    0    0  0.00000000000E+00  0.00000000000E+00  0.45593999997E+02  0.45594000000E+02  0.51100000000E-03 0.  1.
         11   -1    0    0    0    0 -0.00000000000E+00 -0.00000000000E+00 -0.45593999997E+02  0.45594000000E+02  0.51100000000E-03 0. -1.
         23    2    1    2    0    0  0.00000000000E+00  0.88817841970E-15  0.00000000000E+00  0.91188000000E+02  0.91188000000E+02 0.  0.
    9900012    2    3    3    0    0 -0.15660311133E+02  0.74883711575E+01 -0.32472421014E+02  0.54367093250E+02  0.40000020682E+02 0.  0.
         12    1    3    3    0    0  0.15660311133E+02 -0.74883711575E+01  0.32472421014E+02  0.36820906750E+02  0.00000000000E+00 0. -1.
         11    1    4    4    0    0  0.63349759073E+01 -0.31931186283E+01 -0.14273125091E+02  0.15938946843E+02  0.51100000000E-03 0. -1.
        -11    1    4    4    0    0 -0.93681934350E+01 -0.69293189161E+01 -0.32338013729E+01  0.12092806972E+02  0.51100000000E-03 0.  1.
        -12    1    4    4    0    0 -0.12627093606E+02  0.17610808702E+02 -0.14965494550E+02  0.26335339435E+02  0.00000000000E+00 0.  1.
</event>
<event>
 8    1  0.3007389E-007  0.9118800E+02  0.7816164E-02  0.1184000E+00
        -11   -1    0    0    0    0  0.00000000000E+00  0.00000000000E+00  0.45593999997E+02  0.45594000000E+02  0.51100000000E-03 0.  1.
         11   -1    0    0    0    0 -0.00000000000E+00 -0.00000000000E+00 -0.45593999997E+02  0.45594000000E+02  0.51100000000E-03 0. -1.
         23    2    1    2    0    0  0.71054273576E-14  0.00000000000E+00 -0.35527136788E-14  0.91188000000E+02  0.91188000000E+02 0.  0.
    9900012    2    3    3    0    0 -0.32768367249E+02 -0.31779432247E+01  0.16489923235E+02  0.54367044233E+02  0.39999908937E+02 0.  0.
         12    1    3    3    0    0  0.32768367249E+02  0.31779432247E+01 -0.16489923235E+02  0.36820955767E+02  0.00000000000E+00 0. -1.
         11    1    4    4    0    0 -0.34536755123E+01 -0.12141557559E+01 -0.43820917853E+01  0.57100593184E+01  0.51100000000E-03 0. -1.
        -11    1    4    4    0    0 -0.32665166785E+01 -0.17212226297E+01  0.22266337770E+02  0.22570390704E+02  0.51100000000E-03 0.  1.
        -12    1    4    4    0    0 -0.26048175058E+02 -0.24256483909E+00 -0.13943227496E+01  0.26086594211E+02  0.00000000000E+00 0.  1.
</event>
<event>
 8    1  0.3007389E-007  0.9118800E+02  0.7816164E-02  0.1184000E+00
        -11   -1    0    0    0    0  0.00000000000E+00  0.00000000000E+00  0.45593999997E+02  0.45594000000E+02  0.51100000000E-03 0.  1.
         11   -1    0    0    0    0 -0.00000000000E+00 -0.00000000000E+00 -0.45593999997E+02  0.45594000000E+02  0.51100000000E-03 0. -1.
         23    2    1    2    0    0 -0.88817841970E-15  0.00000000000E+00  0.00000000000E+00  0.91188000000E+02  0.91188000000E+02 0.  0.
    9900012    2    3    3    0    0  0.77701951932E+01  0.77916933690E+01 -0.35138155588E+02  0.54367130958E+02  0.40000106644E+02 0.  0.
        -12    1    3    3    0    0 -0.77701951932E+01 -0.77916933690E+01  0.35138155588E+02  0.36820869042E+02  0.00000000000E+00 0.  1.
         11    1    4    4    0    0 -0.31083394360E+01 -0.33831488321E+01  0.15446691804E+01  0.48470066234E+01  0.51100000000E-03 0. -1.
        -11    1    4    4    0    0  0.61090414819E+01  0.14180155140E+01  0.39828346869E+01  0.74292750810E+01  0.51100000000E-03 0.  1.
         12    1    4    4    0    0  0.47694931473E+01  0.97568266872E+01 -0.40665659456E+02  0.42090849253E+02  0.00000000000E+00 0. -1.
</event>
<event>
 8    1  0.3007389E-007  0.9118800E+02  0.7816164E-02  0.1184000E+00
        -11   -1    0    0    0    0  0.00000000000E+00  0.00000000000E+00  0.45593999997E+02  0.45594000000E+02  0.51100000000E-03 0.  1.
         11   -1    0    0    0    0 -0.00000000000E+00 -0.00000000000E+00 -0.45593999997E+02  0.45594000000E+02  0.51100000000E-03 0. -1.
         23    2    1    2    0    0 -0.17763568394E-14  0.35527136788E-14  0.00000000000E+00  0.91188000000E+02  0.91188000000E+02 0.  0.
    9900012    2    3    3    0    0 -0.89885980154E+01  0.23892469502E+02 -0.26535617910E+02  0.54367027565E+02  0.39999870939E+02 0.  0.
        -12    1    3    3    0    0  0.89885980154E+01 -0.23892469502E+02  0.26535617910E+02  0.36820972435E+02  0.00000000000E+00 0.  1.
         11    1    4    4    0    0  0.25435761659E+01  0.13315798151E+02 -0.27981637692E+02  0.31092640742E+02  0.51100000000E-03 0. -1.
        -11    1    4    4    0    0  0.41857951365E+00 -0.28840301051E+01  0.41511281821E+01  0.50719526715E+01  0.51100000000E-03 0.  1.
        -12    1    4    4    0    0 -0.11950753695E+02  0.13460701456E+02 -0.27051084003E+01  0.18202434151E+02  0.00000000000E+00 0.  1.
</event>
<event>
 8    1  0.3007389E-007  0.9118800E+02  0.7816164E-02  0.1184000E+00
        -11   -1    0    0    0    0  0.00000000000E+00  0.00000000000E+00  0.45593999997E+02  0.45594000000E+02  0.51100000000E-03 0.  1.
         11   -1    0    0    0    0 -0.00000000000E+00 -0.00000000000E+00 -0.45593999997E+02  0.45594000000E+02  0.51100000000E-03 0. -1.
         23    2    1    2    0    0  0.00000000000E+00  0.35527136788E-14  0.17763568394E-14  0.91188000000E+02  0.91188000000E+02 0.  0.
    9900012    2    3    3    0    0 -0.26252615345E+02  0.23851416513E+02  0.98839078182E+01  0.54367061448E+02  0.39999948182E+02 0.  0.
        -12    1    3    3    0    0  0.26252615345E+02 -0.23851416513E+02 -0.98839078182E+01  0.36820938552E+02  0.00000000000E+00 0.  1.
         11    1    4    4    0    0 -0.10202188312E+02 -0.34711985436E+01 -0.98306956464E+01  0.14586858566E+02  0.51100000000E-03 0. -1.
        -11    1    4    4    0    0 -0.13044108359E+02  0.12622645406E+02  0.51463675046E+01  0.18867035769E+02  0.51100000000E-03 0.  1.
        -12    1    4    4    0    0 -0.30063186736E+01  0.14699969650E+02  0.14568235960E+02  0.20913167113E+02  0.00000000000E+00 0.  1.
</event>
<event>
 8    1  0.3007389E-007  0.9118800E+02  0.7816164E-02  0.1184000E+00
        -11   -1    0    0    0    0  0.00000000000E+00  0.00000000000E+00  0.45593999997E+02  0.45594000000E+02  0.51100000000E-03 0.  1.
         11   -1    0    0    0    0 -0.00000000000E+00 -0.00000000000E+00 -0.45593999997E+02  0.45594000000E+02  0.51100000000E-03 0. -1.
         23    2    1    2    0    0  0.00000000000E+00  0.00000000000E+00  0.00000000000E+00  0.91188000000E+02  0.91188000000E+02 0.  0.
    9900012    2    3    3    0    0  0.10592906977E+02  0.16885594551E+02 -0.30958852674E+02  0.54367033955E+02  0.39999885508E+02 0.  0.
        -12    1    3    3    0    0 -0.10592906977E+02 -0.16885594551E+02  0.30958852674E+02  0.36820966045E+02  0.00000000000E+00 0.  1.
         11    1    4    4    0    0  0.11406519515E+01  0.11474666271E+02 -0.99847878203E+01  0.15253361629E+02  0.51100000000E-03 0. -1.
        -11    1    4    4    0    0  0.13792110281E+02  0.68407941684E+01 -0.27281119205E+02  0.31325360911E+02  0.51100000000E-03 0.  1.
        -12    1    4    4    0    0 -0.43398552554E+01 -0.14298658884E+01  0.63070543517E+01  0.77883114147E+01  0.00000000000E+00 0.  1.
</event>
<event>
 8    1  0.3007389E-007  0.9118800E+02  0.7816164E-02  0.1184000E+00
        -11   -1    0    0    0    0  0.00000000000E+00  0.00000000000E+00  0.45593999997E+02  0.45594000000E+02  0.51100000000E-03 0.  1.
         11   -1    0    0    0    0 -0.00000000000E+00 -0.00000000000E+00 -0.45593999997E+02  0.45594000000E+02  0.51100000000E-03 0. -1.
         23    2    1    2    0    0 -0.35527136788E-14 -0.17763568394E-14  0.00000000000E+00  0.91188000000E+02  0.91188000000E+02 0.  0.
    9900012    2    3    3    0    0  0.20449957961E+02 -0.10015029359E+02  0.28935777849E+02  0.54367070715E+02  0.39999969310E+02 0.  0.
         12    1    3    3    0    0 -0.20449957961E+02  0.10015029359E+02 -0.28935777849E+02  0.36820929285E+02  0.00000000000E+00 0. -1.
         11    1    4    4    0    0  0.26465573589E+02  0.43381265714E+01  0.26805853035E+02  0.37918329140E+02  0.51100000000E-03 0.  1.
        -11    1    4    4    0    0 -0.22867008736E+01 -0.48971770137E+01  0.31121531426E+01  0.62367332020E+01  0.51100000000E-03 0. -1.
        -12    1    4    4    0    0 -0.37289147550E+01 -0.94559789171E+01 -0.98222832886E+00  0.10212008373E+02  0.00000000000E+00 0.  1.
</event>
<event>
 8    1  0.3007389E-007  0.9118800E+02  0.7816164E-02  0.1184000E+00
        -11   -1    0    0    0    0  0.00000000000E+00  0.00000000000E+00  0.45593999997E+02  0.45594000000E+02  0.51100000000E-03 0. -1.
         11   -1    0    0    0    0 -0.00000000000E+00 -0.00000000000E+00 -0.45593999997E+02  0.45594000000E+02  0.51100000000E-03 0.  1.
         23    2    1    2    0    0 -0.35527136788E-14  0.35527136788E-14  0.00000000000E+00  0.91188000000E+02  0.91188000000E+02 0.  0.
    9900012    2    3    3    0    0 -0.17512465360E+02 -0.21196072833E+02  0.24491189963E+02  0.54367104678E+02  0.40000046735E+02 0.  0.
        -12    1    3    3    0    0  0.17512465360E+02  0.21196072833E+02 -0.24491189963E+02  0.36820895322E+02  0.00000000000E+00 0.  1.
         11    1    4    4    0    0 -0.86854757251E+01 -0.38814483859E+01  0.19872071944E+02  0.22031849077E+02  0.51100000000E-03 0. -1.
        -11    1    4    4    0    0 -0.53180726548E+01 -0.21932644134E+02  0.97569168149E+01  0.24586992526E+02  0.51100000000E-03 0.  1.
        -12    1    4    4    0    0 -0.35089169796E+01  0.46180196876E+01 -0.51377987962E+01  0.77482630747E+01  0.00000000000E+00 0.  1.
</event>
<event>
 8    1  0.3007389E-007  0.9118800E+02  0.7816164E-02  0.1184000E+00
        -11   -1    0    0    0    0  0.00000000000E+00  0.00000000000E+00  0.45593999997E+02  0.45594000000E+02  0.51100000000E-03 0. -1.
         11   -1    0    0    0    0 -0.00000000000E+00 -0.00000000000E+00 -0.45593999997E+02  0.45594000000E+02  0.51100000000E-03 0.  1.
         23    2    1    2    0    0  0.00000000000E+00  0.00000000000E+00 -0.35527136788E-14  0.91188000000E+02  0.91188000000E+02 0.  0.
    9900012    2    3    3    0    0  0.24204646779E+01  0.26166120182E+02 -0.25792540085E+02  0.54367087211E+02  0.40000006914E+02 0.  0.
         12    1    3    3    0    0 -0.24204646779E+01 -0.26166120182E+02  0.25792540085E+02  0.36820912789E+02  0.00000000000E+00 0. -1.
         11    1    4    4    0    0 -0.59661198257E+01  0.22111311195E+01 -0.20379185733E+00  0.63659420344E+01  0.51100000000E-03 0. -1.
        -11    1    4    4    0    0  0.12497024653E+01 -0.14964839569E+01 -0.21099600486E+02  0.21189487049E+02  0.51100000000E-03 0.  1.
        -12    1    4    4    0    0  0.71368820384E+01  0.25451473019E+02 -0.44891477415E+01  0.26811658127E+02  0.00000000000E+00 0.  1.
</event>
<event>
 8    1  0.3007389E-007  0.9118800E+02  0.7816164E-02  0.1184000E+00
        -11   -1    0    0    0    0  0.00000000000E+00  0.00000000000E+00  0.45593999997E+02  0.45594000000E+02  0.51100000000E-03 0. -1.
         11   -1    0    0    0    0 -0.00000000000E+00 -0.00000000000E+00 -0.45593999997E+02  0.45594000000E+02  0.51100000000E-03 0.  1.
         23    2    1    2    0    0  0.00000000000E+00  0.00000000000E+00  0.35527136788E-14  0.91188000000E+02  0.91188000000E+02 0.  0.
    9900012    2    3    3    0    0  0.17501700752E+02 -0.14190351149E+02  0.29122277836E+02  0.54367045894E+02  0.39999912725E+02 0.  0.
        -12    1    3    3    0    0 -0.17501700752E+02  0.14190351149E+02 -0.29122277836E+02  0.36820954106E+02  0.00000000000E+00 0.  1.
         11    1    4    4    0    0  0.21845272230E+02 -0.76222468564E+01  0.12158373501E+02  0.26136958744E+02  0.51100000000E-03 0. -1.
        -11    1    4    4    0    0 -0.42158648983E+01 -0.55335932598E+01 -0.34669645903E+01  0.77726452986E+01  0.51100000000E-03 0.  1.
         12    1    4    4    0    0 -0.12770658027E+00 -0.10345110324E+01  0.20430868925E+02  0.20457441851E+02  0.00000000000E+00 0. -1.
</event>
<event>
 8    1  0.3007389E-007  0.9118800E+02  0.7816164E-02  0.1184000E+00
        -11   -1    0    0    0    0  0.00000000000E+00  0.00000000000E+00  0.45593999997E+02  0.45594000000E+02  0.51100000000E-03 0.  1.
         11   -1    0    0    0    0 -0.00000000000E+00 -0.00000000000E+00 -0.45593999997E+02  0.45594000000E+02  0.51100000000E-03 0. -1.
         23    2    1    2    0    0 -0.35527136788E-14  0.00000000000E+00 -0.35527136788E-14  0.91188000000E+02  0.91188000000E+02 0.  0.
    9900012    2    3    3    0    0 -0.27027119166E+02  0.16984818340E+02 -0.18352923752E+02  0.54367095140E+02  0.40000024991E+02 0.  0.
        -12    1    3    3    0    0  0.27027119166E+02 -0.16984818340E+02  0.18352923752E+02  0.36820904860E+02  0.00000000000E+00 0.  1.
         11    1    4    4    0    0  0.46722400613E+01  0.17161125688E+01  0.28794256004E+01  0.57503009998E+01  0.51100000000E-03 0. -1.
        -11    1    4    4    0    0 -0.84464463182E+01  0.11694565916E+02  0.31170505059E+01  0.14758771341E+02  0.51100000000E-03 0.  1.
        -12    1    4    4    0    0 -0.23252912909E+02  0.35741398552E+01 -0.24349399858E+02  0.33858022800E+02  0.00000000000E+00 0.  1.
</event>
<event>
 8    1  0.3007389E-007  0.9118800E+02  0.7816164E-02  0.1184000E+00
        -11   -1    0    0    0    0  0.00000000000E+00  0.00000000000E+00  0.45593999997E+02  0.45594000000E+02  0.51100000000E-03 0.  1.
         11   -1    0    0    0    0 -0.00000000000E+00 -0.00000000000E+00 -0.45593999997E+02  0.45594000000E+02  0.51100000000E-03 0. -1.
         23    2    1    2    0    0  0.17763568394E-14  0.00000000000E+00  0.17763568394E-14  0.91188000000E+02  0.91188000000E+02 0.  0.
    9900012    2    3    3    0    0  0.11153145231E+02  0.32413721203E+02  0.13443922594E+02  0.54367068107E+02  0.39999963364E+02 0.  0.
         12    1    3    3    0    0 -0.11153145231E+02 -0.32413721203E+02 -0.13443922594E+02  0.36820931893E+02  0.00000000000E+00 0. -1.
         11    1    4    4    0    0  0.33349615132E+01  0.27917396350E+02  0.50653393854E+01  0.28568525524E+02  0.51100000000E-03 0. -1.
        -11    1    4    4    0    0 -0.67014540993E+01  0.65944087738E+01  0.53542889563E+01  0.10819617581E+02  0.51100000000E-03 0.  1.
         12    1    4    4    0    0  0.14519637817E+02 -0.20980839212E+01  0.30242942520E+01  0.14978925001E+02  0.00000000000E+00 0. -1.
</event>
<event>
 8    1  0.3007389E-007  0.9118800E+02  0.7816164E-02  0.1184000E+00
        -11   -1    0    0    0    0  0.00000000000E+00  0.00000000000E+00  0.45593999997E+02  0.45594000000E+02  0.51100000000E-03 0. -1.
         11   -1    0    0    0    0 -0.00000000000E+00 -0.00000000000E+00 -0.45593999997E+02  0.45594000000E+02  0.51100000000E-03 0.  1.
         23    2    1    2    0    0  0.00000000000E+00  0.35527136788E-14  0.35527136788E-14  0.91188000000E+02  0.91188000000E+02 0.  0.
    9900012    2    3    3    0    0  0.21524218337E+02  0.12049208652E+02 -0.27336834369E+02  0.54367110311E+02  0.40000059576E+02 0.  0.
         12    1    3    3    0    0 -0.21524218337E+02 -0.12049208652E+02  0.27336834369E+02  0.36820889689E+02  0.00000000000E+00 0. -1.
         11    1    4    4    0    0  0.82494112905E+01 -0.60094864169E+01 -0.16075858392E+02  0.19042057057E+02  0.51100000000E-03 0.  1.
        -11    1    4    4    0    0 -0.56118078443E+00  0.17173596535E+02  0.43208508027E+00  0.17188194774E+02  0.51100000000E-03 0. -1.
         12    1    4    4    0    0  0.13835987831E+02  0.88509853384E+00 -0.11693061057E+02  0.18136858481E+02  0.00000000000E+00 0. -1.
</event>
<event>
 8    1  0.3007389E-007  0.9118800E+02  0.7816164E-02  0.1184000E+00
        -11   -1    0    0    0    0  0.00000000000E+00  0.00000000000E+00  0.45593999997E+02  0.45594000000E+02  0.51100000000E-03 0.  1.
         11   -1    0    0    0    0 -0.00000000000E+00 -0.00000000000E+00 -0.45593999997E+02  0.45594000000E+02  0.51100000000E-03 0. -1.
         23    2    1    2    0    0  0.00000000000E+00  0.00000000000E+00  0.00000000000E+00  0.91188000000E+02  0.91188000000E+02 0.  0.
    9900012    2    3    3    0    0  0.39873519753E+01 -0.95460383459E+01 -0.35337704696E+02  0.54367092936E+02  0.40000019966E+02 0.  0.
        -12    1    3    3    0    0 -0.39873519753E+01  0.95460383459E+01  0.35337704696E+02  0.36820907064E+02  0.00000000000E+00 0.  1.
         11    1    4    4    0    0 -0.40409361834E+01  0.48321318989E+01 -0.31649667830E+02  0.32270422029E+02  0.51100000000E-03 0. -1.
        -11    1    4    4    0    0  0.11762730859E+01  0.17458695350E+01  0.27221913653E+01  0.34412214251E+01  0.51100000000E-03 0.  1.
         12    1    4    4    0    0  0.68520150728E+01 -0.16124039780E+02 -0.64102282307E+01  0.18655449481E+02  0.00000000000E+00 0. -1.
</event>
<event>
 8    1  0.3007389E-007  0.9118800E+02  0.7816164E-02  0.1184000E+00
        -11   -1    0    0    0    0  0.00000000000E+00  0.00000000000E+00  0.45593999997E+02  0.45594000000E+02  0.51100000000E-03 0. -1.
         11   -1    0    0    0    0 -0.00000000000E+00 -0.00000000000E+00 -0.45593999997E+02  0.45594000000E+02  0.51100000000E-03 0.  1.
         23    2    1    2    0    0 -0.35527136788E-14  0.00000000000E+00 -0.88817841970E-15  0.91188000000E+02  0.91188000000E+02 0.  0.
    9900012    2    3    3    0    0 -0.29355320701E+02 -0.20897084505E+02 -0.75734135734E+01  0.54367087635E+02  0.40000007881E+02 0.  0.
        -12    1    3    3    0    0  0.29355320701E+02  0.20897084505E+02  0.75734135734E+01  0.36820912365E+02  0.00000000000E+00 0.  1.
         11    1    4    4    0    0  0.32128569221E+01 -0.12086957234E+02 -0.15108998120E+02  0.19613740318E+02  0.51100000000E-03 0.  1.
        -11    1    4    4    0    0 -0.10114687938E+02 -0.22343731347E+01  0.39377817396E+01  0.11081762526E+02  0.51100000000E-03 0. -1.
        -12    1    4    4    0    0 -0.22453489685E+02 -0.65757541358E+01  0.35978028073E+01  0.23671584791E+02  0.00000000000E+00 0.  1.
</event>
<event>
 8    1  0.3007389E-007  0.9118800E+02  0.7816164E-02  0.1184000E+00
        -11   -1    0    0    0    0  0.00000000000E+00  0.00000000000E+00  0.45593999997E+02  0.45594000000E+02  0.51100000000E-03 0. -1.
         11   -1    0    0    0    0 -0.00000000000E+00 -0.00000000000E+00 -0.45593999997E+02  0.45594000000E+02  0.51100000000E-03 0.  1.
         23    2    1    2    0    0  0.00000000000E+00  0.00000000000E+00  0.35527136788E-14  0.91188000000E+02  0.91188000000E+02 0.  0.
    9900012    2    3    3    0    0 -0.59336843333E+01  0.18988806524E+02  0.30983775440E+02  0.54367112945E+02  0.40000065581E+02 0.  0.
        -12    1    3    3    0    0  0.59336843333E+01 -0.18988806524E+02 -0.30983775440E+02  0.36820887055E+02  0.00000000000E+00 0.  1.
         11    1    4    4    0    0  0.13056757741E+01  0.36276026933E+00  0.22259065734E+01  0.26059632719E+01  0.51100000000E-03 0. -1.
        -11    1    4    4    0    0 -0.51897914787E+01 -0.11352921257E+02  0.49688492313E+01  0.13435483601E+02  0.51100000000E-03 0.  1.
         12    1    4    4    0    0 -0.20495686287E+01  0.29978967512E+02  0.23789019635E+02  0.38325666072E+02  0.00000000000E+00 0. -1.
</event>
<event>
 8    1  0.3007389E-007  0.9118800E+02  0.7816164E-02  0.1184000E+00
        -11   -1    0    0    0    0  0.00000000000E+00  0.00000000000E+00  0.45593999997E+02  0.45594000000E+02  0.51100000000E-03 0.  1.
         11   -1    0    0    0    0 -0.00000000000E+00 -0.00000000000E+00 -0.45593999997E+02  0.45594000000E+02  0.51100000000E-03 0. -1.
         23    2    1    2    0    0  0.00000000000E+00 -0.44408920985E-15 -0.88817841970E-15  0.91188000000E+02  0.91188000000E+02 0.  0.
    9900012    2    3    3    0    0  0.36345427873E+02  0.26856254251E+01  0.52512743602E+01  0.54367101130E+02  0.40000038646E+02 0.  0.
        -12    1    3    3    0    0 -0.36345427873E+02 -0.26856254251E+01 -0.52512743602E+01  0.36820898870E+02  0.00000000000E+00 0.  1.
         11    1    4    4    0    0  0.30521326119E+02 -0.15266741451E+01  0.72293134081E+01  0.31402946592E+02  0.51100000000E-03 0. -1.
        -11    1    4    4    0    0 -0.44183172539E+01  0.83286114990E+01  0.41922587451E+01  0.10318058466E+02  0.51100000000E-03 0.  1.
        -12    1    4    4    0    0  0.10242419008E+02 -0.41163119288E+01 -0.61702977929E+01  0.12646096073E+02  0.00000000000E+00 0.  1.
</event>
<event>
 8    1  0.3007389E-007  0.9118800E+02  0.7816164E-02  0.1184000E+00
        -11   -1    0    0    0    0  0.00000000000E+00  0.00000000000E+00  0.45593999997E+02  0.45594000000E+02  0.51100000000E-03 0.  1.
         11   -1    0    0    0    0 -0.00000000000E+00 -0.00000000000E+00 -0.45593999997E+02  0.45594000000E+02  0.51100000000E-03 0. -1.
         23    2    1    2    0    0  0.00000000000E+00  0.00000000000E+00  0.00000000000E+00  0.91188000000E+02  0.91188000000E+02 0.  0.
    9900012    2    3    3    0    0  0.18130034576E+02  0.19869500287E+02  0.25145372860E+02  0.54367014521E+02  0.39999841203E+02 0.  0.
        -12    1    3    3    0    0 -0.18130034576E+02 -0.19869500287E+02 -0.25145372860E+02  0.36820985479E+02  0.00000000000E+00 0.  1.
         11    1    4    4    0    0 -0.89678286042E-01  0.95023528564E+01  0.15232068415E+01  0.96240797661E+01  0.51100000000E-03 0. -1.
        -11    1    4    4    0    0  0.89651224812E+01  0.26489400550E+01 -0.71019806639E+01  0.11740035525E+02  0.51100000000E-03 0.  1.
        -12    1    4    4    0    0  0.92545903807E+01  0.77182073752E+01  0.30724146683E+02  0.33002899230E+02  0.00000000000E+00 0.  1.
</event>
<event>
 8    1  0.3007389E-007  0.9118800E+02  0.7816164E-02  0.1184000E+00
        -11   -1    0    0    0    0  0.00000000000E+00  0.00000000000E+00  0.45593999997E+02  0.45594000000E+02  0.51100000000E-03 0.  1.
         11   -1    0    0    0    0 -0.00000000000E+00 -0.00000000000E+00 -0.45593999997E+02  0.45594000000E+02  0.51100000000E-03 0. -1.
         23    2    1    2    0    0 -0.71054273576E-14  0.35527136788E-14  0.17763568394E-14  0.91188000000E+02  0.91188000000E+02 0.  0.
    9900012    2    3    3    0    0 -0.30833283624E+02  0.16954593760E+02  0.10845554516E+02  0.54367140676E+02  0.40000128799E+02 0.  0.
         12    1    3    3    0    0  0.30833283624E+02 -0.16954593760E+02 -0.10845554516E+02  0.36820859324E+02  0.00000000000E+00 0. -1.
         11    1    4    4    0    0 -0.27191138832E+01  0.54282761390E+01  0.17866040812E+02  0.18869424387E+02  0.51100000000E-03 0.  1.
        -11    1    4    4    0    0 -0.25512486313E+02  0.15560752210E+02 -0.50440452461E+01  0.30306209924E+02  0.51100000000E-03 0. -1.
        -12    1    4    4    0    0 -0.26016834274E+01 -0.40344345895E+01 -0.19764410500E+01  0.51915063650E+01  0.00000000000E+00 0.  1.
</event>
<event>
 8    1  0.3007389E-007  0.9118800E+02  0.7816164E-02  0.1184000E+00
        -11   -1    0    0    0    0  0.00000000000E+00  0.00000000000E+00  0.45593999997E+02  0.45594000000E+02  0.51100000000E-03 0.  1.
         11   -1    0    0    0    0 -0.00000000000E+00 -0.00000000000E+00 -0.45593999997E+02  0.45594000000E+02  0.51100000000E-03 0. -1.
         23    2    1    2    0    0 -0.35527136788E-14  0.17763568394E-14 -0.35527136788E-14  0.91188000000E+02  0.91188000000E+02 0.  0.
    9900012    2    3    3    0    0 -0.16402833272E+02 -0.13728044227E+02  0.29971101034E+02  0.54367095138E+02  0.40000024986E+02 0.  0.
         12    1    3    3    0    0  0.16402833272E+02  0.13728044227E+02 -0.29971101034E+02  0.36820904862E+02  0.00000000000E+00 0. -1.
         11    1    4    4    0    0 -0.82200208469E+01  0.69897899425E+01 -0.69450216112E+00  0.10812411372E+02  0.51100000000E-03 0. -1.
        -11    1    4    4    0    0 -0.13247441427E+02 -0.66741167848E+01  0.21212186139E+02  0.25884268973E+02  0.51100000000E-03 0.  1.
         12    1    4    4    0    0  0.50646290015E+01 -0.14043717385E+02  0.94534170559E+01  0.17670414793E+02  0.00000000000E+00 0. -1.
</event>
<event>
 8    1  0.3007389E-007  0.9118800E+02  0.7816164E-02  0.1184000E+00
        -11   -1    0    0    0    0  0.00000000000E+00  0.00000000000E+00  0.45593999997E+02  0.45594000000E+02  0.51100000000E-03 0.  1.
         11   -1    0    0    0    0 -0.00000000000E+00 -0.00000000000E+00 -0.45593999997E+02  0.45594000000E+02  0.51100000000E-03 0. -1.
         23    2    1    2    0    0 -0.88817841970E-15 -0.13322676296E-14  0.00000000000E+00  0.91188000000E+02  0.91188000000E+02 0.  0.
    9900012    2    3    3    0    0 -0.71081084221E+01  0.15222353113E+01  0.36096218463E+02  0.54367090274E+02  0.40000013898E+02 0.  0.
         12    1    3    3    0    0  0.71081084221E+01 -0.15222353113E+01 -0.36096218463E+02  0.36820909726E+02  0.00000000000E+00 0. -1.
         11    1    4    4    0    0 -0.10733872969E+02  0.18018534704E+02  0.18072162342E+02  0.27685495729E+02  0.51100000000E-03 0. -1.
        -11    1    4    4    0    0 -0.16094004751E+01 -0.41121646838E+01  0.28792139977E+00  0.44252646553E+01  0.51100000000E-03 0.  1.
        -12    1    4    4    0    0  0.52351650224E+01 -0.12384134709E+02  0.17736134721E+02  0.22256329890E+02  0.00000000000E+00 0.  1.
</event>
<event>
 8    1  0.3007389E-007  0.9118800E+02  0.7816164E-02  0.1184000E+00
        -11   -1    0    0    0    0  0.00000000000E+00  0.00000000000E+00  0.45593999997E+02  0.45594000000E+02  0.51100000000E-03 0. -1.
         11   -1    0    0    0    0 -0.00000000000E+00 -0.00000000000E+00 -0.45593999997E+02  0.45594000000E+02  0.51100000000E-03 0.  1.
         23    2    1    2    0    0  0.00000000000E+00  0.00000000000E+00 -0.44408920985E-15  0.91188000000E+02  0.91188000000E+02 0.  0.
    9900012    2    3    3    0    0 -0.33501609657E+02  0.15044442540E+02 -0.26619875742E+01  0.54367091826E+02  0.40000017435E+02 0.  0.
        -12    1    3    3    0    0  0.33501609657E+02 -0.15044442540E+02  0.26619875742E+01  0.36820908174E+02  0.00000000000E+00 0.  1.
         11    1    4    4    0    0  0.34399018204E+01  0.57128186462E+01  0.10418198929E+02  0.12369643916E+02  0.51100000000E-03 0. -1.
        -11    1    4    4    0    0 -0.13431460976E+02 -0.20337038525E+01 -0.24506699059E+01  0.13803835647E+02  0.51100000000E-03 0.  1.
        -12    1    4    4    0    0 -0.23510050501E+02  0.11365327746E+02 -0.10629516597E+02  0.28193612263E+02  0.00000000000E+00 0.  1.
</event>
<event>
 8    1  0.3007389E-007  0.9118800E+02  0.7816164E-02  0.1184000E+00
        -11   -1    0    0    0    0  0.00000000000E+00  0.00000000000E+00  0.45593999997E+02  0.45594000000E+02  0.51100000000E-03 0.  1.
         11   -1    0    0    0    0 -0.00000000000E+00 -0.00000000000E+00 -0.45593999997E+02  0.45594000000E+02  0.51100000000E-03 0. -1.
         23    2    1    2    0    0  0.22204460493E-15  0.00000000000E+00 -0.17763568394E-14  0.91188000000E+02  0.91188000000E+02 0.  0.
    9900012    2    3    3    0    0  0.15605549159E+01 -0.36000489731E+02  0.75702856773E+01  0.54367084507E+02  0.40000000751E+02 0.  0.
         12    1    3    3    0    0 -0.15605549159E+01  0.36000489731E+02 -0.75702856773E+01  0.36820915493E+02  0.00000000000E+00 0. -1.
         11    1    4    4    0    0  0.76793591988E+01 -0.12420739291E+02  0.15254683917E+02  0.21117592285E+02  0.51100000000E-03 0. -1.
        -11    1    4    4    0    0  0.23683446109E+01 -0.10814934823E+02  0.60947166918E+01  0.12637936668E+02  0.51100000000E-03 0.  1.
         12    1    4    4    0    0 -0.84871488938E+01 -0.12764815617E+02 -0.13779114931E+02  0.20611555554E+02  0.00000000000E+00 0. -1.
</event>
<event>
 8    1  0.3007389E-007  0.9118800E+02  0.7816164E-02  0.1184000E+00
        -11   -1    0    0    0    0  0.00000000000E+00  0.00000000000E+00  0.45593999997E+02  0.45594000000E+02  0.51100000000E-03 0. -1.
         11   -1    0    0    0    0 -0.00000000000E+00 -0.00000000000E+00 -0.45593999997E+02  0.45594000000E+02  0.51100000000E-03 0.  1.
         23    2    1    2    0    0  0.00000000000E+00  0.10547118734E-14  0.00000000000E+00  0.91188000000E+02  0.91188000000E+02 0.  0.
    9900012    2    3    3    0    0 -0.35934138052E+02  0.28216211416E+00 -0.80273343141E+01  0.54367082179E+02  0.39999995442E+02 0.  0.
        -12    1    3    3    0    0  0.35934138052E+02 -0.28216211416E+00  0.80273343141E+01  0.36820917821E+02  0.00000000000E+00 0.  1.
         11    1    4    4    0    0 -0.29662373645E+02 -0.37458168009E+00 -0.16746935155E+02  0.34065474590E+02  0.51100000000E-03 0. -1.
        -11    1    4    4    0    0 -0.22098601069E+01 -0.46001029205E+01 -0.36408536057E+01  0.62689906532E+01  0.51100000000E-03 0.  1.
        -12    1    4    4    0    0 -0.40619043003E+01  0.52568467147E+01  0.12360454447E+02  0.14032616935E+02  0.00000000000E+00 0.  1.
</event>
<event>
 8    1  0.3007389E-007  0.9118800E+02  0.7816164E-02  0.1184000E+00
        -11   -1    0    0    0    0  0.00000000000E+00  0.00000000000E+00  0.45593999997E+02  0.45594000000E+02  0.51100000000E-03 0.  1.
         11   -1    0    0    0    0 -0.00000000000E+00 -0.00000000000E+00 -0.45593999997E+02  0.45594000000E+02  0.51100000000E-03 0. -1.
         23    2    1    2    0    0  0.00000000000E+00  0.00000000000E+00  0.00000000000E+00  0.91188000000E+02  0.91188000000E+02 0.  0.
    9900012    2    3    3    0    0  0.23275919384E+02 -0.18293447300E+02  0.21894352321E+02  0.54367064368E+02  0.39999954839E+02 0.  0.
         12    1    3    3    0    0 -0.23275919384E+02  0.18293447300E+02 -0.21894352321E+02  0.36820935632E+02  0.00000000000E+00 0. -1.
         11    1    4    4    0    0  0.21282372262E+01 -0.22836316519E+01 -0.81054476127E+01  0.86857727621E+01  0.51100000000E-03 0. -1.
        -11    1    4    4    0    0  0.54655076176E+01 -0.17280170013E+02  0.11815388685E+02  0.21635144077E+02  0.51100000000E-03 0.  1.
        -12    1    4    4    0    0  0.15682174540E+02  0.12703543647E+01  0.18184411248E+02  0.24046147528E+02  0.00000000000E+00 0.  1.
</event>
<event>
 8    1  0.3007389E-007  0.9118800E+02  0.7816164E-02  0.1184000E+00
        -11   -1    0    0    0    0  0.00000000000E+00  0.00000000000E+00  0.45593999997E+02  0.45594000000E+02  0.51100000000E-03 0.  1.
         11   -1    0    0    0    0 -0.00000000000E+00 -0.00000000000E+00 -0.45593999997E+02  0.45594000000E+02  0.51100000000E-03 0. -1.
         23    2    1    2    0    0 -0.17763568394E-14  0.00000000000E+00  0.35527136788E-14  0.91188000000E+02  0.91188000000E+02 0.  0.
    9900012    2    3    3    0    0  0.10967408616E+02 -0.24931973144E+02  0.24776826642E+02  0.54367102740E+02  0.40000042316E+02 0.  0.
         12    1    3    3    0    0 -0.10967408616E+02  0.24931973144E+02 -0.24776826642E+02  0.36820897260E+02  0.00000000000E+00 0. -1.
         11    1    4    4    0    0  0.40438563322E+01 -0.34668917990E+00 -0.16420029975E+01  0.43782578188E+01  0.51100000000E-03 0. -1.
        -11    1    4    4    0    0 -0.35133612395E+01 -0.22414436897E+02  0.30975329807E+02  0.38395595392E+02  0.51100000000E-03 0.  1.
        -12    1    4    4    0    0  0.10436913523E+02 -0.21708470675E+01 -0.45565001671E+01  0.11593249529E+02  0.00000000000E+00 0.  1.
</event>
<event>
 8    1  0.3007389E-007  0.9118800E+02  0.7816164E-02  0.1184000E+00
        -11   -1    0    0    0    0  0.00000000000E+00  0.00000000000E+00  0.45593999997E+02  0.45594000000E+02  0.51100000000E-03 0. -1.
         11   -1    0    0    0    0 -0.00000000000E+00 -0.00000000000E+00 -0.45593999997E+02  0.45594000000E+02  0.51100000000E-03 0.  1.
         23    2    1    2    0    0 -0.88817841970E-15  0.00000000000E+00  0.00000000000E+00  0.91188000000E+02  0.91188000000E+02 0.  0.
    9900012    2    3    3    0    0 -0.45172022255E+01  0.84489472592E+01  0.35552639481E+02  0.54367082035E+02  0.39999995114E+02 0.  0.
        -12    1    3    3    0    0  0.45172022255E+01 -0.84489472592E+01 -0.35552639481E+02  0.36820917965E+02  0.00000000000E+00 0.  1.
         11    1    4    4    0    0  0.90053615909E+01 -0.31721632916E+01 -0.30342217373E+01  0.10018266274E+02  0.51100000000E-03 0. -1.
        -11    1    4    4    0    0 -0.82379835062E+01  0.22531223575E+01  0.72011486770E+01  0.11171279029E+02  0.51100000000E-03 0.  1.
         12    1    4    4    0    0 -0.52845803102E+01  0.93679881933E+01  0.31385712541E+02  0.33177536732E+02  0.00000000000E+00 0. -1.
</event>
<event>
 8    1  0.3007389E-007  0.9118800E+02  0.7816164E-02  0.1184000E+00
        -11   -1    0    0    0    0  0.00000000000E+00  0.00000000000E+00  0.45593999997E+02  0.45594000000E+02  0.51100000000E-03 0.  1.
         11   -1    0    0    0    0 -0.00000000000E+00 -0.00000000000E+00 -0.45593999997E+02  0.45594000000E+02  0.51100000000E-03 0. -1.
         23    2    1    2    0    0  0.00000000000E+00  0.35527136788E-14 -0.35527136788E-14  0.91188000000E+02  0.91188000000E+02 0.  0.
    9900012    2    3    3    0    0 -0.97012280278E+00 -0.26177371942E+02 -0.25876323081E+02  0.54367081540E+02  0.39999993987E+02 0.  0.
        -12    1    3    3    0    0  0.97012280278E+00  0.26177371942E+02  0.25876323081E+02  0.36820918460E+02  0.00000000000E+00 0.  1.
         11    1    4    4    0    0  0.39295238485E+00 -0.19851054989E+00  0.42218578090E+01  0.42447498909E+01  0.51100000000E-03 0. -1.
        -11    1    4    4    0    0  0.53919723604E+01 -0.15489386354E+02  0.11842002558E+01  0.16443746108E+02  0.51100000000E-03 0.  1.
         12    1    4    4    0    0 -0.67550475480E+01 -0.10489475039E+02 -0.31282381145E+02  0.33678585542E+02  0.00000000000E+00 0. -1.
</event>
<event>
 8    1  0.3007389E-007  0.9118800E+02  0.7816164E-02  0.1184000E+00
        -11   -1    0    0    0    0  0.00000000000E+00  0.00000000000E+00  0.45593999997E+02  0.45594000000E+02  0.51100000000E-03 0.  1.
         11   -1    0    0    0    0 -0.00000000000E+00 -0.00000000000E+00 -0.45593999997E+02  0.45594000000E+02  0.51100000000E-03 0. -1.
         23    2    1    2    0    0  0.35527136788E-14  0.00000000000E+00 -0.17763568394E-14  0.91188000000E+02  0.91188000000E+02 0.  0.
    9900012    2    3    3    0    0  0.19582795799E+02 -0.29127809000E+02 -0.11129415586E+02  0.54367095072E+02  0.40000024835E+02 0.  0.
         12    1    3    3    0    0 -0.19582795799E+02  0.29127809000E+02  0.11129415586E+02  0.36820904928E+02  0.00000000000E+00 0. -1.
         11    1    4    4    0    0 -0.11094011929E+02 -0.87100461108E+01 -0.54510508443E+01  0.15121374259E+02  0.51100000000E-03 0. -1.
        -11    1    4    4    0    0  0.19960119232E+02 -0.19279923315E+02 -0.62772669257E+01  0.28452168338E+02  0.51100000000E-03 0.  1.
         12    1    4    4    0    0  0.10716688495E+02 -0.11378395741E+01  0.59890218406E+00  0.10793552475E+02  0.00000000000E+00 0. -1.
</event>
<event>
 8    1  0.3007389E-007  0.9118800E+02  0.7816164E-02  0.1184000E+00
        -11   -1    0    0    0    0  0.00000000000E+00  0.00000000000E+00  0.45593999997E+02  0.45594000000E+02  0.51100000000E-03 0. -1.
         11   -1    0    0    0    0 -0.00000000000E+00 -0.00000000000E+00 -0.45593999997E+02  0.45594000000E+02  0.51100000000E-03 0.  1.
         23    2    1    2    0    0 -0.88817841970E-15  0.00000000000E+00  0.00000000000E+00  0.91188000000E+02  0.91188000000E+02 0.  0.
    9900012    2    3    3    0    0 -0.22185104070E+01 -0.32935419182E+02 -0.16313075634E+02  0.54367081193E+02  0.39999993197E+02 0.  0.
         12    1    3    3    0    0  0.22185104070E+01  0.32935419182E+02  0.16313075634E+02  0.36820918807E+02  0.00000000000E+00 0. -1.
         11    1    4    4    0    0  0.12532543812E+02 -0.27886358962E+02 -0.17531738121E+02  0.35243091697E+02  0.51100000000E-03 0. -1.
        -11    1    4    4    0    0 -0.16135160552E+02 -0.58781756350E+01  0.20748737108E+01  0.17297440736E+02  0.51100000000E-03 0.  1.
         12    1    4    4    0    0  0.13841063336E+01  0.82911541487E+00 -0.85621122352E+00  0.18265487602E+01  0.00000000000E+00 0. -1.
</event>
<event>
 8    1  0.3007389E-007  0.9118800E+02  0.7816164E-02  0.1184000E+00
        -11   -1    0    0    0    0  0.00000000000E+00  0.00000000000E+00  0.45593999997E+02  0.45594000000E+02  0.51100000000E-03 0. -1.
         11   -1    0    0    0    0 -0.00000000000E+00 -0.00000000000E+00 -0.45593999997E+02  0.45594000000E+02  0.51100000000E-03 0.  1.
         23    2    1    2    0    0  0.00000000000E+00  0.71054273576E-14  0.00000000000E+00  0.91188000000E+02  0.91188000000E+02 0.  0.
    9900012    2    3    3    0    0  0.44122676531E+01  0.34832276207E+02 -0.11091647890E+02  0.54367078983E+02  0.39999988159E+02 0.  0.
         12    1    3    3    0    0 -0.44122676531E+01 -0.34832276207E+02  0.11091647890E+02  0.36820921017E+02  0.00000000000E+00 0. -1.
         11    1    4    4    0    0 -0.57065699391E+01 -0.20606601780E+01 -0.91880621076E+01  0.11010528888E+02  0.51100000000E-03 0. -1.
        -11    1    4    4    0    0  0.46551726207E+01  0.19760375701E+02  0.91288662220E+01  0.22259363844E+02  0.51100000000E-03 0.  1.
        -12    1    4    4    0    0  0.54636649716E+01  0.17132560684E+02 -0.11032452004E+02  0.21097186251E+02  0.00000000000E+00 0.  1.
</event>
<event>
 8    1  0.3007389E-007  0.9118800E+02  0.7816164E-02  0.1184000E+00
        -11   -1    0    0    0    0  0.00000000000E+00  0.00000000000E+00  0.45593999997E+02  0.45594000000E+02  0.51100000000E-03 0.  1.
         11   -1    0    0    0    0 -0.00000000000E+00 -0.00000000000E+00 -0.45593999997E+02  0.45594000000E+02  0.51100000000E-03 0. -1.
         23    2    1    2    0    0  0.00000000000E+00 -0.22204460493E-15  0.00000000000E+00  0.91188000000E+02  0.91188000000E+02 0.  0.
    9900012    2    3    3    0    0 -0.34427218762E+02  0.18909783461E+01  0.12921727649E+02  0.54367078825E+02  0.39999987797E+02 0.  0.
         12    1    3    3    0    0  0.34427218762E+02 -0.18909783461E+01 -0.12921727649E+02  0.36820921175E+02  0.00000000000E+00 0. -1.
         11    1    4    4    0    0  0.74780038903E+01  0.68069109571E+00  0.51242884162E+01  0.90907763466E+01  0.51100000000E-03 0. -1.
        -11    1    4    4    0    0 -0.40586379140E+01 -0.42661464957E+01  0.33584504360E+01  0.67787710709E+01  0.51100000000E-03 0.  1.
        -12    1    4    4    0    0 -0.37846584738E+02  0.54764337461E+01  0.44389887966E+01  0.38497531407E+02  0.00000000000E+00 0.  1.
</event>
<event>
 8    1  0.3007389E-007  0.9118800E+02  0.7816164E-02  0.1184000E+00
        -11   -1    0    0    0    0  0.00000000000E+00  0.00000000000E+00  0.45593999997E+02  0.45594000000E+02  0.51100000000E-03 0.  1.
         11   -1    0    0    0    0 -0.00000000000E+00 -0.00000000000E+00 -0.45593999997E+02  0.45594000000E+02  0.51100000000E-03 0. -1.
         23    2    1    2    0    0 -0.17763568394E-14  0.00000000000E+00 -0.17763568394E-14  0.91188000000E+02  0.91188000000E+02 0.  0.
    9900012    2    3    3    0    0 -0.11219555739E+02 -0.32083190564E+02 -0.14162283023E+02  0.54367084637E+02  0.40000001048E+02 0.  0.
        -12    1    3    3    0    0  0.11219555739E+02  0.32083190564E+02  0.14162283023E+02  0.36820915363E+02  0.00000000000E+00 0.  1.
         11    1    4    4    0    0  0.22837026615E+01  0.96251416390E+00 -0.16376970704E+01  0.29704853673E+01  0.51100000000E-03 0. -1.
        -11    1    4    4    0    0 -0.50490566564E+01 -0.20467648122E+02  0.10718131327E+02  0.23649438305E+02  0.51100000000E-03 0.  1.
         12    1    4    4    0    0 -0.84542017444E+01 -0.12578056605E+02 -0.23242717279E+02  0.27747160965E+02  0.00000000000E+00 0. -1.
</event>
<event>
 8    1  0.3007389E-007  0.9118800E+02  0.7816164E-02  0.1184000E+00
        -11   -1    0    0    0    0  0.00000000000E+00  0.00000000000E+00  0.45593999997E+02  0.45594000000E+02  0.51100000000E-03 0. -1.
         11   -1    0    0    0    0 -0.00000000000E+00 -0.00000000000E+00 -0.45593999997E+02  0.45594000000E+02  0.51100000000E-03 0.  1.
         23    2    1    2    0    0  0.00000000000E+00  0.00000000000E+00  0.00000000000E+00  0.91188000000E+02  0.91188000000E+02 0.  0.
    9900012    2    3    3    0    0  0.16653702442E+02  0.19792686994E+02  0.26204635749E+02  0.54367092920E+02  0.40000019929E+02 0.  0.
         12    1    3    3    0    0 -0.16653702442E+02 -0.19792686994E+02 -0.26204635749E+02  0.36820907080E+02  0.00000000000E+00 0. -1.
         11    1    4    4    0    0  0.10867276755E+02  0.66519023093E+01  0.27000711873E+01  0.13024434463E+02  0.51100000000E-03 0. -1.
        -11    1    4    4    0    0  0.15128444495E+01 -0.10002825172E+02  0.44099327954E+01  0.11035973780E+02  0.51100000000E-03 0.  1.
         12    1    4    4    0    0  0.42735812369E+01  0.23143609857E+02  0.19094631766E+02  0.30306684677E+02  0.00000000000E+00 0. -1.
</event>
<event>
 8    1  0.3007389E-007  0.9118800E+02  0.7816164E-02  0.1184000E+00
        -11   -1    0    0    0    0  0.00000000000E+00  0.00000000000E+00  0.45593999997E+02  0.45594000000E+02  0.51100000000E-03 0.  1.
         11   -1    0    0    0    0 -0.00000000000E+00 -0.00000000000E+00 -0.45593999997E+02  0.45594000000E+02  0.51100000000E-03 0. -1.
         23    2    1    2    0    0  0.17763568394E-14  0.00000000000E+00  0.00000000000E+00  0.91188000000E+02  0.91188000000E+02 0.  0.
    9900012    2    3    3    0    0  0.96106054978E+01 -0.35477019587E+02  0.21911363864E+01  0.54367031307E+02  0.39999879470E+02 0.  0.
         12    1    3    3    0    0 -0.96106054978E+01  0.35477019587E+02 -0.21911363864E+01  0.36820968693E+02  0.00000000000E+00 0. -1.
         11    1    4    4    0    0 -0.90353773802E-01 -0.12826129033E+02 -0.75093344708E+01  0.14862969227E+02  0.51100000000E-03 0. -1.
        -11    1    4    4    0    0 -0.83962857299E+01  0.10609967933E+01  0.19542833797E+01  0.86857672109E+01  0.51100000000E-03 0.  1.
         12    1    4    4    0    0  0.18097245002E+02 -0.23711887347E+02  0.77461874775E+01  0.30818294869E+02  0.00000000000E+00 0. -1.
</event>
<event>
 8    1  0.3007389E-007  0.9118800E+02  0.7816164E-02  0.1184000E+00
        -11   -1    0    0    0    0  0.00000000000E+00  0.00000000000E+00  0.45593999997E+02  0.45594000000E+02  0.51100000000E-03 0.  1.
         11   -1    0    0    0    0 -0.00000000000E+00 -0.00000000000E+00 -0.45593999997E+02  0.45594000000E+02  0.51100000000E-03 0. -1.
         23    2    1    2    0    0  0.00000000000E+00  0.00000000000E+00  0.00000000000E+00  0.91188000000E+02  0.91188000000E+02 0.  0.
    9900012    2    3    3    0    0  0.20174146063E+02 -0.28286785316E+02  0.12191822119E+02  0.54367096705E+02  0.40000028558E+02 0.  0.
         12    1    3    3    0    0 -0.20174146063E+02  0.28286785316E+02 -0.12191822119E+02  0.36820903295E+02  0.00000000000E+00 0. -1.
         11    1    4    4    0    0  0.21385919193E+02 -0.26554705244E+02  0.10214497826E+02  0.35592778431E+02  0.51100000000E-03 0.  1.
        -11    1    4    4    0    0  0.40666306255E+01 -0.30954800724E+00 -0.70941722479E+01  0.81829447485E+01  0.51100000000E-03 0. -1.
        -12    1    4    4    0    0 -0.52784037552E+01 -0.14225320650E+01  0.90714965405E+01  0.10591373526E+02  0.00000000000E+00 0.  1.
</event>
<event>
 8    1  0.3007389E-007  0.9118800E+02  0.7816164E-02  0.1184000E+00
        -11   -1    0    0    0    0  0.00000000000E+00  0.00000000000E+00  0.45593999997E+02  0.45594000000E+02  0.51100000000E-03 0.  1.
         11   -1    0    0    0    0 -0.00000000000E+00 -0.00000000000E+00 -0.45593999997E+02  0.45594000000E+02  0.51100000000E-03 0. -1.
         23    2    1    2    0    0 -0.17763568394E-14  0.00000000000E+00  0.00000000000E+00  0.91188000000E+02  0.91188000000E+02 0.  0.
    9900012    2    3    3    0    0  0.14856933303E+02  0.32187744656E+02  0.99498958664E+01  0.54367084735E+02  0.40000001270E+02 0.  0.
         12    1    3    3    0    0 -0.14856933303E+02 -0.32187744656E+02 -0.99498958664E+01  0.36820915265E+02  0.00000000000E+00 0. -1.
         11    1    4    4    0    0  0.87580199491E+01  0.62096872552E+01  0.36424553388E+01  0.11337134135E+02  0.51100000000E-03 0. -1.
        -11    1    4    4    0    0 -0.11953981919E+02  0.18625023888E+02 -0.11455410503E+01  0.22160809171E+02  0.51100000000E-03 0.  1.
         12    1    4    4    0    0  0.18052895273E+02  0.73530335129E+01  0.74529815778E+01  0.20869141429E+02  0.00000000000E+00 0. -1.
</event>
<event>
 8    1  0.3007389E-007  0.9118800E+02  0.7816164E-02  0.1184000E+00
        -11   -1    0    0    0    0  0.00000000000E+00  0.00000000000E+00  0.45593999997E+02  0.45594000000E+02  0.51100000000E-03 0.  1.
         11   -1    0    0    0    0 -0.00000000000E+00 -0.00000000000E+00 -0.45593999997E+02  0.45594000000E+02  0.51100000000E-03 0. -1.
         23    2    1    2    0    0  0.00000000000E+00  0.35527136788E-14 -0.35527136788E-14  0.91188000000E+02  0.91188000000E+02 0.  0.
    9900012    2    3    3    0    0 -0.13856604124E+02 -0.26508589136E+02 -0.21472518784E+02  0.54367084222E+02  0.40000000100E+02 0.  0.
        -12    1    3    3    0    0  0.13856604124E+02  0.26508589136E+02  0.21472518784E+02  0.36820915778E+02  0.00000000000E+00 0.  1.
         11    1    4    4    0    0  0.82121597376E+01 -0.17720008694E+02 -0.23452402194E+02  0.30519722224E+02  0.51100000000E-03 0. -1.
        -11    1    4    4    0    0 -0.10728491684E+02 -0.45094463670E+01  0.12505993498E+01  0.11704684505E+02  0.51100000000E-03 0.  1.
         12    1    4    4    0    0 -0.11340272177E+02 -0.42791340745E+01  0.72928405983E+00  0.12142677494E+02  0.00000000000E+00 0. -1.
</event>
<event>
 8    1  0.3007389E-007  0.9118800E+02  0.7816164E-02  0.1184000E+00
        -11   -1    0    0    0    0  0.00000000000E+00  0.00000000000E+00  0.45593999997E+02  0.45594000000E+02  0.51100000000E-03 0. -1.
         11   -1    0    0    0    0 -0.00000000000E+00 -0.00000000000E+00 -0.45593999997E+02  0.45594000000E+02  0.51100000000E-03 0.  1.
         23    2    1    2    0    0  0.00000000000E+00  0.00000000000E+00 -0.35527136788E-14  0.91188000000E+02  0.91188000000E+02 0.  0.
    9900012    2    3    3    0    0  0.14531285524E+02  0.18526392763E+02 -0.28308921794E+02  0.54367074687E+02  0.39999978363E+02 0.  0.
         12    1    3    3    0    0 -0.14531285524E+02 -0.18526392763E+02  0.28308921794E+02  0.36820925313E+02  0.00000000000E+00 0. -1.
         11    1    4    4    0    0  0.18855623587E+02  0.79902744346E+01 -0.10663509090E+02  0.23088729995E+02  0.51100000000E-03 0.  1.
        -11    1    4    4    0    0  0.70402270829E+01  0.28380754111E+01 -0.15668453877E+02  0.17410339359E+02  0.51100000000E-03 0. -1.
         12    1    4    4    0    0 -0.11364565146E+02  0.76980429171E+01 -0.19769588266E+01  0.13868005333E+02  0.00000000000E+00 0. -1.
</event>
<event>
 8    1  0.3007389E-007  0.9118800E+02  0.7816164E-02  0.1184000E+00
        -11   -1    0    0    0    0  0.00000000000E+00  0.00000000000E+00  0.45593999997E+02  0.45594000000E+02  0.51100000000E-03 0. -1.
         11   -1    0    0    0    0 -0.00000000000E+00 -0.00000000000E+00 -0.45593999997E+02  0.45594000000E+02  0.51100000000E-03 0.  1.
         23    2    1    2    0    0 -0.35527136788E-14  0.22204460493E-14  0.71054273576E-14  0.91188000000E+02  0.91188000000E+02 0.  0.
    9900012    2    3    3    0    0 -0.26771691234E+02  0.21731219108E+01  0.25185969970E+02  0.54367095697E+02  0.40000026261E+02 0.  0.
        -12    1    3    3    0    0  0.26771691234E+02 -0.21731219108E+01 -0.25185969970E+02  0.36820904303E+02  0.00000000000E+00 0.  1.
         11    1    4    4    0    0 -0.83742899593E+01 -0.11535978617E+02  0.16595765362E+02  0.21877544725E+02  0.51100000000E-03 0. -1.
        -11    1    4    4    0    0 -0.80045801893E+01 -0.26739144678E+01  0.99422056566E+01  0.13041111002E+02  0.51100000000E-03 0.  1.
        -12    1    4    4    0    0 -0.10392821085E+02  0.16383014995E+02 -0.13520010490E+01  0.19448439970E+02  0.00000000000E+00 0.  1.
</event>
<event>
 8    1  0.3007389E-007  0.9118800E+02  0.7816164E-02  0.1184000E+00
        -11   -1    0    0    0    0  0.00000000000E+00  0.00000000000E+00  0.45593999997E+02  0.45594000000E+02  0.51100000000E-03 0. -1.
         11   -1    0    0    0    0 -0.00000000000E+00 -0.00000000000E+00 -0.45593999997E+02  0.45594000000E+02  0.51100000000E-03 0.  1.
         23    2    1    2    0    0 -0.35527136788E-14 -0.35527136788E-14  0.17763568394E-14  0.91188000000E+02  0.91188000000E+02 0.  0.
    9900012    2    3    3    0    0  0.28481298807E+02  0.19716130199E+02 -0.12484774201E+02  0.54367085310E+02  0.40000002582E+02 0.  0.
         12    1    3    3    0    0 -0.28481298807E+02 -0.19716130199E+02  0.12484774201E+02  0.36820914690E+02  0.00000000000E+00 0. -1.
         11    1    4    4    0    0 -0.71264500101E+01 -0.36000883097E+01  0.26496894021E+01  0.84123587520E+01  0.51100000000E-03 0. -1.
        -11    1    4    4    0    0  0.18290751756E+02  0.12431605549E+02 -0.34039250697E+01  0.22375949644E+02  0.51100000000E-03 0.  1.
         12    1    4    4    0    0  0.17316997061E+02  0.10884612960E+02 -0.11730538533E+02  0.23578776915E+02  0.00000000000E+00 0. -1.
</event>
<event>
 8    1  0.3007389E-007  0.9118800E+02  0.7816164E-02  0.1184000E+00
        -11   -1    0    0    0    0  0.00000000000E+00  0.00000000000E+00  0.45593999997E+02  0.45594000000E+02  0.51100000000E-03 0.  1.
         11   -1    0    0    0    0 -0.00000000000E+00 -0.00000000000E+00 -0.45593999997E+02  0.45594000000E+02  0.51100000000E-03 0. -1.
         23    2    1    2    0    0  0.17763568394E-14  0.00000000000E+00 -0.17763568394E-14  0.91188000000E+02  0.91188000000E+02 0.  0.
    9900012    2    3    3    0    0 -0.12495838656E+02  0.33251863559E+02 -0.96927762558E+01  0.54367050454E+02  0.39999923121E+02 0.  0.
        -12    1    3    3    0    0  0.12495838656E+02 -0.33251863559E+02  0.96927762558E+01  0.36820949546E+02  0.00000000000E+00 0.  1.
         11    1    4    4    0    0 -0.55874844033E+01  0.32174578889E+02 -0.21248582239E+02  0.38960566680E+02  0.51100000000E-03 0. -1.
        -11    1    4    4    0    0 -0.40765353493E+01  0.42517048318E+01  0.74166166112E+01  0.94710789591E+01  0.51100000000E-03 0.  1.
         12    1    4    4    0    0 -0.28318189038E+01 -0.31744201614E+01  0.41391893717E+01  0.59354048152E+01  0.00000000000E+00 0. -1.
</event>
<event>
 8    1  0.3007389E-007  0.9118800E+02  0.7816164E-02  0.1184000E+00
        -11   -1    0    0    0    0  0.00000000000E+00  0.00000000000E+00  0.45593999997E+02  0.45594000000E+02  0.51100000000E-03 0. -1.
         11   -1    0    0    0    0 -0.00000000000E+00 -0.00000000000E+00 -0.45593999997E+02  0.45594000000E+02  0.51100000000E-03 0.  1.
         23    2    1    2    0    0  0.35527136788E-14  0.35527136788E-14  0.00000000000E+00  0.91188000000E+02  0.91188000000E+02 0.  0.
    9900012    2    3    3    0    0 -0.24357815932E+02 -0.27218098323E+02 -0.46531134836E+01  0.54367088300E+02  0.40000009398E+02 0.  0.
         12    1    3    3    0    0  0.24357815932E+02  0.27218098323E+02  0.46531134836E+01  0.36820911700E+02  0.00000000000E+00 0. -1.
         11    1    4    4    0    0 -0.79799955111E+01  0.32431303282E+01 -0.22781675365E+01  0.89100095549E+01  0.51100000000E-03 0. -1.
        -11    1    4    4    0    0  0.29182401607E+01 -0.24526751132E+02  0.20672445525E+01  0.24786107945E+02  0.51100000000E-03 0.  1.
        -12    1    4    4    0    0 -0.19296060582E+02 -0.59344775189E+01 -0.44421904997E+01  0.20670970801E+02  0.00000000000E+00 0.  1.
</event>
<event>
 8    1  0.3007389E-007  0.9118800E+02  0.7816164E-02  0.1184000E+00
        -11   -1    0    0    0    0  0.00000000000E+00  0.00000000000E+00  0.45593999997E+02  0.45594000000E+02  0.51100000000E-03 0.  1.
         11   -1    0    0    0    0 -0.00000000000E+00 -0.00000000000E+00 -0.45593999997E+02  0.45594000000E+02  0.51100000000E-03 0. -1.
         23    2    1    2    0    0  0.44408920985E-15  0.35527136788E-14  0.35527136788E-14  0.91188000000E+02  0.91188000000E+02 0.  0.
    9900012    2    3    3    0    0  0.10447281359E+01  0.24139167863E+02  0.27784698224E+02  0.54367077451E+02  0.39999984665E+02 0.  0.
         12    1    3    3    0    0 -0.10447281359E+01 -0.24139167863E+02 -0.27784698224E+02  0.36820922549E+02  0.00000000000E+00 0. -1.
         11    1    4    4    0    0  0.52312287555E+01 -0.65434317564E+00 -0.58358690515E+01  0.78645589279E+01  0.51100000000E-03 0.  1.
        -11    1    4    4    0    0 -0.87844096548E+01  0.15531027275E+02  0.31105937593E+02  0.35860256761E+02  0.51100000000E-03 0. -1.
         12    1    4    4    0    0  0.45979090352E+01  0.92624837637E+01  0.25146296825E+01  0.10642261762E+02  0.00000000000E+00 0. -1.
</event>
<event>
 8    1  0.3007389E-007  0.9118800E+02  0.7816164E-02  0.1184000E+00
        -11   -1    0    0    0    0  0.00000000000E+00  0.00000000000E+00  0.45593999997E+02  0.45594000000E+02  0.51100000000E-03 0.  1.
         11   -1    0    0    0    0 -0.00000000000E+00 -0.00000000000E+00 -0.45593999997E+02  0.45594000000E+02  0.51100000000E-03 0. -1.
         23    2    1    2    0    0  0.17763568394E-14  0.00000000000E+00 -0.35527136788E-14  0.91188000000E+02  0.91188000000E+02 0.  0.
    9900012    2    3    3    0    0 -0.14077118299E+02  0.18470908956E+02  0.28573416731E+02  0.54367083649E+02  0.39999998795E+02 0.  0.
         12    1    3    3    0    0  0.14077118299E+02 -0.18470908956E+02 -0.28573416731E+02  0.36820916351E+02  0.00000000000E+00 0. -1.
         11    1    4    4    0    0 -0.50173480559E+01  0.18510888899E+02  0.27212050695E+02  0.33291477778E+02  0.51100000000E-03 0. -1.
        -11    1    4    4    0    0 -0.75326336200E+01  0.90543343203E+01  0.18707851141E+00  0.11779496503E+02  0.51100000000E-03 0.  1.
        -12    1    4    4    0    0 -0.15271366228E+01 -0.90943142637E+01  0.11742875246E+01  0.92961093681E+01  0.00000000000E+00 0.  1.
</event>
<event>
 8    1  0.3007389E-007  0.9118800E+02  0.7816164E-02  0.1184000E+00
        -11   -1    0    0    0    0  0.00000000000E+00  0.00000000000E+00  0.45593999997E+02  0.45594000000E+02  0.51100000000E-03 0. -1.
         11   -1    0    0    0    0 -0.00000000000E+00 -0.00000000000E+00 -0.45593999997E+02  0.45594000000E+02  0.51100000000E-03 0.  1.
         23    2    1    2    0    0 -0.17763568394E-14 -0.71054273576E-14 -0.17763568394E-14  0.91188000000E+02  0.91188000000E+02 0.  0.
    9900012    2    3    3    0    0  0.64345688830E+01  0.35401529621E+02  0.78174900924E+01  0.54367012404E+02  0.39999836377E+02 0.  0.
        -12    1    3    3    0    0 -0.64345688830E+01 -0.35401529621E+02 -0.78174900924E+01  0.36820987596E+02  0.00000000000E+00 0.  1.
         11    1    4    4    0    0  0.88060454998E+01  0.20967964885E+02  0.13269960058E+02  0.26330473391E+02  0.51100000000E-03 0. -1.
        -11    1    4    4    0    0 -0.56440497073E+01  0.57179804532E+01 -0.13513742879E+02  0.15721699794E+02  0.51100000000E-03 0.  1.
        -12    1    4    4    0    0  0.32725730905E+01  0.87155842823E+01  0.80612729134E+01  0.12314839219E+02  0.00000000000E+00 0.  1.
</event>
<event>
 8    1  0.3007389E-007  0.9118800E+02  0.7816164E-02  0.1184000E+00
        -11   -1    0    0    0    0  0.00000000000E+00  0.00000000000E+00  0.45593999997E+02  0.45594000000E+02  0.51100000000E-03 0.  1.
         11   -1    0    0    0    0 -0.00000000000E+00 -0.00000000000E+00 -0.45593999997E+02  0.45594000000E+02  0.51100000000E-03 0. -1.
         23    2    1    2    0    0  0.22204460493E-15  0.14432899320E-14 -0.71054273576E-14  0.91188000000E+02  0.91188000000E+02 0.  0.
    9900012    2    3    3    0    0  0.15606239705E+01 -0.89712232879E+00 -0.36776843003E+02  0.54367128786E+02  0.40000101694E+02 0.  0.
        -12    1    3    3    0    0 -0.15606239705E+01  0.89712232879E+00  0.36776843003E+02  0.36820871214E+02  0.00000000000E+00 0.  1.
         11    1    4    4    0    0 -0.39672713621E-01  0.49061623903E+01 -0.34842301805E+02  0.35186048353E+02  0.51100000000E-03 0. -1.
        -11    1    4    4    0    0 -0.73878168815E+00 -0.11781127272E+02 -0.39585997524E+01  0.12450352222E+02  0.51100000000E-03 0.  1.
         12    1    4    4    0    0  0.23390783723E+01  0.59778425533E+01  0.20240585545E+01  0.67307282114E+01  0.00000000000E+00 0. -1.
</event>
<event>
 8    1  0.3007389E-007  0.9118800E+02  0.7816164E-02  0.1184000E+00
        -11   -1    0    0    0    0  0.00000000000E+00  0.00000000000E+00  0.45593999997E+02  0.45594000000E+02  0.51100000000E-03 0. -1.
         11   -1    0    0    0    0 -0.00000000000E+00 -0.00000000000E+00 -0.45593999997E+02  0.45594000000E+02  0.51100000000E-03 0.  1.
         23    2    1    2    0    0  0.00000000000E+00 -0.35527136788E-14  0.00000000000E+00  0.91188000000E+02  0.91188000000E+02 0.  0.
    9900012    2    3    3    0    0  0.24386915855E+02 -0.19144661252E+02 -0.19862931757E+02  0.54367139373E+02  0.40000125828E+02 0.  0.
         12    1    3    3    0    0 -0.24386915855E+02  0.19144661252E+02  0.19862931757E+02  0.36820860627E+02  0.00000000000E+00 0. -1.
         11    1    4    4    0    0  0.29841738065E+02 -0.14088214573E+02 -0.22916343236E+02  0.40176683638E+02  0.51100000000E-03 0.  1.
        -11    1    4    4    0    0 -0.64854258266E+01  0.18391382255E+01  0.47892456334E+00  0.67581466811E+01  0.51100000000E-03 0. -1.
        -12    1    4    4    0    0  0.10306036160E+01 -0.68955849043E+01  0.25744869160E+01  0.74323090535E+01  0.00000000000E+00 0.  1.
</event>
<event>
 8    1  0.3007389E-007  0.9118800E+02  0.7816164E-02  0.1184000E+00
        -11   -1    0    0    0    0  0.00000000000E+00  0.00000000000E+00  0.45593999997E+02  0.45594000000E+02  0.51100000000E-03 0. -1.
         11   -1    0    0    0    0 -0.00000000000E+00 -0.00000000000E+00 -0.45593999997E+02  0.45594000000E+02  0.51100000000E-03 0.  1.
         23    2    1    2    0    0  0.00000000000E+00  0.00000000000E+00  0.00000000000E+00  0.91188000000E+02  0.91188000000E+02 0.  0.
    9900012    2    3    3    0    0  0.20292631714E+02 -0.28003398748E+02  0.12641316708E+02  0.54367025930E+02  0.39999867214E+02 0.  0.
        -12    1    3    3    0    0 -0.20292631714E+02  0.28003398748E+02 -0.12641316708E+02  0.36820974070E+02  0.00000000000E+00 0.  1.
         11    1    4    4    0    0  0.19272665672E+02 -0.51316763870E+01 -0.19476606221E+01  0.20039040067E+02  0.51100000000E-03 0. -1.
        -11    1    4    4    0    0  0.44932065769E+01 -0.17440076243E+02 -0.39705626030E+00  0.18013961769E+02  0.51100000000E-03 0.  1.
         12    1    4    4    0    0 -0.34732405348E+01 -0.54316461181E+01  0.14986033591E+02  0.16314024094E+02  0.00000000000E+00 0. -1.
</event>
<event>
 8    1  0.3007389E-007  0.9118800E+02  0.7816164E-02  0.1184000E+00
        -11   -1    0    0    0    0  0.00000000000E+00  0.00000000000E+00  0.45593999997E+02  0.45594000000E+02  0.51100000000E-03 0.  1.
         11   -1    0    0    0    0 -0.00000000000E+00 -0.00000000000E+00 -0.45593999997E+02  0.45594000000E+02  0.51100000000E-03 0. -1.
         23    2    1    2    0    0 -0.44408920985E-15  0.00000000000E+00  0.00000000000E+00  0.91188000000E+02  0.91188000000E+02 0.  0.
    9900012    2    3    3    0    0  0.21135930591E+01 -0.31367210142E+02  0.19167986202E+02  0.54367070588E+02  0.39999969020E+02 0.  0.
         12    1    3    3    0    0 -0.21135930591E+01  0.31367210142E+02 -0.19167986202E+02  0.36820929412E+02  0.00000000000E+00 0. -1.
         11    1    4    4    0    0  0.37565748836E+01  0.14988795438E+01  0.50492785347E+01  0.64694442362E+01  0.51100000000E-03 0. -1.
        -11    1    4    4    0    0  0.82299848441E+01 -0.64911814953E+01  0.16593542790E+02  0.19626862977E+02  0.51100000000E-03 0.  1.
        -12    1    4    4    0    0 -0.98729666686E+01 -0.26374908191E+02 -0.24748351230E+01  0.28270763375E+02  0.00000000000E+00 0.  1.
</event>
<event>
 8    1  0.3007389E-007  0.9118800E+02  0.7816164E-02  0.1184000E+00
        -11   -1    0    0    0    0  0.00000000000E+00  0.00000000000E+00  0.45593999997E+02  0.45594000000E+02  0.51100000000E-03 0.  1.
         11   -1    0    0    0    0 -0.00000000000E+00 -0.00000000000E+00 -0.45593999997E+02  0.45594000000E+02  0.51100000000E-03 0. -1.
         23    2    1    2    0    0 -0.35527136788E-14  0.00000000000E+00 -0.35527136788E-14  0.91188000000E+02  0.91188000000E+02 0.  0.
    9900012    2    3    3    0    0 -0.23015738717E+02 -0.14770963424E+02  0.24654882823E+02  0.54367233628E+02  0.40000340701E+02 0.  0.
         12    1    3    3    0    0  0.23015738717E+02  0.14770963424E+02 -0.24654882823E+02  0.36820766372E+02  0.00000000000E+00 0. -1.
         11    1    4    4    0    0 -0.33500923004E+02 -0.95996127122E+01  0.23980356036E+02  0.42302740836E+02  0.51100000000E-03 0.  1.
        -11    1    4    4    0    0  0.74561944431E+01 -0.46900697821E+01  0.13835868572E+01  0.89166082670E+01  0.51100000000E-03 0. -1.
        -12    1    4    4    0    0  0.30289898433E+01 -0.48128092960E+00 -0.70906007019E+00  0.31478845257E+01  0.00000000000E+00 0.  1.
</event>
<event>
 8    1  0.3007389E-007  0.9118800E+02  0.7816164E-02  0.1184000E+00
        -11   -1    0    0    0    0  0.00000000000E+00  0.00000000000E+00  0.45593999997E+02  0.45594000000E+02  0.51100000000E-03 0. -1.
         11   -1    0    0    0    0 -0.00000000000E+00 -0.00000000000E+00 -0.45593999997E+02  0.45594000000E+02  0.51100000000E-03 0.  1.
         23    2    1    2    0    0  0.88817841970E-15  0.35527136788E-14  0.71054273576E-14  0.91188000000E+02  0.91188000000E+02 0.  0.
    9900012    2    3    3    0    0 -0.47350538626E+01 -0.16985776589E+02 -0.32324006549E+02  0.54367099131E+02  0.40000034089E+02 0.  0.
         12    1    3    3    0    0  0.47350538626E+01  0.16985776589E+02  0.32324006549E+02  0.36820900869E+02  0.00000000000E+00 0. -1.
         11    1    4    4    0    0  0.30486013369E+01 -0.69850411093E+01 -0.15327513062E+02  0.17117751790E+02  0.51100000000E-03 0.  1.
        -11    1    4    4    0    0  0.78095725821E+01 -0.31861429269E+01  0.47154864536E+01  0.96631642551E+01  0.51100000000E-03 0. -1.
         12    1    4    4    0    0 -0.15593227782E+02 -0.68145925531E+01 -0.21711979940E+02  0.27586183086E+02  0.00000000000E+00 0. -1.
</event>
<event>
 8    1  0.3007389E-007  0.9118800E+02  0.7816164E-02  0.1184000E+00
        -11   -1    0    0    0    0  0.00000000000E+00  0.00000000000E+00  0.45593999997E+02  0.45594000000E+02  0.51100000000E-03 0.  1.
         11   -1    0    0    0    0 -0.00000000000E+00 -0.00000000000E+00 -0.45593999997E+02  0.45594000000E+02  0.51100000000E-03 0. -1.
         23    2    1    2    0    0  0.00000000000E+00  0.17763568394E-14 -0.71054273576E-14  0.91188000000E+02  0.91188000000E+02 0.  0.
    9900012    2    3    3    0    0  0.20582384099E+02 -0.55668835935E+01  0.30019264876E+02  0.54367068563E+02  0.39999964404E+02 0.  0.
         12    1    3    3    0    0 -0.20582384099E+02  0.55668835935E+01 -0.30019264876E+02  0.36820931437E+02  0.00000000000E+00 0. -1.
         11    1    4    4    0    0  0.20293800557E+02  0.11308990586E+02  0.16231093689E+02  0.28340430691E+02  0.51100000000E-03 0. -1.
        -11    1    4    4    0    0 -0.54619262506E+01 -0.53352819375E+01  0.10011870531E+02  0.12591085081E+02  0.51100000000E-03 0.  1.
        -12    1    4    4    0    0  0.57505097931E+01 -0.11540592242E+02  0.37763006553E+01  0.13435552792E+02  0.00000000000E+00 0.  1.
</event>
<event>
 8    1  0.3007389E-007  0.9118800E+02  0.7816164E-02  0.1184000E+00
        -11   -1    0    0    0    0  0.00000000000E+00  0.00000000000E+00  0.45593999997E+02  0.45594000000E+02  0.51100000000E-03 0.  1.
         11   -1    0    0    0    0 -0.00000000000E+00 -0.00000000000E+00 -0.45593999997E+02  0.45594000000E+02  0.51100000000E-03 0. -1.
         23    2    1    2    0    0  0.00000000000E+00  0.00000000000E+00  0.00000000000E+00  0.91188000000E+02  0.91188000000E+02 0.  0.
    9900012    2    3    3    0    0  0.98444721427E+01 -0.28585568708E+02 -0.21017394281E+02  0.54367092454E+02  0.40000018867E+02 0.  0.
        -12    1    3    3    0    0 -0.98444721427E+01  0.28585568708E+02  0.21017394281E+02  0.36820907546E+02  0.00000000000E+00 0.  1.
         11    1    4    4    0    0  0.10904539213E+02 -0.10059474772E+02 -0.14709238114E+02  0.20891713532E+02  0.51100000000E-03 0. -1.
        -11    1    4    4    0    0  0.91067774369E+01 -0.15725149834E+02  0.41323973808E+01  0.18635730224E+02  0.51100000000E-03 0.  1.
        -12    1    4    4    0    0 -0.10166844508E+02 -0.28009441025E+01 -0.10440553548E+02  0.14839648698E+02  0.00000000000E+00 0.  1.
</event>
<event>
 8    1  0.3007389E-007  0.9118800E+02  0.7816164E-02  0.1184000E+00
        -11   -1    0    0    0    0  0.00000000000E+00  0.00000000000E+00  0.45593999997E+02  0.45594000000E+02  0.51100000000E-03 0. -1.
         11   -1    0    0    0    0 -0.00000000000E+00 -0.00000000000E+00 -0.45593999997E+02  0.45594000000E+02  0.51100000000E-03 0.  1.
         23    2    1    2    0    0  0.00000000000E+00  0.00000000000E+00  0.00000000000E+00  0.91188000000E+02  0.91188000000E+02 0.  0.
    9900012    2    3    3    0    0 -0.22853599304E+02 -0.92232580628E+01  0.27357314337E+02  0.54367107314E+02  0.40000052744E+02 0.  0.
        -12    1    3    3    0    0  0.22853599304E+02  0.92232580628E+01 -0.27357314337E+02  0.36820892686E+02  0.00000000000E+00 0.  1.
         11    1    4    4    0    0 -0.74663332001E+01  0.40646634237E+01  0.39382987739E+01  0.93689816787E+01  0.51100000000E-03 0. -1.
        -11    1    4    4    0    0 -0.83284707668E+01 -0.20864657742E+02  0.25964572151E+02  0.34334477937E+02  0.51100000000E-03 0.  1.
        -12    1    4    4    0    0 -0.70587953370E+01  0.75767362552E+01 -0.25455565873E+01  0.10663647698E+02  0.00000000000E+00 0.  1.
</event>
<event>
 8    1  0.3007389E-007  0.9118800E+02  0.7816164E-02  0.1184000E+00
        -11   -1    0    0    0    0  0.00000000000E+00  0.00000000000E+00  0.45593999997E+02  0.45594000000E+02  0.51100000000E-03 0.  1.
         11   -1    0    0    0    0 -0.00000000000E+00 -0.00000000000E+00 -0.45593999997E+02  0.45594000000E+02  0.51100000000E-03 0. -1.
         23    2    1    2    0    0  0.00000000000E+00  0.00000000000E+00  0.00000000000E+00  0.91188000000E+02  0.91188000000E+02 0.  0.
    9900012    2    3    3    0    0 -0.36591149484E+02  0.11960880754E+01  0.39290627109E+01  0.54367076858E+02  0.39999983314E+02 0.  0.
         12    1    3    3    0    0  0.36591149484E+02 -0.11960880754E+01 -0.39290627109E+01  0.36820923142E+02  0.00000000000E+00 0. -1.
         11    1    4    4    0    0 -0.13787352351E+01  0.12892105345E+02  0.40428430949E+00  0.12971921105E+02  0.51100000000E-03 0. -1.
        -11    1    4    4    0    0 -0.14024214645E+02 -0.10450825899E+02  0.87209111214E+01  0.19543608915E+02  0.51100000000E-03 0.  1.
         12    1    4    4    0    0 -0.21188199604E+02 -0.12451913712E+01 -0.51961327199E+01  0.21851546839E+02  0.00000000000E+00 0. -1.
</event>
<event>
 8    1  0.3007389E-007  0.9118800E+02  0.7816164E-02  0.1184000E+00
        -11   -1    0    0    0    0  0.00000000000E+00  0.00000000000E+00  0.45593999997E+02  0.45594000000E+02  0.51100000000E-03 0.  1.
         11   -1    0    0    0    0 -0.00000000000E+00 -0.00000000000E+00 -0.45593999997E+02  0.45594000000E+02  0.51100000000E-03 0. -1.
         23    2    1    2    0    0  0.35527136788E-14 -0.35527136788E-14 -0.17763568394E-14  0.91188000000E+02  0.91188000000E+02 0.  0.
    9900012    2    3    3    0    0  0.24414322650E+02 -0.26428629591E+02 -0.78261429007E+01  0.54367080331E+02  0.39999991232E+02 0.  0.
        -12    1    3    3    0    0 -0.24414322650E+02  0.26428629591E+02  0.78261429007E+01  0.36820919669E+02  0.00000000000E+00 0.  1.
         11    1    4    4    0    0 -0.60701729242E+01 -0.40457229990E+01  0.12612837476E+01  0.74030879279E+01  0.51100000000E-03 0. -1.
        -11    1    4    4    0    0  0.21971106819E+02 -0.51381922736E+01 -0.14700155434E+02  0.26930004172E+02  0.51100000000E-03 0.  1.
        -12    1    4    4    0    0  0.85133887557E+01 -0.17244714319E+02  0.56127287854E+01  0.20033988231E+02  0.00000000000E+00 0.  1.
</event>
<event>
 8    1  0.3007389E-007  0.9118800E+02  0.7816164E-02  0.1184000E+00
        -11   -1    0    0    0    0  0.00000000000E+00  0.00000000000E+00  0.45593999997E+02  0.45594000000E+02  0.51100000000E-03 0. -1.
         11   -1    0    0    0    0 -0.00000000000E+00 -0.00000000000E+00 -0.45593999997E+02  0.45594000000E+02  0.51100000000E-03 0.  1.
         23    2    1    2    0    0  0.35527136788E-14  0.17763568394E-14  0.00000000000E+00  0.91188000000E+02  0.91188000000E+02 0.  0.
    9900012    2    3    3    0    0 -0.25822759427E+02  0.59267802560E+01  0.25570260950E+02  0.54367083748E+02  0.39999999020E+02 0.  0.
        -12    1    3    3    0    0  0.25822759427E+02 -0.59267802560E+01 -0.25570260950E+02  0.36820916252E+02  0.00000000000E+00 0.  1.
         11    1    4    4    0    0 -0.17990619473E+02 -0.41586914514E+01  0.10364456842E+02  0.21174963270E+02  0.51100000000E-03 0. -1.
        -11    1    4    4    0    0 -0.11145897540E+02  0.14300689951E+02  0.11721546822E+01  0.18169059192E+02  0.51100000000E-03 0.  1.
         12    1    4    4    0    0  0.33137575865E+01 -0.42152182441E+01  0.14033649426E+02  0.15023061286E+02  0.00000000000E+00 0. -1.
</event>
<event>
 8    1  0.3007389E-007  0.9118800E+02  0.7816164E-02  0.1184000E+00
        -11   -1    0    0    0    0  0.00000000000E+00  0.00000000000E+00  0.45593999997E+02  0.45594000000E+02  0.51100000000E-03 0.  1.
         11   -1    0    0    0    0 -0.00000000000E+00 -0.00000000000E+00 -0.45593999997E+02  0.45594000000E+02  0.51100000000E-03 0. -1.
         23    2    1    2    0    0  0.35527136788E-14 -0.88817841970E-15  0.35527136788E-14  0.91188000000E+02  0.91188000000E+02 0.  0.
    9900012    2    3    3    0    0  0.18897415539E+02 -0.75231438246E+01  0.30693167596E+02  0.54367074643E+02  0.39999978264E+02 0.  0.
         12    1    3    3    0    0 -0.18897415539E+02  0.75231438246E+01 -0.30693167596E+02  0.36820925357E+02  0.00000000000E+00 0. -1.
         11    1    4    4    0    0  0.17407526742E+02  0.10845269269E+02  0.15066048574E+02  0.25448529873E+02  0.51100000000E-03 0. -1.
        -11    1    4    4    0    0  0.76065160100E+01 -0.11149069166E+02  0.13759339759E+02  0.19273823179E+02  0.51100000000E-03 0.  1.
         12    1    4    4    0    0 -0.61166272129E+01 -0.72193439274E+01  0.18677792630E+01  0.96447215916E+01  0.00000000000E+00 0. -1.
</event>
<event>
 8    1  0.3007389E-007  0.9118800E+02  0.7816164E-02  0.1184000E+00
        -11   -1    0    0    0    0  0.00000000000E+00  0.00000000000E+00  0.45593999997E+02  0.45594000000E+02  0.51100000000E-03 0.  1.
         11   -1    0    0    0    0 -0.00000000000E+00 -0.00000000000E+00 -0.45593999997E+02  0.45594000000E+02  0.51100000000E-03 0. -1.
         23    2    1    2    0    0  0.00000000000E+00 -0.61929628092E-15  0.00000000000E+00  0.91188000000E+02  0.91188000000E+02 0.  0.
    9900012    2    3    3    0    0 -0.27201341805E+02 -0.12928597228E-01 -0.24816610874E+02  0.54367118175E+02  0.40000077503E+02 0.  0.
        -12    1    3    3    0    0  0.27201341805E+02  0.12928597228E-01  0.24816610874E+02  0.36820881825E+02  0.00000000000E+00 0.  1.
         11    1    4    4    0    0 -0.21165999697E+02 -0.67142724426E+01 -0.21754062054E+02  0.31085691463E+02  0.51100000000E-03 0. -1.
        -11    1    4    4    0    0 -0.11954753410E+02  0.33564887233E+01  0.44116273458E+01  0.13177427736E+02  0.51100000000E-03 0.  1.
         12    1    4    4    0    0  0.59194113024E+01  0.33448551220E+01 -0.74741761657E+01  0.10103998976E+02  0.00000000000E+00 0. -1.
</event>
<event>
 8    1  0.3007389E-007  0.9118800E+02  0.7816164E-02  0.1184000E+00
        -11   -1    0    0    0    0  0.00000000000E+00  0.00000000000E+00  0.45593999997E+02  0.45594000000E+02  0.51100000000E-03 0. -1.
         11   -1    0    0    0    0 -0.00000000000E+00 -0.00000000000E+00 -0.45593999997E+02  0.45594000000E+02  0.51100000000E-03 0.  1.
         23    2    1    2    0    0  0.00000000000E+00  0.71054273576E-14  0.00000000000E+00  0.91188000000E+02  0.91188000000E+02 0.  0.
    9900012    2    3    3    0    0  0.20902549737E+02 -0.22225910657E+02  0.20612416566E+02  0.54367090089E+02  0.40000013475E+02 0.  0.
         12    1    3    3    0    0 -0.20902549737E+02  0.22225910657E+02 -0.20612416566E+02  0.36820909911E+02  0.00000000000E+00 0. -1.
         11    1    4    4    0    0  0.26611712224E+02 -0.14850401539E+02  0.85178278991E+01  0.31642867217E+02  0.51100000000E-03 0. -1.
        -11    1    4    4    0    0 -0.94863206750E+01 -0.83632035053E+01  0.32517041536E+01  0.13057834161E+02  0.51100000000E-03 0.  1.
        -12    1    4    4    0    0  0.37771581877E+01  0.98769438759E+00  0.88428845131E+01  0.96663887099E+01  0.00000000000E+00 0.  1.
</event>
<event>
 8    1  0.3007389E-007  0.9118800E+02  0.7816164E-02  0.1184000E+00
        -11   -1    0    0    0    0  0.00000000000E+00  0.00000000000E+00  0.45593999997E+02  0.45594000000E+02  0.51100000000E-03 0. -1.
         11   -1    0    0    0    0 -0.00000000000E+00 -0.00000000000E+00 -0.45593999997E+02  0.45594000000E+02  0.51100000000E-03 0.  1.
         23    2    1    2    0    0 -0.22204460493E-15  0.00000000000E+00  0.00000000000E+00  0.91188000000E+02  0.91188000000E+02 0.  0.
    9900012    2    3    3    0    0 -0.48963015703E+00  0.22833715647E+02  0.28881866695E+02  0.54367074811E+02  0.39999978648E+02 0.  0.
        -12    1    3    3    0    0  0.48963015703E+00 -0.22833715647E+02 -0.28881866695E+02  0.36820925189E+02  0.00000000000E+00 0.  1.
         11    1    4    4    0    0 -0.35035807562E+01 -0.28316599211E+00 -0.23822876069E+01  0.42462401719E+01  0.51100000000E-03 0. -1.
        -11    1    4    4    0    0  0.12078116460E+02  0.21037740399E+02  0.87953864774E+01  0.25803609086E+02  0.51100000000E-03 0.  1.
         12    1    4    4    0    0 -0.90641658612E+01  0.20791412406E+01  0.22468767825E+02  0.24317225553E+02  0.00000000000E+00 0. -1.
</event>
<event>
 8    1  0.3007389E-007  0.9118800E+02  0.7816164E-02  0.1184000E+00
        -11   -1    0    0    0    0  0.00000000000E+00  0.00000000000E+00  0.45593999997E+02  0.45594000000E+02  0.51100000000E-03 0. -1.
         11   -1    0    0    0    0 -0.00000000000E+00 -0.00000000000E+00 -0.45593999997E+02  0.45594000000E+02  0.51100000000E-03 0.  1.
         23    2    1    2    0    0  0.00000000000E+00  0.00000000000E+00  0.00000000000E+00  0.91188000000E+02  0.91188000000E+02 0.  0.
    9900012    2    3    3    0    0 -0.30937052676E+02  0.10913356621E+02 -0.16720559749E+02  0.54367086115E+02  0.40000004416E+02 0.  0.
         12    1    3    3    0    0  0.30937052676E+02 -0.10913356621E+02  0.16720559749E+02  0.36820913885E+02  0.00000000000E+00 0. -1.
         11    1    4    4    0    0 -0.30828258220E+01  0.72464678810E+01 -0.63181132900E+01  0.10096220461E+02  0.51100000000E-03 0. -1.
        -11    1    4    4    0    0 -0.53522101080E+01  0.14368979715E+02  0.35136391513E+01  0.15730842044E+02  0.51100000000E-03 0.  1.
        -12    1    4    4    0    0 -0.22502016746E+02 -0.10702090975E+02 -0.13916085611E+02  0.28540023609E+02  0.00000000000E+00 0.  1.
</event>
<event>
 8    1  0.3007389E-007  0.9118800E+02  0.7816164E-02  0.1184000E+00
        -11   -1    0    0    0    0  0.00000000000E+00  0.00000000000E+00  0.45593999997E+02  0.45594000000E+02  0.51100000000E-03 0. -1.
         11   -1    0    0    0    0 -0.00000000000E+00 -0.00000000000E+00 -0.45593999997E+02  0.45594000000E+02  0.51100000000E-03 0.  1.
         23    2    1    2    0    0 -0.88817841970E-15  0.17763568394E-14  0.00000000000E+00  0.91188000000E+02  0.91188000000E+02 0.  0.
    9900012    2    3    3    0    0  0.75446850803E+01  0.69644089452E+01  0.35360363954E+02  0.54367073832E+02  0.39999976415E+02 0.  0.
        -12    1    3    3    0    0 -0.75446850803E+01 -0.69644089452E+01 -0.35360363954E+02  0.36820926168E+02  0.00000000000E+00 0.  1.
         11    1    4    4    0    0  0.51463419796E+01  0.15115261446E+02  0.15161354616E+02  0.22018688390E+02  0.51100000000E-03 0. -1.
        -11    1    4    4    0    0 -0.39581015357E+01  0.49605469296E+01 -0.12009515984E+01  0.64587830595E+01  0.51100000000E-03 0.  1.
         12    1    4    4    0    0  0.63564446363E+01 -0.13111399431E+02  0.21399960936E+02  0.25889602382E+02  0.00000000000E+00 0. -1.
</event>
<event>
 8    1  0.3007389E-007  0.9118800E+02  0.7816164E-02  0.1184000E+00
        -11   -1    0    0    0    0  0.00000000000E+00  0.00000000000E+00  0.45593999997E+02  0.45594000000E+02  0.51100000000E-03 0. -1.
         11   -1    0    0    0    0 -0.00000000000E+00 -0.00000000000E+00 -0.45593999997E+02  0.45594000000E+02  0.51100000000E-03 0.  1.
         23    2    1    2    0    0 -0.26645352591E-14  0.00000000000E+00 -0.88817841970E-15  0.91188000000E+02  0.91188000000E+02 0.  0.
    9900012    2    3    3    0    0  0.55010333844E+01  0.36167731186E+02 -0.41729419145E+01  0.54367087577E+02  0.40000007749E+02 0.  0.
         12    1    3    3    0    0 -0.55010333844E+01 -0.36167731186E+02  0.41729419145E+01  0.36820912423E+02  0.00000000000E+00 0. -1.
         11    1    4    4    0    0  0.33180067014E+01  0.14057986189E+01 -0.34515647780E+01  0.49898635157E+01  0.51100000000E-03 0. -1.
        -11    1    4    4    0    0 -0.11457253497E+02  0.11977621789E+02 -0.12064453049E+02  0.20500807522E+02  0.51100000000E-03 0.  1.
         12    1    4    4    0    0  0.13640280179E+02  0.22784310778E+02  0.11343075913E+02  0.28876416540E+02  0.00000000000E+00 0. -1.
</event>
<event>
 8    1  0.3007389E-007  0.9118800E+02  0.7816164E-02  0.1184000E+00
        -11   -1    0    0    0    0  0.00000000000E+00  0.00000000000E+00  0.45593999997E+02  0.45594000000E+02  0.51100000000E-03 0.  1.
         11   -1    0    0    0    0 -0.00000000000E+00 -0.00000000000E+00 -0.45593999997E+02  0.45594000000E+02  0.51100000000E-03 0. -1.
         23    2    1    2    0    0  0.00000000000E+00  0.00000000000E+00  0.11102230246E-14  0.91188000000E+02  0.91188000000E+02 0.  0.
    9900012    2    3    3    0    0  0.11939972284E+02 -0.34792267536E+02 -0.16476333382E+01  0.54367088631E+02  0.40000010153E+02 0.  0.
         12    1    3    3    0    0 -0.11939972284E+02  0.34792267536E+02  0.16476333382E+01  0.36820911369E+02  0.00000000000E+00 0. -1.
         11    1    4    4    0    0  0.12443302403E+01  0.51949795669E+01  0.80230444903E+00  0.54018388663E+01  0.51100000000E-03 0.  1.
        -11    1    4    4    0    0 -0.23747654530E+01 -0.14411874470E+02 -0.11781665416E+02  0.18765640861E+02  0.51100000000E-03 0. -1.
        -12    1    4    4    0    0  0.13070407496E+02 -0.25575372632E+02  0.93317276286E+01  0.30199608903E+02  0.00000000000E+00 0.  1.
</event>
<event>
 8    1  0.3007389E-007  0.9118800E+02  0.7816164E-02  0.1184000E+00
        -11   -1    0    0    0    0  0.00000000000E+00  0.00000000000E+00  0.45593999997E+02  0.45594000000E+02  0.51100000000E-03 0. -1.
         11   -1    0    0    0    0 -0.00000000000E+00 -0.00000000000E+00 -0.45593999997E+02  0.45594000000E+02  0.51100000000E-03 0.  1.
         23    2    1    2    0    0  0.22204460493E-15  0.71054273576E-14  0.00000000000E+00  0.91188000000E+02  0.91188000000E+02 0.  0.
    9900012    2    3    3    0    0  0.14314304533E+01 -0.35280038634E+02 -0.10442653694E+02  0.54367093773E+02  0.40000021875E+02 0.  0.
         12    1    3    3    0    0 -0.14314304533E+01  0.35280038634E+02  0.10442653694E+02  0.36820906227E+02  0.00000000000E+00 0. -1.
         11    1    4    4    0    0 -0.79141894699E+01 -0.31992786190E+02 -0.11492693416E+02  0.34903506491E+02  0.51100000000E-03 0. -1.
        -11    1    4    4    0    0  0.31772896459E+01 -0.98103495487E+01  0.17465938946E+01  0.10458906169E+02  0.51100000000E-03 0.  1.
        -12    1    4    4    0    0  0.61683302773E+01  0.65230971041E+01 -0.69655417224E+00  0.90046811134E+01  0.00000000000E+00 0.  1.
</event>
<event>
 8    1  0.3007389E-007  0.9118800E+02  0.7816164E-02  0.1184000E+00
        -11   -1    0    0    0    0  0.00000000000E+00  0.00000000000E+00  0.45593999997E+02  0.45594000000E+02  0.51100000000E-03 0. -1.
         11   -1    0    0    0    0 -0.00000000000E+00 -0.00000000000E+00 -0.45593999997E+02  0.45594000000E+02  0.51100000000E-03 0.  1.
         23    2    1    2    0    0 -0.88817841970E-15 -0.35527136788E-14  0.00000000000E+00  0.91188000000E+02  0.91188000000E+02 0.  0.
    9900012    2    3    3    0    0 -0.78342127769E+01 -0.25061212098E+02  0.25813521768E+02  0.54367120764E+02  0.40000083406E+02 0.  0.
        -12    1    3    3    0    0  0.78342127769E+01  0.25061212098E+02 -0.25813521768E+02  0.36820879236E+02  0.00000000000E+00 0.  1.
         11    1    4    4    0    0  0.11235182635E+02  0.11390879120E+01  0.17310170329E+02  0.20668063460E+02  0.51100000000E-03 0. -1.
        -11    1    4    4    0    0 -0.48933931711E+01 -0.92491910835E+01  0.18903495286E+01  0.10633261683E+02  0.51100000000E-03 0.  1.
        -12    1    4    4    0    0 -0.14176002241E+02 -0.16951108926E+02  0.66130019102E+01  0.23065795621E+02  0.00000000000E+00 0.  1.
</event>
<event>
 8    1  0.3007389E-007  0.9118800E+02  0.7816164E-02  0.1184000E+00
        -11   -1    0    0    0    0  0.00000000000E+00  0.00000000000E+00  0.45593999997E+02  0.45594000000E+02  0.51100000000E-03 0.  1.
         11   -1    0    0    0    0 -0.00000000000E+00 -0.00000000000E+00 -0.45593999997E+02  0.45594000000E+02  0.51100000000E-03 0. -1.
         23    2    1    2    0    0  0.00000000000E+00  0.35527136788E-14 -0.35527136788E-14  0.91188000000E+02  0.91188000000E+02 0.  0.
    9900012    2    3    3    0    0  0.16145617551E+02 -0.25273597754E+02  0.21362212124E+02  0.54367084526E+02  0.40000000794E+02 0.  0.
         12    1    3    3    0    0 -0.16145617551E+02  0.25273597754E+02 -0.21362212124E+02  0.36820915474E+02  0.00000000000E+00 0. -1.
         11    1    4    4    0    0  0.83867247390E+01  0.84181332740E+00 -0.60423592167E+01  0.10370916386E+02  0.51100000000E-03 0. -1.
        -11    1    4    4    0    0  0.52495118602E+01 -0.18415177770E+01 -0.18839809587E+01  0.58734952973E+01  0.51100000000E-03 0.  1.
        -12    1    4    4    0    0  0.25093809514E+01 -0.24273893304E+02  0.29288552299E+02  0.38122672843E+02  0.00000000000E+00 0.  1.
</event>
<event>
 8    1  0.3007389E-007  0.9118800E+02  0.7816164E-02  0.1184000E+00
        -11   -1    0    0    0    0  0.00000000000E+00  0.00000000000E+00  0.45593999997E+02  0.45594000000E+02  0.51100000000E-03 0.  1.
         11   -1    0    0    0    0 -0.00000000000E+00 -0.00000000000E+00 -0.45593999997E+02  0.45594000000E+02  0.51100000000E-03 0. -1.
         23    2    1    2    0    0  0.17763568394E-14  0.00000000000E+00 -0.35527136788E-14  0.91188000000E+02  0.91188000000E+02 0.  0.
    9900012    2    3    3    0    0 -0.11076366380E+02  0.31007432866E+02  0.16480902030E+02  0.54367259691E+02  0.40000400116E+02 0.  0.
         12    1    3    3    0    0  0.11076366380E+02 -0.31007432866E+02 -0.16480902030E+02  0.36820740309E+02  0.00000000000E+00 0. -1.
         11    1    4    4    0    0 -0.13658567012E+02  0.60689368838E+01  0.23479562207E+02  0.27833043122E+02  0.51100000000E-03 0. -1.
        -11    1    4    4    0    0 -0.14303462498E+01  0.93266141523E+01 -0.18743337302E+01  0.96200181463E+01  0.51100000000E-03 0.  1.
        -12    1    4    4    0    0  0.40125468818E+01  0.15611881830E+02 -0.51243264466E+01  0.16914198423E+02  0.00000000000E+00 0.  1.
</event>
<event>
 8    1  0.3007389E-007  0.9118800E+02  0.7816164E-02  0.1184000E+00
        -11   -1    0    0    0    0  0.00000000000E+00  0.00000000000E+00  0.45593999997E+02  0.45594000000E+02  0.51100000000E-03 0. -1.
         11   -1    0    0    0    0 -0.00000000000E+00 -0.00000000000E+00 -0.45593999997E+02  0.45594000000E+02  0.51100000000E-03 0.  1.
         23    2    1    2    0    0  0.00000000000E+00  0.00000000000E+00  0.00000000000E+00  0.91188000000E+02  0.91188000000E+02 0.  0.
    9900012    2    3    3    0    0  0.23327085604E+02  0.10001373399E+02  0.26675829886E+02  0.54367078057E+02  0.39999986046E+02 0.  0.
        -12    1    3    3    0    0 -0.23327085604E+02 -0.10001373399E+02 -0.26675829886E+02  0.36820921943E+02  0.00000000000E+00 0.  1.
         11    1    4    4    0    0  0.20043020748E+02 -0.23469219348E+01  0.27748062485E+02  0.34310139830E+02  0.51100000000E-03 0. -1.
        -11    1    4    4    0    0  0.11602856895E+01 -0.17724846143E+01 -0.48445250705E+01  0.52874746343E+01  0.51100000000E-03 0.  1.
         12    1    4    4    0    0  0.21237791668E+01  0.14120779948E+02  0.37722924720E+01  0.14769463592E+02  0.00000000000E+00 0. -1.
</event>
<event>
 8    1  0.3007389E-007  0.9118800E+02  0.7816164E-02  0.1184000E+00
        -11   -1    0    0    0    0  0.00000000000E+00  0.00000000000E+00  0.45593999997E+02  0.45594000000E+02  0.51100000000E-03 0.  1.
         11   -1    0    0    0    0 -0.00000000000E+00 -0.00000000000E+00 -0.45593999997E+02  0.45594000000E+02  0.51100000000E-03 0. -1.
         23    2    1    2    0    0  0.26645352591E-14  0.00000000000E+00  0.00000000000E+00  0.91188000000E+02  0.91188000000E+02 0.  0.
    9900012    2    3    3    0    0 -0.68272941086E+01  0.17271406044E+02  0.31794124452E+02  0.54367085274E+02  0.40000002499E+02 0.  0.
         12    1    3    3    0    0  0.68272941086E+01 -0.17271406044E+02 -0.31794124452E+02  0.36820914726E+02  0.00000000000E+00 0. -1.
         11    1    4    4    0    0  0.68236614884E+01  0.52596942953E+00  0.12854458151E+02  0.14562832642E+02  0.51100000000E-03 0.  1.
        -11    1    4    4    0    0 -0.15672759146E+01  0.64375554595E+01 -0.68411184553E+01  0.95236220036E+01  0.51100000000E-03 0. -1.
         12    1    4    4    0    0 -0.12083679682E+02  0.10307881155E+02  0.25780784757E+02  0.30280630628E+02  0.00000000000E+00 0. -1.
</event>
<event>
 8    1  0.3007389E-007  0.9118800E+02  0.7816164E-02  0.1184000E+00
        -11   -1    0    0    0    0  0.00000000000E+00  0.00000000000E+00  0.45593999997E+02  0.45594000000E+02  0.51100000000E-03 0. -1.
         11   -1    0    0    0    0 -0.00000000000E+00 -0.00000000000E+00 -0.45593999997E+02  0.45594000000E+02  0.51100000000E-03 0.  1.
         23    2    1    2    0    0  0.00000000000E+00  0.00000000000E+00  0.35527136788E-14  0.91188000000E+02  0.91188000000E+02 0.  0.
    9900012    2    3    3    0    0 -0.59426691333E+01  0.27134620923E+02  0.24169748808E+02  0.54367085746E+02  0.40000003575E+02 0.  0.
        -12    1    3    3    0    0  0.59426691333E+01 -0.27134620923E+02 -0.24169748808E+02  0.36820914254E+02  0.00000000000E+00 0.  1.
         11    1    4    4    0    0 -0.65304245966E+01 -0.15983701642E+01  0.12384413574E+02  0.14091661805E+02  0.51100000000E-03 0. -1.
        -11    1    4    4    0    0 -0.72888840991E+01  0.26475165379E+02  0.15214022376E+02  0.31393131261E+02  0.51100000000E-03 0.  1.
        -12    1    4    4    0    0  0.78766395624E+01  0.22578257081E+01 -0.34286871425E+01  0.88822926795E+01  0.00000000000E+00 0.  1.
</event>
<event>
 8    1  0.3007389E-007  0.9118800E+02  0.7816164E-02  0.1184000E+00
        -11   -1    0    0    0    0  0.00000000000E+00  0.00000000000E+00  0.45593999997E+02  0.45594000000E+02  0.51100000000E-03 0. -1.
         11   -1    0    0    0    0 -0.00000000000E+00 -0.00000000000E+00 -0.45593999997E+02  0.45594000000E+02  0.51100000000E-03 0.  1.
         23    2    1    2    0    0  0.17763568394E-14  0.00000000000E+00  0.00000000000E+00  0.91188000000E+02  0.91188000000E+02 0.  0.
    9900012    2    3    3    0    0  0.10327026229E+02 -0.93159574993E+01  0.34093183377E+02  0.54367086274E+02  0.40000004778E+02 0.  0.
        -12    1    3    3    0    0 -0.10327026229E+02  0.93159574993E+01 -0.34093183377E+02  0.36820913726E+02  0.00000000000E+00 0.  1.
         11    1    4    4    0    0  0.11054982150E+02 -0.10528290133E+02  0.60663227498E+01  0.16427349008E+02  0.51100000000E-03 0. -1.
        -11    1    4    4    0    0 -0.81652138598E+01 -0.41058173945E+01  0.74862222415E+00  0.91699994192E+01  0.51100000000E-03 0.  1.
         12    1    4    4    0    0  0.74372579383E+01  0.53181500284E+01  0.27278238403E+02  0.28769737846E+02  0.00000000000E+00 0. -1.
</event>
<event>
 8    1  0.3007389E-007  0.9118800E+02  0.7816164E-02  0.1184000E+00
        -11   -1    0    0    0    0  0.00000000000E+00  0.00000000000E+00  0.45593999997E+02  0.45594000000E+02  0.51100000000E-03 0.  1.
         11   -1    0    0    0    0 -0.00000000000E+00 -0.00000000000E+00 -0.45593999997E+02  0.45594000000E+02  0.51100000000E-03 0. -1.
         23    2    1    2    0    0  0.71054273576E-14  0.00000000000E+00 -0.17763568394E-14  0.91188000000E+02  0.91188000000E+02 0.  0.
    9900012    2    3    3    0    0  0.35665545779E+02 -0.59090442578E+01 -0.69880184945E+01  0.54367077113E+02  0.39999983894E+02 0.  0.
        -12    1    3    3    0    0 -0.35665545779E+02  0.59090442578E+01  0.69880184945E+01  0.36820922887E+02  0.00000000000E+00 0.  1.
         11    1    4    4    0    0  0.29684231492E+02  0.60605040665E+01  0.34359195240E+01  0.30490799465E+02  0.51100000000E-03 0. -1.
        -11    1    4    4    0    0  0.51489220106E+01 -0.88544451451E+01 -0.15069764062E+02  0.18221152154E+02  0.51100000000E-03 0.  1.
         12    1    4    4    0    0  0.83239227687E+00 -0.31151031792E+01  0.46458260431E+01  0.56551254931E+01  0.00000000000E+00 0. -1.
</event>
<event>
 8    1  0.3007389E-007  0.9118800E+02  0.7816164E-02  0.1184000E+00
        -11   -1    0    0    0    0  0.00000000000E+00  0.00000000000E+00  0.45593999997E+02  0.45594000000E+02  0.51100000000E-03 0. -1.
         11   -1    0    0    0    0 -0.00000000000E+00 -0.00000000000E+00 -0.45593999997E+02  0.45594000000E+02  0.51100000000E-03 0.  1.
         23    2    1    2    0    0  0.00000000000E+00  0.00000000000E+00  0.35527136788E-14  0.91188000000E+02  0.91188000000E+02 0.  0.
    9900012    2    3    3    0    0 -0.25075189799E+02  0.10540989129E+02  0.24817389789E+02  0.54367076177E+02  0.39999981760E+02 0.  0.
        -12    1    3    3    0    0  0.25075189799E+02 -0.10540989129E+02 -0.24817389789E+02  0.36820923823E+02  0.00000000000E+00 0.  1.
         11    1    4    4    0    0 -0.88588433246E+01  0.28225208765E+01  0.26648162615E+02  0.28223577026E+02  0.51100000000E-03 0. -1.
        -11    1    4    4    0    0 -0.73203094610E+01  0.13312743993E+02 -0.32584680174E+01  0.15538136867E+02  0.51100000000E-03 0.  1.
        -12    1    4    4    0    0 -0.88960370132E+01 -0.55942757404E+01  0.14276951915E+01  0.10605362283E+02  0.00000000000E+00 0.  1.
</event>
<event>
 8    1  0.3007389E-007  0.9118800E+02  0.7816164E-02  0.1184000E+00
        -11   -1    0    0    0    0  0.00000000000E+00  0.00000000000E+00  0.45593999997E+02  0.45594000000E+02  0.51100000000E-03 0. -1.
         11   -1    0    0    0    0 -0.00000000000E+00 -0.00000000000E+00 -0.45593999997E+02  0.45594000000E+02  0.51100000000E-03 0.  1.
         23    2    1    2    0    0  0.00000000000E+00  0.00000000000E+00  0.00000000000E+00  0.91188000000E+02  0.91188000000E+02 0.  0.
    9900012    2    3    3    0    0  0.16357825395E+02 -0.31740628720E+02 -0.89852672963E+01  0.54367068567E+02  0.39999964412E+02 0.  0.
         12    1    3    3    0    0 -0.16357825395E+02  0.31740628720E+02  0.89852672963E+01  0.36820931433E+02  0.00000000000E+00 0. -1.
         11    1    4    4    0    0  0.42130204140E+01 -0.57216758981E+00  0.81887908725E+01  0.92267661168E+01  0.51100000000E-03 0. -1.
        -11    1    4    4    0    0 -0.33343479450E+01  0.28000100261E+01 -0.25712107864E+01  0.50565855608E+01  0.51100000000E-03 0.  1.
         12    1    4    4    0    0  0.15479152926E+02 -0.33968471157E+02 -0.14602847382E+02  0.40083716890E+02  0.00000000000E+00 0. -1.
</event>
<event>
 8    1  0.3007389E-007  0.9118800E+02  0.7816164E-02  0.1184000E+00
        -11   -1    0    0    0    0  0.00000000000E+00  0.00000000000E+00  0.45593999997E+02  0.45594000000E+02  0.51100000000E-03 0. -1.
         11   -1    0    0    0    0 -0.00000000000E+00 -0.00000000000E+00 -0.45593999997E+02  0.45594000000E+02  0.51100000000E-03 0.  1.
         23    2    1    2    0    0  0.44408920985E-15  0.35527136788E-14  0.00000000000E+00  0.91188000000E+02  0.91188000000E+02 0.  0.
    9900012    2    3    3    0    0  0.18059985912E+01  0.31413761564E+02  0.19123107233E+02  0.54367091853E+02  0.40000017497E+02 0.  0.
        -12    1    3    3    0    0 -0.18059985912E+01 -0.31413761564E+02 -0.19123107233E+02  0.36820908147E+02  0.00000000000E+00 0.  1.
         11    1    4    4    0    0  0.23164772584E+01  0.70420194970E+01  0.78219793003E+01  0.10776802212E+02  0.51100000000E-03 0. -1.
        -11    1    4    4    0    0  0.57213988682E+01  0.12651956229E+02 -0.10948111581E+02  0.17682407893E+02  0.51100000000E-03 0.  1.
         12    1    4    4    0    0 -0.62318775354E+01  0.11719785839E+02  0.22249239514E+02  0.25907881748E+02  0.00000000000E+00 0. -1.
</event>
<event>
 8    1  0.3007389E-007  0.9118800E+02  0.7816164E-02  0.1184000E+00
        -11   -1    0    0    0    0  0.00000000000E+00  0.00000000000E+00  0.45593999997E+02  0.45594000000E+02  0.51100000000E-03 0. -1.
         11   -1    0    0    0    0 -0.00000000000E+00 -0.00000000000E+00 -0.45593999997E+02  0.45594000000E+02  0.51100000000E-03 0.  1.
         23    2    1    2    0    0  0.00000000000E+00  0.71054273576E-14  0.00000000000E+00  0.91188000000E+02  0.91188000000E+02 0.  0.
    9900012    2    3    3    0    0 -0.16213143784E+02 -0.32269603635E+02 -0.71823772946E+01  0.54367083475E+02  0.39999998398E+02 0.  0.
         12    1    3    3    0    0  0.16213143784E+02  0.32269603635E+02  0.71823772946E+01  0.36820916525E+02  0.00000000000E+00 0. -1.
         11    1    4    4    0    0 -0.56115554285E+01  0.25702532893E+01  0.80028646354E+01  0.10106512699E+02  0.51100000000E-03 0. -1.
        -11    1    4    4    0    0 -0.39127262111E+01 -0.12619221677E+01 -0.84069767415E+01  0.93583723026E+01  0.51100000000E-03 0.  1.
         12    1    4    4    0    0 -0.66888621444E+01 -0.33577934757E+02 -0.67782651885E+01  0.34902198474E+02  0.00000000000E+00 0. -1.
</event>
<event>
 8    1  0.3007389E-007  0.9118800E+02  0.7816164E-02  0.1184000E+00
        -11   -1    0    0    0    0  0.00000000000E+00  0.00000000000E+00  0.45593999997E+02  0.45594000000E+02  0.51100000000E-03 0. -1.
         11   -1    0    0    0    0 -0.00000000000E+00 -0.00000000000E+00 -0.45593999997E+02  0.45594000000E+02  0.51100000000E-03 0.  1.
         23    2    1    2    0    0  0.00000000000E+00  0.00000000000E+00  0.22204460493E-14  0.91188000000E+02  0.91188000000E+02 0.  0.
    9900012    2    3    3    0    0  0.60619009256E+01 -0.36206784989E+02  0.28464441722E+01  0.54367079771E+02  0.39999989954E+02 0.  0.
         12    1    3    3    0    0 -0.60619009256E+01  0.36206784989E+02 -0.28464441722E+01  0.36820920229E+02  0.00000000000E+00 0. -1.
         11    1    4    4    0    0 -0.44480735959E+01 -0.11213733908E+02  0.18691920659E+02  0.22246821909E+02  0.51100000000E-03 0. -1.
        -11    1    4    4    0    0  0.54603975671E+01 -0.84531533508E+01 -0.90674564402E+01  0.13545866887E+02  0.51100000000E-03 0.  1.
        -12    1    4    4    0    0  0.50495769544E+01 -0.16539897731E+02 -0.67780200463E+01  0.18574390975E+02  0.00000000000E+00 0.  1.
</event>
<event>
 8    1  0.3007389E-007  0.9118800E+02  0.7816164E-02  0.1184000E+00
        -11   -1    0    0    0    0  0.00000000000E+00  0.00000000000E+00  0.45593999997E+02  0.45594000000E+02  0.51100000000E-03 0.  1.
         11   -1    0    0    0    0 -0.00000000000E+00 -0.00000000000E+00 -0.45593999997E+02  0.45594000000E+02  0.51100000000E-03 0. -1.
         23    2    1    2    0    0  0.00000000000E+00  0.00000000000E+00 -0.17763568394E-14  0.91188000000E+02  0.91188000000E+02 0.  0.
    9900012    2    3    3    0    0  0.32397086131E+01  0.33142732008E+02  0.15711318638E+02  0.54367055821E+02  0.39999935355E+02 0.  0.
         12    1    3    3    0    0 -0.32397086131E+01 -0.33142732008E+02 -0.15711318638E+02  0.36820944179E+02  0.00000000000E+00 0. -1.
         11    1    4    4    0    0 -0.12520607520E+01  0.14182097494E+02  0.16132271089E+02  0.21516266317E+02  0.51100000000E-03 0.  1.
        -11    1    4    4    0    0  0.74676594274E+01  0.22312201665E+01 -0.10513614690E+02  0.13087412841E+02  0.51100000000E-03 0. -1.
         12    1    4    4    0    0 -0.29758900623E+01  0.16729414347E+02  0.10092662239E+02  0.19763376664E+02  0.00000000000E+00 0. -1.
</event>
<event>
 8    1  0.3007389E-007  0.9118800E+02  0.7816164E-02  0.1184000E+00
        -11   -1    0    0    0    0  0.00000000000E+00  0.00000000000E+00  0.45593999997E+02  0.45594000000E+02  0.51100000000E-03 0. -1.
         11   -1    0    0    0    0 -0.00000000000E+00 -0.00000000000E+00 -0.45593999997E+02  0.45594000000E+02  0.51100000000E-03 0.  1.
         23    2    1    2    0    0  0.17763568394E-14  0.00000000000E+00 -0.71054273576E-14  0.91188000000E+02  0.91188000000E+02 0.  0.
    9900012    2    3    3    0    0 -0.42535163793E+01 -0.54060777651E+01  0.36172706668E+02  0.54367044199E+02  0.39999908861E+02 0.  0.
        -12    1    3    3    0    0  0.42535163793E+01  0.54060777651E+01 -0.36172706668E+02  0.36820955801E+02  0.00000000000E+00 0.  1.
         11    1    4    4    0    0  0.10576813276E+02 -0.27033224009E+01  0.26674855387E+02  0.28822297640E+02  0.51100000000E-03 0. -1.
        -11    1    4    4    0    0 -0.27776167709E+01  0.66278673820E+01 -0.67729702431E+00  0.72182070129E+01  0.51100000000E-03 0.  1.
         12    1    4    4    0    0 -0.12052712885E+02 -0.93306227463E+01  0.10175148305E+02  0.18326539546E+02  0.00000000000E+00 0. -1.
</event>
<event>
 8    1  0.3007389E-007  0.9118800E+02  0.7816164E-02  0.1184000E+00
        -11   -1    0    0    0    0  0.00000000000E+00  0.00000000000E+00  0.45593999997E+02  0.45594000000E+02  0.51100000000E-03 0. -1.
         11   -1    0    0    0    0 -0.00000000000E+00 -0.00000000000E+00 -0.45593999997E+02  0.45594000000E+02  0.51100000000E-03 0.  1.
         23    2    1    2    0    0  0.17763568394E-14  0.00000000000E+00 -0.35527136788E-14  0.91188000000E+02  0.91188000000E+02 0.  0.
    9900012    2    3    3    0    0  0.92809550956E+01 -0.24095213909E+02 -0.26250069547E+02  0.54367060142E+02  0.39999945207E+02 0.  0.
         12    1    3    3    0    0 -0.92809550956E+01  0.24095213909E+02  0.26250069547E+02  0.36820939858E+02  0.00000000000E+00 0. -1.
         11    1    4    4    0    0 -0.22569391966E+01 -0.80843845559E+01  0.51209329512E+01  0.98323447222E+01  0.51100000000E-03 0. -1.
        -11    1    4    4    0    0  0.17088297233E+02 -0.28967376026E+01 -0.16135091752E+02  0.23679995295E+02  0.51100000000E-03 0.  1.
        -12    1    4    4    0    0 -0.55504029411E+01 -0.13114091750E+02 -0.15235910746E+02  0.20854720125E+02  0.00000000000E+00 0.  1.
</event>
<event>
 8    1  0.3007389E-007  0.9118800E+02  0.7816164E-02  0.1184000E+00
        -11   -1    0    0    0    0  0.00000000000E+00  0.00000000000E+00  0.45593999997E+02  0.45594000000E+02  0.51100000000E-03 0. -1.
         11   -1    0    0    0    0 -0.00000000000E+00 -0.00000000000E+00 -0.45593999997E+02  0.45594000000E+02  0.51100000000E-03 0.  1.
         23    2    1    2    0    0  0.00000000000E+00  0.00000000000E+00 -0.71054273576E-14  0.91188000000E+02  0.91188000000E+02 0.  0.
    9900012    2    3    3    0    0 -0.79408381099E+01 -0.22158218837E+02  0.28314944345E+02  0.54367086850E+02  0.40000006092E+02 0.  0.
        -12    1    3    3    0    0  0.79408381099E+01  0.22158218837E+02 -0.28314944345E+02  0.36820913150E+02  0.00000000000E+00 0.  1.
         11    1    4    4    0    0 -0.12983179308E+02  0.15272751167E+01 -0.29428542106E+01  0.13399847216E+02  0.51100000000E-03 0. -1.
        -11    1    4    4    0    0  0.66773945692E+01 -0.21109170802E+02  0.21968988442E+02  0.31190080853E+02  0.51100000000E-03 0.  1.
        -12    1    4    4    0    0 -0.16350533707E+01 -0.25763231523E+01  0.92888101138E+01  0.97771587816E+01  0.00000000000E+00 0.  1.
</event>
<event>
 8    1  0.3007389E-007  0.9118800E+02  0.7816164E-02  0.1184000E+00
        -11   -1    0    0    0    0  0.00000000000E+00  0.00000000000E+00  0.45593999997E+02  0.45594000000E+02  0.51100000000E-03 0. -1.
         11   -1    0    0    0    0 -0.00000000000E+00 -0.00000000000E+00 -0.45593999997E+02  0.45594000000E+02  0.51100000000E-03 0.  1.
         23    2    1    2    0    0  0.00000000000E+00  0.00000000000E+00  0.00000000000E+00  0.91188000000E+02  0.91188000000E+02 0.  0.
    9900012    2    3    3    0    0 -0.15356615548E+02  0.12531779867E+02  0.31030776648E+02  0.54367078677E+02  0.39999987460E+02 0.  0.
        -12    1    3    3    0    0  0.15356615548E+02 -0.12531779867E+02 -0.31030776648E+02  0.36820921323E+02  0.00000000000E+00 0.  1.
         11    1    4    4    0    0 -0.10007601930E+02 -0.70082297326E+01  0.11924803346E+02  0.17072443161E+02  0.51100000000E-03 0.  1.
        -11    1    4    4    0    0 -0.54963448892E+00 -0.22470909029E+01 -0.43478665481E+01  0.49249831856E+01  0.51100000000E-03 0. -1.
         12    1    4    4    0    0 -0.47993791295E+01  0.21787100502E+02  0.23453839849E+02  0.32369652331E+02  0.00000000000E+00 0. -1.
</event>
<event>
 8    1  0.3007389E-007  0.9118800E+02  0.7816164E-02  0.1184000E+00
        -11   -1    0    0    0    0  0.00000000000E+00  0.00000000000E+00  0.45593999997E+02  0.45594000000E+02  0.51100000000E-03 0. -1.
         11   -1    0    0    0    0 -0.00000000000E+00 -0.00000000000E+00 -0.45593999997E+02  0.45594000000E+02  0.51100000000E-03 0.  1.
         23    2    1    2    0    0  0.17763568394E-14 -0.88817841970E-15  0.00000000000E+00  0.91188000000E+02  0.91188000000E+02 0.  0.
    9900012    2    3    3    0    0  0.91782229546E+01  0.52672894172E+01 -0.35267501257E+02  0.54367071721E+02  0.39999971602E+02 0.  0.
         12    1    3    3    0    0 -0.91782229546E+01 -0.52672894172E+01  0.35267501257E+02  0.36820928279E+02  0.00000000000E+00 0. -1.
         11    1    4    4    0    0 -0.69502264678E+01  0.89892593308E+01 -0.10030968306E+02  0.15156937576E+02  0.51100000000E-03 0.  1.
        -11    1    4    4    0    0  0.13230834878E+02 -0.25073415589E+01 -0.30352927695E+02  0.33206053261E+02  0.51100000000E-03 0. -1.
         12    1    4    4    0    0  0.28976145446E+01 -0.12146283548E+01  0.51163947437E+01  0.60040808841E+01  0.00000000000E+00 0. -1.
</event>
<event>
 8    1  0.3007389E-007  0.9118800E+02  0.7816164E-02  0.1184000E+00
        -11   -1    0    0    0    0  0.00000000000E+00  0.00000000000E+00  0.45593999997E+02  0.45594000000E+02  0.51100000000E-03 0. -1.
         11   -1    0    0    0    0 -0.00000000000E+00 -0.00000000000E+00 -0.45593999997E+02  0.45594000000E+02  0.51100000000E-03 0.  1.
         23    2    1    2    0    0  0.71054273576E-14  0.17763568394E-14  0.00000000000E+00  0.91188000000E+02  0.91188000000E+02 0.  0.
    9900012    2    3    3    0    0  0.32706351698E+02  0.94027578058E+01 -0.14059278533E+02  0.54367073768E+02  0.39999976268E+02 0.  0.
         12    1    3    3    0    0 -0.32706351698E+02 -0.94027578058E+01  0.14059278533E+02  0.36820926232E+02  0.00000000000E+00 0. -1.
         11    1    4    4    0    0 -0.13314199041E+01  0.65715146156E+01 -0.74683458671E+00  0.67464987560E+01  0.51100000000E-03 0. -1.
        -11    1    4    4    0    0  0.17207101136E+02 -0.70492805424E+01 -0.19695507815E+02  0.27086707331E+02  0.51100000000E-03 0.  1.
         12    1    4    4    0    0  0.16830670466E+02  0.98805237326E+01  0.63830638688E+01  0.20533867681E+02  0.00000000000E+00 0. -1.
</event>
<event>
 8    1  0.3007389E-007  0.9118800E+02  0.7816164E-02  0.1184000E+00
        -11   -1    0    0    0    0  0.00000000000E+00  0.00000000000E+00  0.45593999997E+02  0.45594000000E+02  0.51100000000E-03 0. -1.
         11   -1    0    0    0    0 -0.00000000000E+00 -0.00000000000E+00 -0.45593999997E+02  0.45594000000E+02  0.51100000000E-03 0.  1.
         23    2    1    2    0    0  0.22204460493E-14  0.00000000000E+00  0.00000000000E+00  0.91188000000E+02  0.91188000000E+02 0.  0.
    9900012    2    3    3    0    0  0.21828769513E+01  0.16996180365E+02  0.32590560752E+02  0.54367085441E+02  0.40000002881E+02 0.  0.
        -12    1    3    3    0    0 -0.21828769513E+01 -0.16996180365E+02 -0.32590560752E+02  0.36820914559E+02  0.00000000000E+00 0.  1.
         11    1    4    4    0    0  0.14397539976E+02  0.22868353439E+02  0.21310602469E+02  0.34415004348E+02  0.51100000000E-03 0.  1.
        -11    1    4    4    0    0 -0.51953261620E+01 -0.64197721886E+01  0.23618736787E+01  0.85897227207E+01  0.51100000000E-03 0. -1.
        -12    1    4    4    0    0 -0.70193368627E+01  0.54759911376E+00  0.89180846047E+01  0.11362358373E+02  0.00000000000E+00 0.  1.
</event>
<event>
 8    1  0.3007389E-007  0.9118800E+02  0.7816164E-02  0.1184000E+00
        -11   -1    0    0    0    0  0.00000000000E+00  0.00000000000E+00  0.45593999997E+02  0.45594000000E+02  0.51100000000E-03 0. -1.
         11   -1    0    0    0    0 -0.00000000000E+00 -0.00000000000E+00 -0.45593999997E+02  0.45594000000E+02  0.51100000000E-03 0.  1.
         23    2    1    2    0    0  0.35527136788E-14  0.00000000000E+00 -0.35527136788E-14  0.91188000000E+02  0.91188000000E+02 0.  0.
    9900012    2    3    3    0    0  0.22745218160E+02  0.12732270342E+02  0.26006245840E+02  0.54367075515E+02  0.39999980252E+02 0.  0.
        -12    1    3    3    0    0 -0.22745218160E+02 -0.12732270342E+02 -0.26006245840E+02  0.36820924485E+02  0.00000000000E+00 0.  1.
         11    1    4    4    0    0  0.25607747226E+01 -0.54840433337E+01  0.16182610872E+02  0.17277418596E+02  0.51100000000E-03 0.  1.
        -11    1    4    4    0    0  0.15374502225E+02  0.17113734737E+02  0.16840979784E+02  0.28510942385E+02  0.51100000000E-03 0. -1.
         12    1    4    4    0    0  0.48099412127E+01  0.11025789386E+01 -0.70173448160E+01  0.85787145338E+01  0.00000000000E+00 0. -1.
</event>
<event>
 8    1  0.3007389E-007  0.9118800E+02  0.7816164E-02  0.1184000E+00
        -11   -1    0    0    0    0  0.00000000000E+00  0.00000000000E+00  0.45593999997E+02  0.45594000000E+02  0.51100000000E-03 0. -1.
         11   -1    0    0    0    0 -0.00000000000E+00 -0.00000000000E+00 -0.45593999997E+02  0.45594000000E+02  0.51100000000E-03 0.  1.
         23    2    1    2    0    0 -0.88817841970E-15  0.00000000000E+00  0.17763568394E-14  0.91188000000E+02  0.91188000000E+02 0.  0.
    9900012    2    3    3    0    0  0.32951017277E+01  0.34923918900E+02  0.11191155567E+02  0.54367085160E+02  0.40000002239E+02 0.  0.
         12    1    3    3    0    0 -0.32951017277E+01 -0.34923918900E+02 -0.11191155567E+02  0.36820914840E+02  0.00000000000E+00 0. -1.
         11    1    4    4    0    0 -0.10420032722E+01  0.10233822950E+02  0.72883418418E+01  0.12607015113E+02  0.51100000000E-03 0. -1.
        -11    1    4    4    0    0  0.11543586627E+02  0.75465630872E+01  0.14780659250E+02  0.20215659642E+02  0.51100000000E-03 0.  1.
        -12    1    4    4    0    0 -0.72064816268E+01  0.17143532862E+02 -0.10877845525E+02  0.21544410405E+02  0.00000000000E+00 0.  1.
</event>
<event>
 8    1  0.3007389E-007  0.9118800E+02  0.7816164E-02  0.1184000E+00
        -11   -1    0    0    0    0  0.00000000000E+00  0.00000000000E+00  0.45593999997E+02  0.45594000000E+02  0.51100000000E-03 0. -1.
         11   -1    0    0    0    0 -0.00000000000E+00 -0.00000000000E+00 -0.45593999997E+02  0.45594000000E+02  0.51100000000E-03 0.  1.
         23    2    1    2    0    0  0.00000000000E+00  0.00000000000E+00  0.00000000000E+00  0.91188000000E+02  0.91188000000E+02 0.  0.
    9900012    2    3    3    0    0  0.32504280991E+01  0.20221715348E+02  0.30598975318E+02  0.54367077348E+02  0.39999984430E+02 0.  0.
        -12    1    3    3    0    0 -0.32504280991E+01 -0.20221715348E+02 -0.30598975318E+02  0.36820922652E+02  0.00000000000E+00 0.  1.
         11    1    4    4    0    0 -0.58779759377E+01  0.25228959668E+02  0.27180029056E+02  0.37547369905E+02  0.51100000000E-03 0. -1.
        -11    1    4    4    0    0  0.94161321424E+01 -0.29380847574E+01  0.73951031077E+01  0.12328156261E+02  0.51100000000E-03 0.  1.
        -12    1    4    4    0    0 -0.28772810559E+00 -0.20691595629E+01 -0.39761568453E+01  0.44915511817E+01  0.00000000000E+00 0.  1.
</event>
<event>
 8    1  0.3007389E-007  0.9118800E+02  0.7816164E-02  0.1184000E+00
        -11   -1    0    0    0    0  0.00000000000E+00  0.00000000000E+00  0.45593999997E+02  0.45594000000E+02  0.51100000000E-03 0.  1.
         11   -1    0    0    0    0 -0.00000000000E+00 -0.00000000000E+00 -0.45593999997E+02  0.45594000000E+02  0.51100000000E-03 0. -1.
         23    2    1    2    0    0 -0.17763568394E-14 -0.71054273576E-14  0.44408920985E-15  0.91188000000E+02  0.91188000000E+02 0.  0.
    9900012    2    3    3    0    0  0.27894536799E+01  0.36702431001E+02 -0.96364891387E+00  0.54367107664E+02  0.40000053541E+02 0.  0.
        -12    1    3    3    0    0 -0.27894536799E+01 -0.36702431001E+02  0.96364891387E+00  0.36820892336E+02  0.00000000000E+00 0.  1.
         11    1    4    4    0    0  0.17141295885E+02  0.14021127785E+02 -0.28429766219E+01  0.22327081433E+02  0.51100000000E-03 0. -1.
        -11    1    4    4    0    0 -0.29456346198E+01  0.57172264046E+00  0.61075838819E+01  0.68048667310E+01  0.51100000000E-03 0.  1.
         12    1    4    4    0    0 -0.11406207586E+02  0.22109580575E+02 -0.42282561739E+01  0.25235159500E+02  0.00000000000E+00 0. -1.
</event>
<event>
 8    1  0.3007389E-007  0.9118800E+02  0.7816164E-02  0.1184000E+00
        -11   -1    0    0    0    0  0.00000000000E+00  0.00000000000E+00  0.45593999997E+02  0.45594000000E+02  0.51100000000E-03 0. -1.
         11   -1    0    0    0    0 -0.00000000000E+00 -0.00000000000E+00 -0.45593999997E+02  0.45594000000E+02  0.51100000000E-03 0.  1.
         23    2    1    2    0    0  0.35527136788E-14  0.35527136788E-14  0.00000000000E+00  0.91188000000E+02  0.91188000000E+02 0.  0.
    9900012    2    3    3    0    0 -0.28098009460E+02 -0.21823020804E+02  0.94889499966E+01  0.54367047478E+02  0.39999916335E+02 0.  0.
        -12    1    3    3    0    0  0.28098009460E+02  0.21823020804E+02 -0.94889499966E+01  0.36820952522E+02  0.00000000000E+00 0.  1.
         11    1    4    4    0    0 -0.27549280694E+02 -0.26931796620E+02 -0.41318380263E+01  0.38747343414E+02  0.51100000000E-03 0.  1.
        -11    1    4    4    0    0 -0.25405331170E+01  0.48506791648E+01  0.84128344797E+01  0.10037887284E+02  0.51100000000E-03 0. -1.
        -12    1    4    4    0    0  0.19918043510E+01  0.25809665118E+00  0.52079535432E+01  0.55818167797E+01  0.00000000000E+00 0.  1.
</event>
<event>
 8    1  0.3007389E-007  0.9118800E+02  0.7816164E-02  0.1184000E+00
        -11   -1    0    0    0    0  0.00000000000E+00  0.00000000000E+00  0.45593999997E+02  0.45594000000E+02  0.51100000000E-03 0. -1.
         11   -1    0    0    0    0 -0.00000000000E+00 -0.00000000000E+00 -0.45593999997E+02  0.45594000000E+02  0.51100000000E-03 0.  1.
         23    2    1    2    0    0  0.00000000000E+00 -0.17763568394E-14  0.00000000000E+00  0.91188000000E+02  0.91188000000E+02 0.  0.
    9900012    2    3    3    0    0 -0.97781154635E+01  0.13844084349E+02  0.32688080521E+02  0.54367070875E+02  0.39999969673E+02 0.  0.
        -12    1    3    3    0    0  0.97781154635E+01 -0.13844084349E+02 -0.32688080521E+02  0.36820929125E+02  0.00000000000E+00 0.  1.
         11    1    4    4    0    0 -0.68881252782E+01  0.20386000692E+02  0.10527076778E+02  0.23955263301E+02  0.51100000000E-03 0. -1.
        -11    1    4    4    0    0 -0.79593596927E+01  0.32254347644E+01  0.47485746602E+01  0.98134498370E+01  0.51100000000E-03 0.  1.
        -12    1    4    4    0    0  0.50693695074E+01 -0.97673511081E+01  0.17412429083E+02  0.20598357737E+02  0.00000000000E+00 0.  1.
</event>
<event>
 8    1  0.3007389E-007  0.9118800E+02  0.7816164E-02  0.1184000E+00
        -11   -1    0    0    0    0  0.00000000000E+00  0.00000000000E+00  0.45593999997E+02  0.45594000000E+02  0.51100000000E-03 0.  1.
         11   -1    0    0    0    0 -0.00000000000E+00 -0.00000000000E+00 -0.45593999997E+02  0.45594000000E+02  0.51100000000E-03 0. -1.
         23    2    1    2    0    0  0.00000000000E+00  0.00000000000E+00 -0.17763568394E-14  0.91188000000E+02  0.91188000000E+02 0.  0.
    9900012    2    3    3    0    0 -0.31509195571E+02 -0.13979997840E+02 -0.12942591314E+02  0.54367076396E+02  0.39999982259E+02 0.  0.
         12    1    3    3    0    0  0.31509195571E+02  0.13979997840E+02  0.12942591314E+02  0.36820923604E+02  0.00000000000E+00 0. -1.
         11    1    4    4    0    0 -0.96329969036E+01  0.78576181962E+01 -0.13555340320E+02  0.18392499681E+02  0.51100000000E-03 0. -1.
        -11    1    4    4    0    0 -0.13917654597E+02 -0.13563700869E+01 -0.22588597355E+00  0.13985416477E+02  0.51100000000E-03 0.  1.
         12    1    4    4    0    0 -0.79585440704E+01 -0.20481245949E+02  0.83863497928E+00  0.21989160238E+02  0.00000000000E+00 0. -1.
</event>
<event>
 8    1  0.3007389E-007  0.9118800E+02  0.7816164E-02  0.1184000E+00
        -11   -1    0    0    0    0  0.00000000000E+00  0.00000000000E+00  0.45593999997E+02  0.45594000000E+02  0.51100000000E-03 0.  1.
         11   -1    0    0    0    0 -0.00000000000E+00 -0.00000000000E+00 -0.45593999997E+02  0.45594000000E+02  0.51100000000E-03 0. -1.
         23    2    1    2    0    0  0.00000000000E+00  0.00000000000E+00  0.00000000000E+00  0.91188000000E+02  0.91188000000E+02 0.  0.
    9900012    2    3    3    0    0  0.34153825636E+02 -0.11634254410E+02 -0.73443455963E+01  0.54367094342E+02  0.40000023171E+02 0.  0.
        -12    1    3    3    0    0 -0.34153825636E+02  0.11634254410E+02  0.73443455963E+01  0.36820905658E+02  0.00000000000E+00 0.  1.
         11    1    4    4    0    0  0.18754770906E+01  0.44840617008E+00 -0.62447683060E+01  0.65357183130E+01  0.51100000000E-03 0. -1.
        -11    1    4    4    0    0  0.37855162414E+02 -0.10238154368E+02  0.47980030192E+01  0.39507644317E+02  0.51100000000E-03 0.  1.
        -12    1    4    4    0    0 -0.55768138689E+01 -0.18445062125E+01 -0.58975803095E+01  0.83237317114E+01  0.00000000000E+00 0.  1.
</event>
<event>
 8    1  0.3007389E-007  0.9118800E+02  0.7816164E-02  0.1184000E+00
        -11   -1    0    0    0    0  0.00000000000E+00  0.00000000000E+00  0.45593999997E+02  0.45594000000E+02  0.51100000000E-03 0. -1.
         11   -1    0    0    0    0 -0.00000000000E+00 -0.00000000000E+00 -0.45593999997E+02  0.45594000000E+02  0.51100000000E-03 0.  1.
         23    2    1    2    0    0  0.71054273576E-14  0.00000000000E+00  0.17763568394E-14  0.91188000000E+02  0.91188000000E+02 0.  0.
    9900012    2    3    3    0    0 -0.33189018335E+02 -0.74776876723E+01 -0.14083822575E+02  0.54367071043E+02  0.39999970056E+02 0.  0.
         12    1    3    3    0    0  0.33189018335E+02  0.74776876723E+01  0.14083822575E+02  0.36820928957E+02  0.00000000000E+00 0. -1.
         11    1    4    4    0    0 -0.31605162083E+02  0.20320957769E+01 -0.84501970699E+01  0.32778369611E+02  0.51100000000E-03 0. -1.
        -11    1    4    4    0    0 -0.77791801549E+01 -0.27384018977E+01  0.32039360852E+01  0.88475813381E+01  0.51100000000E-03 0.  1.
        -12    1    4    4    0    0  0.61953239034E+01 -0.67713815515E+01 -0.88375615903E+01  0.12741120094E+02  0.00000000000E+00 0.  1.
</event>
<event>
 8    1  0.3007389E-007  0.9118800E+02  0.7816164E-02  0.1184000E+00
        -11   -1    0    0    0    0  0.00000000000E+00  0.00000000000E+00  0.45593999997E+02  0.45594000000E+02  0.51100000000E-03 0.  1.
         11   -1    0    0    0    0 -0.00000000000E+00 -0.00000000000E+00 -0.45593999997E+02  0.45594000000E+02  0.51100000000E-03 0. -1.
         23    2    1    2    0    0  0.00000000000E+00  0.35527136788E-14  0.00000000000E+00  0.91188000000E+02  0.91188000000E+02 0.  0.
    9900012    2    3    3    0    0 -0.11459514206E+02 -0.26722405599E+02  0.22591406070E+02  0.54367094864E+02  0.40000024361E+02 0.  0.
         12    1    3    3    0    0  0.11459514206E+02  0.26722405599E+02 -0.22591406070E+02  0.36820905136E+02  0.00000000000E+00 0. -1.
         11    1    4    4    0    0  0.15087651676E+00  0.62917061862E+01  0.63944616833E+01  0.89720382822E+01  0.51100000000E-03 0.  1.
        -11    1    4    4    0    0 -0.52684081997E+00 -0.24786529779E+02  0.92501081262E+00  0.24809378570E+02  0.51100000000E-03 0. -1.
        -12    1    4    4    0    0 -0.11083549903E+02 -0.82275820059E+01  0.15271933574E+02  0.20585678012E+02  0.00000000000E+00 0.  1.
</event>
<event>
 8    1  0.3007389E-007  0.9118800E+02  0.7816164E-02  0.1184000E+00
        -11   -1    0    0    0    0  0.00000000000E+00  0.00000000000E+00  0.45593999997E+02  0.45594000000E+02  0.51100000000E-03 0. -1.
         11   -1    0    0    0    0 -0.00000000000E+00 -0.00000000000E+00 -0.45593999997E+02  0.45594000000E+02  0.51100000000E-03 0.  1.
         23    2    1    2    0    0 -0.17763568394E-14  0.00000000000E+00  0.35527136788E-14  0.91188000000E+02  0.91188000000E+02 0.  0.
    9900012    2    3    3    0    0  0.10299239939E+02  0.16490710803E+02 -0.31269181091E+02  0.54367087841E+02  0.40000008351E+02 0.  0.
         12    1    3    3    0    0 -0.10299239939E+02 -0.16490710803E+02  0.31269181091E+02  0.36820912159E+02  0.00000000000E+00 0. -1.
         11    1    4    4    0    0  0.17356555218E+02  0.20540939880E+02 -0.69388650308E+01  0.27772793673E+02  0.51100000000E-03 0. -1.
        -11    1    4    4    0    0 -0.80765327792E+01 -0.30375796516E+01 -0.16366174610E+02  0.18501592999E+02  0.51100000000E-03 0.  1.
         12    1    4    4    0    0  0.10192174997E+01 -0.10126494259E+01 -0.79641414508E+01  0.80927011696E+01  0.00000000000E+00 0. -1.
</event>
<event>
 8    1  0.3007389E-007  0.9118800E+02  0.7816164E-02  0.1184000E+00
        -11   -1    0    0    0    0  0.00000000000E+00  0.00000000000E+00  0.45593999997E+02  0.45594000000E+02  0.51100000000E-03 0.  1.
         11   -1    0    0    0    0 -0.00000000000E+00 -0.00000000000E+00 -0.45593999997E+02  0.45594000000E+02  0.51100000000E-03 0. -1.
         23    2    1    2    0    0  0.00000000000E+00  0.00000000000E+00  0.00000000000E+00  0.91188000000E+02  0.91188000000E+02 0.  0.
    9900012    2    3    3    0    0 -0.19235157338E+02 -0.11713503804E+02 -0.29130486656E+02  0.54367045341E+02  0.39999911464E+02 0.  0.
        -12    1    3    3    0    0  0.19235157338E+02  0.11713503804E+02  0.29130486656E+02  0.36820954659E+02  0.00000000000E+00 0.  1.
         11    1    4    4    0    0 -0.32470541129E+01 -0.29878185448E+01 -0.19413868321E+02  0.19909010611E+02  0.51100000000E-03 0. -1.
        -11    1    4    4    0    0 -0.14112308087E+02  0.34903614106E+01 -0.15114806754E+02  0.20971343443E+02  0.51100000000E-03 0.  1.
        -12    1    4    4    0    0 -0.18757951380E+01 -0.12216046670E+02  0.53981884197E+01  0.13486691286E+02  0.00000000000E+00 0.  1.
</event>
<event>
 8    1  0.3007389E-007  0.9118800E+02  0.7816164E-02  0.1184000E+00
        -11   -1    0    0    0    0  0.00000000000E+00  0.00000000000E+00  0.45593999997E+02  0.45594000000E+02  0.51100000000E-03 0.  1.
         11   -1    0    0    0    0 -0.00000000000E+00 -0.00000000000E+00 -0.45593999997E+02  0.45594000000E+02  0.51100000000E-03 0. -1.
         23    2    1    2    0    0  0.35527136788E-14  0.88817841970E-15  0.35527136788E-14  0.91188000000E+02  0.91188000000E+02 0.  0.
    9900012    2    3    3    0    0 -0.27182789840E+02 -0.48532557225E+01 -0.24358228626E+02  0.54367062256E+02  0.39999950024E+02 0.  0.
        -12    1    3    3    0    0  0.27182789840E+02  0.48532557225E+01  0.24358228626E+02  0.36820937744E+02  0.00000000000E+00 0.  1.
         11    1    4    4    0    0 -0.75835905272E+01  0.39242757491E+01  0.16198442114E+01  0.86910690349E+01  0.51100000000E-03 0. -1.
        -11    1    4    4    0    0 -0.73690917608E+00  0.43290864602E+01 -0.21914839731E+02  0.22350486022E+02  0.51100000000E-03 0.  1.
         12    1    4    4    0    0 -0.18862290136E+02 -0.13106617932E+02 -0.40632331058E+01  0.23325507199E+02  0.00000000000E+00 0. -1.
</event>
<event>
 8    1  0.3007389E-007  0.9118800E+02  0.7816164E-02  0.1184000E+00
        -11   -1    0    0    0    0  0.00000000000E+00  0.00000000000E+00  0.45593999997E+02  0.45594000000E+02  0.51100000000E-03 0. -1.
         11   -1    0    0    0    0 -0.00000000000E+00 -0.00000000000E+00 -0.45593999997E+02  0.45594000000E+02  0.51100000000E-03 0.  1.
         23    2    1    2    0    0  0.00000000000E+00  0.35527136788E-14  0.00000000000E+00  0.91188000000E+02  0.91188000000E+02 0.  0.
    9900012    2    3    3    0    0 -0.49317400123E+01  0.24367383557E+02 -0.27160417418E+02  0.54367085898E+02  0.40000003923E+02 0.  0.
         12    1    3    3    0    0  0.49317400123E+01 -0.24367383557E+02  0.27160417418E+02  0.36820914102E+02  0.00000000000E+00 0. -1.
         11    1    4    4    0    0  0.56694930793E+01  0.11590773171E+02  0.10290747710E+01  0.12944039926E+02  0.51100000000E-03 0. -1.
        -11    1    4    4    0    0 -0.58956525628E+01  0.86554075758E+01  0.19402982817E+01  0.10650800774E+02  0.51100000000E-03 0.  1.
        -12    1    4    4    0    0 -0.47055805288E+01  0.41212028104E+01 -0.30129790471E+02  0.30772245198E+02  0.00000000000E+00 0.  1.
</event>
<event>
 8    1  0.3007389E-007  0.9118800E+02  0.7816164E-02  0.1184000E+00
        -11   -1    0    0    0    0  0.00000000000E+00  0.00000000000E+00  0.45593999997E+02  0.45594000000E+02  0.51100000000E-03 0. -1.
         11   -1    0    0    0    0 -0.00000000000E+00 -0.00000000000E+00 -0.45593999997E+02  0.45594000000E+02  0.51100000000E-03 0.  1.
         23    2    1    2    0    0  0.00000000000E+00  0.35527136788E-14  0.35527136788E-14  0.91188000000E+02  0.91188000000E+02 0.  0.
    9900012    2    3    3    0    0  0.12350734583E+02 -0.14816660171E+02  0.31364086891E+02  0.54367081898E+02  0.39999994803E+02 0.  0.
        -12    1    3    3    0    0 -0.12350734583E+02  0.14816660171E+02 -0.31364086891E+02  0.36820918102E+02  0.00000000000E+00 0.  1.
         11    1    4    4    0    0 -0.11261361413E+01 -0.11224577427E+02  0.33219382709E+02  0.35082569872E+02  0.51100000000E-03 0. -1.
        -11    1    4    4    0    0  0.13428277693E+02 -0.55396557900E+01 -0.51875388358E+01  0.15424557935E+02  0.51100000000E-03 0.  1.
         12    1    4    4    0    0  0.48593031355E-01  0.19475730460E+01  0.33322430181E+01  0.38599540909E+01  0.00000000000E+00 0. -1.
</event>
<event>
 8    1  0.3007389E-007  0.9118800E+02  0.7816164E-02  0.1184000E+00
        -11   -1    0    0    0    0  0.00000000000E+00  0.00000000000E+00  0.45593999997E+02  0.45594000000E+02  0.51100000000E-03 0. -1.
         11   -1    0    0    0    0 -0.00000000000E+00 -0.00000000000E+00 -0.45593999997E+02  0.45594000000E+02  0.51100000000E-03 0.  1.
         23    2    1    2    0    0  0.00000000000E+00  0.35527136788E-14 -0.17763568394E-14  0.91188000000E+02  0.91188000000E+02 0.  0.
    9900012    2    3    3    0    0  0.18233404673E+02  0.27856512549E+02  0.15726566895E+02  0.54367255254E+02  0.40000390001E+02 0.  0.
        -12    1    3    3    0    0 -0.18233404673E+02 -0.27856512549E+02 -0.15726566895E+02  0.36820744746E+02  0.00000000000E+00 0.  1.
         11    1    4    4    0    0 -0.67442886240E+01  0.18825246378E+01  0.11685668999E+02  0.13622928770E+02  0.51100000000E-03 0. -1.
        -11    1    4    4    0    0  0.14321138786E+01  0.13617649113E+02 -0.80136121851E+00  0.13716176493E+02  0.51100000000E-03 0.  1.
        -12    1    4    4    0    0  0.23545579418E+02  0.12356338798E+02  0.48422591154E+01  0.27028149992E+02  0.00000000000E+00 0.  1.
</event>
<event>
 8    1  0.3007389E-007  0.9118800E+02  0.7816164E-02  0.1184000E+00
        -11   -1    0    0    0    0  0.00000000000E+00  0.00000000000E+00  0.45593999997E+02  0.45594000000E+02  0.51100000000E-03 0. -1.
         11   -1    0    0    0    0 -0.00000000000E+00 -0.00000000000E+00 -0.45593999997E+02  0.45594000000E+02  0.51100000000E-03 0.  1.
         23    2    1    2    0    0  0.00000000000E+00  0.13322676296E-14  0.00000000000E+00  0.91188000000E+02  0.91188000000E+02 0.  0.
    9900012    2    3    3    0    0  0.23159384953E+02 -0.37300246569E+01  0.28381532710E+02  0.54367060382E+02  0.39999945753E+02 0.  0.
        -12    1    3    3    0    0 -0.23159384953E+02  0.37300246569E+01 -0.28381532710E+02  0.36820939618E+02  0.00000000000E+00 0.  1.
         11    1    4    4    0    0 -0.41708724934E+01  0.19504484152E+01  0.18085096269E+02  0.18662023837E+02  0.51100000000E-03 0. -1.
        -11    1    4    4    0    0  0.55547981509E+01  0.57247939368E+01  0.75279880249E+01  0.10968119806E+02  0.51100000000E-03 0.  1.
         12    1    4    4    0    0  0.21775459296E+02 -0.11405267009E+02  0.27684484160E+01  0.24736916738E+02  0.00000000000E+00 0. -1.
</event>
<event>
 8    1  0.3007389E-007  0.9118800E+02  0.7816164E-02  0.1184000E+00
        -11   -1    0    0    0    0  0.00000000000E+00  0.00000000000E+00  0.45593999997E+02  0.45594000000E+02  0.51100000000E-03 0. -1.
         11   -1    0    0    0    0 -0.00000000000E+00 -0.00000000000E+00 -0.45593999997E+02  0.45594000000E+02  0.51100000000E-03 0.  1.
         23    2    1    2    0    0  0.00000000000E+00  0.35527136788E-14  0.17763568394E-14  0.91188000000E+02  0.91188000000E+02 0.  0.
    9900012    2    3    3    0    0  0.20260301390E+02  0.26799664410E+02 -0.15069109999E+02  0.54367083375E+02  0.39999998170E+02 0.  0.
         12    1    3    3    0    0 -0.20260301390E+02 -0.26799664410E+02  0.15069109999E+02  0.36820916625E+02  0.00000000000E+00 0. -1.
         11    1    4    4    0    0  0.58959101167E+01  0.25681751187E+02 -0.21615030927E+01  0.26438347074E+02  0.51100000000E-03 0. -1.
        -11    1    4    4    0    0  0.17652540293E+02  0.43469530171E+01 -0.51326007840E+01  0.18890520649E+02  0.51100000000E-03 0.  1.
        -12    1    4    4    0    0 -0.32881490193E+01 -0.32290397936E+01 -0.77750061226E+01  0.90382156518E+01  0.00000000000E+00 0.  1.
</event>
<event>
 8    1  0.3007389E-007  0.9118800E+02  0.7816164E-02  0.1184000E+00
        -11   -1    0    0    0    0  0.00000000000E+00  0.00000000000E+00  0.45593999997E+02  0.45594000000E+02  0.51100000000E-03 0.  1.
         11   -1    0    0    0    0 -0.00000000000E+00 -0.00000000000E+00 -0.45593999997E+02  0.45594000000E+02  0.51100000000E-03 0. -1.
         23    2    1    2    0    0  0.00000000000E+00 -0.11102230246E-15 -0.35527136788E-14  0.91188000000E+02  0.91188000000E+02 0.  0.
    9900012    2    3    3    0    0  0.18454239989E+02  0.75783468973E+00 -0.31853509619E+02  0.54367090695E+02  0.40000014856E+02 0.  0.
        -12    1    3    3    0    0 -0.18454239989E+02 -0.75783468973E+00  0.31853509619E+02  0.36820909305E+02  0.00000000000E+00 0.  1.
         11    1    4    4    0    0  0.92458824539E+00  0.94661593533E+01 -0.20464802829E+02  0.22567037719E+02  0.51100000000E-03 0. -1.
        -11    1    4    4    0    0  0.13135161246E+02  0.48025637246E+01 -0.66812014622E+00  0.14001552202E+02  0.51100000000E-03 0.  1.
         12    1    4    4    0    0  0.43944904981E+01 -0.13510888388E+02 -0.10720586645E+02  0.17798500773E+02  0.00000000000E+00 0. -1.
</event>
<event>
 8    1  0.3007389E-007  0.9118800E+02  0.7816164E-02  0.1184000E+00
        -11   -1    0    0    0    0  0.00000000000E+00  0.00000000000E+00  0.45593999997E+02  0.45594000000E+02  0.51100000000E-03 0.  1.
         11   -1    0    0    0    0 -0.00000000000E+00 -0.00000000000E+00 -0.45593999997E+02  0.45594000000E+02  0.51100000000E-03 0. -1.
         23    2    1    2    0    0 -0.35527136788E-14  0.00000000000E+00  0.00000000000E+00  0.91188000000E+02  0.91188000000E+02 0.  0.
    9900012    2    3    3    0    0  0.19188412941E+02 -0.58464553859E+01 -0.30877240825E+02  0.54367078872E+02  0.39999987904E+02 0.  0.
        -12    1    3    3    0    0 -0.19188412941E+02  0.58464553859E+01  0.30877240825E+02  0.36820921128E+02  0.00000000000E+00 0.  1.
         11    1    4    4    0    0  0.19195617002E+02 -0.16677634921E+02 -0.14765196197E+02  0.29404527502E+02  0.51100000000E-03 0. -1.
        -11    1    4    4    0    0  0.21736221734E+01  0.85749801501E+01 -0.30962775396E+00  0.88515980215E+01  0.51100000000E-03 0.  1.
        -12    1    4    4    0    0 -0.21808262346E+01  0.22561993846E+01 -0.15802416874E+02  0.16110953349E+02  0.00000000000E+00 0.  1.
</event>
<event>
 8    1  0.3007389E-007  0.9118800E+02  0.7816164E-02  0.1184000E+00
        -11   -1    0    0    0    0  0.00000000000E+00  0.00000000000E+00  0.45593999997E+02  0.45594000000E+02  0.51100000000E-03 0. -1.
         11   -1    0    0    0    0 -0.00000000000E+00 -0.00000000000E+00 -0.45593999997E+02  0.45594000000E+02  0.51100000000E-03 0.  1.
         23    2    1    2    0    0 -0.88817841970E-15  0.44408920985E-15  0.00000000000E+00  0.91188000000E+02  0.91188000000E+02 0.  0.
    9900012    2    3    3    0    0  0.56952791314E+01  0.35227955122E+01  0.36206814424E+02  0.54367086061E+02  0.40000004293E+02 0.  0.
        -12    1    3    3    0    0 -0.56952791314E+01 -0.35227955122E+01 -0.36206814424E+02  0.36820913939E+02  0.00000000000E+00 0.  1.
         11    1    4    4    0    0  0.85280756966E+01 -0.80800004592E+01  0.13036319967E+02  0.17548792581E+02  0.51100000000E-03 0. -1.
        -11    1    4    4    0    0 -0.87324196933E+01  0.17881159822E+02  0.14736849783E+02  0.24762184315E+02  0.51100000000E-03 0.  1.
        -12    1    4    4    0    0  0.58996231280E+01 -0.62783638510E+01  0.84336446742E+01  0.12056109165E+02  0.00000000000E+00 0.  1.
</event>
<event>
 8    1  0.3007389E-007  0.9118800E+02  0.7816164E-02  0.1184000E+00
        -11   -1    0    0    0    0  0.00000000000E+00  0.00000000000E+00  0.45593999997E+02  0.45594000000E+02  0.51100000000E-03 0.  1.
         11   -1    0    0    0    0 -0.00000000000E+00 -0.00000000000E+00 -0.45593999997E+02  0.45594000000E+02  0.51100000000E-03 0. -1.
         23    2    1    2    0    0  0.35527136788E-14  0.00000000000E+00  0.00000000000E+00  0.91188000000E+02  0.91188000000E+02 0.  0.
    9900012    2    3    3    0    0  0.25340276071E+02 -0.11265893289E+02  0.24222515370E+02  0.54367079400E+02  0.39999989109E+02 0.  0.
         12    1    3    3    0    0 -0.25340276071E+02  0.11265893289E+02 -0.24222515370E+02  0.36820920600E+02  0.00000000000E+00 0. -1.
         11    1    4    4    0    0  0.11498217787E+02 -0.14338648113E+02  0.50487874518E+01  0.19060327830E+02  0.51100000000E-03 0.  1.
        -11    1    4    4    0    0  0.98484902655E+01  0.35600681142E+01 -0.44241495939E+01  0.11368374791E+02  0.51100000000E-03 0. -1.
        -12    1    4    4    0    0  0.39935680185E+01 -0.48731329029E+00  0.23597877512E+02  0.23938376779E+02  0.00000000000E+00 0.  1.
</event>
<event>
 8    1  0.3007389E-007  0.9118800E+02  0.7816164E-02  0.1184000E+00
        -11   -1    0    0    0    0  0.00000000000E+00  0.00000000000E+00  0.45593999997E+02  0.45594000000E+02  0.51100000000E-03 0.  1.
         11   -1    0    0    0    0 -0.00000000000E+00 -0.00000000000E+00 -0.45593999997E+02  0.45594000000E+02  0.51100000000E-03 0. -1.
         23    2    1    2    0    0  0.00000000000E+00  0.00000000000E+00 -0.35527136788E-14  0.91188000000E+02  0.91188000000E+02 0.  0.
    9900012    2    3    3    0    0 -0.32080305301E+02 -0.44877739866E+01  0.17506935685E+02  0.54367096960E+02  0.40000029140E+02 0.  0.
         12    1    3    3    0    0  0.32080305301E+02  0.44877739866E+01 -0.17506935685E+02  0.36820903040E+02  0.00000000000E+00 0. -1.
         11    1    4    4    0    0 -0.40843021326E+00 -0.91960462458E+01  0.14224673399E+02  0.16943300014E+02  0.51100000000E-03 0. -1.
        -11    1    4    4    0    0 -0.31631076632E+02  0.48427397585E+01  0.77735524477E+01  0.32930309066E+02  0.51100000000E-03 0.  1.
        -12    1    4    4    0    0 -0.40798456458E-01 -0.13446749930E+00 -0.44912901613E+01  0.44934878808E+01  0.00000000000E+00 0.  1.
</event>
<event>
 8    1  0.3007389E-007  0.9118800E+02  0.7816164E-02  0.1184000E+00
        -11   -1    0    0    0    0  0.00000000000E+00  0.00000000000E+00  0.45593999997E+02  0.45594000000E+02  0.51100000000E-03 0.  1.
         11   -1    0    0    0    0 -0.00000000000E+00 -0.00000000000E+00 -0.45593999997E+02  0.45594000000E+02  0.51100000000E-03 0. -1.
         23    2    1    2    0    0  0.00000000000E+00  0.00000000000E+00  0.71054273576E-14  0.91188000000E+02  0.91188000000E+02 0.  0.
    9900012    2    3    3    0    0  0.13574537847E+02 -0.10148528957E+02 -0.32688222063E+02  0.54367074165E+02  0.39999977173E+02 0.  0.
        -12    1    3    3    0    0 -0.13574537847E+02  0.10148528957E+02  0.32688222063E+02  0.36820925835E+02  0.00000000000E+00 0.  1.
         11    1    4    4    0    0  0.15997682105E+02 -0.28464227824E+01 -0.98871709730E+01  0.19020623163E+02  0.51100000000E-03 0. -1.
        -11    1    4    4    0    0 -0.34323883434E+01 -0.16944750279E+02 -0.15328691039E+02  0.23105727017E+02  0.51100000000E-03 0.  1.
        -12    1    4    4    0    0  0.10092440860E+01  0.96426441043E+01 -0.74723600508E+01  0.12240723985E+02  0.00000000000E+00 0.  1.
</event>
<event>
 8    1  0.3007389E-007  0.9118800E+02  0.7816164E-02  0.1184000E+00
        -11   -1    0    0    0    0  0.00000000000E+00  0.00000000000E+00  0.45593999997E+02  0.45594000000E+02  0.51100000000E-03 0. -1.
         11   -1    0    0    0    0 -0.00000000000E+00 -0.00000000000E+00 -0.45593999997E+02  0.45594000000E+02  0.51100000000E-03 0.  1.
         23    2    1    2    0    0  0.00000000000E+00 -0.35527136788E-14  0.00000000000E+00  0.91188000000E+02  0.91188000000E+02 0.  0.
    9900012    2    3    3    0    0 -0.92816762852E+01  0.29960484464E+02  0.19287305937E+02  0.54367077764E+02  0.39999985379E+02 0.  0.
         12    1    3    3    0    0  0.92816762852E+01 -0.29960484464E+02 -0.19287305937E+02  0.36820922236E+02  0.00000000000E+00 0. -1.
         11    1    4    4    0    0  0.11065019182E+02  0.60398620188E+01  0.15285610946E+02  0.19813240142E+02  0.51100000000E-03 0. -1.
        -11    1    4    4    0    0 -0.10722955636E+02  0.21731530122E+02  0.10642948277E+01  0.24256419826E+02  0.51100000000E-03 0.  1.
        -12    1    4    4    0    0 -0.96237398314E+01  0.21890923231E+01  0.29374001634E+01  0.10297417796E+02  0.00000000000E+00 0.  1.
</event>
<event>
 8    1  0.3007389E-007  0.9118800E+02  0.7816164E-02  0.1184000E+00
        -11   -1    0    0    0    0  0.00000000000E+00  0.00000000000E+00  0.45593999997E+02  0.45594000000E+02  0.51100000000E-03 0.  1.
         11   -1    0    0    0    0 -0.00000000000E+00 -0.00000000000E+00 -0.45593999997E+02  0.45594000000E+02  0.51100000000E-03 0. -1.
         23    2    1    2    0    0 -0.44408920985E-15  0.00000000000E+00  0.00000000000E+00  0.91188000000E+02  0.91188000000E+02 0.  0.
    9900012    2    3    3    0    0  0.16552757232E+01 -0.11094495083E+02 -0.35070680508E+02  0.54367076734E+02  0.39999983030E+02 0.  0.
        -12    1    3    3    0    0 -0.16552757232E+01  0.11094495083E+02  0.35070680508E+02  0.36820923266E+02  0.00000000000E+00 0.  1.
         11    1    4    4    0    0 -0.99814581237E+01 -0.13017945390E+02 -0.42556461853E+01  0.16947180685E+02  0.51100000000E-03 0. -1.
        -11    1    4    4    0    0  0.13425847384E+02  0.74758682072E+01 -0.23187914964E+02  0.27817645193E+02  0.51100000000E-03 0.  1.
        -12    1    4    4    0    0 -0.17891135374E+01 -0.55524179007E+01 -0.76271193587E+01  0.96022508562E+01  0.00000000000E+00 0.  1.
</event>
<event>
 8    1  0.3007389E-007  0.9118800E+02  0.7816164E-02  0.1184000E+00
        -11   -1    0    0    0    0  0.00000000000E+00  0.00000000000E+00  0.45593999997E+02  0.45594000000E+02  0.51100000000E-03 0.  1.
         11   -1    0    0    0    0 -0.00000000000E+00 -0.00000000000E+00 -0.45593999997E+02  0.45594000000E+02  0.51100000000E-03 0. -1.
         23    2    1    2    0    0 -0.71054273576E-14  0.00000000000E+00 -0.17763568394E-14  0.91188000000E+02  0.91188000000E+02 0.  0.
    9900012    2    3    3    0    0 -0.32557611589E+02 -0.11394287501E+02 -0.12882168899E+02  0.54367107350E+02  0.40000052825E+02 0.  0.
        -12    1    3    3    0    0  0.32557611589E+02  0.11394287501E+02  0.12882168899E+02  0.36820892650E+02  0.00000000000E+00 0.  1.
         11    1    4    4    0    0 -0.33045409376E+00 -0.12926454818E+02 -0.37693377647E+01  0.13468865636E+02  0.51100000000E-03 0. -1.
        -11    1    4    4    0    0 -0.25259066189E+02  0.93352152934E+01 -0.12786621706E+02  0.29810474069E+02  0.51100000000E-03 0.  1.
         12    1    4    4    0    0 -0.69680913057E+01 -0.78030479769E+01  0.36737905718E+01  0.11087767645E+02  0.00000000000E+00 0. -1.
</event>
<event>
 8    1  0.3007389E-007  0.9118800E+02  0.7816164E-02  0.1184000E+00
        -11   -1    0    0    0    0  0.00000000000E+00  0.00000000000E+00  0.45593999997E+02  0.45594000000E+02  0.51100000000E-03 0.  1.
         11   -1    0    0    0    0 -0.00000000000E+00 -0.00000000000E+00 -0.45593999997E+02  0.45594000000E+02  0.51100000000E-03 0. -1.
         23    2    1    2    0    0  0.17763568394E-14 -0.35527136788E-14  0.00000000000E+00  0.91188000000E+02  0.91188000000E+02 0.  0.
    9900012    2    3    3    0    0 -0.12309587850E+02  0.30646319156E+02 -0.16280624360E+02  0.54367060843E+02  0.39999946804E+02 0.  0.
        -12    1    3    3    0    0  0.12309587850E+02 -0.30646319156E+02  0.16280624360E+02  0.36820939157E+02  0.00000000000E+00 0.  1.
         11    1    4    4    0    0  0.10080364091E+02  0.75268941157E+01 -0.85333999368E+01  0.15201539066E+02  0.51100000000E-03 0. -1.
        -11    1    4    4    0    0 -0.11409633291E+02  0.86222684314E+01  0.68392796981E+01  0.15852412806E+02  0.51100000000E-03 0.  1.
         12    1    4    4    0    0 -0.10980318651E+02  0.14497156609E+02 -0.14586504121E+02  0.23313108971E+02  0.00000000000E+00 0. -1.
</event>
<event>
 8    1  0.3007389E-007  0.9118800E+02  0.7816164E-02  0.1184000E+00
        -11   -1    0    0    0    0  0.00000000000E+00  0.00000000000E+00  0.45593999997E+02  0.45594000000E+02  0.51100000000E-03 0.  1.
         11   -1    0    0    0    0 -0.00000000000E+00 -0.00000000000E+00 -0.45593999997E+02  0.45594000000E+02  0.51100000000E-03 0. -1.
         23    2    1    2    0    0  0.00000000000E+00  0.00000000000E+00 -0.35527136788E-14  0.91188000000E+02  0.91188000000E+02 0.  0.
    9900012    2    3    3    0    0 -0.14230764694E+02 -0.30598976599E+02 -0.14729823137E+02  0.54367085803E+02  0.40000003704E+02 0.  0.
         12    1    3    3    0    0  0.14230764694E+02  0.30598976599E+02  0.14729823137E+02  0.36820914197E+02  0.00000000000E+00 0. -1.
         11    1    4    4    0    0 -0.22337849435E+01 -0.23102871634E+02 -0.22572724555E+02  0.32376849244E+02  0.51100000000E-03 0. -1.
        -11    1    4    4    0    0 -0.87527133680E+01 -0.31541729579E+01 -0.30768811013E+01  0.97992854803E+01  0.51100000000E-03 0.  1.
         12    1    4    4    0    0 -0.32442663826E+01 -0.43419320074E+01  0.10919782519E+02  0.12190951078E+02  0.00000000000E+00 0. -1.
</event>
<event>
 8    1  0.3007389E-007  0.9118800E+02  0.7816164E-02  0.1184000E+00
        -11   -1    0    0    0    0  0.00000000000E+00  0.00000000000E+00  0.45593999997E+02  0.45594000000E+02  0.51100000000E-03 0.  1.
         11   -1    0    0    0    0 -0.00000000000E+00 -0.00000000000E+00 -0.45593999997E+02  0.45594000000E+02  0.51100000000E-03 0. -1.
         23    2    1    2    0    0 -0.17763568394E-14  0.00000000000E+00  0.00000000000E+00  0.91188000000E+02  0.91188000000E+02 0.  0.
    9900012    2    3    3    0    0  0.12816093761E+02  0.27866528018E+02  0.20371133211E+02  0.54367099531E+02  0.40000035000E+02 0.  0.
        -12    1    3    3    0    0 -0.12816093761E+02 -0.27866528018E+02 -0.20371133211E+02  0.36820900469E+02  0.00000000000E+00 0.  1.
         11    1    4    4    0    0 -0.11772282560E+02  0.42852804752E+01  0.83489680810E+01  0.15055083318E+02  0.51100000000E-03 0. -1.
        -11    1    4    4    0    0  0.39678731383E+01 -0.15660242623E+01  0.39291058000E+01  0.57995104863E+01  0.51100000000E-03 0.  1.
         12    1    4    4    0    0  0.20620503182E+02  0.25147271805E+02  0.80930593301E+01  0.33512505726E+02  0.00000000000E+00 0. -1.
</event>
<event>
 8    1  0.3007389E-007  0.9118800E+02  0.7816164E-02  0.1184000E+00
        -11   -1    0    0    0    0  0.00000000000E+00  0.00000000000E+00  0.45593999997E+02  0.45594000000E+02  0.51100000000E-03 0. -1.
         11   -1    0    0    0    0 -0.00000000000E+00 -0.00000000000E+00 -0.45593999997E+02  0.45594000000E+02  0.51100000000E-03 0.  1.
         23    2    1    2    0    0  0.00000000000E+00  0.17763568394E-14  0.00000000000E+00  0.91188000000E+02  0.91188000000E+02 0.  0.
    9900012    2    3    3    0    0  0.83006353261E+01 -0.11898275524E+02  0.33842445918E+02  0.54367073165E+02  0.39999974895E+02 0.  0.
        -12    1    3    3    0    0 -0.83006353261E+01  0.11898275524E+02 -0.33842445918E+02  0.36820926835E+02  0.00000000000E+00 0.  1.
         11    1    4    4    0    0  0.18491599090E+02 -0.68567913550E+01  0.22256344152E+02  0.29737176730E+02  0.51100000000E-03 0. -1.
        -11    1    4    4    0    0 -0.10396814520E+02  0.50051490681E+01  0.47609049715E+01  0.12482447106E+02  0.51100000000E-03 0.  1.
        -12    1    4    4    0    0  0.20585075619E+00 -0.10046633237E+02  0.68251967946E+01  0.12147449329E+02  0.00000000000E+00 0.  1.
</event>
<event>
 8    1  0.3007389E-007  0.9118800E+02  0.7816164E-02  0.1184000E+00
        -11   -1    0    0    0    0  0.00000000000E+00  0.00000000000E+00  0.45593999997E+02  0.45594000000E+02  0.51100000000E-03 0.  1.
         11   -1    0    0    0    0 -0.00000000000E+00 -0.00000000000E+00 -0.45593999997E+02  0.45594000000E+02  0.51100000000E-03 0. -1.
         23    2    1    2    0    0  0.44408920985E-15  0.35527136788E-14 -0.35527136788E-14  0.91188000000E+02  0.91188000000E+02 0.  0.
    9900012    2    3    3    0    0 -0.27866679714E+01  0.23597939242E+02  0.28127422160E+02  0.54367080237E+02  0.39999991016E+02 0.  0.
         12    1    3    3    0    0  0.27866679714E+01 -0.23597939242E+02 -0.28127422160E+02  0.36820919763E+02  0.00000000000E+00 0. -1.
         11    1    4    4    0    0  0.10044599814E+00  0.21800211285E+02  0.17797476069E+02  0.28142662563E+02  0.51100000000E-03 0.  1.
        -11    1    4    4    0    0 -0.67245080782E+00 -0.99280007500E+01 -0.69898916638E+00  0.99752681717E+01  0.51100000000E-03 0. -1.
         12    1    4    4    0    0 -0.22146631618E+01  0.11725728707E+02  0.11028935257E+02  0.16249149502E+02  0.00000000000E+00 0. -1.
</event>
<event>
 8    1  0.3007389E-007  0.9118800E+02  0.7816164E-02  0.1184000E+00
        -11   -1    0    0    0    0  0.00000000000E+00  0.00000000000E+00  0.45593999997E+02  0.45594000000E+02  0.51100000000E-03 0.  1.
         11   -1    0    0    0    0 -0.00000000000E+00 -0.00000000000E+00 -0.45593999997E+02  0.45594000000E+02  0.51100000000E-03 0. -1.
         23    2    1    2    0    0  0.00000000000E+00  0.00000000000E+00 -0.17763568394E-14  0.91188000000E+02  0.91188000000E+02 0.  0.
    9900012    2    3    3    0    0 -0.24173087341E+02  0.25160377347E+02 -0.11764240944E+02  0.54367080608E+02  0.39999991863E+02 0.  0.
        -12    1    3    3    0    0  0.24173087341E+02 -0.25160377347E+02  0.11764240944E+02  0.36820919392E+02  0.00000000000E+00 0.  1.
         11    1    4    4    0    0 -0.82680291065E+00  0.11443366185E+02  0.47453393522E+01  0.12415815661E+02  0.51100000000E-03 0. -1.
        -11    1    4    4    0    0  0.26956986007E+01  0.12097210357E+02 -0.65899118532E+01  0.14036959353E+02  0.51100000000E-03 0.  1.
        -12    1    4    4    0    0 -0.26041983031E+02  0.16198008052E+01 -0.99196684431E+01  0.27914305595E+02  0.00000000000E+00 0.  1.
</event>
<event>
 8    1  0.3007389E-007  0.9118800E+02  0.7816164E-02  0.1184000E+00
        -11   -1    0    0    0    0  0.00000000000E+00  0.00000000000E+00  0.45593999997E+02  0.45594000000E+02  0.51100000000E-03 0.  1.
         11   -1    0    0    0    0 -0.00000000000E+00 -0.00000000000E+00 -0.45593999997E+02  0.45594000000E+02  0.51100000000E-03 0. -1.
         23    2    1    2    0    0 -0.71054273576E-14 -0.88817841970E-15 -0.44408920985E-15  0.91188000000E+02  0.91188000000E+02 0.  0.
    9900012    2    3    3    0    0  0.36217419105E+02  0.57045346112E+01  0.33965894159E+01  0.54367082285E+02  0.39999995685E+02 0.  0.
         12    1    3    3    0    0 -0.36217419105E+02 -0.57045346112E+01 -0.33965894159E+01  0.36820917715E+02  0.00000000000E+00 0. -1.
         11    1    4    4    0    0  0.34751738821E+02  0.15386715805E+02 -0.41796021767E+01  0.38234846004E+02  0.51100000000E-03 0. -1.
        -11    1    4    4    0    0 -0.33517203311E+01 -0.16808979677E+01  0.53463426104E+01  0.65301475270E+01  0.51100000000E-03 0.  1.
        -12    1    4    4    0    0  0.48174006144E+01 -0.80012832259E+01  0.22298489822E+01  0.96020887532E+01  0.00000000000E+00 0.  1.
</event>
<event>
 8    1  0.3007389E-007  0.9118800E+02  0.7816164E-02  0.1184000E+00
        -11   -1    0    0    0    0  0.00000000000E+00  0.00000000000E+00  0.45593999997E+02  0.45594000000E+02  0.51100000000E-03 0.  1.
         11   -1    0    0    0    0 -0.00000000000E+00 -0.00000000000E+00 -0.45593999997E+02  0.45594000000E+02  0.51100000000E-03 0. -1.
         23    2    1    2    0    0  0.00000000000E+00 -0.35527136788E-14  0.00000000000E+00  0.91188000000E+02  0.91188000000E+02 0.  0.
    9900012    2    3    3    0    0 -0.92899860245E+01  0.29234831598E+02 -0.20366646437E+02  0.54367088740E+02  0.40000010401E+02 0.  0.
        -12    1    3    3    0    0  0.92899860245E+01 -0.29234831598E+02  0.20366646437E+02  0.36820911260E+02  0.00000000000E+00 0.  1.
         11    1    4    4    0    0  0.19365262778E+01 -0.68225446597E+01 -0.10055258314E+02  0.12304692994E+02  0.51100000000E-03 0. -1.
        -11    1    4    4    0    0  0.22944014414E+01  0.14083351048E+02  0.22903396871E-01  0.14269042699E+02  0.51100000000E-03 0.  1.
         12    1    4    4    0    0 -0.13520913744E+02  0.21974025210E+02 -0.10334291520E+02  0.27793353047E+02  0.00000000000E+00 0. -1.
</event>
<event>
 8    1  0.3007389E-007  0.9118800E+02  0.7816164E-02  0.1184000E+00
        -11   -1    0    0    0    0  0.00000000000E+00  0.00000000000E+00  0.45593999997E+02  0.45594000000E+02  0.51100000000E-03 0.  1.
         11   -1    0    0    0    0 -0.00000000000E+00 -0.00000000000E+00 -0.45593999997E+02  0.45594000000E+02  0.51100000000E-03 0. -1.
         23    2    1    2    0    0  0.00000000000E+00  0.00000000000E+00 -0.44408920985E-15  0.91188000000E+02  0.91188000000E+02 0.  0.
    9900012    2    3    3    0    0 -0.20541378684E+02  0.30303570363E+02  0.39402489148E+01  0.54367079635E+02  0.39999989645E+02 0.  0.
        -12    1    3    3    0    0  0.20541378684E+02 -0.30303570363E+02 -0.39402489148E+01  0.36820920365E+02  0.00000000000E+00 0.  1.
         11    1    4    4    0    0 -0.18654392757E+00  0.44662282711E+01 -0.86302571949E+01  0.97192249237E+01  0.51100000000E-03 0. -1.
        -11    1    4    4    0    0 -0.18006215946E+02  0.30246794011E+02  0.15919606155E+02  0.38633226904E+02  0.51100000000E-03 0.  1.
        -12    1    4    4    0    0 -0.23486188104E+01 -0.44094519193E+01 -0.33491000454E+01  0.60146278072E+01  0.00000000000E+00 0.  1.
</event>
<event>
 8    1  0.3007389E-007  0.9118800E+02  0.7816164E-02  0.1184000E+00
        -11   -1    0    0    0    0  0.00000000000E+00  0.00000000000E+00  0.45593999997E+02  0.45594000000E+02  0.51100000000E-03 0.  1.
         11   -1    0    0    0    0 -0.00000000000E+00 -0.00000000000E+00 -0.45593999997E+02  0.45594000000E+02  0.51100000000E-03 0. -1.
         23    2    1    2    0    0 -0.35527136788E-14  0.17763568394E-14 -0.35527136788E-14  0.91188000000E+02  0.91188000000E+02 0.  0.
    9900012    2    3    3    0    0 -0.26446599080E+02  0.11973925332E+02 -0.22649132748E+02  0.54367072459E+02  0.39999973285E+02 0.  0.
         12    1    3    3    0    0  0.26446599080E+02 -0.11973925332E+02  0.22649132748E+02  0.36820927541E+02  0.00000000000E+00 0. -1.
         11    1    4    4    0    0  0.16231253778E+01  0.13951925711E+02 -0.10173834317E+02  0.17343519597E+02  0.51100000000E-03 0. -1.
        -11    1    4    4    0    0 -0.18330689663E+02 -0.74900675162E+01  0.60283964451E+00  0.19811075458E+02  0.51100000000E-03 0.  1.
        -12    1    4    4    0    0 -0.97390347945E+01  0.55120671371E+01 -0.13078138075E+02  0.17212477404E+02  0.00000000000E+00 0.  1.
</event>
<event>
 8    1  0.3007389E-007  0.9118800E+02  0.7816164E-02  0.1184000E+00
        -11   -1    0    0    0    0  0.00000000000E+00  0.00000000000E+00  0.45593999997E+02  0.45594000000E+02  0.51100000000E-03 0.  1.
         11   -1    0    0    0    0 -0.00000000000E+00 -0.00000000000E+00 -0.45593999997E+02  0.45594000000E+02  0.51100000000E-03 0. -1.
         23    2    1    2    0    0  0.00000000000E+00  0.00000000000E+00  0.00000000000E+00  0.91188000000E+02  0.91188000000E+02 0.  0.
    9900012    2    3    3    0    0  0.13915738758E+02 -0.33799702219E+02  0.44398972041E+01  0.54367077382E+02  0.39999984508E+02 0.  0.
        -12    1    3    3    0    0 -0.13915738758E+02  0.33799702219E+02 -0.44398972041E+01  0.36820922618E+02  0.00000000000E+00 0.  1.
         11    1    4    4    0    0  0.21876941853E+02 -0.10503728154E+02  0.18696440670E+01  0.24339771140E+02  0.51100000000E-03 0. -1.
        -11    1    4    4    0    0 -0.35030712935E+01 -0.24246144849E+02  0.47828437109E+01  0.24960421526E+02  0.51100000000E-03 0.  1.
        -12    1    4    4    0    0 -0.44581318012E+01  0.95017078459E+00 -0.22125905737E+01  0.50668847158E+01  0.00000000000E+00 0.  1.
</event>
<event>
 8    1  0.3007389E-007  0.9118800E+02  0.7816164E-02  0.1184000E+00
        -11   -1    0    0    0    0  0.00000000000E+00  0.00000000000E+00  0.45593999997E+02  0.45594000000E+02  0.51100000000E-03 0.  1.
         11   -1    0    0    0    0 -0.00000000000E+00 -0.00000000000E+00 -0.45593999997E+02  0.45594000000E+02  0.51100000000E-03 0. -1.
         23    2    1    2    0    0  0.00000000000E+00 -0.88817841970E-15  0.26645352591E-14  0.91188000000E+02  0.91188000000E+02 0.  0.
    9900012    2    3    3    0    0 -0.35847656843E+02  0.78472852249E+01 -0.30229937784E+01  0.54367178745E+02  0.40000215584E+02 0.  0.
         12    1    3    3    0    0  0.35847656843E+02 -0.78472852249E+01  0.30229937784E+01  0.36820821255E+02  0.00000000000E+00 0. -1.
         11    1    4    4    0    0 -0.34541000021E+02 -0.12991070789E+00 -0.26906981065E+01  0.34645885986E+02  0.51100000000E-03 0. -1.
        -11    1    4    4    0    0 -0.14274454734E+01  0.68774367403E+01 -0.87560456691E+01  0.11225198115E+02  0.51100000000E-03 0.  1.
         12    1    4    4    0    0  0.12078865118E+00  0.10997591926E+01  0.84237499972E+01  0.84960946437E+01  0.00000000000E+00 0. -1.
</event>
<event>
 8    1  0.3007389E-007  0.9118800E+02  0.7816164E-02  0.1184000E+00
        -11   -1    0    0    0    0  0.00000000000E+00  0.00000000000E+00  0.45593999997E+02  0.45594000000E+02  0.51100000000E-03 0. -1.
         11   -1    0    0    0    0 -0.00000000000E+00 -0.00000000000E+00 -0.45593999997E+02  0.45594000000E+02  0.51100000000E-03 0.  1.
         23    2    1    2    0    0  0.00000000000E+00  0.00000000000E+00  0.00000000000E+00  0.91188000000E+02  0.91188000000E+02 0.  0.
    9900012    2    3    3    0    0 -0.12706436928E+02 -0.58724134547E+01  0.34056430053E+02  0.54367092799E+02  0.40000019653E+02 0.  0.
        -12    1    3    3    0    0  0.12706436928E+02  0.58724134547E+01 -0.34056430053E+02  0.36820907201E+02  0.00000000000E+00 0.  1.
         11    1    4    4    0    0 -0.17286054485E+01 -0.71047651098E+01 -0.35384067481E+01  0.81231820512E+01  0.51100000000E-03 0. -1.
        -11    1    4    4    0    0 -0.91937426678E+01  0.19913733114E+01  0.84703294308E+00  0.94449953402E+01  0.51100000000E-03 0.  1.
         12    1    4    4    0    0 -0.17840888118E+01 -0.75902165635E+00  0.36747803858E+02  0.36798915407E+02  0.00000000000E+00 0. -1.
</event>
<event>
 8    1  0.3007389E-007  0.9118800E+02  0.7816164E-02  0.1184000E+00
        -11   -1    0    0    0    0  0.00000000000E+00  0.00000000000E+00  0.45593999997E+02  0.45594000000E+02  0.51100000000E-03 0. -1.
         11   -1    0    0    0    0 -0.00000000000E+00 -0.00000000000E+00 -0.45593999997E+02  0.45594000000E+02  0.51100000000E-03 0.  1.
         23    2    1    2    0    0 -0.14210854715E-13  0.00000000000E+00  0.88817841970E-15  0.91188000000E+02  0.91188000000E+02 0.  0.
    9900012    2    3    3    0    0  0.35200055898E+02  0.94434151214E+01 -0.52495854750E+01  0.54367079696E+02  0.39999989783E+02 0.  0.
        -12    1    3    3    0    0 -0.35200055898E+02 -0.94434151214E+01  0.52495854750E+01  0.36820920304E+02  0.00000000000E+00 0.  1.
         11    1    4    4    0    0  0.17298196842E+02 -0.36198061303E+01 -0.17280225185E+01  0.17757158345E+02  0.51100000000E-03 0. -1.
        -11    1    4    4    0    0  0.20807625852E+02 -0.15866320479E+01 -0.54043165903E+01  0.21556468471E+02  0.51100000000E-03 0.  1.
        -12    1    4    4    0    0 -0.29057667959E+01  0.14649853300E+02  0.18827536339E+01  0.15053452880E+02  0.00000000000E+00 0.  1.
</event>
<event>
 8    1  0.3007389E-007  0.9118800E+02  0.7816164E-02  0.1184000E+00
        -11   -1    0    0    0    0  0.00000000000E+00  0.00000000000E+00  0.45593999997E+02  0.45594000000E+02  0.51100000000E-03 0.  1.
         11   -1    0    0    0    0 -0.00000000000E+00 -0.00000000000E+00 -0.45593999997E+02  0.45594000000E+02  0.51100000000E-03 0. -1.
         23    2    1    2    0    0  0.26645352591E-14  0.00000000000E+00 -0.35527136788E-14  0.91188000000E+02  0.91188000000E+02 0.  0.
    9900012    2    3    3    0    0  0.68564157772E+01  0.29144401260E+02  0.21432987616E+02  0.54367088546E+02  0.40000009959E+02 0.  0.
         12    1    3    3    0    0 -0.68564157772E+01 -0.29144401260E+02 -0.21432987616E+02  0.36820911454E+02  0.00000000000E+00 0. -1.
         11    1    4    4    0    0 -0.42271178548E+00  0.95846545199E+01  0.39898282609E+01  0.10390525364E+02  0.51100000000E-03 0. -1.
        -11    1    4    4    0    0  0.19772764023E+02  0.13694821188E+02  0.34084895040E+01  0.24292552880E+02  0.51100000000E-03 0.  1.
        -12    1    4    4    0    0 -0.12493636460E+02  0.58649255523E+01  0.14034669851E+02  0.19684010302E+02  0.00000000000E+00 0.  1.
</event>
<event>
 8    1  0.3007389E-007  0.9118800E+02  0.7816164E-02  0.1184000E+00
        -11   -1    0    0    0    0  0.00000000000E+00  0.00000000000E+00  0.45593999997E+02  0.45594000000E+02  0.51100000000E-03 0.  1.
         11   -1    0    0    0    0 -0.00000000000E+00 -0.00000000000E+00 -0.45593999997E+02  0.45594000000E+02  0.51100000000E-03 0. -1.
         23    2    1    2    0    0 -0.88817841970E-15  0.00000000000E+00 -0.71054273576E-14  0.91188000000E+02  0.91188000000E+02 0.  0.
    9900012    2    3    3    0    0 -0.22024695600E+01  0.98756769292E+01  0.35403399117E+02  0.54367074753E+02  0.39999978515E+02 0.  0.
         12    1    3    3    0    0  0.22024695600E+01 -0.98756769292E+01 -0.35403399117E+02  0.36820925247E+02  0.00000000000E+00 0. -1.
         11    1    4    4    0    0 -0.71941175892E+01  0.38027310405E+01  0.24739315808E+02  0.26043230180E+02  0.51100000000E-03 0. -1.
        -11    1    4    4    0    0 -0.16481154029E+01 -0.47409113189E+01  0.14274008571E+02  0.15130758258E+02  0.51100000000E-03 0.  1.
         12    1    4    4    0    0  0.66397634321E+01  0.10813857208E+02 -0.36099252618E+01  0.13193086316E+02  0.00000000000E+00 0. -1.
</event>
<event>
 8    1  0.3007389E-007  0.9118800E+02  0.7816164E-02  0.1184000E+00
        -11   -1    0    0    0    0  0.00000000000E+00  0.00000000000E+00  0.45593999997E+02  0.45594000000E+02  0.51100000000E-03 0.  1.
         11   -1    0    0    0    0 -0.00000000000E+00 -0.00000000000E+00 -0.45593999997E+02  0.45594000000E+02  0.51100000000E-03 0. -1.
         23    2    1    2    0    0  0.00000000000E+00 -0.35527136788E-14 -0.35527136788E-14  0.91188000000E+02  0.91188000000E+02 0.  0.
    9900012    2    3    3    0    0 -0.91864866392E+01 -0.28173954975E+02 -0.21854473858E+02  0.54367064334E+02  0.39999954762E+02 0.  0.
        -12    1    3    3    0    0  0.91864866392E+01  0.28173954975E+02  0.21854473858E+02  0.36820935666E+02  0.00000000000E+00 0.  1.
         11    1    4    4    0    0  0.27488951194E+01 -0.32673532528E+02 -0.93948543649E+01  0.34108348553E+02  0.51100000000E-03 0.  1.
        -11    1    4    4    0    0 -0.78851807308E+01  0.51976066607E+01 -0.13047698976E+02  0.16106943812E+02  0.51100000000E-03 0. -1.
        -12    1    4    4    0    0 -0.40502010277E+01 -0.69802910808E+00  0.58807948252E+00  0.41517719685E+01  0.00000000000E+00 0.  1.
</event>
<event>
 8    1  0.3007389E-007  0.9118800E+02  0.7816164E-02  0.1184000E+00
        -11   -1    0    0    0    0  0.00000000000E+00  0.00000000000E+00  0.45593999997E+02  0.45594000000E+02  0.51100000000E-03 0.  1.
         11   -1    0    0    0    0 -0.00000000000E+00 -0.00000000000E+00 -0.45593999997E+02  0.45594000000E+02  0.51100000000E-03 0. -1.
         23    2    1    2    0    0  0.88817841970E-15  0.00000000000E+00 -0.71054273576E-14  0.91188000000E+02  0.91188000000E+02 0.  0.
    9900012    2    3    3    0    0 -0.75028088790E+01  0.84293547510E+01  0.35049022433E+02  0.54367080184E+02  0.39999990895E+02 0.  0.
         12    1    3    3    0    0  0.75028088790E+01 -0.84293547510E+01 -0.35049022433E+02  0.36820919816E+02  0.00000000000E+00 0. -1.
         11    1    4    4    0    0  0.10871760957E+01  0.64478099010E+01 -0.37293584782E+01  0.75275706109E+01  0.51100000000E-03 0. -1.
        -11    1    4    4    0    0 -0.38455636959E+01  0.12884102749E+00 -0.29205997405E+01  0.48306172747E+01  0.51100000000E-03 0.  1.
        -12    1    4    4    0    0 -0.47444212788E+01  0.18527038225E+01  0.41698980652E+02  0.42008892298E+02  0.00000000000E+00 0.  1.
</event>
<event>
 8    1  0.3007389E-007  0.9118800E+02  0.7816164E-02  0.1184000E+00
        -11   -1    0    0    0    0  0.00000000000E+00  0.00000000000E+00  0.45593999997E+02  0.45594000000E+02  0.51100000000E-03 0.  1.
         11   -1    0    0    0    0 -0.00000000000E+00 -0.00000000000E+00 -0.45593999997E+02  0.45594000000E+02  0.51100000000E-03 0. -1.
         23    2    1    2    0    0  0.00000000000E+00  0.71054273576E-14 -0.17763568394E-14  0.91188000000E+02  0.91188000000E+02 0.  0.
    9900012    2    3    3    0    0  0.86722024903E+01  0.34819438637E+02  0.82571675063E+01  0.54367065490E+02  0.39999957397E+02 0.  0.
         12    1    3    3    0    0 -0.86722024903E+01 -0.34819438637E+02 -0.82571675063E+01  0.36820934510E+02  0.00000000000E+00 0. -1.
         11    1    4    4    0    0  0.12299207148E+01  0.28282910855E+02 -0.48305226807E-01  0.28309681825E+02  0.51100000000E-03 0.  1.
        -11    1    4    4    0    0 -0.47731751859E+01 -0.66553636517E+00 -0.47612151225E+01  0.67746077164E+01  0.51100000000E-03 0. -1.
        -12    1    4    4    0    0  0.12215456961E+02  0.72020641471E+01  0.13066687856E+02  0.19282775948E+02  0.00000000000E+00 0.  1.
</event>
<event>
 8    1  0.3007389E-007  0.9118800E+02  0.7816164E-02  0.1184000E+00
        -11   -1    0    0    0    0  0.00000000000E+00  0.00000000000E+00  0.45593999997E+02  0.45594000000E+02  0.51100000000E-03 0.  1.
         11   -1    0    0    0    0 -0.00000000000E+00 -0.00000000000E+00 -0.45593999997E+02  0.45594000000E+02  0.51100000000E-03 0. -1.
         23    2    1    2    0    0 -0.24424906542E-14  0.71054273576E-14  0.88817841970E-15  0.91188000000E+02  0.91188000000E+02 0.  0.
    9900012    2    3    3    0    0 -0.18597092904E+01 -0.36473491683E+02 -0.46908956363E+01  0.54367100824E+02  0.40000037950E+02 0.  0.
         12    1    3    3    0    0  0.18597092904E+01  0.36473491683E+02  0.46908956363E+01  0.36820899176E+02  0.00000000000E+00 0. -1.
         11    1    4    4    0    0 -0.16783238174E+02 -0.51062669188E+01 -0.82682923662E+01  0.19393702699E+02  0.51100000000E-03 0. -1.
        -11    1    4    4    0    0  0.80378625247E+01 -0.18992966069E+02  0.24166591338E+01  0.20764879862E+02  0.51100000000E-03 0.  1.
         12    1    4    4    0    0  0.68856663591E+01 -0.12374258696E+02  0.11607375961E+01  0.14208518264E+02  0.00000000000E+00 0. -1.
</event>
<event>
 8    1  0.3007389E-007  0.9118800E+02  0.7816164E-02  0.1184000E+00
        -11   -1    0    0    0    0  0.00000000000E+00  0.00000000000E+00  0.45593999997E+02  0.45594000000E+02  0.51100000000E-03 0.  1.
         11   -1    0    0    0    0 -0.00000000000E+00 -0.00000000000E+00 -0.45593999997E+02  0.45594000000E+02  0.51100000000E-03 0. -1.
         23    2    1    2    0    0 -0.35527136788E-14  0.10658141036E-13 -0.17763568394E-14  0.91188000000E+02  0.91188000000E+02 0.  0.
    9900012    2    3    3    0    0 -0.27033000759E+02  0.22586521454E+02 -0.10716799299E+02  0.54367029499E+02  0.39999875348E+02 0.  0.
        -12    1    3    3    0    0  0.27033000759E+02 -0.22586521454E+02  0.10716799299E+02  0.36820970501E+02  0.00000000000E+00 0.  1.
         11    1    4    4    0    0  0.51774323903E+01  0.63350499678E+01 -0.55801013328E+01  0.99033426375E+01  0.51100000000E-03 0.  1.
        -11    1    4    4    0    0 -0.29837202334E+02  0.20531442727E+02 -0.99900565673E+01  0.37571265804E+02  0.51100000000E-03 0. -1.
         12    1    4    4    0    0 -0.23732308151E+01 -0.42799712413E+01  0.48533586008E+01  0.68924210576E+01  0.00000000000E+00 0. -1.
</event>
<event>
 8    1  0.3007389E-007  0.9118800E+02  0.7816164E-02  0.1184000E+00
        -11   -1    0    0    0    0  0.00000000000E+00  0.00000000000E+00  0.45593999997E+02  0.45594000000E+02  0.51100000000E-03 0.  1.
         11   -1    0    0    0    0 -0.00000000000E+00 -0.00000000000E+00 -0.45593999997E+02  0.45594000000E+02  0.51100000000E-03 0. -1.
         23    2    1    2    0    0  0.00000000000E+00 -0.35527136788E-14 -0.17763568394E-14  0.91188000000E+02  0.91188000000E+02 0.  0.
    9900012    2    3    3    0    0 -0.17953030993E+02  0.30283826429E+02 -0.10786936111E+02  0.54367089423E+02  0.40000011959E+02 0.  0.
        -12    1    3    3    0    0  0.17953030993E+02 -0.30283826429E+02  0.10786936111E+02  0.36820910577E+02  0.00000000000E+00 0.  1.
         11    1    4    4    0    0 -0.22627368445E+02  0.11797180628E+02  0.42603128997E+01  0.25871249289E+02  0.51100000000E-03 0. -1.
        -11    1    4    4    0    0  0.26093476923E+01 -0.86440830594E+00  0.13366061223E+01  0.30565361582E+01  0.51100000000E-03 0.  1.
        -12    1    4    4    0    0  0.20649897595E+01  0.19351054107E+02 -0.16383855133E+02  0.25439303976E+02  0.00000000000E+00 0.  1.
</event>
<event>
 8    1  0.3007389E-007  0.9118800E+02  0.7816164E-02  0.1184000E+00
        -11   -1    0    0    0    0  0.00000000000E+00  0.00000000000E+00  0.45593999997E+02  0.45594000000E+02  0.51100000000E-03 0. -1.
         11   -1    0    0    0    0 -0.00000000000E+00 -0.00000000000E+00 -0.45593999997E+02  0.45594000000E+02  0.51100000000E-03 0.  1.
         23    2    1    2    0    0  0.88817841970E-15  0.00000000000E+00  0.00000000000E+00  0.91188000000E+02  0.91188000000E+02 0.  0.
    9900012    2    3    3    0    0  0.73478616085E+01 -0.16520379039E+02 -0.32076061707E+02  0.54366977085E+02  0.39999755861E+02 0.  0.
         12    1    3    3    0    0 -0.73478616085E+01  0.16520379039E+02  0.32076061707E+02  0.36821022915E+02  0.00000000000E+00 0. -1.
         11    1    4    4    0    0 -0.42420759807E+01  0.47854435670E+01 -0.77288403882E+01  0.10031483079E+02  0.51100000000E-03 0. -1.
        -11    1    4    4    0    0  0.13098073678E+02 -0.14664388023E+02 -0.29737481057E+02  0.35649987238E+02  0.51100000000E-03 0.  1.
        -12    1    4    4    0    0 -0.15081360891E+01 -0.66414345832E+01  0.53902597378E+01  0.86855067686E+01  0.00000000000E+00 0.  1.
</event>
<event>
 8    1  0.3007389E-007  0.9118800E+02  0.7816164E-02  0.1184000E+00
        -11   -1    0    0    0    0  0.00000000000E+00  0.00000000000E+00  0.45593999997E+02  0.45594000000E+02  0.51100000000E-03 0. -1.
         11   -1    0    0    0    0 -0.00000000000E+00 -0.00000000000E+00 -0.45593999997E+02  0.45594000000E+02  0.51100000000E-03 0.  1.
         23    2    1    2    0    0  0.00000000000E+00  0.00000000000E+00 -0.35527136788E-14  0.91188000000E+02  0.91188000000E+02 0.  0.
    9900012    2    3    3    0    0 -0.25202274777E+02 -0.74219197011E+01 -0.25798078819E+02  0.54367076374E+02  0.39999982209E+02 0.  0.
        -12    1    3    3    0    0  0.25202274777E+02  0.74219197011E+01  0.25798078819E+02  0.36820923626E+02  0.00000000000E+00 0.  1.
         11    1    4    4    0    0 -0.15220391780E+02  0.57909926813E+01 -0.92983294105E+01  0.18752462565E+02  0.51100000000E-03 0. -1.
        -11    1    4    4    0    0  0.58168481230E+01  0.47667989336E+01 -0.52239675645E+01  0.91568516170E+01  0.51100000000E-03 0.  1.
        -12    1    4    4    0    0 -0.15798731120E+02 -0.17979711316E+02 -0.11275781844E+02  0.26457762192E+02  0.00000000000E+00 0.  1.
</event>
<event>
 8    1  0.3007389E-007  0.9118800E+02  0.7816164E-02  0.1184000E+00
        -11   -1    0    0    0    0  0.00000000000E+00  0.00000000000E+00  0.45593999997E+02  0.45594000000E+02  0.51100000000E-03 0.  1.
         11   -1    0    0    0    0 -0.00000000000E+00 -0.00000000000E+00 -0.45593999997E+02  0.45594000000E+02  0.51100000000E-03 0. -1.
         23    2    1    2    0    0  0.35527136788E-14  0.00000000000E+00 -0.35527136788E-14  0.91188000000E+02  0.91188000000E+02 0.  0.
    9900012    2    3    3    0    0  0.31100804299E+02 -0.73135836207E+01 -0.18303815867E+02  0.54367106357E+02  0.40000050561E+02 0.  0.
        -12    1    3    3    0    0 -0.31100804299E+02  0.73135836207E+01  0.18303815867E+02  0.36820893643E+02  0.00000000000E+00 0.  1.
         11    1    4    4    0    0  0.13421778092E+02  0.41417818770E+01  0.32647348597E+01  0.14420713514E+02  0.51100000000E-03 0. -1.
        -11    1    4    4    0    0  0.18222544541E+02 -0.10202679862E+02 -0.27341529097E+01  0.21062559159E+02  0.51100000000E-03 0.  1.
         12    1    4    4    0    0 -0.54351833493E+00 -0.12526856356E+01 -0.18834397817E+02  0.18883833684E+02  0.00000000000E+00 0. -1.
</event>
<event>
 8    1  0.3007389E-007  0.9118800E+02  0.7816164E-02  0.1184000E+00
        -11   -1    0    0    0    0  0.00000000000E+00  0.00000000000E+00  0.45593999997E+02  0.45594000000E+02  0.51100000000E-03 0. -1.
         11   -1    0    0    0    0 -0.00000000000E+00 -0.00000000000E+00 -0.45593999997E+02  0.45594000000E+02  0.51100000000E-03 0.  1.
         23    2    1    2    0    0  0.00000000000E+00  0.00000000000E+00  0.00000000000E+00  0.91188000000E+02  0.91188000000E+02 0.  0.
    9900012    2    3    3    0    0  0.22976468912E+02 -0.28038260736E+02 -0.64589580016E+01  0.54367077589E+02  0.39999984979E+02 0.  0.
         12    1    3    3    0    0 -0.22976468912E+02  0.28038260736E+02  0.64589580016E+01  0.36820922411E+02  0.00000000000E+00 0. -1.
         11    1    4    4    0    0  0.36279995630E+01  0.80644938581E+01  0.31059807349E+01  0.93725961506E+01  0.51100000000E-03 0. -1.
        -11    1    4    4    0    0  0.80779354182E+01 -0.15636316680E+02 -0.12298050199E+02  0.21470665544E+02  0.51100000000E-03 0.  1.
        -12    1    4    4    0    0  0.11270533931E+02 -0.20466437914E+02  0.27331114623E+01  0.23523815895E+02  0.00000000000E+00 0.  1.
</event>
<event>
 8    1  0.3007389E-007  0.9118800E+02  0.7816164E-02  0.1184000E+00
        -11   -1    0    0    0    0  0.00000000000E+00  0.00000000000E+00  0.45593999997E+02  0.45594000000E+02  0.51100000000E-03 0.  1.
         11   -1    0    0    0    0 -0.00000000000E+00 -0.00000000000E+00 -0.45593999997E+02  0.45594000000E+02  0.51100000000E-03 0. -1.
         23    2    1    2    0    0  0.44408920985E-15 -0.17763568394E-14  0.00000000000E+00  0.91188000000E+02  0.91188000000E+02 0.  0.
    9900012    2    3    3    0    0  0.20296381581E+01 -0.13470568092E+02  0.34208365618E+02  0.54366974566E+02  0.39999750117E+02 0.  0.
         12    1    3    3    0    0 -0.20296381581E+01  0.13470568092E+02 -0.34208365618E+02  0.36821025434E+02  0.00000000000E+00 0. -1.
         11    1    4    4    0    0  0.32240178153E+01  0.80207588108E+00 -0.45127050925E+01  0.56037598186E+01  0.51100000000E-03 0. -1.
        -11    1    4    4    0    0  0.79382040070E+01 -0.13295829611E+02  0.95801935772E+01  0.18209181122E+02  0.51100000000E-03 0.  1.
        -12    1    4    4    0    0 -0.91325836641E+01 -0.97681436292E+00  0.29140877133E+02  0.30554033625E+02  0.00000000000E+00 0.  1.
</event>
<event>
 8    1  0.3007389E-007  0.9118800E+02  0.7816164E-02  0.1184000E+00
        -11   -1    0    0    0    0  0.00000000000E+00  0.00000000000E+00  0.45593999997E+02  0.45594000000E+02  0.51100000000E-03 0. -1.
         11   -1    0    0    0    0 -0.00000000000E+00 -0.00000000000E+00 -0.45593999997E+02  0.45594000000E+02  0.51100000000E-03 0.  1.
         23    2    1    2    0    0  0.00000000000E+00  0.00000000000E+00 -0.17763568394E-14  0.91188000000E+02  0.91188000000E+02 0.  0.
    9900012    2    3    3    0    0  0.30205675700E+02  0.18240537120E+02 -0.10520700055E+02  0.54367011847E+02  0.39999835107E+02 0.  0.
        -12    1    3    3    0    0 -0.30205675700E+02 -0.18240537120E+02  0.10520700055E+02  0.36820988153E+02  0.00000000000E+00 0.  1.
         11    1    4    4    0    0  0.26861645002E+01  0.88268584148E+01  0.81837810640E+01  0.12333011877E+02  0.51100000000E-03 0. -1.
        -11    1    4    4    0    0  0.20668987480E+02 -0.29440539514E+01 -0.33102409146E+01  0.21138405623E+02  0.51100000000E-03 0.  1.
        -12    1    4    4    0    0  0.68505237204E+01  0.12357732657E+02 -0.15394240204E+02  0.20895594347E+02  0.00000000000E+00 0.  1.
</event>
<event>
 8    1  0.3007389E-007  0.9118800E+02  0.7816164E-02  0.1184000E+00
        -11   -1    0    0    0    0  0.00000000000E+00  0.00000000000E+00  0.45593999997E+02  0.45594000000E+02  0.51100000000E-03 0.  1.
         11   -1    0    0    0    0 -0.00000000000E+00 -0.00000000000E+00 -0.45593999997E+02  0.45594000000E+02  0.51100000000E-03 0. -1.
         23    2    1    2    0    0  0.00000000000E+00  0.71054273576E-14  0.00000000000E+00  0.91188000000E+02  0.91188000000E+02 0.  0.
    9900012    2    3    3    0    0  0.58025336560E+01  0.33839486411E+02 -0.13304100922E+02  0.54367091011E+02  0.40000015578E+02 0.  0.
         12    1    3    3    0    0 -0.58025336560E+01 -0.33839486411E+02  0.13304100922E+02  0.36820908989E+02  0.00000000000E+00 0. -1.
         11    1    4    4    0    0  0.25641225663E+01  0.10222577777E+02 -0.37413694699E+00  0.10545890179E+02  0.51100000000E-03 0. -1.
        -11    1    4    4    0    0  0.10296034846E+02  0.30303634338E+02 -0.11425415976E+02  0.33983212298E+02  0.51100000000E-03 0.  1.
         12    1    4    4    0    0 -0.70576237561E+01 -0.66867257037E+01 -0.15045479993E+01  0.98379885343E+01  0.00000000000E+00 0. -1.
</event>
<event>
 8    1  0.3007389E-007  0.9118800E+02  0.7816164E-02  0.1184000E+00
        -11   -1    0    0    0    0  0.00000000000E+00  0.00000000000E+00  0.45593999997E+02  0.45594000000E+02  0.51100000000E-03 0. -1.
         11   -1    0    0    0    0 -0.00000000000E+00 -0.00000000000E+00 -0.45593999997E+02  0.45594000000E+02  0.51100000000E-03 0.  1.
         23    2    1    2    0    0  0.17763568394E-14  0.00000000000E+00  0.00000000000E+00  0.91188000000E+02  0.91188000000E+02 0.  0.
    9900012    2    3    3    0    0  0.14429515125E+02  0.51064785388E+01 -0.33488731996E+02  0.54367052151E+02  0.39999926989E+02 0.  0.
         12    1    3    3    0    0 -0.14429515125E+02 -0.51064785388E+01  0.33488731996E+02  0.36820947849E+02  0.00000000000E+00 0. -1.
         11    1    4    4    0    0  0.15197813149E+01 -0.59173927069E+01  0.20255856326E+01  0.64364795586E+01  0.51100000000E-03 0. -1.
        -11    1    4    4    0    0 -0.85727616491E+01  0.41817747241E+01 -0.12365282786E+02  0.15616648193E+02  0.51100000000E-03 0.  1.
        -12    1    4    4    0    0  0.21482495460E+02  0.68420965216E+01 -0.23149034842E+02  0.32313924400E+02  0.00000000000E+00 0.  1.
</event>
<event>
 8    1  0.3007389E-007  0.9118800E+02  0.7816164E-02  0.1184000E+00
        -11   -1    0    0    0    0  0.00000000000E+00  0.00000000000E+00  0.45593999997E+02  0.45594000000E+02  0.51100000000E-03 0.  1.
         11   -1    0    0    0    0 -0.00000000000E+00 -0.00000000000E+00 -0.45593999997E+02  0.45594000000E+02  0.51100000000E-03 0. -1.
         23    2    1    2    0    0  0.00000000000E+00  0.00000000000E+00  0.00000000000E+00  0.91188000000E+02  0.91188000000E+02 0.  0.
    9900012    2    3    3    0    0  0.33230897830E+02 -0.10190007721E+02  0.12151175372E+02  0.54367083514E+02  0.39999998487E+02 0.  0.
         12    1    3    3    0    0 -0.33230897830E+02  0.10190007721E+02 -0.12151175372E+02  0.36820916486E+02  0.00000000000E+00 0. -1.
         11    1    4    4    0    0  0.15693984382E+02  0.74747842594E+01 -0.98642689161E+00  0.17411105185E+02  0.51100000000E-03 0. -1.
        -11    1    4    4    0    0  0.95520896895E+00 -0.45415671468E+01  0.15025052300E+02  0.15725471478E+02  0.51100000000E-03 0.  1.
        -12    1    4    4    0    0  0.16581704479E+02 -0.13123224834E+02 -0.18874500371E+01  0.21230506850E+02  0.00000000000E+00 0.  1.
</event>
<event>
 8    1  0.3007389E-007  0.9118800E+02  0.7816164E-02  0.1184000E+00
        -11   -1    0    0    0    0  0.00000000000E+00  0.00000000000E+00  0.45593999997E+02  0.45594000000E+02  0.51100000000E-03 0.  1.
         11   -1    0    0    0    0 -0.00000000000E+00 -0.00000000000E+00 -0.45593999997E+02  0.45594000000E+02  0.51100000000E-03 0. -1.
         23    2    1    2    0    0 -0.35527136788E-14  0.17763568394E-14  0.35527136788E-14  0.91188000000E+02  0.91188000000E+02 0.  0.
    9900012    2    3    3    0    0  0.15831429649E+02 -0.15464146084E+02 -0.29427909390E+02  0.54367138659E+02  0.40000124201E+02 0.  0.
        -12    1    3    3    0    0 -0.15831429649E+02  0.15464146084E+02  0.29427909390E+02  0.36820861341E+02  0.00000000000E+00 0.  1.
         11    1    4    4    0    0 -0.80568407622E+01 -0.10861720298E+02 -0.11959487483E+02  0.18053226637E+02  0.51100000000E-03 0. -1.
        -11    1    4    4    0    0  0.16135496464E+02 -0.12669622720E+02 -0.12864786525E+02  0.24215208415E+02  0.51100000000E-03 0.  1.
         12    1    4    4    0    0  0.77527739469E+01  0.80671969332E+01 -0.46036353817E+01  0.12098703607E+02  0.00000000000E+00 0. -1.
</event>
<event>
 8    1  0.3007389E-007  0.9118800E+02  0.7816164E-02  0.1184000E+00
        -11   -1    0    0    0    0  0.00000000000E+00  0.00000000000E+00  0.45593999997E+02  0.45594000000E+02  0.51100000000E-03 0.  1.
         11   -1    0    0    0    0 -0.00000000000E+00 -0.00000000000E+00 -0.45593999997E+02  0.45594000000E+02  0.51100000000E-03 0. -1.
         23    2    1    2    0    0  0.35527136788E-14  0.35527136788E-14  0.35527136788E-14  0.91188000000E+02  0.91188000000E+02 0.  0.
    9900012    2    3    3    0    0 -0.11502735135E+02 -0.26120923931E+02 -0.23262942157E+02  0.54367081212E+02  0.39999993239E+02 0.  0.
        -12    1    3    3    0    0  0.11502735135E+02  0.26120923931E+02  0.23262942157E+02  0.36820918788E+02  0.00000000000E+00 0.  1.
         11    1    4    4    0    0 -0.19761656266E+02 -0.23699441942E+02 -0.11767895015E+02  0.33025292733E+02  0.51100000000E-03 0. -1.
        -11    1    4    4    0    0  0.28638947341E+01  0.34208824330E+01  0.25959296154E+01  0.51617032555E+01  0.51100000000E-03 0.  1.
         12    1    4    4    0    0  0.53950263966E+01 -0.58423644219E+01 -0.14090976758E+02  0.16180085224E+02  0.00000000000E+00 0. -1.
</event>
<event>
 8    1  0.3007389E-007  0.9118800E+02  0.7816164E-02  0.1184000E+00
        -11   -1    0    0    0    0  0.00000000000E+00  0.00000000000E+00  0.45593999997E+02  0.45594000000E+02  0.51100000000E-03 0.  1.
         11   -1    0    0    0    0 -0.00000000000E+00 -0.00000000000E+00 -0.45593999997E+02  0.45594000000E+02  0.51100000000E-03 0. -1.
         23    2    1    2    0    0  0.00000000000E+00  0.00000000000E+00  0.00000000000E+00  0.91188000000E+02  0.91188000000E+02 0.  0.
    9900012    2    3    3    0    0 -0.23182791903E+02 -0.16723553714E+02 -0.23209052285E+02  0.54367092933E+02  0.40000019959E+02 0.  0.
        -12    1    3    3    0    0  0.23182791903E+02  0.16723553714E+02  0.23209052285E+02  0.36820907067E+02  0.00000000000E+00 0.  1.
         11    1    4    4    0    0 -0.21108568849E+02 -0.54012719757E+01 -0.18087938565E+02  0.28318173310E+02  0.51100000000E-03 0. -1.
        -11    1    4    4    0    0  0.80435221615E+01  0.16624685039E+01 -0.49440098515E+01  0.95867243603E+01  0.51100000000E-03 0.  1.
         12    1    4    4    0    0 -0.10117745216E+02 -0.12984750242E+02 -0.17710386913E+00  0.16462195263E+02  0.00000000000E+00 0. -1.
</event>
<event>
 8    1  0.3007389E-007  0.9118800E+02  0.7816164E-02  0.1184000E+00
        -11   -1    0    0    0    0  0.00000000000E+00  0.00000000000E+00  0.45593999997E+02  0.45594000000E+02  0.51100000000E-03 0. -1.
         11   -1    0    0    0    0 -0.00000000000E+00 -0.00000000000E+00 -0.45593999997E+02  0.45594000000E+02  0.51100000000E-03 0.  1.
         23    2    1    2    0    0  0.00000000000E+00  0.00000000000E+00  0.00000000000E+00  0.91188000000E+02  0.91188000000E+02 0.  0.
    9900012    2    3    3    0    0  0.28560207616E+02 -0.17139560179E+02  0.15694889065E+02  0.54367088483E+02  0.40000009814E+02 0.  0.
        -12    1    3    3    0    0 -0.28560207616E+02  0.17139560179E+02 -0.15694889065E+02  0.36820911517E+02  0.00000000000E+00 0.  1.
         11    1    4    4    0    0 -0.96383412966E-01  0.60334561388E+01  0.45351910882E+01  0.75484992687E+01  0.51100000000E-03 0. -1.
        -11    1    4    4    0    0  0.53657101854E+01 -0.10583676470E+02 -0.78478451752E+01  0.14226514948E+02  0.51100000000E-03 0.  1.
         12    1    4    4    0    0  0.23290880844E+02 -0.12589339848E+02  0.19007543152E+02  0.32592074266E+02  0.00000000000E+00 0. -1.
</event>
<event>
 8    1  0.3007389E-007  0.9118800E+02  0.7816164E-02  0.1184000E+00
        -11   -1    0    0    0    0  0.00000000000E+00  0.00000000000E+00  0.45593999997E+02  0.45594000000E+02  0.51100000000E-03 0. -1.
         11   -1    0    0    0    0 -0.00000000000E+00 -0.00000000000E+00 -0.45593999997E+02  0.45594000000E+02  0.51100000000E-03 0.  1.
         23    2    1    2    0    0  0.88817841970E-15 -0.35527136788E-14 -0.35527136788E-14  0.91188000000E+02  0.91188000000E+02 0.  0.
    9900012    2    3    3    0    0 -0.69325508341E+01  0.30617981101E+02  0.19242119797E+02  0.54367079289E+02  0.39999988855E+02 0.  0.
        -12    1    3    3    0    0  0.69325508341E+01 -0.30617981101E+02 -0.19242119797E+02  0.36820920711E+02  0.00000000000E+00 0.  1.
         11    1    4    4    0    0 -0.94130953648E+01  0.15616206806E+02  0.27830734575E+02  0.33271941131E+02  0.51100000000E-03 0. -1.
        -11    1    4    4    0    0  0.24716980284E+01  0.10444407970E+00 -0.52857814154E+01  0.58360676094E+01  0.51100000000E-03 0.  1.
         12    1    4    4    0    0  0.88465022506E-02  0.14897330214E+02 -0.33028333629E+01  0.15259070548E+02  0.00000000000E+00 0. -1.
</event>
<event>
 8    1  0.3007389E-007  0.9118800E+02  0.7816164E-02  0.1184000E+00
        -11   -1    0    0    0    0  0.00000000000E+00  0.00000000000E+00  0.45593999997E+02  0.45594000000E+02  0.51100000000E-03 0.  1.
         11   -1    0    0    0    0 -0.00000000000E+00 -0.00000000000E+00 -0.45593999997E+02  0.45594000000E+02  0.51100000000E-03 0. -1.
         23    2    1    2    0    0  0.00000000000E+00  0.00000000000E+00  0.00000000000E+00  0.91188000000E+02  0.91188000000E+02 0.  0.
    9900012    2    3    3    0    0  0.13644785463E+02 -0.16005483246E+02 -0.30222915110E+02  0.54367078474E+02  0.39999986997E+02 0.  0.
        -12    1    3    3    0    0 -0.13644785463E+02  0.16005483246E+02  0.30222915110E+02  0.36820921526E+02  0.00000000000E+00 0.  1.
         11    1    4    4    0    0 -0.82886162312E+01  0.18214915899E+01 -0.10155599234E+02  0.13234620762E+02  0.51100000000E-03 0. -1.
        -11    1    4    4    0    0  0.24735058073E+01  0.27738337014E+01 -0.10634328407E+02  0.11265048838E+02  0.51100000000E-03 0.  1.
        -12    1    4    4    0    0  0.19459895887E+02 -0.20600808537E+02 -0.94329874687E+01  0.29867408875E+02  0.00000000000E+00 0.  1.
</event>
<event>
 8    1  0.3007389E-007  0.9118800E+02  0.7816164E-02  0.1184000E+00
        -11   -1    0    0    0    0  0.00000000000E+00  0.00000000000E+00  0.45593999997E+02  0.45594000000E+02  0.51100000000E-03 0. -1.
         11   -1    0    0    0    0 -0.00000000000E+00 -0.00000000000E+00 -0.45593999997E+02  0.45594000000E+02  0.51100000000E-03 0.  1.
         23    2    1    2    0    0 -0.17763568394E-14  0.88817841970E-15  0.00000000000E+00  0.91188000000E+02  0.91188000000E+02 0.  0.
    9900012    2    3    3    0    0 -0.15120730657E+02  0.26377646774E+01  0.33469171754E+02  0.54367085345E+02  0.40000002661E+02 0.  0.
        -12    1    3    3    0    0  0.15120730657E+02 -0.26377646774E+01 -0.33469171754E+02  0.36820914655E+02  0.00000000000E+00 0.  1.
         11    1    4    4    0    0 -0.94133942584E+01  0.13463921542E+02  0.25582736603E+02  0.30403381179E+02  0.51100000000E-03 0. -1.
        -11    1    4    4    0    0 -0.28820149996E+01  0.54095126539E+01  0.16954864442E+01  0.63595213778E+01  0.51100000000E-03 0.  1.
         12    1    4    4    0    0 -0.28253213992E+01 -0.16235669519E+02  0.61909487070E+01  0.17604182788E+02  0.00000000000E+00 0. -1.
</event>
<event>
 8    1  0.3007389E-007  0.9118800E+02  0.7816164E-02  0.1184000E+00
        -11   -1    0    0    0    0  0.00000000000E+00  0.00000000000E+00  0.45593999997E+02  0.45594000000E+02  0.51100000000E-03 0.  1.
         11   -1    0    0    0    0 -0.00000000000E+00 -0.00000000000E+00 -0.45593999997E+02  0.45594000000E+02  0.51100000000E-03 0. -1.
         23    2    1    2    0    0 -0.17763568394E-14  0.00000000000E+00 -0.71054273576E-14  0.91188000000E+02  0.91188000000E+02 0.  0.
    9900012    2    3    3    0    0  0.10344837152E+02  0.27901082569E+02 -0.21686269989E+02  0.54367077004E+02  0.39999983646E+02 0.  0.
        -12    1    3    3    0    0 -0.10344837152E+02 -0.27901082569E+02  0.21686269989E+02  0.36820922996E+02  0.00000000000E+00 0.  1.
         11    1    4    4    0    0 -0.68806398041E+00  0.98684610061E+01 -0.94591411984E+01  0.13687048884E+02  0.51100000000E-03 0. -1.
        -11    1    4    4    0    0 -0.66969201703E+01  0.86452052325E+01 -0.16854746842E+02  0.20091560533E+02  0.51100000000E-03 0.  1.
         12    1    4    4    0    0  0.17729821303E+02  0.93874163304E+01  0.46276180508E+01  0.20588467588E+02  0.00000000000E+00 0. -1.
</event>
<event>
 8    1  0.3007389E-007  0.9118800E+02  0.7816164E-02  0.1184000E+00
        -11   -1    0    0    0    0  0.00000000000E+00  0.00000000000E+00  0.45593999997E+02  0.45594000000E+02  0.51100000000E-03 0.  1.
         11   -1    0    0    0    0 -0.00000000000E+00 -0.00000000000E+00 -0.45593999997E+02  0.45594000000E+02  0.51100000000E-03 0. -1.
         23    2    1    2    0    0  0.00000000000E+00  0.00000000000E+00  0.00000000000E+00  0.91188000000E+02  0.91188000000E+02 0.  0.
    9900012    2    3    3    0    0 -0.29799541638E+02 -0.19620789499E+02  0.90989803552E+01  0.54367088741E+02  0.40000010403E+02 0.  0.
         12    1    3    3    0    0  0.29799541638E+02  0.19620789499E+02 -0.90989803552E+01  0.36820911259E+02  0.00000000000E+00 0. -1.
         11    1    4    4    0    0 -0.19512647403E+02 -0.62457643727E+01  0.20679435447E+02  0.29109998831E+02  0.51100000000E-03 0. -1.
        -11    1    4    4    0    0 -0.27267532654E+01 -0.12718997459E+02 -0.11944101162E+02  0.17659831046E+02  0.51100000000E-03 0.  1.
        -12    1    4    4    0    0 -0.75601409703E+01 -0.65602766725E+00  0.36364607034E+00  0.75972588646E+01  0.00000000000E+00 0.  1.
</event>
<event>
 8    1  0.3007389E-007  0.9118800E+02  0.7816164E-02  0.1184000E+00
        -11   -1    0    0    0    0  0.00000000000E+00  0.00000000000E+00  0.45593999997E+02  0.45594000000E+02  0.51100000000E-03 0. -1.
         11   -1    0    0    0    0 -0.00000000000E+00 -0.00000000000E+00 -0.45593999997E+02  0.45594000000E+02  0.51100000000E-03 0.  1.
         23    2    1    2    0    0  0.17763568394E-14 -0.35527136788E-14 -0.35527136788E-14  0.91188000000E+02  0.91188000000E+02 0.  0.
    9900012    2    3    3    0    0  0.14372439270E+02 -0.29598300319E+02 -0.16527483381E+02  0.54367026367E+02  0.39999868210E+02 0.  0.
         12    1    3    3    0    0 -0.14372439270E+02  0.29598300319E+02  0.16527483381E+02  0.36820973633E+02  0.00000000000E+00 0. -1.
         11    1    4    4    0    0 -0.16063144144E+01 -0.11656239424E+02 -0.11835998961E+02  0.16689488763E+02  0.51100000000E-03 0.  1.
        -11    1    4    4    0    0  0.20706201934E+02 -0.79358985751E+01  0.52648144705E+01  0.22791304403E+02  0.51100000000E-03 0. -1.
         12    1    4    4    0    0 -0.47274482495E+01 -0.10006162320E+02 -0.99562988909E+01  0.14886233202E+02  0.00000000000E+00 0. -1.
</event>
<event>
 8    1  0.3007389E-007  0.9118800E+02  0.7816164E-02  0.1184000E+00
        -11   -1    0    0    0    0  0.00000000000E+00  0.00000000000E+00  0.45593999997E+02  0.45594000000E+02  0.51100000000E-03 0. -1.
         11   -1    0    0    0    0 -0.00000000000E+00 -0.00000000000E+00 -0.45593999997E+02  0.45594000000E+02  0.51100000000E-03 0.  1.
         23    2    1    2    0    0  0.35527136788E-14  0.35527136788E-14 -0.17763568394E-14  0.91188000000E+02  0.91188000000E+02 0.  0.
    9900012    2    3    3    0    0 -0.22889119400E+02 -0.27766882537E+02  0.78019241258E+01  0.54367060675E+02  0.39999946420E+02 0.  0.
        -12    1    3    3    0    0  0.22889119400E+02  0.27766882537E+02 -0.78019241258E+01  0.36820939325E+02  0.00000000000E+00 0.  1.
         11    1    4    4    0    0 -0.31514321998E+02 -0.25328848022E+02  0.47800228599E+01  0.40713040317E+02  0.51100000000E-03 0. -1.
        -11    1    4    4    0    0  0.15951169246E+01  0.30681571582E+01  0.32157378588E+01  0.47221771026E+01  0.51100000000E-03 0.  1.
         12    1    4    4    0    0  0.70300856726E+01 -0.55061916731E+01 -0.19383659288E+00  0.89318432549E+01  0.00000000000E+00 0. -1.
</event>
<event>
 8    1  0.3007389E-007  0.9118800E+02  0.7816164E-02  0.1184000E+00
        -11   -1    0    0    0    0  0.00000000000E+00  0.00000000000E+00  0.45593999997E+02  0.45594000000E+02  0.51100000000E-03 0.  1.
         11   -1    0    0    0    0 -0.00000000000E+00 -0.00000000000E+00 -0.45593999997E+02  0.45594000000E+02  0.51100000000E-03 0. -1.
         23    2    1    2    0    0  0.00000000000E+00  0.00000000000E+00  0.17763568394E-14  0.91188000000E+02  0.91188000000E+02 0.  0.
    9900012    2    3    3    0    0  0.33213629956E+02 -0.57267244526E+01 -0.14826983094E+02  0.54367081821E+02  0.39999994628E+02 0.  0.
         12    1    3    3    0    0 -0.33213629956E+02  0.57267244526E+01  0.14826983094E+02  0.36820918179E+02  0.00000000000E+00 0. -1.
         11    1    4    4    0    0  0.17394197194E+02  0.73834134569E+01  0.82755657809E+01  0.20629054257E+02  0.51100000000E-03 0. -1.
        -11    1    4    4    0    0  0.10041532387E+02 -0.63220446360E+01 -0.37718827543E+01  0.12451012844E+02  0.51100000000E-03 0.  1.
         12    1    4    4    0    0  0.57779003755E+01 -0.67880932736E+01 -0.19330666121E+02  0.21287014721E+02  0.00000000000E+00 0. -1.
</event>
<event>
 8    1  0.3007389E-007  0.9118800E+02  0.7816164E-02  0.1184000E+00
        -11   -1    0    0    0    0  0.00000000000E+00  0.00000000000E+00  0.45593999997E+02  0.45594000000E+02  0.51100000000E-03 0. -1.
         11   -1    0    0    0    0 -0.00000000000E+00 -0.00000000000E+00 -0.45593999997E+02  0.45594000000E+02  0.51100000000E-03 0.  1.
         23    2    1    2    0    0  0.00000000000E+00  0.00000000000E+00  0.00000000000E+00  0.91188000000E+02  0.91188000000E+02 0.  0.
    9900012    2    3    3    0    0 -0.25488986688E+02 -0.25824267673E+02 -0.62609814708E+01  0.54367066657E+02  0.39999960059E+02 0.  0.
         12    1    3    3    0    0  0.25488986688E+02  0.25824267673E+02  0.62609814708E+01  0.36820933343E+02  0.00000000000E+00 0. -1.
         11    1    4    4    0    0 -0.20957649470E+02  0.38362425801E+00  0.28652963692E+01  0.21156090433E+02  0.51100000000E-03 0.  1.
        -11    1    4    4    0    0 -0.19791106200E+01  0.14081599622E+01 -0.44724844281E+01  0.50894902049E+01  0.51100000000E-03 0. -1.
        -12    1    4    4    0    0 -0.25522265980E+01 -0.27616051894E+02 -0.46537934119E+01  0.28121486019E+02  0.00000000000E+00 0.  1.
</event>
<event>
 8    1  0.3007389E-007  0.9118800E+02  0.7816164E-02  0.1184000E+00
        -11   -1    0    0    0    0  0.00000000000E+00  0.00000000000E+00  0.45593999997E+02  0.45594000000E+02  0.51100000000E-03 0.  1.
         11   -1    0    0    0    0 -0.00000000000E+00 -0.00000000000E+00 -0.45593999997E+02  0.45594000000E+02  0.51100000000E-03 0. -1.
         23    2    1    2    0    0  0.00000000000E+00 -0.17763568394E-14  0.71054273576E-14  0.91188000000E+02  0.91188000000E+02 0.  0.
    9900012    2    3    3    0    0 -0.17686662472E+01  0.83787603083E+01 -0.35811281639E+02  0.54367086144E+02  0.40000004482E+02 0.  0.
        -12    1    3    3    0    0  0.17686662472E+01 -0.83787603083E+01  0.35811281639E+02  0.36820913856E+02  0.00000000000E+00 0.  1.
         11    1    4    4    0    0 -0.39843193497E+01  0.82556942575E+01 -0.31267116488E+02  0.32583183732E+02  0.51100000000E-03 0. -1.
        -11    1    4    4    0    0  0.78943758397E+01  0.82315608718E+01 -0.24730175718E+01  0.11670286220E+02  0.51100000000E-03 0.  1.
         12    1    4    4    0    0 -0.56787227372E+01 -0.81084948210E+01 -0.20711475791E+01  0.10113616192E+02  0.00000000000E+00 0. -1.
</event>
<event>
 8    1  0.3007389E-007  0.9118800E+02  0.7816164E-02  0.1184000E+00
        -11   -1    0    0    0    0  0.00000000000E+00  0.00000000000E+00  0.45593999997E+02  0.45594000000E+02  0.51100000000E-03 0. -1.
         11   -1    0    0    0    0 -0.00000000000E+00 -0.00000000000E+00 -0.45593999997E+02  0.45594000000E+02  0.51100000000E-03 0.  1.
         23    2    1    2    0    0  0.00000000000E+00 -0.17763568394E-14  0.00000000000E+00  0.91188000000E+02  0.91188000000E+02 0.  0.
    9900012    2    3    3    0    0  0.17748310775E+02 -0.13472049957E+02  0.29313488167E+02  0.54367092164E+02  0.40000018206E+02 0.  0.
        -12    1    3    3    0    0 -0.17748310775E+02  0.13472049957E+02 -0.29313488167E+02  0.36820907836E+02  0.00000000000E+00 0.  1.
         11    1    4    4    0    0  0.15344479108E+02  0.15678741246E+01  0.19877489963E+02  0.25160005482E+02  0.51100000000E-03 0. -1.
        -11    1    4    4    0    0  0.43709975325E+01 -0.99549225962E+01 -0.62914438676E+01  0.12561384061E+02  0.51100000000E-03 0.  1.
        -12    1    4    4    0    0 -0.19671658654E+01 -0.50850014850E+01  0.15727442071E+02  0.16645702621E+02  0.00000000000E+00 0.  1.
</event>
<event>
 8    1  0.3007389E-007  0.9118800E+02  0.7816164E-02  0.1184000E+00
        -11   -1    0    0    0    0  0.00000000000E+00  0.00000000000E+00  0.45593999997E+02  0.45594000000E+02  0.51100000000E-03 0.  1.
         11   -1    0    0    0    0 -0.00000000000E+00 -0.00000000000E+00 -0.45593999997E+02  0.45594000000E+02  0.51100000000E-03 0. -1.
         23    2    1    2    0    0 -0.17763568394E-14  0.00000000000E+00 -0.35527136788E-14  0.91188000000E+02  0.91188000000E+02 0.  0.
    9900012    2    3    3    0    0  0.10812196632E+02 -0.24972050774E+02  0.24804688503E+02  0.54367088990E+02  0.40000010971E+02 0.  0.
         12    1    3    3    0    0 -0.10812196632E+02  0.24972050774E+02 -0.24804688503E+02  0.36820911010E+02  0.00000000000E+00 0. -1.
         11    1    4    4    0    0  0.55221898593E+01 -0.55726526559E+01  0.20452320975E+02  0.21905398239E+02  0.51100000000E-03 0. -1.
        -11    1    4    4    0    0  0.14532095059E+02 -0.65851584170E+01  0.47842747831E+01  0.16656391675E+02  0.51100000000E-03 0.  1.
         12    1    4    4    0    0 -0.92420882865E+01 -0.12814239701E+02 -0.43190725562E+00  0.15805299076E+02  0.00000000000E+00 0. -1.
</event>
<event>
 8    1  0.3007389E-007  0.9118800E+02  0.7816164E-02  0.1184000E+00
        -11   -1    0    0    0    0  0.00000000000E+00  0.00000000000E+00  0.45593999997E+02  0.45594000000E+02  0.51100000000E-03 0.  1.
         11   -1    0    0    0    0 -0.00000000000E+00 -0.00000000000E+00 -0.45593999997E+02  0.45594000000E+02  0.51100000000E-03 0. -1.
         23    2    1    2    0    0  0.17763568394E-14  0.00000000000E+00  0.00000000000E+00  0.91188000000E+02  0.91188000000E+02 0.  0.
    9900012    2    3    3    0    0 -0.15294532270E+02 -0.25888755563E+02 -0.21251592060E+02  0.54367074604E+02  0.39999978174E+02 0.  0.
        -12    1    3    3    0    0  0.15294532270E+02  0.25888755563E+02  0.21251592060E+02  0.36820925396E+02  0.00000000000E+00 0.  1.
         11    1    4    4    0    0 -0.37950758544E+01 -0.11064264427E+02 -0.16882318370E+02  0.20538578866E+02  0.51100000000E-03 0. -1.
        -11    1    4    4    0    0  0.38312532355E+01 -0.99460672972E+01  0.81711158714E+01  0.13430185810E+02  0.51100000000E-03 0.  1.
        -12    1    4    4    0    0 -0.15330709651E+02 -0.48784238393E+01 -0.12540389562E+02  0.20398309928E+02  0.00000000000E+00 0.  1.
</event>
<event>
 8    1  0.3007389E-007  0.9118800E+02  0.7816164E-02  0.1184000E+00
        -11   -1    0    0    0    0  0.00000000000E+00  0.00000000000E+00  0.45593999997E+02  0.45594000000E+02  0.51100000000E-03 0.  1.
         11   -1    0    0    0    0 -0.00000000000E+00 -0.00000000000E+00 -0.45593999997E+02  0.45594000000E+02  0.51100000000E-03 0. -1.
         23    2    1    2    0    0  0.00000000000E+00  0.88817841970E-15 -0.35527136788E-14  0.91188000000E+02  0.91188000000E+02 0.  0.
    9900012    2    3    3    0    0  0.24848164825E+02  0.67139218233E+01 -0.26330066075E+02  0.54367076316E+02  0.39999982078E+02 0.  0.
        -12    1    3    3    0    0 -0.24848164825E+02 -0.67139218233E+01  0.26330066075E+02  0.36820923684E+02  0.00000000000E+00 0.  1.
         11    1    4    4    0    0  0.21554757974E+02  0.90728166074E+01 -0.21510241216E+02  0.31774424777E+02  0.51100000000E-03 0. -1.
        -11    1    4    4    0    0 -0.60254751742E+01  0.54069184683E+01 -0.64527348432E+01  0.10352724550E+02  0.51100000000E-03 0.  1.
        -12    1    4    4    0    0  0.93188820252E+01 -0.77658132524E+01  0.16329099845E+01  0.12239926989E+02  0.00000000000E+00 0.  1.
</event>
<event>
 8    1  0.3007389E-007  0.9118800E+02  0.7816164E-02  0.1184000E+00
        -11   -1    0    0    0    0  0.00000000000E+00  0.00000000000E+00  0.45593999997E+02  0.45594000000E+02  0.51100000000E-03 0.  1.
         11   -1    0    0    0    0 -0.00000000000E+00 -0.00000000000E+00 -0.45593999997E+02  0.45594000000E+02  0.51100000000E-03 0. -1.
         23    2    1    2    0    0  0.00000000000E+00  0.00000000000E+00  0.00000000000E+00  0.91188000000E+02  0.91188000000E+02 0.  0.
    9900012    2    3    3    0    0  0.16748441115E+02  0.26294059113E+02 -0.19593102169E+02  0.54367116292E+02  0.40000073211E+02 0.  0.
        -12    1    3    3    0    0 -0.16748441115E+02 -0.26294059113E+02  0.19593102169E+02  0.36820883708E+02  0.00000000000E+00 0.  1.
         11    1    4    4    0    0 -0.55889915094E+01 -0.43821337542E+01 -0.56135392436E+01  0.90527203333E+01  0.51100000000E-03 0. -1.
        -11    1    4    4    0    0 -0.45905415993E+00 -0.86444636652E+00  0.27764624627E+01  0.29439331362E+01  0.51100000000E-03 0.  1.
         12    1    4    4    0    0  0.22796486785E+02  0.31540639234E+02 -0.16756025388E+02  0.42370462823E+02  0.00000000000E+00 0. -1.
</event>
<event>
 8    1  0.3007389E-007  0.9118800E+02  0.7816164E-02  0.1184000E+00
        -11   -1    0    0    0    0  0.00000000000E+00  0.00000000000E+00  0.45593999997E+02  0.45594000000E+02  0.51100000000E-03 0.  1.
         11   -1    0    0    0    0 -0.00000000000E+00 -0.00000000000E+00 -0.45593999997E+02  0.45594000000E+02  0.51100000000E-03 0. -1.
         23    2    1    2    0    0  0.35527136788E-14  0.35527136788E-14  0.71054273576E-14  0.91188000000E+02  0.91188000000E+02 0.  0.
    9900012    2    3    3    0    0  0.25569498515E+02  0.13626408981E+02  0.22722269170E+02  0.54367084853E+02  0.40000001540E+02 0.  0.
         12    1    3    3    0    0 -0.25569498515E+02 -0.13626408981E+02 -0.22722269170E+02  0.36820915147E+02  0.00000000000E+00 0. -1.
         11    1    4    4    0    0  0.24294276197E+02  0.71856138834E+01  0.30610494356E+02  0.39734711121E+02  0.51100000000E-03 0.  1.
        -11    1    4    4    0    0  0.61622459493E+00 -0.12089981640E+01 -0.67323321116E+01  0.68677292633E+01  0.51100000000E-03 0. -1.
        -12    1    4    4    0    0  0.65899772251E+00  0.76497932613E+01 -0.11558930749E+01  0.77646444696E+01  0.00000000000E+00 0.  1.
</event>
<event>
 8    1  0.3007389E-007  0.9118800E+02  0.7816164E-02  0.1184000E+00
        -11   -1    0    0    0    0  0.00000000000E+00  0.00000000000E+00  0.45593999997E+02  0.45594000000E+02  0.51100000000E-03 0. -1.
         11   -1    0    0    0    0 -0.00000000000E+00 -0.00000000000E+00 -0.45593999997E+02  0.45594000000E+02  0.51100000000E-03 0.  1.
         23    2    1    2    0    0 -0.35527136788E-14 -0.44408920985E-15  0.00000000000E+00  0.91188000000E+02  0.91188000000E+02 0.  0.
    9900012    2    3    3    0    0  0.20308477762E+02  0.21858655574E+01  0.30636051595E+02  0.54367082920E+02  0.39999997133E+02 0.  0.
        -12    1    3    3    0    0 -0.20308477762E+02 -0.21858655574E+01 -0.30636051595E+02  0.36820917080E+02  0.00000000000E+00 0.  1.
         11    1    4    4    0    0  0.24959550481E+02 -0.10955134589E+00  0.27719521398E+02  0.37300978922E+02  0.51100000000E-03 0. -1.
        -11    1    4    4    0    0 -0.94382683229E+01 -0.14454402787E+00 -0.21498093803E+01  0.96810889131E+01  0.51100000000E-03 0.  1.
        -12    1    4    4    0    0  0.47871956041E+01  0.24399609312E+01  0.50663395774E+01  0.73850150854E+01  0.00000000000E+00 0.  1.
</event>
<event>
 8    1  0.3007389E-007  0.9118800E+02  0.7816164E-02  0.1184000E+00
        -11   -1    0    0    0    0  0.00000000000E+00  0.00000000000E+00  0.45593999997E+02  0.45594000000E+02  0.51100000000E-03 0.  1.
         11   -1    0    0    0    0 -0.00000000000E+00 -0.00000000000E+00 -0.45593999997E+02  0.45594000000E+02  0.51100000000E-03 0. -1.
         23    2    1    2    0    0  0.17763568394E-14 -0.35527136788E-14 -0.35527136788E-14  0.91188000000E+02  0.91188000000E+02 0.  0.
    9900012    2    3    3    0    0 -0.50738539051E+01 -0.28001520747E+02 -0.23365586730E+02  0.54367084737E+02  0.40000001274E+02 0.  0.
        -12    1    3    3    0    0  0.50738539051E+01  0.28001520747E+02  0.23365586730E+02  0.36820915263E+02  0.00000000000E+00 0.  1.
         11    1    4    4    0    0  0.27654485178E+01 -0.32377699305E+01 -0.12427453637E+02  0.13136683897E+02  0.51100000000E-03 0. -1.
        -11    1    4    4    0    0  0.11047846345E+02 -0.14007692101E+02 -0.29977397432E+01  0.18090240205E+02  0.51100000000E-03 0.  1.
        -12    1    4    4    0    0 -0.18887148768E+02 -0.10756058716E+02 -0.79403933494E+01  0.23140160635E+02  0.00000000000E+00 0.  1.
</event>
<event>
 8    1  0.3007389E-007  0.9118800E+02  0.7816164E-02  0.1184000E+00
        -11   -1    0    0    0    0  0.00000000000E+00  0.00000000000E+00  0.45593999997E+02  0.45594000000E+02  0.51100000000E-03 0. -1.
         11   -1    0    0    0    0 -0.00000000000E+00 -0.00000000000E+00 -0.45593999997E+02  0.45594000000E+02  0.51100000000E-03 0.  1.
         23    2    1    2    0    0  0.00000000000E+00 -0.35527136788E-14 -0.35527136788E-14  0.91188000000E+02  0.91188000000E+02 0.  0.
    9900012    2    3    3    0    0 -0.23188387288E+02  0.20970869448E+02  0.19449953969E+02  0.54367090454E+02  0.40000014308E+02 0.  0.
        -12    1    3    3    0    0  0.23188387288E+02 -0.20970869448E+02 -0.19449953969E+02  0.36820909546E+02  0.00000000000E+00 0.  1.
         11    1    4    4    0    0  0.89101324480E+01  0.91619599385E+01  0.70898258405E+01  0.14614978647E+02  0.51100000000E-03 0. -1.
        -11    1    4    4    0    0 -0.23329916367E+02  0.13320630188E+02  0.33229208741E+01  0.27069650712E+02  0.51100000000E-03 0.  1.
        -12    1    4    4    0    0 -0.87686033690E+01 -0.15117206783E+01  0.90372072543E+01  0.12682461094E+02  0.00000000000E+00 0.  1.
</event>
<event>
 8    1  0.3007389E-007  0.9118800E+02  0.7816164E-02  0.1184000E+00
        -11   -1    0    0    0    0  0.00000000000E+00  0.00000000000E+00  0.45593999997E+02  0.45594000000E+02  0.51100000000E-03 0.  1.
         11   -1    0    0    0    0 -0.00000000000E+00 -0.00000000000E+00 -0.45593999997E+02  0.45594000000E+02  0.51100000000E-03 0. -1.
         23    2    1    2    0    0 -0.35527136788E-14  0.35527136788E-14  0.00000000000E+00  0.91188000000E+02  0.91188000000E+02 0.  0.
    9900012    2    3    3    0    0  0.26506319129E+02  0.14303738211E+02 -0.21180116615E+02  0.54367092619E+02  0.40000019243E+02 0.  0.
        -12    1    3    3    0    0 -0.26506319129E+02 -0.14303738211E+02  0.21180116615E+02  0.36820907381E+02  0.00000000000E+00 0.  1.
         11    1    4    4    0    0  0.30441323550E+02  0.10622046789E+02 -0.10398412514E+02  0.33876673989E+02  0.51100000000E-03 0. -1.
        -11    1    4    4    0    0 -0.10026724999E+01  0.82198892264E+01 -0.12345529046E+02  0.14865531229E+02  0.51100000000E-03 0.  1.
         12    1    4    4    0    0 -0.29323319214E+01 -0.45381978046E+01  0.15638249451E+01  0.56248874006E+01  0.00000000000E+00 0. -1.
</event>
<event>
 8    1  0.3007389E-007  0.9118800E+02  0.7816164E-02  0.1184000E+00
        -11   -1    0    0    0    0  0.00000000000E+00  0.00000000000E+00  0.45593999997E+02  0.45594000000E+02  0.51100000000E-03 0.  1.
         11   -1    0    0    0    0 -0.00000000000E+00 -0.00000000000E+00 -0.45593999997E+02  0.45594000000E+02  0.51100000000E-03 0. -1.
         23    2    1    2    0    0  0.00000000000E+00  0.00000000000E+00 -0.88817841970E-15  0.91188000000E+02  0.91188000000E+02 0.  0.
    9900012    2    3    3    0    0  0.33163948261E+02 -0.13863815307E+02  0.79829132756E+01  0.54367085516E+02  0.40000003050E+02 0.  0.
        -12    1    3    3    0    0 -0.33163948261E+02  0.13863815307E+02 -0.79829132756E+01  0.36820914484E+02  0.00000000000E+00 0.  1.
         11    1    4    4    0    0  0.72321347430E+01 -0.11078602057E+02 -0.10700377128E+02  0.17015794646E+02  0.51100000000E-03 0. -1.
        -11    1    4    4    0    0  0.46998386445E+01  0.43919052559E+01  0.12569996936E+02  0.14120274016E+02  0.51100000000E-03 0.  1.
         12    1    4    4    0    0  0.21231974873E+02 -0.71771185058E+01  0.61132934677E+01  0.23231016854E+02  0.00000000000E+00 0. -1.
</event>
<event>
 8    1  0.3007389E-007  0.9118800E+02  0.7816164E-02  0.1184000E+00
        -11   -1    0    0    0    0  0.00000000000E+00  0.00000000000E+00  0.45593999997E+02  0.45594000000E+02  0.51100000000E-03 0. -1.
         11   -1    0    0    0    0 -0.00000000000E+00 -0.00000000000E+00 -0.45593999997E+02  0.45594000000E+02  0.51100000000E-03 0.  1.
         23    2    1    2    0    0  0.00000000000E+00  0.35527136788E-14 -0.35527136788E-14  0.91188000000E+02  0.91188000000E+02 0.  0.
    9900012    2    3    3    0    0 -0.61217053172E+01 -0.30165782815E+02  0.20207178007E+02  0.54367085130E+02  0.40000002172E+02 0.  0.
         12    1    3    3    0    0  0.61217053172E+01  0.30165782815E+02 -0.20207178007E+02  0.36820914870E+02  0.00000000000E+00 0. -1.
         11    1    4    4    0    0 -0.15161740345E+01 -0.20316144523E+02  0.14021205656E+02  0.24731330743E+02  0.51100000000E-03 0. -1.
        -11    1    4    4    0    0  0.33770348250E+01 -0.85206551774E+01  0.15057575288E+02  0.17627719724E+02  0.51100000000E-03 0.  1.
        -12    1    4    4    0    0 -0.79825661078E+01 -0.13289831142E+01 -0.88716029377E+01  0.12008034663E+02  0.00000000000E+00 0.  1.
</event>
<event>
 8    1  0.3007389E-007  0.9118800E+02  0.7816164E-02  0.1184000E+00
        -11   -1    0    0    0    0  0.00000000000E+00  0.00000000000E+00  0.45593999997E+02  0.45594000000E+02  0.51100000000E-03 0.  1.
         11   -1    0    0    0    0 -0.00000000000E+00 -0.00000000000E+00 -0.45593999997E+02  0.45594000000E+02  0.51100000000E-03 0. -1.
         23    2    1    2    0    0  0.62450045135E-16  0.00000000000E+00  0.35527136788E-14  0.91188000000E+02  0.91188000000E+02 0.  0.
    9900012    2    3    3    0    0  0.37428354332E-01  0.20100629461E+02 -0.30850347687E+02  0.54367073097E+02  0.39999974738E+02 0.  0.
        -12    1    3    3    0    0 -0.37428354332E-01 -0.20100629461E+02  0.30850347687E+02  0.36820926903E+02  0.00000000000E+00 0.  1.
         11    1    4    4    0    0  0.27434898965E+01  0.12677189820E+02 -0.13902043571E+02  0.19013276789E+02  0.51100000000E-03 0. -1.
        -11    1    4    4    0    0  0.13125853135E+02  0.71131271347E-01 -0.43557066933E+01  0.13829868446E+02  0.51100000000E-03 0.  1.
        -12    1    4    4    0    0 -0.15831914677E+02  0.73523083698E+01 -0.12592597423E+02  0.21523927861E+02  0.00000000000E+00 0.  1.
</event>
<event>
 8    1  0.3007389E-007  0.9118800E+02  0.7816164E-02  0.1184000E+00
        -11   -1    0    0    0    0  0.00000000000E+00  0.00000000000E+00  0.45593999997E+02  0.45594000000E+02  0.51100000000E-03 0.  1.
         11   -1    0    0    0    0 -0.00000000000E+00 -0.00000000000E+00 -0.45593999997E+02  0.45594000000E+02  0.51100000000E-03 0. -1.
         23    2    1    2    0    0  0.47878367937E-15  0.17763568394E-14  0.00000000000E+00  0.91188000000E+02  0.91188000000E+02 0.  0.
    9900012    2    3    3    0    0 -0.41708790849E-01  0.92828737987E+01  0.35631535068E+02  0.54367085062E+02  0.40000002016E+02 0.  0.
         12    1    3    3    0    0  0.41708790849E-01 -0.92828737987E+01 -0.35631535068E+02  0.36820914938E+02  0.00000000000E+00 0. -1.
         11    1    4    4    0    0 -0.50740330869E+00  0.81750719479E+01  0.10814512342E+01  0.82618881924E+01  0.51100000000E-03 0.  1.
        -11    1    4    4    0    0  0.13366627786E+02  0.59057751571E+00  0.57877359678E+01  0.14577839623E+02  0.51100000000E-03 0. -1.
        -12    1    4    4    0    0 -0.12900933269E+02  0.51722433505E+00  0.28762347866E+02  0.31527357247E+02  0.00000000000E+00 0.  1.
</event>
<event>
 8    1  0.3007389E-007  0.9118800E+02  0.7816164E-02  0.1184000E+00
        -11   -1    0    0    0    0  0.00000000000E+00  0.00000000000E+00  0.45593999997E+02  0.45594000000E+02  0.51100000000E-03 0.  1.
         11   -1    0    0    0    0 -0.00000000000E+00 -0.00000000000E+00 -0.45593999997E+02  0.45594000000E+02  0.51100000000E-03 0. -1.
         23    2    1    2    0    0  0.00000000000E+00 -0.35527136788E-14  0.35527136788E-14  0.91188000000E+02  0.91188000000E+02 0.  0.
    9900012    2    3    3    0    0  0.39248666728E+01  0.26927425406E+02  0.24804985488E+02  0.54367107527E+02  0.40000053230E+02 0.  0.
        -12    1    3    3    0    0 -0.39248666728E+01 -0.26927425406E+02 -0.24804985488E+02  0.36820892473E+02  0.00000000000E+00 0.  1.
         11    1    4    4    0    0 -0.77860438818E+01  0.24176848455E+02  0.26247397009E+02  0.36524900145E+02  0.51100000000E-03 0. -1.
        -11    1    4    4    0    0  0.13006214952E+02  0.55893989207E+00 -0.45812092777E+01  0.13800779684E+02  0.51100000000E-03 0.  1.
        -12    1    4    4    0    0 -0.12953043978E+01  0.21916370590E+01  0.31387977567E+01  0.40414276981E+01  0.00000000000E+00 0.  1.
</event>
<event>
 8    1  0.3007389E-007  0.9118800E+02  0.7816164E-02  0.1184000E+00
        -11   -1    0    0    0    0  0.00000000000E+00  0.00000000000E+00  0.45593999997E+02  0.45594000000E+02  0.51100000000E-03 0.  1.
         11   -1    0    0    0    0 -0.00000000000E+00 -0.00000000000E+00 -0.45593999997E+02  0.45594000000E+02  0.51100000000E-03 0. -1.
         23    2    1    2    0    0  0.00000000000E+00  0.00000000000E+00  0.22204460493E-15  0.91188000000E+02  0.91188000000E+02 0.  0.
    9900012    2    3    3    0    0  0.30335056145E+02  0.20834670034E+02  0.12168932920E+01  0.54367082901E+02  0.39999997090E+02 0.  0.
         12    1    3    3    0    0 -0.30335056145E+02 -0.20834670034E+02 -0.12168932920E+01  0.36820917099E+02  0.00000000000E+00 0. -1.
         11    1    4    4    0    0  0.51166648939E+01 -0.54192577037E+01  0.35780256901E+01  0.82674592104E+01  0.51100000000E-03 0. -1.
        -11    1    4    4    0    0  0.15030638302E+02 -0.20754896740E+01 -0.47500834058E+01  0.15899403692E+02  0.51100000000E-03 0.  1.
        -12    1    4    4    0    0  0.10187752949E+02  0.28329417412E+02  0.23889510077E+01  0.30200219998E+02  0.00000000000E+00 0.  1.
</event>
<event>
 8    1  0.3007389E-007  0.9118800E+02  0.7816164E-02  0.1184000E+00
        -11   -1    0    0    0    0  0.00000000000E+00  0.00000000000E+00  0.45593999997E+02  0.45594000000E+02  0.51100000000E-03 0.  1.
         11   -1    0    0    0    0 -0.00000000000E+00 -0.00000000000E+00 -0.45593999997E+02  0.45594000000E+02  0.51100000000E-03 0. -1.
         23    2    1    2    0    0  0.00000000000E+00  0.88817841970E-15 -0.35527136788E-14  0.91188000000E+02  0.91188000000E+02 0.  0.
    9900012    2    3    3    0    0  0.23331854759E+02  0.43125374632E+01 -0.28156805076E+02  0.54367094281E+02  0.40000023032E+02 0.  0.
        -12    1    3    3    0    0 -0.23331854759E+02 -0.43125374632E+01  0.28156805076E+02  0.36820905719E+02  0.00000000000E+00 0.  1.
         11    1    4    4    0    0  0.19417734030E+02  0.15393309636E+02 -0.14145569848E+02  0.28532429321E+02  0.51100000000E-03 0.  1.
        -11    1    4    4    0    0 -0.21509361724E+01  0.69261865858E+00 -0.12270667112E+02  0.12476999585E+02  0.51100000000E-03 0. -1.
        -12    1    4    4    0    0  0.60650569021E+01 -0.11773390831E+02 -0.17405681169E+01  0.13357665374E+02  0.00000000000E+00 0.  1.
</event>
<event>
 8    1  0.3007389E-007  0.9118800E+02  0.7816164E-02  0.1184000E+00
        -11   -1    0    0    0    0  0.00000000000E+00  0.00000000000E+00  0.45593999997E+02  0.45594000000E+02  0.51100000000E-03 0. -1.
         11   -1    0    0    0    0 -0.00000000000E+00 -0.00000000000E+00 -0.45593999997E+02  0.45594000000E+02  0.51100000000E-03 0.  1.
         23    2    1    2    0    0  0.35527136788E-14  0.00000000000E+00  0.35527136788E-14  0.91188000000E+02  0.91188000000E+02 0.  0.
    9900012    2    3    3    0    0 -0.19191033151E+02  0.11603948580E+02 -0.29203292529E+02  0.54367086505E+02  0.40000005306E+02 0.  0.
         12    1    3    3    0    0  0.19191033151E+02 -0.11603948580E+02  0.29203292529E+02  0.36820913495E+02  0.00000000000E+00 0. -1.
         11    1    4    4    0    0 -0.12919511407E+02  0.11101007309E+02 -0.16399797626E+02  0.23645284957E+02  0.51100000000E-03 0. -1.
        -11    1    4    4    0    0  0.23168840409E+01  0.12024783102E+02 -0.13012992974E+01  0.12314899124E+02  0.51100000000E-03 0.  1.
        -12    1    4    4    0    0 -0.85884057852E+01 -0.11521841831E+02 -0.11502195605E+02  0.18406902424E+02  0.00000000000E+00 0.  1.
</event>
<event>
 8    1  0.3007389E-007  0.9118800E+02  0.7816164E-02  0.1184000E+00
        -11   -1    0    0    0    0  0.00000000000E+00  0.00000000000E+00  0.45593999997E+02  0.45594000000E+02  0.51100000000E-03 0.  1.
         11   -1    0    0    0    0 -0.00000000000E+00 -0.00000000000E+00 -0.45593999997E+02  0.45594000000E+02  0.51100000000E-03 0. -1.
         23    2    1    2    0    0  0.00000000000E+00  0.00000000000E+00  0.00000000000E+00  0.91188000000E+02  0.91188000000E+02 0.  0.
    9900012    2    3    3    0    0 -0.32667888518E+02 -0.15751589761E+02 -0.63621572911E+01  0.54367074351E+02  0.39999977598E+02 0.  0.
        -12    1    3    3    0    0  0.32667888518E+02  0.15751589761E+02  0.63621572911E+01  0.36820925649E+02  0.00000000000E+00 0.  1.
         11    1    4    4    0    0 -0.13918660617E+02 -0.73619044961E+01 -0.78829223396E+01  0.17608725566E+02  0.51100000000E-03 0. -1.
        -11    1    4    4    0    0 -0.13938120455E+02 -0.19412444577E+02  0.46154532579E+01  0.24339610008E+02  0.51100000000E-03 0.  1.
        -12    1    4    4    0    0 -0.48111074462E+01  0.11022759312E+02 -0.30946882093E+01  0.12418738777E+02  0.00000000000E+00 0.  1.
</event>
<event>
 8    1  0.3007389E-007  0.9118800E+02  0.7816164E-02  0.1184000E+00
        -11   -1    0    0    0    0  0.00000000000E+00  0.00000000000E+00  0.45593999997E+02  0.45594000000E+02  0.51100000000E-03 0.  1.
         11   -1    0    0    0    0 -0.00000000000E+00 -0.00000000000E+00 -0.45593999997E+02  0.45594000000E+02  0.51100000000E-03 0. -1.
         23    2    1    2    0    0  0.00000000000E+00  0.00000000000E+00 -0.35527136788E-14  0.91188000000E+02  0.91188000000E+02 0.  0.
    9900012    2    3    3    0    0 -0.17025710237E+02  0.18985221710E+02 -0.26560611234E+02  0.54367088529E+02  0.40000009919E+02 0.  0.
        -12    1    3    3    0    0  0.17025710237E+02 -0.18985221710E+02  0.26560611234E+02  0.36820911471E+02  0.00000000000E+00 0.  1.
         11    1    4    4    0    0  0.40259085581E+00  0.10584369115E+02 -0.30309045024E+02  0.32106528301E+02  0.51100000000E-03 0. -1.
        -11    1    4    4    0    0 -0.10261689319E+01 -0.10757161939E+01  0.29468928473E+01  0.33006614067E+01  0.51100000000E-03 0.  1.
        -12    1    4    4    0    0 -0.16402132161E+02  0.94765687886E+01  0.80154094314E+00  0.18959898821E+02  0.00000000000E+00 0.  1.
</event>
<event>
 8    1  0.3007389E-007  0.9118800E+02  0.7816164E-02  0.1184000E+00
        -11   -1    0    0    0    0  0.00000000000E+00  0.00000000000E+00  0.45593999997E+02  0.45594000000E+02  0.51100000000E-03 0.  1.
         11   -1    0    0    0    0 -0.00000000000E+00 -0.00000000000E+00 -0.45593999997E+02  0.45594000000E+02  0.51100000000E-03 0. -1.
         23    2    1    2    0    0  0.17763568394E-14 -0.71054273576E-14 -0.17763568394E-14  0.91188000000E+02  0.91188000000E+02 0.  0.
    9900012    2    3    3    0    0  0.88765817444E+01 -0.35491465325E+02 -0.41644524391E+01  0.54367075534E+02  0.39999980296E+02 0.  0.
        -12    1    3    3    0    0 -0.88765817444E+01  0.35491465325E+02  0.41644524391E+01  0.36820924466E+02  0.00000000000E+00 0.  1.
         11    1    4    4    0    0  0.14788104595E+01  0.80144683956E+01 -0.37682694038E+01  0.89787771217E+01  0.51100000000E-03 0.  1.
        -11    1    4    4    0    0  0.79922126392E+01 -0.36404691832E+02 -0.38488148253E+01  0.37469860236E+02  0.51100000000E-03 0. -1.
        -12    1    4    4    0    0 -0.59444135424E+00 -0.71012418885E+01  0.34526317900E+01  0.79184381768E+01  0.00000000000E+00 0.  1.
</event>
<event>
 8    1  0.3007389E-007  0.9118800E+02  0.7816164E-02  0.1184000E+00
        -11   -1    0    0    0    0  0.00000000000E+00  0.00000000000E+00  0.45593999997E+02  0.45594000000E+02  0.51100000000E-03 0.  1.
         11   -1    0    0    0    0 -0.00000000000E+00 -0.00000000000E+00 -0.45593999997E+02  0.45594000000E+02  0.51100000000E-03 0. -1.
         23    2    1    2    0    0 -0.55511151231E-15  0.00000000000E+00  0.35527136788E-14  0.91188000000E+02  0.91188000000E+02 0.  0.
    9900012    2    3    3    0    0 -0.84977327142E+00 -0.26777140300E+02  0.25259512220E+02  0.54367077757E+02  0.39999985363E+02 0.  0.
         12    1    3    3    0    0  0.84977327142E+00  0.26777140300E+02 -0.25259512220E+02  0.36820922243E+02  0.00000000000E+00 0. -1.
         11    1    4    4    0    0  0.39104455480E-01  0.24856403322E+01  0.14310128338E+01  0.28684028676E+01  0.51100000000E-03 0. -1.
        -11    1    4    4    0    0 -0.75508254738E+01 -0.68400289822E+01  0.26079679344E+02  0.27999118499E+02  0.51100000000E-03 0.  1.
         12    1    4    4    0    0  0.66619477469E+01 -0.22422751650E+02 -0.22511799576E+01  0.23499556390E+02  0.00000000000E+00 0. -1.
</event>
<event>
 8    1  0.3007389E-007  0.9118800E+02  0.7816164E-02  0.1184000E+00
        -11   -1    0    0    0    0  0.00000000000E+00  0.00000000000E+00  0.45593999997E+02  0.45594000000E+02  0.51100000000E-03 0. -1.
         11   -1    0    0    0    0 -0.00000000000E+00 -0.00000000000E+00 -0.45593999997E+02  0.45594000000E+02  0.51100000000E-03 0.  1.
         23    2    1    2    0    0 -0.17763568394E-14  0.17763568394E-14  0.00000000000E+00  0.91188000000E+02  0.91188000000E+02 0.  0.
    9900012    2    3    3    0    0  0.11936888720E+02 -0.12415162631E+02  0.32544664327E+02  0.54367071826E+02  0.39999971841E+02 0.  0.
        -12    1    3    3    0    0 -0.11936888720E+02  0.12415162631E+02 -0.32544664327E+02  0.36820928174E+02  0.00000000000E+00 0.  1.
         11    1    4    4    0    0 -0.73091090521E+01 -0.52863812752E+01  0.76548767750E+01  0.11830724442E+02  0.51100000000E-03 0. -1.
        -11    1    4    4    0    0  0.15394695488E+02 -0.93097001002E+01  0.30487720430E+02  0.35400116701E+02  0.51100000000E-03 0.  1.
        -12    1    4    4    0    0  0.38513022838E+01  0.21809187444E+01 -0.55979328780E+01  0.71362306828E+01  0.00000000000E+00 0.  1.
</event>
<event>
 8    1  0.3007389E-007  0.9118800E+02  0.7816164E-02  0.1184000E+00
        -11   -1    0    0    0    0  0.00000000000E+00  0.00000000000E+00  0.45593999997E+02  0.45594000000E+02  0.51100000000E-03 0.  1.
         11   -1    0    0    0    0 -0.00000000000E+00 -0.00000000000E+00 -0.45593999997E+02  0.45594000000E+02  0.51100000000E-03 0. -1.
         23    2    1    2    0    0 -0.71054273576E-14  0.00000000000E+00 -0.44408920985E-15  0.91188000000E+02  0.91188000000E+02 0.  0.
    9900012    2    3    3    0    0  0.36567181329E+02  0.41363683960E+01  0.12294023381E+01  0.54367085781E+02  0.40000003654E+02 0.  0.
        -12    1    3    3    0    0 -0.36567181329E+02 -0.41363683960E+01 -0.12294023381E+01  0.36820914219E+02  0.00000000000E+00 0.  1.
         11    1    4    4    0    0  0.27578306622E+01  0.42672014408E+01 -0.15598514850E+02  0.16405130413E+02  0.51100000000E-03 0. -1.
        -11    1    4    4    0    0  0.42846820841E+01  0.12739326791E+01  0.22611704155E+01  0.50094208190E+01  0.51100000000E-03 0.  1.
        -12    1    4    4    0    0  0.29524668582E+02 -0.14047657239E+01  0.14566746772E+02  0.32952534549E+02  0.00000000000E+00 0.  1.
</event>
<event>
 8    1  0.3007389E-007  0.9118800E+02  0.7816164E-02  0.1184000E+00
        -11   -1    0    0    0    0  0.00000000000E+00  0.00000000000E+00  0.45593999997E+02  0.45594000000E+02  0.51100000000E-03 0.  1.
         11   -1    0    0    0    0 -0.00000000000E+00 -0.00000000000E+00 -0.45593999997E+02  0.45594000000E+02  0.51100000000E-03 0. -1.
         23    2    1    2    0    0  0.00000000000E+00 -0.35527136788E-14 -0.35527136788E-14  0.91188000000E+02  0.91188000000E+02 0.  0.
    9900012    2    3    3    0    0 -0.12993400097E+02 -0.28561588643E+02 -0.19266243509E+02  0.54367069392E+02  0.39999966292E+02 0.  0.
        -12    1    3    3    0    0  0.12993400097E+02  0.28561588643E+02  0.19266243509E+02  0.36820930608E+02  0.00000000000E+00 0.  1.
         11    1    4    4    0    0 -0.65580216780E+01 -0.95513905443E+01 -0.93404215579E+01  0.14882210347E+02  0.51100000000E-03 0. -1.
        -11    1    4    4    0    0 -0.17571516236E+02 -0.18995921686E+02 -0.22806653492E+01  0.25977002488E+02  0.51100000000E-03 0.  1.
        -12    1    4    4    0    0  0.11136137817E+02 -0.14276412718E-01 -0.76451566022E+01  0.13507856557E+02  0.00000000000E+00 0.  1.
</event>
<event>
 8    1  0.3007389E-007  0.9118800E+02  0.7816164E-02  0.1184000E+00
        -11   -1    0    0    0    0  0.00000000000E+00  0.00000000000E+00  0.45593999997E+02  0.45594000000E+02  0.51100000000E-03 0. -1.
         11   -1    0    0    0    0 -0.00000000000E+00 -0.00000000000E+00 -0.45593999997E+02  0.45594000000E+02  0.51100000000E-03 0.  1.
         23    2    1    2    0    0  0.88817841970E-15  0.00000000000E+00 -0.35527136788E-14  0.91188000000E+02  0.91188000000E+02 0.  0.
    9900012    2    3    3    0    0  0.72151528042E+01  0.22897939899E+02  0.27917806846E+02  0.54367108910E+02  0.40000056382E+02 0.  0.
        -12    1    3    3    0    0 -0.72151528042E+01 -0.22897939899E+02 -0.27917806846E+02  0.36820891090E+02  0.00000000000E+00 0.  1.
         11    1    4    4    0    0  0.15128799917E+02  0.66421676408E+01  0.25952302594E+01  0.16725256299E+02  0.51100000000E-03 0. -1.
        -11    1    4    4    0    0 -0.30168997421E+01 -0.21318295005E+01  0.16058805944E+02  0.16478216824E+02  0.51100000000E-03 0.  1.
        -12    1    4    4    0    0 -0.48967473706E+01  0.18387601758E+02  0.92637706423E+01  0.21163635788E+02  0.00000000000E+00 0.  1.
</event>
<event>
 8    1  0.3007389E-007  0.9118800E+02  0.7816164E-02  0.1184000E+00
        -11   -1    0    0    0    0  0.00000000000E+00  0.00000000000E+00  0.45593999997E+02  0.45594000000E+02  0.51100000000E-03 0.  1.
         11   -1    0    0    0    0 -0.00000000000E+00 -0.00000000000E+00 -0.45593999997E+02  0.45594000000E+02  0.51100000000E-03 0. -1.
         23    2    1    2    0    0 -0.17763568394E-14  0.35527136788E-14 -0.35527136788E-14  0.91188000000E+02  0.91188000000E+02 0.  0.
    9900012    2    3    3    0    0 -0.11766086873E+02 -0.30435444725E+02 -0.17059348734E+02  0.54367102738E+02  0.40000042312E+02 0.  0.
        -12    1    3    3    0    0  0.11766086873E+02  0.30435444725E+02  0.17059348734E+02  0.36820897262E+02  0.00000000000E+00 0.  1.
         11    1    4    4    0    0  0.46688661212E+01  0.47006599342E+00  0.73409048248E+01  0.87125287261E+01  0.51100000000E-03 0.  1.
        -11    1    4    4    0    0 -0.19557633382E+02 -0.28822969305E+02 -0.22155894770E+02  0.41281330603E+02  0.51100000000E-03 0. -1.
         12    1    4    4    0    0  0.31226803874E+01 -0.20825414141E+01 -0.22443587883E+01  0.43732434090E+01  0.00000000000E+00 0. -1.
</event>
<event>
 8    1  0.3007389E-007  0.9118800E+02  0.7816164E-02  0.1184000E+00
        -11   -1    0    0    0    0  0.00000000000E+00  0.00000000000E+00  0.45593999997E+02  0.45594000000E+02  0.51100000000E-03 0. -1.
         11   -1    0    0    0    0 -0.00000000000E+00 -0.00000000000E+00 -0.45593999997E+02  0.45594000000E+02  0.51100000000E-03 0.  1.
         23    2    1    2    0    0 -0.15265566589E-14  0.00000000000E+00  0.00000000000E+00  0.91188000000E+02  0.91188000000E+02 0.  0.
    9900012    2    3    3    0    0  0.18591397634E+00  0.15448665229E+02  0.33422805142E+02  0.54367085767E+02  0.40000003623E+02 0.  0.
        -12    1    3    3    0    0 -0.18591397634E+00 -0.15448665229E+02 -0.33422805142E+02  0.36820914233E+02  0.00000000000E+00 0.  1.
         11    1    4    4    0    0  0.40423944876E+01  0.34188578276E+01  0.48095038902E+01  0.71526827114E+01  0.51100000000E-03 0. -1.
        -11    1    4    4    0    0  0.89656968231E+01 -0.56150422994E+00 -0.41118842989E+01  0.98796052185E+01  0.51100000000E-03 0.  1.
        -12    1    4    4    0    0 -0.12822177334E+02  0.12591311631E+02  0.32725185551E+02  0.37334797837E+02  0.00000000000E+00 0.  1.
</event>
<event>
 8    1  0.3007389E-007  0.9118800E+02  0.7816164E-02  0.1184000E+00
        -11   -1    0    0    0    0  0.00000000000E+00  0.00000000000E+00  0.45593999997E+02  0.45594000000E+02  0.51100000000E-03 0.  1.
         11   -1    0    0    0    0 -0.00000000000E+00 -0.00000000000E+00 -0.45593999997E+02  0.45594000000E+02  0.51100000000E-03 0. -1.
         23    2    1    2    0    0  0.35527136788E-14  0.00000000000E+00  0.35527136788E-14  0.91188000000E+02  0.91188000000E+02 0.  0.
    9900012    2    3    3    0    0 -0.19105232839E+02 -0.11208404927E+02 -0.29413326749E+02  0.54367054150E+02  0.39999931546E+02 0.  0.
        -12    1    3    3    0    0  0.19105232839E+02  0.11208404927E+02  0.29413326749E+02  0.36820945850E+02  0.00000000000E+00 0.  1.
         11    1    4    4    0    0 -0.19231272955E+02 -0.80972924665E+01 -0.14770601973E+02  0.25565185070E+02  0.51100000000E-03 0. -1.
        -11    1    4    4    0    0  0.96577932035E+01  0.61087199178E+01 -0.81531249095E+01  0.14037908485E+02  0.51100000000E-03 0.  1.
        -12    1    4    4    0    0 -0.95317530878E+01 -0.92198323787E+01 -0.64895998659E+01  0.14763960595E+02  0.00000000000E+00 0.  1.
</event>
<event>
 8    1  0.3007389E-007  0.9118800E+02  0.7816164E-02  0.1184000E+00
        -11   -1    0    0    0    0  0.00000000000E+00  0.00000000000E+00  0.45593999997E+02  0.45594000000E+02  0.51100000000E-03 0.  1.
         11   -1    0    0    0    0 -0.00000000000E+00 -0.00000000000E+00 -0.45593999997E+02  0.45594000000E+02  0.51100000000E-03 0. -1.
         23    2    1    2    0    0 -0.88817841970E-15  0.17763568394E-14  0.00000000000E+00  0.91188000000E+02  0.91188000000E+02 0.  0.
    9900012    2    3    3    0    0 -0.75911596148E+01  0.13826495538E+02  0.33271328262E+02  0.54367096053E+02  0.40000027072E+02 0.  0.
         12    1    3    3    0    0  0.75911596148E+01 -0.13826495538E+02 -0.33271328262E+02  0.36820903947E+02  0.00000000000E+00 0. -1.
         11    1    4    4    0    0 -0.52853398983E+00  0.13632445279E+02  0.20283508698E+01  0.13792647315E+02  0.51100000000E-03 0. -1.
        -11    1    4    4    0    0  0.52530458431E+01 -0.33844525057E+01 -0.56877713854E+00  0.62747523527E+01  0.51100000000E-03 0.  1.
        -12    1    4    4    0    0 -0.12315671468E+02  0.35785027652E+01  0.31811754531E+02  0.34299696385E+02  0.00000000000E+00 0.  1.
</event>
<event>
 8    1  0.3007389E-007  0.9118800E+02  0.7816164E-02  0.1184000E+00
        -11   -1    0    0    0    0  0.00000000000E+00  0.00000000000E+00  0.45593999997E+02  0.45594000000E+02  0.51100000000E-03 0.  1.
         11   -1    0    0    0    0 -0.00000000000E+00 -0.00000000000E+00 -0.45593999997E+02  0.45594000000E+02  0.51100000000E-03 0. -1.
         23    2    1    2    0    0  0.44408920985E-15  0.00000000000E+00  0.00000000000E+00  0.91188000000E+02  0.91188000000E+02 0.  0.
    9900012    2    3    3    0    0 -0.34079372847E+01  0.21386950381E+02 -0.29778585160E+02  0.54367084513E+02  0.40000000764E+02 0.  0.
        -12    1    3    3    0    0  0.34079372847E+01 -0.21386950381E+02  0.29778585160E+02  0.36820915487E+02  0.00000000000E+00 0.  1.
         11    1    4    4    0    0  0.13250148536E+01 -0.63924186429E+01 -0.15596610169E+02  0.16907777190E+02  0.51100000000E-03 0. -1.
        -11    1    4    4    0    0 -0.14587614975E+01  0.17175857559E+02 -0.18739972045E+02  0.25462219473E+02  0.51100000000E-03 0.  1.
        -12    1    4    4    0    0 -0.32741906407E+01  0.10603511465E+02  0.45579970536E+01  0.11997087850E+02  0.00000000000E+00 0.  1.
</event>
<event>
 8    1  0.3007389E-007  0.9118800E+02  0.7816164E-02  0.1184000E+00
        -11   -1    0    0    0    0  0.00000000000E+00  0.00000000000E+00  0.45593999997E+02  0.45594000000E+02  0.51100000000E-03 0. -1.
         11   -1    0    0    0    0 -0.00000000000E+00 -0.00000000000E+00 -0.45593999997E+02  0.45594000000E+02  0.51100000000E-03 0.  1.
         23    2    1    2    0    0  0.00000000000E+00  0.00000000000E+00 -0.71054273576E-14  0.91188000000E+02  0.91188000000E+02 0.  0.
    9900012    2    3    3    0    0 -0.25811907671E+02 -0.50080103250E+01 -0.25776832258E+02  0.54367084391E+02  0.40000000486E+02 0.  0.
         12    1    3    3    0    0  0.25811907671E+02  0.50080103250E+01  0.25776832258E+02  0.36820915609E+02  0.00000000000E+00 0. -1.
         11    1    4    4    0    0 -0.27980529963E+02 -0.75410997682E+01 -0.15561001900E+02  0.32892598303E+02  0.51100000000E-03 0. -1.
        -11    1    4    4    0    0 -0.22373027880E+00  0.94406571366E+01 -0.10547074923E+02  0.14156865899E+02  0.51100000000E-03 0.  1.
         12    1    4    4    0    0  0.23923525712E+01 -0.69075676934E+01  0.33124456459E+00  0.73176201886E+01  0.00000000000E+00 0. -1.
</event>
<event>
 8    1  0.3007389E-007  0.9118800E+02  0.7816164E-02  0.1184000E+00
        -11   -1    0    0    0    0  0.00000000000E+00  0.00000000000E+00  0.45593999997E+02  0.45594000000E+02  0.51100000000E-03 0.  1.
         11   -1    0    0    0    0 -0.00000000000E+00 -0.00000000000E+00 -0.45593999997E+02  0.45594000000E+02  0.51100000000E-03 0. -1.
         23    2    1    2    0    0 -0.88817841970E-15 -0.88817841970E-15  0.00000000000E+00  0.91188000000E+02  0.91188000000E+02 0.  0.
    9900012    2    3    3    0    0 -0.56474011542E+01 -0.73211788753E+01 -0.35641082436E+02  0.54367088046E+02  0.40000008819E+02 0.  0.
        -12    1    3    3    0    0  0.56474011542E+01  0.73211788753E+01  0.35641082436E+02  0.36820911954E+02  0.00000000000E+00 0.  1.
         11    1    4    4    0    0 -0.47430720173E+00 -0.78040791893E+01 -0.61475168997E+01  0.99458827466E+01  0.51100000000E-03 0. -1.
        -11    1    4    4    0    0  0.45770233106E+01 -0.49531908968E+00 -0.33514517826E+02  0.33829238666E+02  0.51100000000E-03 0.  1.
         12    1    4    4    0    0 -0.97501172631E+01  0.97821940363E+00  0.40209522898E+01  0.10591966633E+02  0.00000000000E+00 0. -1.
</event>
<event>
 8    1  0.3007389E-007  0.9118800E+02  0.7816164E-02  0.1184000E+00
        -11   -1    0    0    0    0  0.00000000000E+00  0.00000000000E+00  0.45593999997E+02  0.45594000000E+02  0.51100000000E-03 0.  1.
         11   -1    0    0    0    0 -0.00000000000E+00 -0.00000000000E+00 -0.45593999997E+02  0.45594000000E+02  0.51100000000E-03 0. -1.
         23    2    1    2    0    0 -0.35527136788E-14  0.00000000000E+00  0.00000000000E+00  0.91188000000E+02  0.91188000000E+02 0.  0.
    9900012    2    3    3    0    0  0.24065789443E+02  0.19515725412E+02 -0.19893601777E+02  0.54367066395E+02  0.39999959462E+02 0.  0.
        -12    1    3    3    0    0 -0.24065789443E+02 -0.19515725412E+02  0.19893601777E+02  0.36820933605E+02  0.00000000000E+00 0.  1.
         11    1    4    4    0    0  0.17041782156E+00  0.90840557239E+01 -0.14588476355E+02  0.17186411878E+02  0.51100000000E-03 0. -1.
        -11    1    4    4    0    0 -0.20359317351E+01 -0.35526336679E+01 -0.65140989014E+01  0.76941346990E+01  0.51100000000E-03 0.  1.
         12    1    4    4    0    0  0.25931303356E+02  0.13984303356E+02  0.12089734795E+01  0.29486519818E+02  0.00000000000E+00 0. -1.
</event>
<event>
 8    1  0.3007389E-007  0.9118800E+02  0.7816164E-02  0.1184000E+00
        -11   -1    0    0    0    0  0.00000000000E+00  0.00000000000E+00  0.45593999997E+02  0.45594000000E+02  0.51100000000E-03 0. -1.
         11   -1    0    0    0    0 -0.00000000000E+00 -0.00000000000E+00 -0.45593999997E+02  0.45594000000E+02  0.51100000000E-03 0.  1.
         23    2    1    2    0    0  0.00000000000E+00  0.00000000000E+00  0.35527136788E-14  0.91188000000E+02  0.91188000000E+02 0.  0.
    9900012    2    3    3    0    0  0.20582632584E+02 -0.16857078107E+02  0.25455396917E+02  0.54367040227E+02  0.39999899805E+02 0.  0.
        -12    1    3    3    0    0 -0.20582632584E+02  0.16857078107E+02 -0.25455396917E+02  0.36820959773E+02  0.00000000000E+00 0.  1.
         11    1    4    4    0    0  0.17199728078E+02 -0.38402444585E+00  0.23050560969E+02  0.28762935907E+02  0.51100000000E-03 0. -1.
        -11    1    4    4    0    0  0.12878582988E+01  0.25872539626E+01 -0.43940930610E+01  0.52593265875E+01  0.51100000000E-03 0.  1.
        -12    1    4    4    0    0  0.20950462074E+01 -0.19060307624E+02  0.67989290087E+01  0.20344777733E+02  0.00000000000E+00 0.  1.
</event>
<event>
 8    1  0.3007389E-007  0.9118800E+02  0.7816164E-02  0.1184000E+00
        -11   -1    0    0    0    0  0.00000000000E+00  0.00000000000E+00  0.45593999997E+02  0.45594000000E+02  0.51100000000E-03 0.  1.
         11   -1    0    0    0    0 -0.00000000000E+00 -0.00000000000E+00 -0.45593999997E+02  0.45594000000E+02  0.51100000000E-03 0. -1.
         23    2    1    2    0    0  0.00000000000E+00  0.35527136788E-14 -0.35527136788E-14  0.91188000000E+02  0.91188000000E+02 0.  0.
    9900012    2    3    3    0    0 -0.65013785668E+01 -0.25537787668E+02  0.25716363131E+02  0.54367111161E+02  0.40000061513E+02 0.  0.
         12    1    3    3    0    0  0.65013785668E+01  0.25537787668E+02 -0.25716363131E+02  0.36820888839E+02  0.00000000000E+00 0. -1.
         11    1    4    4    0    0  0.14001177768E+01 -0.13598581378E+02  0.56093307976E+01  0.14776546875E+02  0.51100000000E-03 0.  1.
        -11    1    4    4    0    0 -0.50826414484E+01 -0.53419263842E+01 -0.78250914942E+01  0.10751812812E+02  0.51100000000E-03 0. -1.
        -12    1    4    4    0    0 -0.28188548952E+01 -0.65972799059E+01  0.27932123828E+02  0.28838751474E+02  0.00000000000E+00 0.  1.
</event>
<event>
 8    1  0.3007389E-007  0.9118800E+02  0.7816164E-02  0.1184000E+00
        -11   -1    0    0    0    0  0.00000000000E+00  0.00000000000E+00  0.45593999997E+02  0.45594000000E+02  0.51100000000E-03 0. -1.
         11   -1    0    0    0    0 -0.00000000000E+00 -0.00000000000E+00 -0.45593999997E+02  0.45594000000E+02  0.51100000000E-03 0.  1.
         23    2    1    2    0    0  0.00000000000E+00  0.00000000000E+00  0.35527136788E-14  0.91188000000E+02  0.91188000000E+02 0.  0.
    9900012    2    3    3    0    0  0.16759117077E+02 -0.11848805121E+02  0.30569871237E+02  0.54367092686E+02  0.40000019396E+02 0.  0.
        -12    1    3    3    0    0 -0.16759117077E+02  0.11848805121E+02 -0.30569871237E+02  0.36820907314E+02  0.00000000000E+00 0.  1.
         11    1    4    4    0    0 -0.47930948452E+01  0.62895551041E+01 -0.13751236632E+01  0.80264080978E+01  0.51100000000E-03 0.  1.
        -11    1    4    4    0    0  0.47097539364E+01 -0.25894283017E+01  0.19562897614E+02  0.20287776724E+02  0.51100000000E-03 0. -1.
        -12    1    4    4    0    0  0.16842457986E+02 -0.15548931924E+02  0.12382097286E+02  0.26052907864E+02  0.00000000000E+00 0.  1.
</event>
<event>
 8    1  0.3007389E-007  0.9118800E+02  0.7816164E-02  0.1184000E+00
        -11   -1    0    0    0    0  0.00000000000E+00  0.00000000000E+00  0.45593999997E+02  0.45594000000E+02  0.51100000000E-03 0.  1.
         11   -1    0    0    0    0 -0.00000000000E+00 -0.00000000000E+00 -0.45593999997E+02  0.45594000000E+02  0.51100000000E-03 0. -1.
         23    2    1    2    0    0  0.00000000000E+00 -0.17763568394E-14 -0.17763568394E-14  0.91188000000E+02  0.91188000000E+02 0.  0.
    9900012    2    3    3    0    0 -0.35070548498E+02 -0.29067648226E+01  0.10834544153E+02  0.54367082023E+02  0.39999995087E+02 0.  0.
         12    1    3    3    0    0  0.35070548498E+02  0.29067648226E+01 -0.10834544153E+02  0.36820917977E+02  0.00000000000E+00 0. -1.
         11    1    4    4    0    0 -0.17014027056E+02  0.56541426052E+01  0.19446405343E+02  0.26450125260E+02  0.51100000000E-03 0. -1.
        -11    1    4    4    0    0 -0.14046870585E+02  0.98540152076E+00 -0.10272898571E+02  0.17430376780E+02  0.51100000000E-03 0.  1.
         12    1    4    4    0    0 -0.40096508576E+01 -0.95463089486E+01  0.16610373814E+01  0.10486579982E+02  0.00000000000E+00 0. -1.
</event>
<event>
 8    1  0.3007389E-007  0.9118800E+02  0.7816164E-02  0.1184000E+00
        -11   -1    0    0    0    0  0.00000000000E+00  0.00000000000E+00  0.45593999997E+02  0.45594000000E+02  0.51100000000E-03 0. -1.
         11   -1    0    0    0    0 -0.00000000000E+00 -0.00000000000E+00 -0.45593999997E+02  0.45594000000E+02  0.51100000000E-03 0.  1.
         23    2    1    2    0    0  0.00000000000E+00  0.00000000000E+00  0.00000000000E+00  0.91188000000E+02  0.91188000000E+02 0.  0.
    9900012    2    3    3    0    0 -0.64286955419E+01 -0.21122134390E+02 -0.29467045722E+02  0.54367089214E+02  0.40000011480E+02 0.  0.
         12    1    3    3    0    0  0.64286955419E+01  0.21122134390E+02  0.29467045722E+02  0.36820910786E+02  0.00000000000E+00 0. -1.
         11    1    4    4    0    0  0.48720053076E+01 -0.38882103596E+01 -0.18866175482E+02  0.19869252455E+02  0.51100000000E-03 0. -1.
        -11    1    4    4    0    0 -0.25105262930E+01 -0.22460609422E+02 -0.74508927092E+01  0.23797006541E+02  0.51100000000E-03 0.  1.
         12    1    4    4    0    0 -0.87901745566E+01  0.52266853913E+01 -0.31499775302E+01  0.10700830218E+02  0.00000000000E+00 0. -1.
</event>
<event>
 8    1  0.3007389E-007  0.9118800E+02  0.7816164E-02  0.1184000E+00
        -11   -1    0    0    0    0  0.00000000000E+00  0.00000000000E+00  0.45593999997E+02  0.45594000000E+02  0.51100000000E-03 0.  1.
         11   -1    0    0    0    0 -0.00000000000E+00 -0.00000000000E+00 -0.45593999997E+02  0.45594000000E+02  0.51100000000E-03 0. -1.
         23    2    1    2    0    0 -0.11102230246E-15  0.00000000000E+00  0.00000000000E+00  0.91188000000E+02  0.91188000000E+02 0.  0.
    9900012    2    3    3    0    0 -0.33454469672E+00  0.17509058186E+02  0.32389817209E+02  0.54367091571E+02  0.40000016855E+02 0.  0.
         12    1    3    3    0    0  0.33454469672E+00 -0.17509058186E+02 -0.32389817209E+02  0.36820908429E+02  0.00000000000E+00 0. -1.
         11    1    4    4    0    0 -0.77895149035E+01  0.16870345768E+02  0.21416034619E+02  0.28353688434E+02  0.51100000000E-03 0. -1.
        -11    1    4    4    0    0  0.77051479822E+01  0.35020282615E+01 -0.49683970076E+01  0.98141976981E+01  0.51100000000E-03 0.  1.
        -12    1    4    4    0    0 -0.25017777538E+00 -0.28633158438E+01  0.15942179598E+02  0.16199205439E+02  0.00000000000E+00 0.  1.
</event>
<event>
 8    1  0.3007389E-007  0.9118800E+02  0.7816164E-02  0.1184000E+00
        -11   -1    0    0    0    0  0.00000000000E+00  0.00000000000E+00  0.45593999997E+02  0.45594000000E+02  0.51100000000E-03 0. -1.
         11   -1    0    0    0    0 -0.00000000000E+00 -0.00000000000E+00 -0.45593999997E+02  0.45594000000E+02  0.51100000000E-03 0.  1.
         23    2    1    2    0    0  0.00000000000E+00 -0.35527136788E-14 -0.44408920985E-14  0.91188000000E+02  0.91188000000E+02 0.  0.
    9900012    2    3    3    0    0 -0.20565126301E+02  0.30262391271E+02 -0.41283247595E+01  0.54367084605E+02  0.40000000974E+02 0.  0.
        -12    1    3    3    0    0  0.20565126301E+02 -0.30262391271E+02  0.41283247595E+01  0.36820915395E+02  0.00000000000E+00 0.  1.
         11    1    4    4    0    0  0.26117427464E+01  0.63997127969E+01  0.25591432552E+01  0.73706674405E+01  0.51100000000E-03 0.  1.
        -11    1    4    4    0    0 -0.11707316852E+02  0.76545243619E+01 -0.19029571142E+02  0.23617315452E+02  0.51100000000E-03 0. -1.
         12    1    4    4    0    0 -0.11469552195E+02  0.16208154112E+02  0.12342103127E+02  0.23379101712E+02  0.00000000000E+00 0. -1.
</event>
<event>
 8    1  0.3007389E-007  0.9118800E+02  0.7816164E-02  0.1184000E+00
        -11   -1    0    0    0    0  0.00000000000E+00  0.00000000000E+00  0.45593999997E+02  0.45594000000E+02  0.51100000000E-03 0.  1.
         11   -1    0    0    0    0 -0.00000000000E+00 -0.00000000000E+00 -0.45593999997E+02  0.45594000000E+02  0.51100000000E-03 0. -1.
         23    2    1    2    0    0  0.00000000000E+00  0.00000000000E+00 -0.35527136788E-14  0.91188000000E+02  0.91188000000E+02 0.  0.
    9900012    2    3    3    0    0  0.47352220220E+01 -0.23289169446E+02 -0.28124410837E+02  0.54366943170E+02  0.39999678544E+02 0.  0.
        -12    1    3    3    0    0 -0.47352220220E+01  0.23289169446E+02  0.28124410837E+02  0.36821056830E+02  0.00000000000E+00 0.  1.
         11    1    4    4    0    0 -0.11228917528E+02 -0.34854024896E+01 -0.22976908757E+02  0.25810365275E+02  0.51100000000E-03 0.  1.
        -11    1    4    4    0    0  0.13214912288E+02 -0.95554311046E+01 -0.70680101730E+01  0.17773489765E+02  0.51100000000E-03 0. -1.
        -12    1    4    4    0    0  0.27492272625E+01 -0.10248335852E+02  0.19205080923E+01  0.10783088130E+02  0.00000000000E+00 0.  1.
</event>
<event>
 8    1  0.3007389E-007  0.9118800E+02  0.7816164E-02  0.1184000E+00
        -11   -1    0    0    0    0  0.00000000000E+00  0.00000000000E+00  0.45593999997E+02  0.45594000000E+02  0.51100000000E-03 0. -1.
         11   -1    0    0    0    0 -0.00000000000E+00 -0.00000000000E+00 -0.45593999997E+02  0.45594000000E+02  0.51100000000E-03 0.  1.
         23    2    1    2    0    0  0.00000000000E+00 -0.17763568394E-14  0.00000000000E+00  0.91188000000E+02  0.91188000000E+02 0.  0.
    9900012    2    3    3    0    0 -0.42570775973E+01 -0.13405380450E+02  0.34028684842E+02  0.54367104753E+02  0.40000046906E+02 0.  0.
        -12    1    3    3    0    0  0.42570775973E+01  0.13405380450E+02 -0.34028684842E+02  0.36820895247E+02  0.00000000000E+00 0.  1.
         11    1    4    4    0    0  0.84323433881E+01  0.50160175160E+01  0.90634432149E+01  0.13357052441E+02  0.51100000000E-03 0. -1.
        -11    1    4    4    0    0 -0.53558948140E+01 -0.20871948881E+02  0.91589341746E+01  0.23413883377E+02  0.51100000000E-03 0.  1.
         12    1    4    4    0    0 -0.73335261713E+01  0.24505509150E+01  0.15806307453E+02  0.17596168935E+02  0.00000000000E+00 0. -1.
</event>
<event>
 8    1  0.3007389E-007  0.9118800E+02  0.7816164E-02  0.1184000E+00
        -11   -1    0    0    0    0  0.00000000000E+00  0.00000000000E+00  0.45593999997E+02  0.45594000000E+02  0.51100000000E-03 0. -1.
         11   -1    0    0    0    0 -0.00000000000E+00 -0.00000000000E+00 -0.45593999997E+02  0.45594000000E+02  0.51100000000E-03 0.  1.
         23    2    1    2    0    0  0.17763568394E-14  0.17763568394E-14 -0.71054273576E-14  0.91188000000E+02  0.91188000000E+02 0.  0.
    9900012    2    3    3    0    0  0.12326833098E+02  0.97896836941E+01  0.33286501224E+02  0.54367083597E+02  0.39999998675E+02 0.  0.
        -12    1    3    3    0    0 -0.12326833098E+02 -0.97896836941E+01 -0.33286501224E+02  0.36820916403E+02  0.00000000000E+00 0.  1.
         11    1    4    4    0    0  0.10753750903E+02  0.56095536404E+01  0.32530204260E+01  0.12557563166E+02  0.51100000000E-03 0.  1.
        -11    1    4    4    0    0  0.49598602904E+01 -0.33305941728E+01  0.32628927702E+02  0.33171373123E+02  0.51100000000E-03 0. -1.
        -12    1    4    4    0    0 -0.33867780948E+01  0.75107242264E+01 -0.25954469041E+01  0.86381473072E+01  0.00000000000E+00 0.  1.
</event>
<event>
 8    1  0.3007389E-007  0.9118800E+02  0.7816164E-02  0.1184000E+00
        -11   -1    0    0    0    0  0.00000000000E+00  0.00000000000E+00  0.45593999997E+02  0.45594000000E+02  0.51100000000E-03 0. -1.
         11   -1    0    0    0    0 -0.00000000000E+00 -0.00000000000E+00 -0.45593999997E+02  0.45594000000E+02  0.51100000000E-03 0.  1.
         23    2    1    2    0    0  0.35527136788E-14  0.88817841970E-15  0.35527136788E-14  0.91188000000E+02  0.91188000000E+02 0.  0.
    9900012    2    3    3    0    0 -0.21055189320E+02  0.62884383637E+01 -0.29545112673E+02  0.54367093748E+02  0.40000021817E+02 0.  0.
         12    1    3    3    0    0  0.21055189320E+02 -0.62884383637E+01  0.29545112673E+02  0.36820906252E+02  0.00000000000E+00 0. -1.
         11    1    4    4    0    0  0.91042522252E+00  0.13221314369E+02 -0.26654055600E+01  0.13518003358E+02  0.51100000000E-03 0. -1.
        -11    1    4    4    0    0 -0.23927657020E+02 -0.10519388852E+02 -0.20267217129E+02  0.33074921053E+02  0.51100000000E-03 0.  1.
        -12    1    4    4    0    0  0.19620424769E+01  0.35865128470E+01 -0.66124899843E+01  0.77741693367E+01  0.00000000000E+00 0.  1.
</event>
<event>
 8    1  0.3007389E-007  0.9118800E+02  0.7816164E-02  0.1184000E+00
        -11   -1    0    0    0    0  0.00000000000E+00  0.00000000000E+00  0.45593999997E+02  0.45594000000E+02  0.51100000000E-03 0. -1.
         11   -1    0    0    0    0 -0.00000000000E+00 -0.00000000000E+00 -0.45593999997E+02  0.45594000000E+02  0.51100000000E-03 0.  1.
         23    2    1    2    0    0  0.00000000000E+00  0.00000000000E+00  0.88817841970E-15  0.91188000000E+02  0.91188000000E+02 0.  0.
    9900012    2    3    3    0    0  0.33449661410E+02 -0.13326174360E+02 -0.77015082916E+01  0.54367082012E+02  0.39999995063E+02 0.  0.
         12    1    3    3    0    0 -0.33449661410E+02  0.13326174360E+02  0.77015082916E+01  0.36820917988E+02  0.00000000000E+00 0. -1.
         11    1    4    4    0    0  0.51107347512E+01 -0.79663490320E+01 -0.63927877702E+00  0.94863588491E+01  0.51100000000E-03 0. -1.
        -11    1    4    4    0    0  0.71008856310E+01 -0.11349512218E+02 -0.16183532960E+02  0.21003350772E+02  0.51100000000E-03 0.  1.
        -12    1    4    4    0    0  0.21238041028E+02  0.59896868909E+01  0.91213034450E+01  0.23877372391E+02  0.00000000000E+00 0.  1.
</event>
<event>
 8    1  0.3007389E-007  0.9118800E+02  0.7816164E-02  0.1184000E+00
        -11   -1    0    0    0    0  0.00000000000E+00  0.00000000000E+00  0.45593999997E+02  0.45594000000E+02  0.51100000000E-03 0. -1.
         11   -1    0    0    0    0 -0.00000000000E+00 -0.00000000000E+00 -0.45593999997E+02  0.45594000000E+02  0.51100000000E-03 0.  1.
         23    2    1    2    0    0  0.88817841970E-15  0.00000000000E+00  0.00000000000E+00  0.91188000000E+02  0.91188000000E+02 0.  0.
    9900012    2    3    3    0    0 -0.69216673118E+01 -0.35188271141E+02 -0.83458843142E+01  0.54367113411E+02  0.40000066642E+02 0.  0.
        -12    1    3    3    0    0  0.69216673118E+01  0.35188271141E+02  0.83458843142E+01  0.36820886589E+02  0.00000000000E+00 0.  1.
         11    1    4    4    0    0 -0.55250840348E+01 -0.13363828555E+02  0.14278136504E+01  0.14531246310E+02  0.51100000000E-03 0. -1.
        -11    1    4    4    0    0 -0.46342705748E-01 -0.17772473731E+02 -0.21184329510E+02  0.27652102762E+02  0.51100000000E-03 0.  1.
        -12    1    4    4    0    0 -0.13502405712E+01 -0.40519688554E+01  0.11410631545E+02  0.12183764339E+02  0.00000000000E+00 0.  1.
</event>
<event>
 8    1  0.3007389E-007  0.9118800E+02  0.7816164E-02  0.1184000E+00
        -11   -1    0    0    0    0  0.00000000000E+00  0.00000000000E+00  0.45593999997E+02  0.45594000000E+02  0.51100000000E-03 0.  1.
         11   -1    0    0    0    0 -0.00000000000E+00 -0.00000000000E+00 -0.45593999997E+02  0.45594000000E+02  0.51100000000E-03 0. -1.
         23    2    1    2    0    0  0.00000000000E+00  0.17763568394E-14  0.00000000000E+00  0.91188000000E+02  0.91188000000E+02 0.  0.
    9900012    2    3    3    0    0 -0.22666571863E+02  0.12058314792E+02 -0.26393215795E+02  0.54367105447E+02  0.40000048488E+02 0.  0.
        -12    1    3    3    0    0  0.22666571863E+02 -0.12058314792E+02  0.26393215795E+02  0.36820894553E+02  0.00000000000E+00 0.  1.
         11    1    4    4    0    0 -0.34063313034E+01  0.16633715882E+02 -0.91509983188E+01  0.19287933209E+02  0.51100000000E-03 0. -1.
        -11    1    4    4    0    0  0.34495999975E+01  0.96215955779E+00  0.25937826804E+01  0.44219000454E+01  0.51100000000E-03 0.  1.
         12    1    4    4    0    0 -0.22709840557E+02 -0.55375606480E+01 -0.19836000157E+02  0.30657272193E+02  0.00000000000E+00 0. -1.
</event>
<event>
 8    1  0.3007389E-007  0.9118800E+02  0.7816164E-02  0.1184000E+00
        -11   -1    0    0    0    0  0.00000000000E+00  0.00000000000E+00  0.45593999997E+02  0.45594000000E+02  0.51100000000E-03 0. -1.
         11   -1    0    0    0    0 -0.00000000000E+00 -0.00000000000E+00 -0.45593999997E+02  0.45594000000E+02  0.51100000000E-03 0.  1.
         23    2    1    2    0    0  0.00000000000E+00  0.00000000000E+00  0.00000000000E+00  0.91188000000E+02  0.91188000000E+02 0.  0.
    9900012    2    3    3    0    0  0.24921369667E+02 -0.23951226901E+02 -0.12690324673E+02  0.54367078278E+02  0.39999986551E+02 0.  0.
         12    1    3    3    0    0 -0.24921369667E+02  0.23951226901E+02  0.12690324673E+02  0.36820921722E+02  0.00000000000E+00 0. -1.
         11    1    4    4    0    0  0.10224540946E+02  0.97020284507E+01 -0.21980401286E+00  0.14096769406E+02  0.51100000000E-03 0. -1.
        -11    1    4    4    0    0  0.66258321078E+01 -0.49390460943E+01 -0.10451331406E+01  0.83299538405E+01  0.51100000000E-03 0.  1.
        -12    1    4    4    0    0  0.80709966131E+01 -0.28714209257E+02 -0.11425387519E+02  0.31940355032E+02  0.00000000000E+00 0.  1.
</event>
<event>
 8    1  0.3007389E-007  0.9118800E+02  0.7816164E-02  0.1184000E+00
        -11   -1    0    0    0    0  0.00000000000E+00  0.00000000000E+00  0.45593999997E+02  0.45594000000E+02  0.51100000000E-03 0. -1.
         11   -1    0    0    0    0 -0.00000000000E+00 -0.00000000000E+00 -0.45593999997E+02  0.45594000000E+02  0.51100000000E-03 0.  1.
         23    2    1    2    0    0  0.35527136788E-14  0.00000000000E+00  0.00000000000E+00  0.91188000000E+02  0.91188000000E+02 0.  0.
    9900012    2    3    3    0    0 -0.21901464646E+02  0.14853375904E+02 -0.25602411173E+02  0.54367076773E+02  0.39999983120E+02 0.  0.
         12    1    3    3    0    0  0.21901464646E+02 -0.14853375904E+02  0.25602411173E+02  0.36820923227E+02  0.00000000000E+00 0. -1.
         11    1    4    4    0    0 -0.20218744634E+01  0.10136157785E+02 -0.12714692862E+02  0.16385758628E+02  0.51100000000E-03 0. -1.
        -11    1    4    4    0    0 -0.19888923817E+02  0.96337771034E+01  0.21085502742E+01  0.22199660727E+02  0.51100000000E-03 0.  1.
        -12    1    4    4    0    0  0.93336341139E-02 -0.49165589852E+01 -0.14996268586E+02  0.15781657418E+02  0.00000000000E+00 0.  1.
</event>
<event>
 8    1  0.3007389E-007  0.9118800E+02  0.7816164E-02  0.1184000E+00
        -11   -1    0    0    0    0  0.00000000000E+00  0.00000000000E+00  0.45593999997E+02  0.45594000000E+02  0.51100000000E-03 0. -1.
         11   -1    0    0    0    0 -0.00000000000E+00 -0.00000000000E+00 -0.45593999997E+02  0.45594000000E+02  0.51100000000E-03 0.  1.
         23    2    1    2    0    0  0.00000000000E+00  0.17763568394E-14  0.22204460493E-14  0.91188000000E+02  0.91188000000E+02 0.  0.
    9900012    2    3    3    0    0  0.34620033978E+02 -0.12319734104E+02 -0.23361141215E+01  0.54367081622E+02  0.39999994173E+02 0.  0.
        -12    1    3    3    0    0 -0.34620033978E+02  0.12319734104E+02  0.23361141215E+01  0.36820918378E+02  0.00000000000E+00 0.  1.
         11    1    4    4    0    0  0.11489269404E+02  0.61558539501E+01 -0.10418599040E+02  0.16686672991E+02  0.51100000000E-03 0. -1.
        -11    1    4    4    0    0  0.22060250959E+02 -0.19945850923E+02  0.35576419859E+00  0.29742532001E+02  0.51100000000E-03 0.  1.
        -12    1    4    4    0    0  0.10705136145E+01  0.14702628686E+01  0.77267207197E+01  0.79378766293E+01  0.00000000000E+00 0.  1.
</event>
<event>
 8    1  0.3007389E-007  0.9118800E+02  0.7816164E-02  0.1184000E+00
        -11   -1    0    0    0    0  0.00000000000E+00  0.00000000000E+00  0.45593999997E+02  0.45594000000E+02  0.51100000000E-03 0. -1.
         11   -1    0    0    0    0 -0.00000000000E+00 -0.00000000000E+00 -0.45593999997E+02  0.45594000000E+02  0.51100000000E-03 0.  1.
         23    2    1    2    0    0  0.71054273576E-14  0.00000000000E+00  0.66613381478E-15  0.91188000000E+02  0.91188000000E+02 0.  0.
    9900012    2    3    3    0    0  0.35961814669E+02 -0.78350029858E+01  0.10683132716E+01  0.54367072808E+02  0.39999974080E+02 0.  0.
        -12    1    3    3    0    0 -0.35961814669E+02  0.78350029858E+01 -0.10683132716E+01  0.36820927192E+02  0.00000000000E+00 0.  1.
         11    1    4    4    0    0  0.22756494114E+02 -0.84376263768E+01  0.12324681336E+02  0.27220384522E+02  0.51100000000E-03 0. -1.
        -11    1    4    4    0    0  0.18087737712E+02  0.42435501230E+01 -0.90802093265E+01  0.20679075773E+02  0.51100000000E-03 0.  1.
         12    1    4    4    0    0 -0.48824171568E+01 -0.36409267320E+01 -0.21761587377E+01  0.64676125125E+01  0.00000000000E+00 0. -1.
</event>
<event>
 8    1  0.3007389E-007  0.9118800E+02  0.7816164E-02  0.1184000E+00
        -11   -1    0    0    0    0  0.00000000000E+00  0.00000000000E+00  0.45593999997E+02  0.45594000000E+02  0.51100000000E-03 0.  1.
         11   -1    0    0    0    0 -0.00000000000E+00 -0.00000000000E+00 -0.45593999997E+02  0.45594000000E+02  0.51100000000E-03 0. -1.
         23    2    1    2    0    0  0.00000000000E+00  0.00000000000E+00  0.00000000000E+00  0.91188000000E+02  0.91188000000E+02 0.  0.
    9900012    2    3    3    0    0  0.23777955023E+02  0.16915441683E+02 -0.22455681492E+02  0.54367069218E+02  0.39999965897E+02 0.  0.
        -12    1    3    3    0    0 -0.23777955023E+02 -0.16915441683E+02  0.22455681492E+02  0.36820930782E+02  0.00000000000E+00 0.  1.
         11    1    4    4    0    0  0.48587873181E+01 -0.55915680355E+01 -0.14243277836E+02  0.16054420297E+02  0.51100000000E-03 0. -1.
        -11    1    4    4    0    0  0.98186512861E+01  0.85006898206E+01 -0.15385751473E+02  0.20134273991E+02  0.51100000000E-03 0.  1.
        -12    1    4    4    0    0  0.91005164185E+01  0.14006319898E+02  0.71733478181E+01  0.18178374930E+02  0.00000000000E+00 0.  1.
</event>
<event>
 8    1  0.3007389E-007  0.9118800E+02  0.7816164E-02  0.1184000E+00
        -11   -1    0    0    0    0  0.00000000000E+00  0.00000000000E+00  0.45593999997E+02  0.45594000000E+02  0.51100000000E-03 0. -1.
         11   -1    0    0    0    0 -0.00000000000E+00 -0.00000000000E+00 -0.45593999997E+02  0.45594000000E+02  0.51100000000E-03 0.  1.
         23    2    1    2    0    0  0.00000000000E+00  0.00000000000E+00  0.71054273576E-14  0.91188000000E+02  0.91188000000E+02 0.  0.
    9900012    2    3    3    0    0 -0.92459823488E+01  0.44205674981E+01  0.35365978757E+02  0.54367054059E+02  0.39999931337E+02 0.  0.
        -12    1    3    3    0    0  0.92459823488E+01 -0.44205674981E+01 -0.35365978757E+02  0.36820945941E+02  0.00000000000E+00 0.  1.
         11    1    4    4    0    0 -0.11572526981E+02  0.18434035680E+01  0.12870634121E+02  0.17406169607E+02  0.51100000000E-03 0. -1.
        -11    1    4    4    0    0  0.63522618700E+01  0.98059239110E-01  0.28567398554E+02  0.29265288430E+02  0.51100000000E-03 0.  1.
        -12    1    4    4    0    0 -0.40257172376E+01  0.24791046910E+01 -0.60720539182E+01  0.76955960218E+01  0.00000000000E+00 0.  1.
</event>
<event>
 8    1  0.3007389E-007  0.9118800E+02  0.7816164E-02  0.1184000E+00
        -11   -1    0    0    0    0  0.00000000000E+00  0.00000000000E+00  0.45593999997E+02  0.45594000000E+02  0.51100000000E-03 0. -1.
         11   -1    0    0    0    0 -0.00000000000E+00 -0.00000000000E+00 -0.45593999997E+02  0.45594000000E+02  0.51100000000E-03 0.  1.
         23    2    1    2    0    0 -0.17763568394E-14  0.35527136788E-14  0.00000000000E+00  0.91188000000E+02  0.91188000000E+02 0.  0.
    9900012    2    3    3    0    0  0.14983011667E+02 -0.19199198730E+02 -0.27616733422E+02  0.54367029951E+02  0.39999876378E+02 0.  0.
         12    1    3    3    0    0 -0.14983011667E+02  0.19199198730E+02  0.27616733422E+02  0.36820970049E+02  0.00000000000E+00 0. -1.
         11    1    4    4    0    0 -0.44810483276E+01 -0.46931228717E+01 -0.21304901819E+02  0.22271148111E+02  0.51100000000E-03 0. -1.
        -11    1    4    4    0    0  0.60962523419E+01  0.49557027385E+01 -0.14138757678E+01  0.79826265851E+01  0.51100000000E-03 0.  1.
         12    1    4    4    0    0  0.13367807652E+02 -0.19461778597E+02 -0.48979558348E+01  0.24113255254E+02  0.00000000000E+00 0. -1.
</event>
<event>
 8    1  0.3007389E-007  0.9118800E+02  0.7816164E-02  0.1184000E+00
        -11   -1    0    0    0    0  0.00000000000E+00  0.00000000000E+00  0.45593999997E+02  0.45594000000E+02  0.51100000000E-03 0. -1.
         11   -1    0    0    0    0 -0.00000000000E+00 -0.00000000000E+00 -0.45593999997E+02  0.45594000000E+02  0.51100000000E-03 0.  1.
         23    2    1    2    0    0  0.00000000000E+00 -0.35527136788E-14 -0.44408920985E-15  0.91188000000E+02  0.91188000000E+02 0.  0.
    9900012    2    3    3    0    0 -0.32353988900E+02 -0.17308788704E+02 -0.30668711165E+01  0.54367075751E+02  0.39999980788E+02 0.  0.
        -12    1    3    3    0    0  0.32353988900E+02  0.17308788704E+02  0.30668711165E+01  0.36820924249E+02  0.00000000000E+00 0.  1.
         11    1    4    4    0    0 -0.35054288127E+01 -0.28518094441E+01  0.11606135320E+02  0.12454847474E+02  0.51100000000E-03 0. -1.
        -11    1    4    4    0    0 -0.15215365165E+02 -0.18758831243E+02 -0.13240784469E+02  0.27544862685E+02  0.51100000000E-03 0.  1.
        -12    1    4    4    0    0 -0.13633194923E+02  0.43018519837E+01 -0.14322219672E+01  0.14367365592E+02  0.00000000000E+00 0.  1.
</event>
<event>
 8    1  0.3007389E-007  0.9118800E+02  0.7816164E-02  0.1184000E+00
        -11   -1    0    0    0    0  0.00000000000E+00  0.00000000000E+00  0.45593999997E+02  0.45594000000E+02  0.51100000000E-03 0.  1.
         11   -1    0    0    0    0 -0.00000000000E+00 -0.00000000000E+00 -0.45593999997E+02  0.45594000000E+02  0.51100000000E-03 0. -1.
         23    2    1    2    0    0  0.17763568394E-14  0.00000000000E+00  0.35527136788E-14  0.91188000000E+02  0.91188000000E+02 0.  0.
    9900012    2    3    3    0    0  0.93292630691E+01 -0.22325226677E+02 -0.27754807819E+02  0.54367078601E+02  0.39999987287E+02 0.  0.
        -12    1    3    3    0    0 -0.93292630691E+01  0.22325226677E+02  0.27754807819E+02  0.36820921399E+02  0.00000000000E+00 0.  1.
         11    1    4    4    0    0  0.16092697152E+01 -0.42543122219E+00 -0.89392553491E+01  0.90929108210E+01  0.51100000000E-03 0. -1.
        -11    1    4    4    0    0  0.56009878346E+01 -0.30028192502E+02 -0.79935991682E+01  0.31574689826E+02  0.51100000000E-03 0.  1.
        -12    1    4    4    0    0  0.21190055193E+01  0.81283970477E+01 -0.10821953302E+02  0.13699477955E+02  0.00000000000E+00 0.  1.
</event>
<event>
 8    1  0.3007389E-007  0.9118800E+02  0.7816164E-02  0.1184000E+00
        -11   -1    0    0    0    0  0.00000000000E+00  0.00000000000E+00  0.45593999997E+02  0.45594000000E+02  0.51100000000E-03 0.  1.
         11   -1    0    0    0    0 -0.00000000000E+00 -0.00000000000E+00 -0.45593999997E+02  0.45594000000E+02  0.51100000000E-03 0. -1.
         23    2    1    2    0    0  0.00000000000E+00  0.00000000000E+00  0.88817841970E-15  0.91188000000E+02  0.91188000000E+02 0.  0.
    9900012    2    3    3    0    0 -0.12453643603E+02 -0.34389606616E+02  0.42473270265E+01  0.54367108253E+02  0.40000054884E+02 0.  0.
        -12    1    3    3    0    0  0.12453643603E+02  0.34389606616E+02 -0.42473270265E+01  0.36820891747E+02  0.00000000000E+00 0.  1.
         11    1    4    4    0    0 -0.56524271014E+01 -0.29599617795E+02  0.68054266267E+01  0.30893383395E+02  0.51100000000E-03 0. -1.
        -11    1    4    4    0    0 -0.10346304730E+02 -0.11228206994E+02  0.10141474263E+01  0.15301867504E+02  0.51100000000E-03 0.  1.
        -12    1    4    4    0    0  0.35450882281E+01  0.64382181730E+01 -0.35722470266E+01  0.81718573535E+01  0.00000000000E+00 0.  1.
</event>
<event>
 8    1  0.3007389E-007  0.9118800E+02  0.7816164E-02  0.1184000E+00
        -11   -1    0    0    0    0  0.00000000000E+00  0.00000000000E+00  0.45593999997E+02  0.45594000000E+02  0.51100000000E-03 0.  1.
         11   -1    0    0    0    0 -0.00000000000E+00 -0.00000000000E+00 -0.45593999997E+02  0.45594000000E+02  0.51100000000E-03 0. -1.
         23    2    1    2    0    0  0.00000000000E+00  0.00000000000E+00  0.11102230246E-14  0.91188000000E+02  0.91188000000E+02 0.  0.
    9900012    2    3    3    0    0 -0.50148179652E+01 -0.36445948823E+02 -0.15247270857E+01  0.54367076905E+02  0.39999983421E+02 0.  0.
        -12    1    3    3    0    0  0.50148179652E+01  0.36445948823E+02  0.15247270857E+01  0.36820923095E+02  0.00000000000E+00 0.  1.
         11    1    4    4    0    0  0.14466268621E+01 -0.43458743327E+00 -0.12793968296E+02  0.12882826574E+02  0.51100000000E-03 0. -1.
        -11    1    4    4    0    0 -0.10788217830E+02 -0.27668815501E+02  0.12060552832E+02  0.32053173479E+02  0.51100000000E-03 0.  1.
        -12    1    4    4    0    0  0.43267730027E+01 -0.83425458891E+01 -0.79131162186E+00  0.94310768532E+01  0.00000000000E+00 0.  1.
</event>
<event>
 8    1  0.3007389E-007  0.9118800E+02  0.7816164E-02  0.1184000E+00
        -11   -1    0    0    0    0  0.00000000000E+00  0.00000000000E+00  0.45593999997E+02  0.45594000000E+02  0.51100000000E-03 0. -1.
         11   -1    0    0    0    0 -0.00000000000E+00 -0.00000000000E+00 -0.45593999997E+02  0.45594000000E+02  0.51100000000E-03 0.  1.
         23    2    1    2    0    0 -0.17763568394E-14  0.35527136788E-14  0.00000000000E+00  0.91188000000E+02  0.91188000000E+02 0.  0.
    9900012    2    3    3    0    0 -0.10564849403E+02  0.31240568667E+02 -0.16376271779E+02  0.54367198122E+02  0.40000259758E+02 0.  0.
         12    1    3    3    0    0  0.10564849403E+02 -0.31240568667E+02  0.16376271779E+02  0.36820801878E+02  0.00000000000E+00 0. -1.
         11    1    4    4    0    0 -0.21348274437E+02  0.14621058939E+02 -0.94135865402E+01  0.27534338520E+02  0.51100000000E-03 0. -1.
        -11    1    4    4    0    0 -0.31451174922E+01  0.97443474477E+01 -0.41446361383E+01  0.11046360496E+02  0.51100000000E-03 0.  1.
         12    1    4    4    0    0  0.13928542527E+02  0.68751622810E+01 -0.28180491006E+01  0.15786499106E+02  0.00000000000E+00 0. -1.
</event>
<event>
 8    1  0.3007389E-007  0.9118800E+02  0.7816164E-02  0.1184000E+00
        -11   -1    0    0    0    0  0.00000000000E+00  0.00000000000E+00  0.45593999997E+02  0.45594000000E+02  0.51100000000E-03 0. -1.
         11   -1    0    0    0    0 -0.00000000000E+00 -0.00000000000E+00 -0.45593999997E+02  0.45594000000E+02  0.51100000000E-03 0.  1.
         23    2    1    2    0    0 -0.35527136788E-14  0.00000000000E+00  0.88817841970E-15  0.91188000000E+02  0.91188000000E+02 0.  0.
    9900012    2    3    3    0    0 -0.21203141773E+02 -0.29736918839E+02  0.46820803364E+01  0.54367089645E+02  0.40000012463E+02 0.  0.
         12    1    3    3    0    0  0.21203141773E+02  0.29736918839E+02 -0.46820803364E+01  0.36820910355E+02  0.00000000000E+00 0. -1.
         11    1    4    4    0    0 -0.30388840936E+01  0.20724508021E+01  0.31387901291E+01  0.48354805963E+01  0.51100000000E-03 0. -1.
        -11    1    4    4    0    0 -0.20340265261E+02 -0.32313739204E+01  0.31064045684E+01  0.20828296087E+02  0.51100000000E-03 0.  1.
         12    1    4    4    0    0  0.21760075812E+01 -0.28577995721E+02 -0.15631143610E+01  0.28703312961E+02  0.00000000000E+00 0. -1.
</event>
<event>
 8    1  0.3007389E-007  0.9118800E+02  0.7816164E-02  0.1184000E+00
        -11   -1    0    0    0    0  0.00000000000E+00  0.00000000000E+00  0.45593999997E+02  0.45594000000E+02  0.51100000000E-03 0. -1.
         11   -1    0    0    0    0 -0.00000000000E+00 -0.00000000000E+00 -0.45593999997E+02  0.45594000000E+02  0.51100000000E-03 0.  1.
         23    2    1    2    0    0  0.35527136788E-14  0.00000000000E+00 -0.66613381478E-15  0.91188000000E+02  0.91188000000E+02 0.  0.
    9900012    2    3    3    0    0  0.26236019991E+02 -0.25807953923E+02  0.11834707722E+01  0.54367084290E+02  0.40000000257E+02 0.  0.
         12    1    3    3    0    0 -0.26236019991E+02  0.25807953923E+02 -0.11834707722E+01  0.36820915710E+02  0.00000000000E+00 0. -1.
         11    1    4    4    0    0 -0.42427979326E+01  0.24678777751E+01  0.66663510973E+01  0.82784051739E+01  0.51100000000E-03 0. -1.
        -11    1    4    4    0    0 -0.26965506865E+01 -0.29283728261E+01 -0.95250054671E+00  0.40931663252E+01  0.51100000000E-03 0.  1.
        -12    1    4    4    0    0  0.33175368610E+02 -0.25347458872E+02 -0.45303797784E+01  0.41995512791E+02  0.00000000000E+00 0.  1.
</event>
<event>
 8    1  0.3007389E-007  0.9118800E+02  0.7816164E-02  0.1184000E+00
        -11   -1    0    0    0    0  0.00000000000E+00  0.00000000000E+00  0.45593999997E+02  0.45594000000E+02  0.51100000000E-03 0. -1.
         11   -1    0    0    0    0 -0.00000000000E+00 -0.00000000000E+00 -0.45593999997E+02  0.45594000000E+02  0.51100000000E-03 0.  1.
         23    2    1    2    0    0  0.17763568394E-14  0.00000000000E+00 -0.19428902931E-15  0.91188000000E+02  0.91188000000E+02 0.  0.
    9900012    2    3    3    0    0  0.11989331168E+02 -0.34813941040E+02 -0.16162289674E+00  0.54367072872E+02  0.39999974227E+02 0.  0.
        -12    1    3    3    0    0 -0.11989331168E+02  0.34813941040E+02  0.16162289674E+00  0.36820927128E+02  0.00000000000E+00 0.  1.
         11    1    4    4    0    0 -0.47130129298E+01 -0.13030623650E+02 -0.83447388887E+01  0.16175423054E+02  0.51100000000E-03 0. -1.
        -11    1    4    4    0    0 -0.21225239500E+00 -0.16390863937E+02 -0.37305019660E+01  0.16811368679E+02  0.51100000000E-03 0.  1.
         12    1    4    4    0    0  0.16914596493E+02 -0.53924534532E+01  0.11913617958E+02  0.21380281140E+02  0.00000000000E+00 0. -1.
</event>
<event>
 8    1  0.3007389E-007  0.9118800E+02  0.7816164E-02  0.1184000E+00
        -11   -1    0    0    0    0  0.00000000000E+00  0.00000000000E+00  0.45593999997E+02  0.45594000000E+02  0.51100000000E-03 0.  1.
         11   -1    0    0    0    0 -0.00000000000E+00 -0.00000000000E+00 -0.45593999997E+02  0.45594000000E+02  0.51100000000E-03 0. -1.
         23    2    1    2    0    0  0.00000000000E+00  0.35527136788E-14  0.17763568394E-14  0.91188000000E+02  0.91188000000E+02 0.  0.
    9900012    2    3    3    0    0  0.22901818111E+02  0.28262265979E+02  0.57035844177E+01  0.54367084392E+02  0.40000000487E+02 0.  0.
         12    1    3    3    0    0 -0.22901818111E+02 -0.28262265979E+02 -0.57035844177E+01  0.36820915608E+02  0.00000000000E+00 0. -1.
         11    1    4    4    0    0  0.72719242712E+01  0.22641026614E+02  0.82745883243E+01  0.25178677108E+02  0.51100000000E-03 0. -1.
        -11    1    4    4    0    0 -0.22463445054E+01  0.59004087544E+01  0.65672986943E+01  0.91099011799E+01  0.51100000000E-03 0.  1.
        -12    1    4    4    0    0  0.17876238345E+02 -0.27916938930E+00 -0.91383026009E+01  0.20078506103E+02  0.00000000000E+00 0.  1.
</event>
<event>
 8    1  0.3007389E-007  0.9118800E+02  0.7816164E-02  0.1184000E+00
        -11   -1    0    0    0    0  0.00000000000E+00  0.00000000000E+00  0.45593999997E+02  0.45594000000E+02  0.51100000000E-03 0.  1.
         11   -1    0    0    0    0 -0.00000000000E+00 -0.00000000000E+00 -0.45593999997E+02  0.45594000000E+02  0.51100000000E-03 0. -1.
         23    2    1    2    0    0 -0.88817841970E-15  0.00000000000E+00 -0.35527136788E-14  0.91188000000E+02  0.91188000000E+02 0.  0.
    9900012    2    3    3    0    0  0.66116478114E+01 -0.28751801995E+02  0.22031796583E+02  0.54367081144E+02  0.39999993083E+02 0.  0.
         12    1    3    3    0    0 -0.66116478114E+01  0.28751801995E+02 -0.22031796583E+02  0.36820918856E+02  0.00000000000E+00 0. -1.
         11    1    4    4    0    0 -0.91654950888E+00  0.52883407491E+01  0.10259369665E+02  0.11578483366E+02  0.51100000000E-03 0. -1.
        -11    1    4    4    0    0  0.66435047283E+01 -0.24690498923E+00  0.49841104705E+01  0.83089394385E+01  0.51100000000E-03 0.  1.
        -12    1    4    4    0    0  0.88469259192E+00 -0.33793237755E+02  0.67883164477E+01  0.34479658339E+02  0.00000000000E+00 0.  1.
</event>
<event>
 8    1  0.3007389E-007  0.9118800E+02  0.7816164E-02  0.1184000E+00
        -11   -1    0    0    0    0  0.00000000000E+00  0.00000000000E+00  0.45593999997E+02  0.45594000000E+02  0.51100000000E-03 0.  1.
         11   -1    0    0    0    0 -0.00000000000E+00 -0.00000000000E+00 -0.45593999997E+02  0.45594000000E+02  0.51100000000E-03 0. -1.
         23    2    1    2    0    0 -0.35527136788E-14 -0.88817841970E-15  0.00000000000E+00  0.91188000000E+02  0.91188000000E+02 0.  0.
    9900012    2    3    3    0    0 -0.20421000047E+02 -0.72502160383E+01 -0.29769072605E+02  0.54367074438E+02  0.39999977795E+02 0.  0.
        -12    1    3    3    0    0  0.20421000047E+02  0.72502160383E+01  0.29769072605E+02  0.36820925562E+02  0.00000000000E+00 0.  1.
         11    1    4    4    0    0 -0.12829900087E+02 -0.90512525983E+01 -0.17374300844E+02  0.23417895719E+02  0.51100000000E-03 0. -1.
        -11    1    4    4    0    0 -0.17766999225E+02  0.12240389069E+01 -0.54817910296E+01  0.18633694370E+02  0.51100000000E-03 0.  1.
        -12    1    4    4    0    0  0.10175899265E+02  0.57699765311E+00 -0.69129807314E+01  0.12315484349E+02  0.00000000000E+00 0.  1.
</event>
<event>
 8    1  0.3007389E-007  0.9118800E+02  0.7816164E-02  0.1184000E+00
        -11   -1    0    0    0    0  0.00000000000E+00  0.00000000000E+00  0.45593999997E+02  0.45594000000E+02  0.51100000000E-03 0.  1.
         11   -1    0    0    0    0 -0.00000000000E+00 -0.00000000000E+00 -0.45593999997E+02  0.45594000000E+02  0.51100000000E-03 0. -1.
         23    2    1    2    0    0  0.00000000000E+00  0.88817841970E-15 -0.17763568394E-14  0.91188000000E+02  0.91188000000E+02 0.  0.
    9900012    2    3    3    0    0 -0.33148843071E+02  0.56574766974E+01  0.14997653399E+02  0.54367048804E+02  0.39999919358E+02 0.  0.
         12    1    3    3    0    0  0.33148843071E+02 -0.56574766974E+01 -0.14997653399E+02  0.36820951196E+02  0.00000000000E+00 0. -1.
         11    1    4    4    0    0 -0.55801041443E+01  0.10462793976E+02 -0.28024997023E+01  0.12184482955E+02  0.51100000000E-03 0. -1.
        -11    1    4    4    0    0 -0.26728628601E+02 -0.12341062146E+01  0.23361293298E+02  0.35520312919E+02  0.51100000000E-03 0.  1.
         12    1    4    4    0    0 -0.84011032550E+00 -0.35712110636E+01 -0.55611401966E+01  0.66622529302E+01  0.00000000000E+00 0. -1.
</event>
<event>
 8    1  0.3007389E-007  0.9118800E+02  0.7816164E-02  0.1184000E+00
        -11   -1    0    0    0    0  0.00000000000E+00  0.00000000000E+00  0.45593999997E+02  0.45594000000E+02  0.51100000000E-03 0.  1.
         11   -1    0    0    0    0 -0.00000000000E+00 -0.00000000000E+00 -0.45593999997E+02  0.45594000000E+02  0.51100000000E-03 0. -1.
         23    2    1    2    0    0  0.35527136788E-14 -0.17763568394E-14  0.35527136788E-14  0.91188000000E+02  0.91188000000E+02 0.  0.
    9900012    2    3    3    0    0  0.21312905547E+02  0.83295495972E+01  0.28847155001E+02  0.54367086228E+02  0.40000004673E+02 0.  0.
         12    1    3    3    0    0 -0.21312905547E+02 -0.83295495972E+01 -0.28847155001E+02  0.36820913772E+02  0.00000000000E+00 0. -1.
         11    1    4    4    0    0  0.74173206076E+00  0.64327639715E+00  0.12750556583E+02  0.12788301858E+02  0.51100000000E-03 0. -1.
        -11    1    4    4    0    0  0.28456990269E+02  0.99052466051E+01  0.12210143979E+02  0.32511564431E+02  0.51100000000E-03 0.  1.
        -12    1    4    4    0    0 -0.78858167828E+01 -0.22189734050E+01  0.38864544388E+01  0.90672199383E+01  0.00000000000E+00 0.  1.
</event>
<event>
 8    1  0.3007389E-007  0.9118800E+02  0.7816164E-02  0.1184000E+00
        -11   -1    0    0    0    0  0.00000000000E+00  0.00000000000E+00  0.45593999997E+02  0.45594000000E+02  0.51100000000E-03 0. -1.
         11   -1    0    0    0    0 -0.00000000000E+00 -0.00000000000E+00 -0.45593999997E+02  0.45594000000E+02  0.51100000000E-03 0.  1.
         23    2    1    2    0    0  0.00000000000E+00  0.17763568394E-14 -0.88817841970E-15  0.91188000000E+02  0.91188000000E+02 0.  0.
    9900012    2    3    3    0    0  0.34570233535E+02 -0.11214977709E+02  0.59078628673E+01  0.54367087255E+02  0.40000007016E+02 0.  0.
        -12    1    3    3    0    0 -0.34570233535E+02  0.11214977709E+02 -0.59078628673E+01  0.36820912745E+02  0.00000000000E+00 0.  1.
         11    1    4    4    0    0  0.11920551871E+02 -0.72969974429E+01  0.52439663223E+01  0.14927990877E+02  0.51100000000E-03 0. -1.
        -11    1    4    4    0    0  0.27990916191E+01  0.10289124672E+02 -0.82182488479E+01  0.13462563456E+02  0.51100000000E-03 0.  1.
        -12    1    4    4    0    0  0.19850590046E+02 -0.14207104938E+02  0.88821453929E+01  0.25976532922E+02  0.00000000000E+00 0.  1.
</event>
<event>
 8    1  0.3007389E-007  0.9118800E+02  0.7816164E-02  0.1184000E+00
        -11   -1    0    0    0    0  0.00000000000E+00  0.00000000000E+00  0.45593999997E+02  0.45594000000E+02  0.51100000000E-03 0.  1.
         11   -1    0    0    0    0 -0.00000000000E+00 -0.00000000000E+00 -0.45593999997E+02  0.45594000000E+02  0.51100000000E-03 0. -1.
         23    2    1    2    0    0  0.00000000000E+00  0.00000000000E+00 -0.35527136788E-14  0.91188000000E+02  0.91188000000E+02 0.  0.
    9900012    2    3    3    0    0 -0.94310499534E+01  0.20292819811E+02 -0.29241004923E+02  0.54367087355E+02  0.40000007243E+02 0.  0.
         12    1    3    3    0    0  0.94310499534E+01 -0.20292819811E+02  0.29241004923E+02  0.36820912645E+02  0.00000000000E+00 0. -1.
         11    1    4    4    0    0 -0.10944415498E+02  0.22949770559E+01 -0.28517655034E+02  0.30631744958E+02  0.51100000000E-03 0. -1.
        -11    1    4    4    0    0 -0.44985901403E+01  0.27606852825E+00  0.17980678853E+01  0.48524813718E+01  0.51100000000E-03 0.  1.
         12    1    4    4    0    0  0.60119556845E+01  0.17721774227E+02 -0.25214177743E+01  0.18882861026E+02  0.00000000000E+00 0. -1.
</event>
<event>
 8    1  0.3007389E-007  0.9118800E+02  0.7816164E-02  0.1184000E+00
        -11   -1    0    0    0    0  0.00000000000E+00  0.00000000000E+00  0.45593999997E+02  0.45594000000E+02  0.51100000000E-03 0.  1.
         11   -1    0    0    0    0 -0.00000000000E+00 -0.00000000000E+00 -0.45593999997E+02  0.45594000000E+02  0.51100000000E-03 0. -1.
         23    2    1    2    0    0  0.00000000000E+00  0.35527136788E-14 -0.71054273576E-14  0.91188000000E+02  0.91188000000E+02 0.  0.
    9900012    2    3    3    0    0  0.23686782443E+02  0.54835406339E+01 -0.27652257702E+02  0.54367078822E+02  0.39999987792E+02 0.  0.
         12    1    3    3    0    0 -0.23686782443E+02 -0.54835406339E+01  0.27652257702E+02  0.36820921178E+02  0.00000000000E+00 0. -1.
         11    1    4    4    0    0  0.21335225218E+02  0.88543356133E+01 -0.24145129148E+02  0.33415241374E+02  0.51100000000E-03 0. -1.
        -11    1    4    4    0    0 -0.48697178270E+01  0.65953557590E+01 -0.26444326709E+01  0.86142842833E+01  0.51100000000E-03 0.  1.
        -12    1    4    4    0    0  0.72212750515E+01 -0.99661507384E+01 -0.86269588261E+00  0.12337553165E+02  0.00000000000E+00 0.  1.
</event>
<event>
 8    1  0.3007389E-007  0.9118800E+02  0.7816164E-02  0.1184000E+00
        -11   -1    0    0    0    0  0.00000000000E+00  0.00000000000E+00  0.45593999997E+02  0.45594000000E+02  0.51100000000E-03 0.  1.
         11   -1    0    0    0    0 -0.00000000000E+00 -0.00000000000E+00 -0.45593999997E+02  0.45594000000E+02  0.51100000000E-03 0. -1.
         23    2    1    2    0    0  0.71054273576E-14  0.00000000000E+00  0.00000000000E+00  0.91188000000E+02  0.91188000000E+02 0.  0.
    9900012    2    3    3    0    0  0.23878269080E+02 -0.26651343866E+02 -0.86783053594E+01  0.54367097675E+02  0.40000030770E+02 0.  0.
         12    1    3    3    0    0 -0.23878269080E+02  0.26651343866E+02  0.86783053594E+01  0.36820902325E+02  0.00000000000E+00 0. -1.
         11    1    4    4    0    0  0.91198881318E+01 -0.10943904632E+02  0.19029976978E+01  0.14372293089E+02  0.51100000000E-03 0.  1.
        -11    1    4    4    0    0  0.22683179605E+02 -0.26533024872E+01 -0.32949915468E+01  0.23074306504E+02  0.51100000000E-03 0. -1.
        -12    1    4    4    0    0 -0.79247986563E+01 -0.13054136746E+02 -0.72863115104E+01  0.16920498083E+02  0.00000000000E+00 0.  1.
</event>
<event>
 8    1  0.3007389E-007  0.9118800E+02  0.7816164E-02  0.1184000E+00
        -11   -1    0    0    0    0  0.00000000000E+00  0.00000000000E+00  0.45593999997E+02  0.45594000000E+02  0.51100000000E-03 0.  1.
         11   -1    0    0    0    0 -0.00000000000E+00 -0.00000000000E+00 -0.45593999997E+02  0.45594000000E+02  0.51100000000E-03 0. -1.
         23    2    1    2    0    0 -0.44408920985E-15  0.00000000000E+00  0.00000000000E+00  0.91188000000E+02  0.91188000000E+02 0.  0.
    9900012    2    3    3    0    0  0.38407417903E+01 -0.32637636539E+02 -0.16607636770E+02  0.54367079107E+02  0.39999988439E+02 0.  0.
        -12    1    3    3    0    0 -0.38407417903E+01  0.32637636539E+02  0.16607636770E+02  0.36820920893E+02  0.00000000000E+00 0.  1.
         11    1    4    4    0    0  0.45841401006E+01 -0.22622907542E+02  0.79542773137E+01  0.24414766310E+02  0.51100000000E-03 0. -1.
        -11    1    4    4    0    0 -0.39121694728E+01 -0.12211444897E+02 -0.21479756632E+02  0.25016082860E+02  0.51100000000E-03 0.  1.
         12    1    4    4    0    0  0.31687711624E+01  0.21967159001E+01 -0.30821574523E+01  0.49362299366E+01  0.00000000000E+00 0. -1.
</event>
<event>
 8    1  0.3007389E-007  0.9118800E+02  0.7816164E-02  0.1184000E+00
        -11   -1    0    0    0    0  0.00000000000E+00  0.00000000000E+00  0.45593999997E+02  0.45594000000E+02  0.51100000000E-03 0.  1.
         11   -1    0    0    0    0 -0.00000000000E+00 -0.00000000000E+00 -0.45593999997E+02  0.45594000000E+02  0.51100000000E-03 0. -1.
         23    2    1    2    0    0  0.00000000000E+00  0.49960036108E-15 -0.35527136788E-14  0.91188000000E+02  0.91188000000E+02 0.  0.
    9900012    2    3    3    0    0 -0.24219594663E+02  0.29402237336E+00  0.27732700073E+02  0.54367110982E+02  0.40000061105E+02 0.  0.
        -12    1    3    3    0    0  0.24219594663E+02 -0.29402237336E+00 -0.27732700073E+02  0.36820889018E+02  0.00000000000E+00 0.  1.
         11    1    4    4    0    0 -0.40250376940E+01 -0.67574822183E+01 -0.65824071468E+01  0.10256343329E+02  0.51100000000E-03 0. -1.
        -11    1    4    4    0    0 -0.19203037881E+02  0.36668150371E+01  0.15447675347E+02  0.24916518020E+02  0.51100000000E-03 0.  1.
        -12    1    4    4    0    0 -0.99151908768E+00  0.33846895546E+01  0.18867431873E+02  0.19194249633E+02  0.00000000000E+00 0.  1.
</event>
<event>
 8    1  0.3007389E-007  0.9118800E+02  0.7816164E-02  0.1184000E+00
        -11   -1    0    0    0    0  0.00000000000E+00  0.00000000000E+00  0.45593999997E+02  0.45594000000E+02  0.51100000000E-03 0. -1.
         11   -1    0    0    0    0 -0.00000000000E+00 -0.00000000000E+00 -0.45593999997E+02  0.45594000000E+02  0.51100000000E-03 0.  1.
         23    2    1    2    0    0 -0.35527136788E-14  0.00000000000E+00  0.17763568394E-14  0.91188000000E+02  0.91188000000E+02 0.  0.
    9900012    2    3    3    0    0  0.18967134029E+02  0.29724132885E+02  0.10606575451E+02  0.54367140534E+02  0.40000128475E+02 0.  0.
         12    1    3    3    0    0 -0.18967134029E+02 -0.29724132885E+02 -0.10606575451E+02  0.36820859466E+02  0.00000000000E+00 0. -1.
         11    1    4    4    0    0 -0.38401383940E+01  0.53069086810E+01  0.10413956802E+02  0.12302863048E+02  0.51100000000E-03 0. -1.
        -11    1    4    4    0    0 -0.46784916043E+01  0.61901765625E+01 -0.41500661040E+01  0.87994101220E+01  0.51100000000E-03 0.  1.
         12    1    4    4    0    0  0.27485764028E+02  0.18227047641E+02  0.43426847524E+01  0.33264867364E+02  0.00000000000E+00 0. -1.
</event>
<event>
 8    1  0.3007389E-007  0.9118800E+02  0.7816164E-02  0.1184000E+00
        -11   -1    0    0    0    0  0.00000000000E+00  0.00000000000E+00  0.45593999997E+02  0.45594000000E+02  0.51100000000E-03 0. -1.
         11   -1    0    0    0    0 -0.00000000000E+00 -0.00000000000E+00 -0.45593999997E+02  0.45594000000E+02  0.51100000000E-03 0.  1.
         23    2    1    2    0    0  0.00000000000E+00  0.17763568394E-14 -0.17763568394E-14  0.91188000000E+02  0.91188000000E+02 0.  0.
    9900012    2    3    3    0    0  0.32229491959E+02  0.15191989259E+02 -0.92865624938E+01  0.54367123686E+02  0.40000090066E+02 0.  0.
         12    1    3    3    0    0 -0.32229491959E+02 -0.15191989259E+02  0.92865624938E+01  0.36820876314E+02  0.00000000000E+00 0. -1.
         11    1    4    4    0    0  0.15340571226E+02  0.71877883967E+01 -0.20833483258E+01  0.17068619396E+02  0.51100000000E-03 0. -1.
        -11    1    4    4    0    0  0.11899026156E+01  0.13185783164E+02 -0.14139565579E+02  0.19370288096E+02  0.51100000000E-03 0.  1.
        -12    1    4    4    0    0  0.15699018117E+02 -0.51815823012E+01  0.69363514112E+01  0.17928216194E+02  0.00000000000E+00 0.  1.
</event>
<event>
 8    1  0.3007389E-007  0.9118800E+02  0.7816164E-02  0.1184000E+00
        -11   -1    0    0    0    0  0.00000000000E+00  0.00000000000E+00  0.45593999997E+02  0.45594000000E+02  0.51100000000E-03 0. -1.
         11   -1    0    0    0    0 -0.00000000000E+00 -0.00000000000E+00 -0.45593999997E+02  0.45594000000E+02  0.51100000000E-03 0.  1.
         23    2    1    2    0    0  0.00000000000E+00 -0.88817841970E-15 -0.17763568394E-14  0.91188000000E+02  0.91188000000E+02 0.  0.
    9900012    2    3    3    0    0  0.33553761228E+02  0.25151672618E+01  0.14953230830E+02  0.54367081066E+02  0.39999992906E+02 0.  0.
         12    1    3    3    0    0 -0.33553761228E+02 -0.25151672618E+01 -0.14953230830E+02  0.36820918934E+02  0.00000000000E+00 0. -1.
         11    1    4    4    0    0  0.38568749046E+02 -0.23014214637E+01  0.63628631645E+01  0.39157770259E+02  0.51100000000E-03 0. -1.
        -11    1    4    4    0    0 -0.14953874134E+01  0.63445194913E+01  0.85446877371E+00  0.65741332690E+01  0.51100000000E-03 0.  1.
        -12    1    4    4    0    0 -0.35196004051E+01 -0.15279307658E+01  0.77358988921E+01  0.86351775376E+01  0.00000000000E+00 0.  1.
</event>
<event>
 8    1  0.3007389E-007  0.9118800E+02  0.7816164E-02  0.1184000E+00
        -11   -1    0    0    0    0  0.00000000000E+00  0.00000000000E+00  0.45593999997E+02  0.45594000000E+02  0.51100000000E-03 0.  1.
         11   -1    0    0    0    0 -0.00000000000E+00 -0.00000000000E+00 -0.45593999997E+02  0.45594000000E+02  0.51100000000E-03 0. -1.
         23    2    1    2    0    0  0.00000000000E+00  0.00000000000E+00  0.00000000000E+00  0.91188000000E+02  0.91188000000E+02 0.  0.
    9900012    2    3    3    0    0 -0.87914685228E+01  0.30809164852E+01  0.35623029605E+02  0.54367052111E+02  0.39999926898E+02 0.  0.
         12    1    3    3    0    0  0.87914685228E+01 -0.30809164852E+01 -0.35623029605E+02  0.36820947889E+02  0.00000000000E+00 0. -1.
         11    1    4    4    0    0 -0.47339376753E+01 -0.13087178923E+02  0.15763908912E+02  0.21028201124E+02  0.51100000000E-03 0. -1.
        -11    1    4    4    0    0 -0.73537248859E+00  0.23852949877E+01  0.18969953730E+02  0.19133466744E+02  0.51100000000E-03 0.  1.
         12    1    4    4    0    0 -0.33221583589E+01  0.13782800421E+02  0.88916696363E+00  0.14205384243E+02  0.00000000000E+00 0. -1.
</event>
<event>
 8    1  0.3007389E-007  0.9118800E+02  0.7816164E-02  0.1184000E+00
        -11   -1    0    0    0    0  0.00000000000E+00  0.00000000000E+00  0.45593999997E+02  0.45594000000E+02  0.51100000000E-03 0. -1.
         11   -1    0    0    0    0 -0.00000000000E+00 -0.00000000000E+00 -0.45593999997E+02  0.45594000000E+02  0.51100000000E-03 0.  1.
         23    2    1    2    0    0  0.00000000000E+00  0.00000000000E+00 -0.35527136788E-14  0.91188000000E+02  0.91188000000E+02 0.  0.
    9900012    2    3    3    0    0  0.22472911086E+02 -0.18581426739E+02 -0.22483031471E+02  0.54366975348E+02  0.39999751899E+02 0.  0.
         12    1    3    3    0    0 -0.22472911086E+02  0.18581426739E+02  0.22483031471E+02  0.36821024652E+02  0.00000000000E+00 0. -1.
         11    1    4    4    0    0  0.18260623288E+02 -0.84902730531E+01 -0.11326251453E+02  0.23104524916E+02  0.51100000000E-03 0.  1.
        -11    1    4    4    0    0  0.33953537897E+01  0.91396015382E+01 -0.20248208727E+01  0.99579437367E+01  0.51100000000E-03 0. -1.
         12    1    4    4    0    0  0.81693400846E+00 -0.19230755224E+02 -0.91319591451E+01  0.21304506694E+02  0.00000000000E+00 0. -1.
</event>
<event>
 8    1  0.3007389E-007  0.9118800E+02  0.7816164E-02  0.1184000E+00
        -11   -1    0    0    0    0  0.00000000000E+00  0.00000000000E+00  0.45593999997E+02  0.45594000000E+02  0.51100000000E-03 0.  1.
         11   -1    0    0    0    0 -0.00000000000E+00 -0.00000000000E+00 -0.45593999997E+02  0.45594000000E+02  0.51100000000E-03 0. -1.
         23    2    1    2    0    0  0.88817841970E-15  0.00000000000E+00  0.00000000000E+00  0.91188000000E+02  0.91188000000E+02 0.  0.
    9900012    2    3    3    0    0  0.16572858559E+01  0.35573411963E+02  0.93576441010E+01  0.54367085586E+02  0.40000003212E+02 0.  0.
         12    1    3    3    0    0 -0.16572858559E+01 -0.35573411963E+02 -0.93576441010E+01  0.36820914414E+02  0.00000000000E+00 0. -1.
         11    1    4    4    0    0 -0.29762280315E+01 -0.84258845557E+00  0.49358190010E+01  0.58249633538E+01  0.51100000000E-03 0. -1.
        -11    1    4    4    0    0 -0.77741909654E+01  0.33917677749E+02 -0.90772965616E+00  0.34809063222E+02  0.51100000000E-03 0.  1.
        -12    1    4    4    0    0  0.12407704853E+02  0.24983226702E+01  0.53295547561E+01  0.13733059010E+02  0.00000000000E+00 0.  1.
</event>
<event>
 8    1  0.3007389E-007  0.9118800E+02  0.7816164E-02  0.1184000E+00
        -11   -1    0    0    0    0  0.00000000000E+00  0.00000000000E+00  0.45593999997E+02  0.45594000000E+02  0.51100000000E-03 0. -1.
         11   -1    0    0    0    0 -0.00000000000E+00 -0.00000000000E+00 -0.45593999997E+02  0.45594000000E+02  0.51100000000E-03 0.  1.
         23    2    1    2    0    0  0.00000000000E+00  0.17763568394E-14 -0.22204460493E-15  0.91188000000E+02  0.91188000000E+02 0.  0.
    9900012    2    3    3    0    0  0.34032749510E+02  0.13942396708E+02  0.17781073029E+01  0.54367080256E+02  0.39999991060E+02 0.  0.
         12    1    3    3    0    0 -0.34032749510E+02 -0.13942396708E+02 -0.17781073029E+01  0.36820919744E+02  0.00000000000E+00 0. -1.
         11    1    4    4    0    0  0.66952251962E+00 -0.26482391481E+01  0.55824505530E+01  0.62149163653E+01  0.51100000000E-03 0. -1.
        -11    1    4    4    0    0  0.96914387205E+01 -0.86721761295E+01 -0.37389577555E+01  0.13531830203E+02  0.51100000000E-03 0.  1.
         12    1    4    4    0    0  0.23671788270E+02  0.25262811986E+02 -0.65385494584E-01  0.34620333687E+02  0.00000000000E+00 0. -1.
</event>
<event>
 8    1  0.3007389E-007  0.9118800E+02  0.7816164E-02  0.1184000E+00
        -11   -1    0    0    0    0  0.00000000000E+00  0.00000000000E+00  0.45593999997E+02  0.45594000000E+02  0.51100000000E-03 0.  1.
         11   -1    0    0    0    0 -0.00000000000E+00 -0.00000000000E+00 -0.45593999997E+02  0.45594000000E+02  0.51100000000E-03 0. -1.
         23    2    1    2    0    0  0.00000000000E+00  0.00000000000E+00  0.17763568394E-14  0.91188000000E+02  0.91188000000E+02 0.  0.
    9900012    2    3    3    0    0 -0.99880761315E+01 -0.35110511154E+02  0.48239240694E+01  0.54367083366E+02  0.39999998150E+02 0.  0.
        -12    1    3    3    0    0  0.99880761315E+01  0.35110511154E+02 -0.48239240694E+01  0.36820916634E+02  0.00000000000E+00 0.  1.
         11    1    4    4    0    0 -0.94884774282E+01 -0.41723745088E+01 -0.39090243417E+01  0.11077923294E+02  0.51100000000E-03 0. -1.
        -11    1    4    4    0    0  0.70827503409E+01 -0.62273254047E+01 -0.81094620957E+01  0.12438179522E+02  0.51100000000E-03 0.  1.
        -12    1    4    4    0    0 -0.75823490442E+01 -0.24710811241E+02  0.16842410507E+02  0.30850980550E+02  0.00000000000E+00 0.  1.
</event>
<event>
 8    1  0.3007389E-007  0.9118800E+02  0.7816164E-02  0.1184000E+00
        -11   -1    0    0    0    0  0.00000000000E+00  0.00000000000E+00  0.45593999997E+02  0.45594000000E+02  0.51100000000E-03 0.  1.
         11   -1    0    0    0    0 -0.00000000000E+00 -0.00000000000E+00 -0.45593999997E+02  0.45594000000E+02  0.51100000000E-03 0. -1.
         23    2    1    2    0    0  0.00000000000E+00  0.00000000000E+00  0.00000000000E+00  0.91188000000E+02  0.91188000000E+02 0.  0.
    9900012    2    3    3    0    0 -0.35837281403E+02 -0.63050354611E+01  0.56315904340E+01  0.54367095321E+02  0.40000025404E+02 0.  0.
        -12    1    3    3    0    0  0.35837281403E+02  0.63050354611E+01 -0.56315904340E+01  0.36820904679E+02  0.00000000000E+00 0.  1.
         11    1    4    4    0    0  0.19321604630E+00 -0.43564850108E+01 -0.15014183799E+01  0.46120008134E+01  0.51100000000E-03 0. -1.
        -11    1    4    4    0    0 -0.36354901117E+02  0.77718865539E+01 -0.82940403615E+00  0.37185601611E+02  0.51100000000E-03 0.  1.
        -12    1    4    4    0    0  0.32440366769E+00 -0.97204370042E+01  0.79624128500E+01  0.12569492897E+02  0.00000000000E+00 0.  1.
</event>
<event>
 8    1  0.3007389E-007  0.9118800E+02  0.7816164E-02  0.1184000E+00
        -11   -1    0    0    0    0  0.00000000000E+00  0.00000000000E+00  0.45593999997E+02  0.45594000000E+02  0.51100000000E-03 0.  1.
         11   -1    0    0    0    0 -0.00000000000E+00 -0.00000000000E+00 -0.45593999997E+02  0.45594000000E+02  0.51100000000E-03 0. -1.
         23    2    1    2    0    0 -0.35527136788E-14  0.35527136788E-14 -0.17763568394E-14  0.91188000000E+02  0.91188000000E+02 0.  0.
    9900012    2    3    3    0    0 -0.25636394431E+02  0.25434893972E+02 -0.71847444684E+01  0.54367094201E+02  0.40000022851E+02 0.  0.
        -12    1    3    3    0    0  0.25636394431E+02 -0.25434893972E+02  0.71847444684E+01  0.36820905799E+02  0.00000000000E+00 0.  1.
         11    1    4    4    0    0 -0.17001941913E+02  0.15177936256E+02 -0.20589145071E+02  0.30713981716E+02  0.51100000000E-03 0. -1.
        -11    1    4    4    0    0  0.39247333709E+01  0.26748403819E+01  0.41534703345E+01  0.63094864436E+01  0.51100000000E-03 0.  1.
        -12    1    4    4    0    0 -0.12559185889E+02  0.75821173341E+01  0.92509302684E+01  0.17343626042E+02  0.00000000000E+00 0.  1.
</event>
<event>
 8    1  0.3007389E-007  0.9118800E+02  0.7816164E-02  0.1184000E+00
        -11   -1    0    0    0    0  0.00000000000E+00  0.00000000000E+00  0.45593999997E+02  0.45594000000E+02  0.51100000000E-03 0.  1.
         11   -1    0    0    0    0 -0.00000000000E+00 -0.00000000000E+00 -0.45593999997E+02  0.45594000000E+02  0.51100000000E-03 0. -1.
         23    2    1    2    0    0  0.00000000000E+00  0.22204460493E-15  0.35527136788E-14  0.91188000000E+02  0.91188000000E+02 0.  0.
    9900012    2    3    3    0    0 -0.27299181210E+02 -0.57535585129E+00 -0.24702605796E+02  0.54366877500E+02  0.39999528833E+02 0.  0.
        -12    1    3    3    0    0  0.27299181210E+02  0.57535585129E+00  0.24702605796E+02  0.36821122500E+02  0.00000000000E+00 0.  1.
         11    1    4    4    0    0 -0.96961493893E+01 -0.60131967546E+01  0.66918659801E+00  0.11428983295E+02  0.51100000000E-03 0. -1.
        -11    1    4    4    0    0  0.34231212949E+01 -0.24062821118E+01 -0.19217351361E+02  0.19667601445E+02  0.51100000000E-03 0.  1.
         12    1    4    4    0    0 -0.21026153115E+02  0.78441230151E+01 -0.61544410325E+01  0.23270292760E+02  0.00000000000E+00 0. -1.
</event>
<event>
 8    1  0.3007389E-007  0.9118800E+02  0.7816164E-02  0.1184000E+00
        -11   -1    0    0    0    0  0.00000000000E+00  0.00000000000E+00  0.45593999997E+02  0.45594000000E+02  0.51100000000E-03 0. -1.
         11   -1    0    0    0    0 -0.00000000000E+00 -0.00000000000E+00 -0.45593999997E+02  0.45594000000E+02  0.51100000000E-03 0.  1.
         23    2    1    2    0    0  0.00000000000E+00  0.00000000000E+00  0.00000000000E+00  0.91188000000E+02  0.91188000000E+02 0.  0.
    9900012    2    3    3    0    0  0.27650402823E+02 -0.20841116046E+02  0.12525292696E+02  0.54367084050E+02  0.39999999709E+02 0.  0.
         12    1    3    3    0    0 -0.27650402823E+02  0.20841116046E+02 -0.12525292696E+02  0.36820915950E+02  0.00000000000E+00 0. -1.
         11    1    4    4    0    0 -0.24905021865E+01  0.41223884813E+01  0.46440704240E+01  0.66905962587E+01  0.51100000000E-03 0. -1.
        -11    1    4    4    0    0  0.23546941993E+01  0.38987963564E+00  0.97279395385E+01  0.10016456401E+02  0.51100000000E-03 0.  1.
        -12    1    4    4    0    0  0.27786210810E+02 -0.25353384163E+02 -0.18467172665E+01  0.37660031390E+02  0.00000000000E+00 0.  1.
</event>
<event>
 8    1  0.3007389E-007  0.9118800E+02  0.7816164E-02  0.1184000E+00
        -11   -1    0    0    0    0  0.00000000000E+00  0.00000000000E+00  0.45593999997E+02  0.45594000000E+02  0.51100000000E-03 0.  1.
         11   -1    0    0    0    0 -0.00000000000E+00 -0.00000000000E+00 -0.45593999997E+02  0.45594000000E+02  0.51100000000E-03 0. -1.
         23    2    1    2    0    0  0.00000000000E+00  0.00000000000E+00  0.00000000000E+00  0.91188000000E+02  0.91188000000E+02 0.  0.
    9900012    2    3    3    0    0  0.49927641202E+01 -0.10999586039E+02 -0.34783057190E+02  0.54367086730E+02  0.40000005817E+02 0.  0.
        -12    1    3    3    0    0 -0.49927641202E+01  0.10999586039E+02  0.34783057190E+02  0.36820913270E+02  0.00000000000E+00 0.  1.
         11    1    4    4    0    0 -0.15687744670E+01 -0.19353244038E+01  0.13457686061E+01  0.28315415022E+01  0.51100000000E-03 0. -1.
        -11    1    4    4    0    0  0.62373344781E+01  0.70227777237E+01 -0.34037734521E+02  0.35309929480E+02  0.51100000000E-03 0.  1.
        -12    1    4    4    0    0  0.32420410921E+00 -0.16087039359E+02 -0.20910912753E+01  0.16225615747E+02  0.00000000000E+00 0.  1.
</event>
<event>
 8    1  0.3007389E-007  0.9118800E+02  0.7816164E-02  0.1184000E+00
        -11   -1    0    0    0    0  0.00000000000E+00  0.00000000000E+00  0.45593999997E+02  0.45594000000E+02  0.51100000000E-03 0.  1.
         11   -1    0    0    0    0 -0.00000000000E+00 -0.00000000000E+00 -0.45593999997E+02  0.45594000000E+02  0.51100000000E-03 0. -1.
         23    2    1    2    0    0  0.35527136788E-14  0.00000000000E+00  0.88817841970E-15  0.91188000000E+02  0.91188000000E+02 0.  0.
    9900012    2    3    3    0    0  0.27404924887E+02  0.24566258156E+02 -0.11174094698E+01  0.54367088119E+02  0.40000008984E+02 0.  0.
        -12    1    3    3    0    0 -0.27404924887E+02 -0.24566258156E+02  0.11174094698E+01  0.36820911881E+02  0.00000000000E+00 0.  1.
         11    1    4    4    0    0  0.11002493922E+02  0.71324052915E+01 -0.10906521831E+02  0.17055154542E+02  0.51100000000E-03 0. -1.
        -11    1    4    4    0    0  0.23542655110E+02  0.10292814944E+02  0.51792894503E+01  0.26211136728E+02  0.51100000000E-03 0.  1.
        -12    1    4    4    0    0 -0.71402241442E+01  0.71410379207E+01  0.46098229109E+01  0.11100796849E+02  0.00000000000E+00 0.  1.
</event>
<event>
 8    1  0.3007389E-007  0.9118800E+02  0.7816164E-02  0.1184000E+00
        -11   -1    0    0    0    0  0.00000000000E+00  0.00000000000E+00  0.45593999997E+02  0.45594000000E+02  0.51100000000E-03 0.  1.
         11   -1    0    0    0    0 -0.00000000000E+00 -0.00000000000E+00 -0.45593999997E+02  0.45594000000E+02  0.51100000000E-03 0. -1.
         23    2    1    2    0    0  0.00000000000E+00 -0.17763568394E-14  0.00000000000E+00  0.91188000000E+02  0.91188000000E+02 0.  0.
    9900012    2    3    3    0    0  0.29603433432E+02 -0.45293020434E+01  0.21421907405E+02  0.54367136826E+02  0.40000120023E+02 0.  0.
         12    1    3    3    0    0 -0.29603433432E+02  0.45293020434E+01 -0.21421907405E+02  0.36820863174E+02  0.00000000000E+00 0. -1.
         11    1    4    4    0    0  0.16142383644E+02 -0.17243747703E+02  0.51098808070E+01  0.24166800919E+02  0.51100000000E-03 0. -1.
        -11    1    4    4    0    0  0.76051672697E+01  0.10660779444E+02  0.19291668479E+02  0.23316501893E+02  0.51100000000E-03 0.  1.
         12    1    4    4    0    0  0.58558825188E+01  0.20536662153E+01 -0.29796418809E+01  0.68838340143E+01  0.00000000000E+00 0. -1.
</event>
<event>
 8    1  0.3007389E-007  0.9118800E+02  0.7816164E-02  0.1184000E+00
        -11   -1    0    0    0    0  0.00000000000E+00  0.00000000000E+00  0.45593999997E+02  0.45594000000E+02  0.51100000000E-03 0.  1.
         11   -1    0    0    0    0 -0.00000000000E+00 -0.00000000000E+00 -0.45593999997E+02  0.45594000000E+02  0.51100000000E-03 0. -1.
         23    2    1    2    0    0  0.00000000000E+00  0.00000000000E+00  0.00000000000E+00  0.91188000000E+02  0.91188000000E+02 0.  0.
    9900012    2    3    3    0    0 -0.25919322814E+02 -0.24075749986E+02  0.10214011082E+02  0.54367094866E+02  0.40000024367E+02 0.  0.
         12    1    3    3    0    0  0.25919322814E+02  0.24075749986E+02 -0.10214011082E+02  0.36820905134E+02  0.00000000000E+00 0. -1.
         11    1    4    4    0    0 -0.41528079082E+01  0.48453855019E+01  0.23694837828E+01  0.68072041135E+01  0.51100000000E-03 0. -1.
        -11    1    4    4    0    0 -0.82781809392E+01  0.33895831105E+01  0.87801338367E+01  0.12534285132E+02  0.51100000000E-03 0.  1.
         12    1    4    4    0    0 -0.13488333966E+02 -0.32310718598E+02 -0.93560653758E+00  0.35025605621E+02  0.00000000000E+00 0. -1.
</event>
<event>
 8    1  0.3007389E-007  0.9118800E+02  0.7816164E-02  0.1184000E+00
        -11   -1    0    0    0    0  0.00000000000E+00  0.00000000000E+00  0.45593999997E+02  0.45594000000E+02  0.51100000000E-03 0. -1.
         11   -1    0    0    0    0 -0.00000000000E+00 -0.00000000000E+00 -0.45593999997E+02  0.45594000000E+02  0.51100000000E-03 0.  1.
         23    2    1    2    0    0  0.35527136788E-14  0.17763568394E-14  0.00000000000E+00  0.91188000000E+02  0.91188000000E+02 0.  0.
    9900012    2    3    3    0    0  0.25341355839E+02  0.82120486202E+01  0.25419625852E+02  0.54367089681E+02  0.40000012545E+02 0.  0.
         12    1    3    3    0    0 -0.25341355839E+02 -0.82120486202E+01 -0.25419625852E+02  0.36820910319E+02  0.00000000000E+00 0. -1.
         11    1    4    4    0    0  0.18086291744E+02 -0.74128328019E+01  0.20520334108E+02  0.28339868584E+02  0.51100000000E-03 0. -1.
        -11    1    4    4    0    0  0.14241292902E+01  0.70918697255E+01  0.11628406260E+02  0.13694619121E+02  0.51100000000E-03 0.  1.
        -12    1    4    4    0    0  0.58309348051E+01  0.85330116965E+01 -0.67291145168E+01  0.12332601976E+02  0.00000000000E+00 0.  1.
</event>
<event>
 8    1  0.3007389E-007  0.9118800E+02  0.7816164E-02  0.1184000E+00
        -11   -1    0    0    0    0  0.00000000000E+00  0.00000000000E+00  0.45593999997E+02  0.45594000000E+02  0.51100000000E-03 0. -1.
         11   -1    0    0    0    0 -0.00000000000E+00 -0.00000000000E+00 -0.45593999997E+02  0.45594000000E+02  0.51100000000E-03 0.  1.
         23    2    1    2    0    0 -0.35527136788E-14  0.33306690739E-15  0.00000000000E+00  0.91188000000E+02  0.91188000000E+02 0.  0.
    9900012    2    3    3    0    0  0.23894332444E+02  0.86389433493E+00  0.28001687176E+02  0.54367083104E+02  0.39999997551E+02 0.  0.
        -12    1    3    3    0    0 -0.23894332444E+02 -0.86389433493E+00 -0.28001687176E+02  0.36820916896E+02  0.00000000000E+00 0.  1.
         11    1    4    4    0    0  0.14661490353E+02  0.16353939126E+02  0.10641823128E+02  0.24406126773E+02  0.51100000000E-03 0. -1.
        -11    1    4    4    0    0  0.23818532147E+01 -0.99448554324E+01 -0.29271617463E+00  0.10230300940E+02  0.51100000000E-03 0.  1.
         12    1    4    4    0    0  0.68509888767E+01 -0.55451893587E+01  0.17652580223E+02  0.19730655391E+02  0.00000000000E+00 0. -1.
</event>
<event>
 8    1  0.3007389E-007  0.9118800E+02  0.7816164E-02  0.1184000E+00
        -11   -1    0    0    0    0  0.00000000000E+00  0.00000000000E+00  0.45593999997E+02  0.45594000000E+02  0.51100000000E-03 0. -1.
         11   -1    0    0    0    0 -0.00000000000E+00 -0.00000000000E+00 -0.45593999997E+02  0.45594000000E+02  0.51100000000E-03 0.  1.
         23    2    1    2    0    0  0.00000000000E+00  0.00000000000E+00 -0.35527136788E-14  0.91188000000E+02  0.91188000000E+02 0.  0.
    9900012    2    3    3    0    0  0.23118219389E+02  0.12224909975E+02 -0.25920630564E+02  0.54367087730E+02  0.40000008097E+02 0.  0.
         12    1    3    3    0    0 -0.23118219389E+02 -0.12224909975E+02  0.25920630564E+02  0.36820912270E+02  0.00000000000E+00 0. -1.
         11    1    4    4    0    0  0.17414346157E+01 -0.26237253170E+01 -0.10824776792E+02  0.11273523048E+02  0.51100000000E-03 0. -1.
        -11    1    4    4    0    0 -0.63129846854E+01 -0.17947850243E+01  0.15600121918E+01  0.67460112082E+01  0.51100000000E-03 0.  1.
        -12    1    4    4    0    0  0.27689769459E+02  0.16643420316E+02 -0.16655865964E+02  0.36347553473E+02  0.00000000000E+00 0.  1.
</event>
<event>
 8    1  0.3007389E-007  0.9118800E+02  0.7816164E-02  0.1184000E+00
        -11   -1    0    0    0    0  0.00000000000E+00  0.00000000000E+00  0.45593999997E+02  0.45594000000E+02  0.51100000000E-03 0. -1.
         11   -1    0    0    0    0 -0.00000000000E+00 -0.00000000000E+00 -0.45593999997E+02  0.45594000000E+02  0.51100000000E-03 0.  1.
         23    2    1    2    0    0 -0.35527136788E-14  0.00000000000E+00  0.00000000000E+00  0.91188000000E+02  0.91188000000E+02 0.  0.
    9900012    2    3    3    0    0  0.12286514204E+02  0.13701399672E+01  0.34683407414E+02  0.54367157198E+02  0.40000166463E+02 0.  0.
        -12    1    3    3    0    0 -0.12286514204E+02 -0.13701399672E+01 -0.34683407414E+02  0.36820842802E+02  0.00000000000E+00 0.  1.
         11    1    4    4    0    0 -0.64141091522E+01 -0.81441510586E+00  0.18885650464E+02  0.19961759990E+02  0.51100000000E-03 0. -1.
        -11    1    4    4    0    0  0.24194139171E+02 -0.33707997686E+00  0.14547121944E+02  0.28232760231E+02  0.51100000000E-03 0.  1.
        -12    1    4    4    0    0 -0.54935158147E+01  0.25216350499E+01  0.12506350066E+01  0.61726369771E+01  0.00000000000E+00 0.  1.
</event>
<event>
 8    1  0.3007389E-007  0.9118800E+02  0.7816164E-02  0.1184000E+00
        -11   -1    0    0    0    0  0.00000000000E+00  0.00000000000E+00  0.45593999997E+02  0.45594000000E+02  0.51100000000E-03 0. -1.
         11   -1    0    0    0    0 -0.00000000000E+00 -0.00000000000E+00 -0.45593999997E+02  0.45594000000E+02  0.51100000000E-03 0.  1.
         23    2    1    2    0    0 -0.88817841970E-15  0.00000000000E+00  0.00000000000E+00  0.91188000000E+02  0.91188000000E+02 0.  0.
    9900012    2    3    3    0    0 -0.63957517610E+01  0.30887695511E+02  0.18995377873E+02  0.54367085357E+02  0.40000002689E+02 0.  0.
        -12    1    3    3    0    0  0.63957517610E+01 -0.30887695511E+02 -0.18995377873E+02  0.36820914643E+02  0.00000000000E+00 0.  1.
         11    1    4    4    0    0  0.80753923155E+01  0.18123164760E+02  0.24709130285E+02  0.31689149273E+02  0.51100000000E-03 0. -1.
        -11    1    4    4    0    0 -0.14985015952E+02  0.83836888638E+01 -0.28155747696E+01  0.17400126539E+02  0.51100000000E-03 0.  1.
        -12    1    4    4    0    0  0.51387187526E+00  0.43808418876E+01 -0.28981776418E+01  0.52778095448E+01  0.00000000000E+00 0.  1.
</event>
<event>
 8    1  0.3007389E-007  0.9118800E+02  0.7816164E-02  0.1184000E+00
        -11   -1    0    0    0    0  0.00000000000E+00  0.00000000000E+00  0.45593999997E+02  0.45594000000E+02  0.51100000000E-03 0.  1.
         11   -1    0    0    0    0 -0.00000000000E+00 -0.00000000000E+00 -0.45593999997E+02  0.45594000000E+02  0.51100000000E-03 0. -1.
         23    2    1    2    0    0  0.00000000000E+00 -0.88817841970E-15  0.00000000000E+00  0.91188000000E+02  0.91188000000E+02 0.  0.
    9900012    2    3    3    0    0 -0.11979215642E+02  0.46517688785E+01 -0.34505693096E+02  0.54367035630E+02  0.39999889327E+02 0.  0.
        -12    1    3    3    0    0  0.11979215642E+02 -0.46517688785E+01  0.34505693096E+02  0.36820964370E+02  0.00000000000E+00 0.  1.
         11    1    4    4    0    0 -0.35236220381E+01 -0.59169225324E+01 -0.22009978433E+01  0.72298185516E+01  0.51100000000E-03 0. -1.
        -11    1    4    4    0    0 -0.69945435397E+01 -0.29459381760E+01  0.38509247435E+01  0.85106881453E+01  0.51100000000E-03 0.  1.
         12    1    4    4    0    0 -0.14610500640E+01  0.13514629587E+02 -0.36155619996E+02  0.38626528933E+02  0.00000000000E+00 0. -1.
</event>
<event>
 8    1  0.3007389E-007  0.9118800E+02  0.7816164E-02  0.1184000E+00
        -11   -1    0    0    0    0  0.00000000000E+00  0.00000000000E+00  0.45593999997E+02  0.45594000000E+02  0.51100000000E-03 0.  1.
         11   -1    0    0    0    0 -0.00000000000E+00 -0.00000000000E+00 -0.45593999997E+02  0.45594000000E+02  0.51100000000E-03 0. -1.
         23    2    1    2    0    0  0.00000000000E+00  0.26645352591E-14  0.00000000000E+00  0.91188000000E+02  0.91188000000E+02 0.  0.
    9900012    2    3    3    0    0  0.22103985482E+02  0.30205448543E+01  0.29292824587E+02  0.54367089668E+02  0.40000012515E+02 0.  0.
         12    1    3    3    0    0 -0.22103985482E+02 -0.30205448543E+01 -0.29292824587E+02  0.36820910332E+02  0.00000000000E+00 0. -1.
         11    1    4    4    0    0  0.17939596191E+02  0.12347677503E+01  0.50350090941E+00  0.17989087701E+02  0.51100000000E-03 0.  1.
        -11    1    4    4    0    0  0.12251251810E+01  0.89954358687E+01  0.31927979712E+01  0.96235522196E+01  0.51100000000E-03 0. -1.
         12    1    4    4    0    0  0.29392641102E+01 -0.72096587647E+01  0.25596525706E+02  0.26754449747E+02  0.00000000000E+00 0. -1.
</event>
<event>
 8    1  0.3007389E-007  0.9118800E+02  0.7816164E-02  0.1184000E+00
        -11   -1    0    0    0    0  0.00000000000E+00  0.00000000000E+00  0.45593999997E+02  0.45594000000E+02  0.51100000000E-03 0. -1.
         11   -1    0    0    0    0 -0.00000000000E+00 -0.00000000000E+00 -0.45593999997E+02  0.45594000000E+02  0.51100000000E-03 0.  1.
         23    2    1    2    0    0 -0.26645352591E-14 -0.71054273576E-14  0.33306690739E-15  0.91188000000E+02  0.91188000000E+02 0.  0.
    9900012    2    3    3    0    0 -0.73685412334E+01  0.36066491341E+02 -0.83226293072E+00  0.54367083945E+02  0.39999999470E+02 0.  0.
        -12    1    3    3    0    0  0.73685412334E+01 -0.36066491341E+02  0.83226293072E+00  0.36820916055E+02  0.00000000000E+00 0.  1.
         11    1    4    4    0    0 -0.11364308847E+02  0.76216853861E+01  0.35854224549E+00  0.13688175792E+02  0.51100000000E-03 0. -1.
        -11    1    4    4    0    0  0.21384309744E+01  0.28202007779E+02 -0.11256300702E+02  0.30440605046E+02  0.51100000000E-03 0.  1.
         12    1    4    4    0    0  0.18573366394E+01  0.24279817583E+00  0.10065495526E+02  0.10238303108E+02  0.00000000000E+00 0. -1.
</event>
<event>
 8    1  0.3007389E-007  0.9118800E+02  0.7816164E-02  0.1184000E+00
        -11   -1    0    0    0    0  0.00000000000E+00  0.00000000000E+00  0.45593999997E+02  0.45594000000E+02  0.51100000000E-03 0.  1.
         11   -1    0    0    0    0 -0.00000000000E+00 -0.00000000000E+00 -0.45593999997E+02  0.45594000000E+02  0.51100000000E-03 0. -1.
         23    2    1    2    0    0  0.00000000000E+00  0.00000000000E+00 -0.35527136788E-14  0.91188000000E+02  0.91188000000E+02 0.  0.
    9900012    2    3    3    0    0 -0.24589767066E+02  0.16935176226E+02  0.21548163619E+02  0.54367079404E+02  0.39999989118E+02 0.  0.
         12    1    3    3    0    0  0.24589767066E+02 -0.16935176226E+02 -0.21548163619E+02  0.36820920596E+02  0.00000000000E+00 0. -1.
         11    1    4    4    0    0 -0.28654978727E+01  0.23679006093E+01  0.17696295959E+02  0.18082503208E+02  0.51100000000E-03 0.  1.
        -11    1    4    4    0    0 -0.15139452180E+02  0.84389998821E+01 -0.98183034278E+01  0.19920311588E+02  0.51100000000E-03 0. -1.
         12    1    4    4    0    0 -0.65848170131E+01  0.61282757344E+01  0.13670171088E+02  0.16364264608E+02  0.00000000000E+00 0. -1.
</event>
<event>
 8    1  0.3007389E-007  0.9118800E+02  0.7816164E-02  0.1184000E+00
        -11   -1    0    0    0    0  0.00000000000E+00  0.00000000000E+00  0.45593999997E+02  0.45594000000E+02  0.51100000000E-03 0.  1.
         11   -1    0    0    0    0 -0.00000000000E+00 -0.00000000000E+00 -0.45593999997E+02  0.45594000000E+02  0.51100000000E-03 0. -1.
         23    2    1    2    0    0  0.00000000000E+00  0.17763568394E-14 -0.71054273576E-14  0.91188000000E+02  0.91188000000E+02 0.  0.
    9900012    2    3    3    0    0  0.14696932950E+02  0.12216488186E+02 -0.31472848791E+02  0.54367046281E+02  0.39999913608E+02 0.  0.
         12    1    3    3    0    0 -0.14696932950E+02 -0.12216488186E+02  0.31472848791E+02  0.36820953719E+02  0.00000000000E+00 0. -1.
         11    1    4    4    0    0 -0.36361176494E+01 -0.18798419030E+01 -0.14390292298E+02  0.14961138654E+02  0.51100000000E-03 0. -1.
        -11    1    4    4    0    0  0.17375750596E+02 -0.33077254954E+01 -0.56809485919E+01  0.18577699908E+02  0.51100000000E-03 0.  1.
        -12    1    4    4    0    0  0.95730000386E+00  0.17404055584E+02 -0.11401607901E+02  0.20828207719E+02  0.00000000000E+00 0.  1.
</event>
<event>
 8    1  0.3007389E-007  0.9118800E+02  0.7816164E-02  0.1184000E+00
        -11   -1    0    0    0    0  0.00000000000E+00  0.00000000000E+00  0.45593999997E+02  0.45594000000E+02  0.51100000000E-03 0.  1.
         11   -1    0    0    0    0 -0.00000000000E+00 -0.00000000000E+00 -0.45593999997E+02  0.45594000000E+02  0.51100000000E-03 0. -1.
         23    2    1    2    0    0  0.17763568394E-14  0.00000000000E+00 -0.35527136788E-14  0.91188000000E+02  0.91188000000E+02 0.  0.
    9900012    2    3    3    0    0  0.63050482734E+01  0.32218960472E+02 -0.16672269470E+02  0.54367087234E+02  0.40000006968E+02 0.  0.
        -12    1    3    3    0    0 -0.63050482734E+01 -0.32218960472E+02  0.16672269470E+02  0.36820912766E+02  0.00000000000E+00 0.  1.
         11    1    4    4    0    0  0.16567041543E+02  0.19400260743E+02 -0.20308265388E+02  0.32607708072E+02  0.51100000000E-03 0. -1.
        -11    1    4    4    0    0 -0.12974555669E+02  0.63947749522E+01  0.28389828268E+01  0.14740829870E+02  0.51100000000E-03 0.  1.
        -12    1    4    4    0    0  0.27125623996E+01  0.64239247768E+01  0.79701309061E+00  0.70185492929E+01  0.00000000000E+00 0.  1.
</event>
<event>
 8    1  0.3007389E-007  0.9118800E+02  0.7816164E-02  0.1184000E+00
        -11   -1    0    0    0    0  0.00000000000E+00  0.00000000000E+00  0.45593999997E+02  0.45594000000E+02  0.51100000000E-03 0.  1.
         11   -1    0    0    0    0 -0.00000000000E+00 -0.00000000000E+00 -0.45593999997E+02  0.45594000000E+02  0.51100000000E-03 0. -1.
         23    2    1    2    0    0 -0.17763568394E-14 -0.17763568394E-14  0.00000000000E+00  0.91188000000E+02  0.91188000000E+02 0.  0.
    9900012    2    3    3    0    0  0.14436437956E+02  0.10140081703E+02  0.32319455194E+02  0.54367093142E+02  0.40000020436E+02 0.  0.
         12    1    3    3    0    0 -0.14436437956E+02 -0.10140081703E+02 -0.32319455194E+02  0.36820906858E+02  0.00000000000E+00 0. -1.
         11    1    4    4    0    0 -0.36126637006E+01 -0.49297019745E+00  0.36240926422E+01  0.51408565794E+01  0.51100000000E-03 0. -1.
        -11    1    4    4    0    0  0.19480662639E+01  0.14757207661E+02 -0.12915438665E+01  0.14941158788E+02  0.51100000000E-03 0.  1.
         12    1    4    4    0    0  0.16101035393E+02 -0.41241557603E+01  0.29986906418E+02  0.34285077774E+02  0.00000000000E+00 0. -1.
</event>
<event>
 8    1  0.3007389E-007  0.9118800E+02  0.7816164E-02  0.1184000E+00
        -11   -1    0    0    0    0  0.00000000000E+00  0.00000000000E+00  0.45593999997E+02  0.45594000000E+02  0.51100000000E-03 0.  1.
         11   -1    0    0    0    0 -0.00000000000E+00 -0.00000000000E+00 -0.45593999997E+02  0.45594000000E+02  0.51100000000E-03 0. -1.
         23    2    1    2    0    0  0.35527136788E-14 -0.35527136788E-14 -0.88817841970E-15  0.91188000000E+02  0.91188000000E+02 0.  0.
    9900012    2    3    3    0    0 -0.20805509449E+02 -0.30098847896E+02  0.41194531063E+01  0.54367085264E+02  0.40000002477E+02 0.  0.
         12    1    3    3    0    0  0.20805509449E+02  0.30098847896E+02 -0.41194531063E+01  0.36820914736E+02  0.00000000000E+00 0. -1.
         11    1    4    4    0    0 -0.18525188942E+02 -0.48754158642E+01  0.15328379756E+02  0.24533885371E+02  0.51100000000E-03 0. -1.
        -11    1    4    4    0    0  0.27624255806E+01 -0.13329456811E+02 -0.99332379566E+01  0.16851546829E+02  0.51100000000E-03 0.  1.
        -12    1    4    4    0    0 -0.50427460878E+01 -0.11893975220E+02 -0.12756886934E+01  0.12981653065E+02  0.00000000000E+00 0.  1.
</event>
<event>
 8    1  0.3007389E-007  0.9118800E+02  0.7816164E-02  0.1184000E+00
        -11   -1    0    0    0    0  0.00000000000E+00  0.00000000000E+00  0.45593999997E+02  0.45594000000E+02  0.51100000000E-03 0. -1.
         11   -1    0    0    0    0 -0.00000000000E+00 -0.00000000000E+00 -0.45593999997E+02  0.45594000000E+02  0.51100000000E-03 0.  1.
         23    2    1    2    0    0  0.35527136788E-14  0.00000000000E+00  0.88817841970E-15  0.91188000000E+02  0.91188000000E+02 0.  0.
    9900012    2    3    3    0    0 -0.29769488662E+02  0.20786743908E+02 -0.61213703016E+01  0.54367050096E+02  0.39999922303E+02 0.  0.
         12    1    3    3    0    0  0.29769488662E+02 -0.20786743908E+02  0.61213703016E+01  0.36820949904E+02  0.00000000000E+00 0. -1.
         11    1    4    4    0    0 -0.15163755905E+02 -0.13215962372E+01  0.53054160077E+01  0.16119353245E+02  0.51100000000E-03 0. -1.
        -11    1    4    4    0    0  0.61376940235E+01  0.10232600145E+01 -0.49926366005E+01  0.79777671982E+01  0.51100000000E-03 0.  1.
        -12    1    4    4    0    0 -0.20743426780E+02  0.21085080131E+02 -0.64341497088E+01  0.30269929653E+02  0.00000000000E+00 0.  1.
</event>
<event>
 8    1  0.3007389E-007  0.9118800E+02  0.7816164E-02  0.1184000E+00
        -11   -1    0    0    0    0  0.00000000000E+00  0.00000000000E+00  0.45593999997E+02  0.45594000000E+02  0.51100000000E-03 0. -1.
         11   -1    0    0    0    0 -0.00000000000E+00 -0.00000000000E+00 -0.45593999997E+02  0.45594000000E+02  0.51100000000E-03 0.  1.
         23    2    1    2    0    0 -0.71054273576E-14  0.17763568394E-14 -0.88817841970E-15  0.91188000000E+02  0.91188000000E+02 0.  0.
    9900012    2    3    3    0    0  0.35557451002E+02 -0.68573146919E+01  0.66648845469E+01  0.54367139438E+02  0.40000125976E+02 0.  0.
        -12    1    3    3    0    0 -0.35557451002E+02  0.68573146919E+01 -0.66648845469E+01  0.36820860562E+02  0.00000000000E+00 0.  1.
         11    1    4    4    0    0  0.10803478176E+02 -0.86021536962E+01 -0.68506132274E+01  0.15415676786E+02  0.51100000000E-03 0. -1.
        -11    1    4    4    0    0  0.20601278749E+02 -0.99117818094E+01  0.13553224700E+02  0.26577170744E+02  0.51100000000E-03 0.  1.
        -12    1    4    4    0    0  0.41526940773E+01  0.11656620814E+02 -0.37726926209E-01  0.12374291908E+02  0.00000000000E+00 0.  1.
</event>
<event>
 8    1  0.3007389E-007  0.9118800E+02  0.7816164E-02  0.1184000E+00
        -11   -1    0    0    0    0  0.00000000000E+00  0.00000000000E+00  0.45593999997E+02  0.45594000000E+02  0.51100000000E-03 0. -1.
         11   -1    0    0    0    0 -0.00000000000E+00 -0.00000000000E+00 -0.45593999997E+02  0.45594000000E+02  0.51100000000E-03 0.  1.
         23    2    1    2    0    0  0.66613381478E-15  0.35527136788E-14  0.35527136788E-14  0.91188000000E+02  0.91188000000E+02 0.  0.
    9900012    2    3    3    0    0 -0.17783956864E+01 -0.29301657125E+02 -0.22226778274E+02  0.54367089176E+02  0.40000011394E+02 0.  0.
         12    1    3    3    0    0  0.17783956864E+01  0.29301657125E+02  0.22226778274E+02  0.36820910824E+02  0.00000000000E+00 0. -1.
         11    1    4    4    0    0 -0.14631485336E+02 -0.13558641265E+02 -0.24288497729E+02  0.31430053107E+02  0.51100000000E-03 0.  1.
        -11    1    4    4    0    0  0.56812587414E+01 -0.63390350735E+01 -0.42687047137E+01  0.95227048019E+01  0.51100000000E-03 0. -1.
        -12    1    4    4    0    0  0.71718309085E+01 -0.94039807859E+01  0.63304241678E+01  0.13414331267E+02  0.00000000000E+00 0.  1.
</event>
<event>
 8    1  0.3007389E-007  0.9118800E+02  0.7816164E-02  0.1184000E+00
        -11   -1    0    0    0    0  0.00000000000E+00  0.00000000000E+00  0.45593999997E+02  0.45594000000E+02  0.51100000000E-03 0.  1.
         11   -1    0    0    0    0 -0.00000000000E+00 -0.00000000000E+00 -0.45593999997E+02  0.45594000000E+02  0.51100000000E-03 0. -1.
         23    2    1    2    0    0  0.00000000000E+00  0.00000000000E+00  0.00000000000E+00  0.91188000000E+02  0.91188000000E+02 0.  0.
    9900012    2    3    3    0    0 -0.12715685565E+02  0.24869490613E+02  0.23991658680E+02  0.54367083268E+02  0.39999997927E+02 0.  0.
        -12    1    3    3    0    0  0.12715685565E+02 -0.24869490613E+02 -0.23991658680E+02  0.36820916732E+02  0.00000000000E+00 0.  1.
         11    1    4    4    0    0  0.85951661025E+01  0.17005557487E+02  0.17995017757E+02  0.26208520181E+02  0.51100000000E-03 0. -1.
        -11    1    4    4    0    0 -0.37286939566E+01  0.31957162173E+01  0.84792154245E+01  0.97986149654E+01  0.51100000000E-03 0.  1.
         12    1    4    4    0    0 -0.17582157711E+02  0.46682169086E+01 -0.24825745012E+01  0.18359948122E+02  0.00000000000E+00 0. -1.
</event>
<event>
 8    1  0.3007389E-007  0.9118800E+02  0.7816164E-02  0.1184000E+00
        -11   -1    0    0    0    0  0.00000000000E+00  0.00000000000E+00  0.45593999997E+02  0.45594000000E+02  0.51100000000E-03 0.  1.
         11   -1    0    0    0    0 -0.00000000000E+00 -0.00000000000E+00 -0.45593999997E+02  0.45594000000E+02  0.51100000000E-03 0. -1.
         23    2    1    2    0    0  0.00000000000E+00  0.00000000000E+00  0.00000000000E+00  0.91188000000E+02  0.91188000000E+02 0.  0.
    9900012    2    3    3    0    0 -0.15616150874E+02  0.19696848801E+02 -0.26906312515E+02  0.54367086459E+02  0.40000005201E+02 0.  0.
        -12    1    3    3    0    0  0.15616150874E+02 -0.19696848801E+02  0.26906312515E+02  0.36820913541E+02  0.00000000000E+00 0.  1.
         11    1    4    4    0    0  0.45820176029E+01 -0.55034820841E+01  0.93103290561E+00  0.72214972752E+01  0.51100000000E-03 0. -1.
        -11    1    4    4    0    0  0.24103050718E+01  0.10871331985E+02 -0.63312505889E+01  0.12809377969E+02  0.51100000000E-03 0.  1.
        -12    1    4    4    0    0 -0.22608473549E+02  0.14328998900E+02 -0.21506094832E+02  0.34336211215E+02  0.00000000000E+00 0.  1.
</event>
<event>
 8    1  0.3007389E-007  0.9118800E+02  0.7816164E-02  0.1184000E+00
        -11   -1    0    0    0    0  0.00000000000E+00  0.00000000000E+00  0.45593999997E+02  0.45594000000E+02  0.51100000000E-03 0.  1.
         11   -1    0    0    0    0 -0.00000000000E+00 -0.00000000000E+00 -0.45593999997E+02  0.45594000000E+02  0.51100000000E-03 0. -1.
         23    2    1    2    0    0  0.00000000000E+00  0.00000000000E+00  0.00000000000E+00  0.91188000000E+02  0.91188000000E+02 0.  0.
    9900012    2    3    3    0    0  0.23881397023E+02  0.26107250190E+02  0.10191662268E+02  0.54367087246E+02  0.40000006994E+02 0.  0.
         12    1    3    3    0    0 -0.23881397023E+02 -0.26107250190E+02 -0.10191662268E+02  0.36820912754E+02  0.00000000000E+00 0. -1.
         11    1    4    4    0    0  0.22567066697E+02  0.12032893823E+02  0.27050754483E+01  0.25717318416E+02  0.51100000000E-03 0. -1.
        -11    1    4    4    0    0  0.37426851410E+00 -0.35978227864E+01 -0.55811118710E+01  0.66508056430E+01  0.51100000000E-03 0.  1.
         12    1    4    4    0    0  0.94006181278E+00  0.17672179153E+02  0.13067698691E+02  0.21998963187E+02  0.00000000000E+00 0. -1.
</event>
<event>
 8    1  0.3007389E-007  0.9118800E+02  0.7816164E-02  0.1184000E+00
        -11   -1    0    0    0    0  0.00000000000E+00  0.00000000000E+00  0.45593999997E+02  0.45594000000E+02  0.51100000000E-03 0. -1.
         11   -1    0    0    0    0 -0.00000000000E+00 -0.00000000000E+00 -0.45593999997E+02  0.45594000000E+02  0.51100000000E-03 0.  1.
         23    2    1    2    0    0 -0.13877787808E-16  0.00000000000E+00 -0.35527136788E-14  0.91188000000E+02  0.91188000000E+02 0.  0.
    9900012    2    3    3    0    0 -0.10818368940E+00  0.30714748474E+02  0.20306934645E+02  0.54367094631E+02  0.40000023829E+02 0.  0.
        -12    1    3    3    0    0  0.10818368940E+00 -0.30714748474E+02 -0.20306934645E+02  0.36820905369E+02  0.00000000000E+00 0.  1.
         11    1    4    4    0    0  0.16801462351E+01  0.77595517164E+01 -0.85772457900E+01  0.11687714910E+02  0.51100000000E-03 0. -1.
        -11    1    4    4    0    0  0.66526557800E+01  0.16922231794E+02  0.90846249094E+01  0.20326095735E+02  0.51100000000E-03 0.  1.
         12    1    4    4    0    0 -0.84409857045E+01  0.60329649634E+01  0.19799555526E+02  0.22353283986E+02  0.00000000000E+00 0. -1.
</event>
<event>
 8    1  0.3007389E-007  0.9118800E+02  0.7816164E-02  0.1184000E+00
        -11   -1    0    0    0    0  0.00000000000E+00  0.00000000000E+00  0.45593999997E+02  0.45594000000E+02  0.51100000000E-03 0.  1.
         11   -1    0    0    0    0 -0.00000000000E+00 -0.00000000000E+00 -0.45593999997E+02  0.45594000000E+02  0.51100000000E-03 0. -1.
         23    2    1    2    0    0  0.88817841970E-15 -0.35527136788E-14  0.00000000000E+00  0.91188000000E+02  0.91188000000E+02 0.  0.
    9900012    2    3    3    0    0  0.45768791928E+01 -0.20581551698E+02 -0.30186571961E+02  0.54367119780E+02  0.40000081162E+02 0.  0.
        -12    1    3    3    0    0 -0.45768791928E+01  0.20581551698E+02  0.30186571961E+02  0.36820880220E+02  0.00000000000E+00 0.  1.
         11    1    4    4    0    0 -0.74522189172E+01 -0.19042710940E+02 -0.27173532838E+01  0.20628727926E+02  0.51100000000E-03 0. -1.
        -11    1    4    4    0    0  0.29137571576E+01 -0.76139535720E+01 -0.15499608873E+02  0.17512856570E+02  0.51100000000E-03 0.  1.
        -12    1    4    4    0    0  0.91153409524E+01  0.60751128139E+01 -0.11969609804E+02  0.16225535284E+02  0.00000000000E+00 0.  1.
</event>
<event>
 8    1  0.3007389E-007  0.9118800E+02  0.7816164E-02  0.1184000E+00
        -11   -1    0    0    0    0  0.00000000000E+00  0.00000000000E+00  0.45593999997E+02  0.45594000000E+02  0.51100000000E-03 0.  1.
         11   -1    0    0    0    0 -0.00000000000E+00 -0.00000000000E+00 -0.45593999997E+02  0.45594000000E+02  0.51100000000E-03 0. -1.
         23    2    1    2    0    0  0.00000000000E+00  0.17763568394E-14 -0.17763568394E-14  0.91188000000E+02  0.91188000000E+02 0.  0.
    9900012    2    3    3    0    0  0.34949355193E+02  0.69699424579E+01 -0.92597205974E+01  0.54367082686E+02  0.39999996599E+02 0.  0.
        -12    1    3    3    0    0 -0.34949355193E+02 -0.69699424579E+01  0.92597205974E+01  0.36820917314E+02  0.00000000000E+00 0.  1.
         11    1    4    4    0    0  0.22301054604E+02  0.18510921861E+02 -0.14677992378E+02  0.32487454888E+02  0.51100000000E-03 0. -1.
        -11    1    4    4    0    0  0.14139008381E+02 -0.12094516188E+02  0.27990826017E+01  0.18815518687E+02  0.51100000000E-03 0.  1.
         12    1    4    4    0    0 -0.14907077910E+01  0.55353678497E+00  0.26191891788E+01  0.30641091111E+01  0.00000000000E+00 0. -1.
</event>
<event>
 8    1  0.3007389E-007  0.9118800E+02  0.7816164E-02  0.1184000E+00
        -11   -1    0    0    0    0  0.00000000000E+00  0.00000000000E+00  0.45593999997E+02  0.45594000000E+02  0.51100000000E-03 0.  1.
         11   -1    0    0    0    0 -0.00000000000E+00 -0.00000000000E+00 -0.45593999997E+02  0.45594000000E+02  0.51100000000E-03 0. -1.
         23    2    1    2    0    0  0.17763568394E-14 -0.14210854715E-13  0.17763568394E-14  0.91188000000E+02  0.91188000000E+02 0.  0.
    9900012    2    3    3    0    0  0.84390297683E+01 -0.33241165427E+02  0.13401193229E+02  0.54367023881E+02  0.39999862541E+02 0.  0.
         12    1    3    3    0    0 -0.84390297683E+01  0.33241165427E+02 -0.13401193229E+02  0.36820976119E+02  0.00000000000E+00 0. -1.
         11    1    4    4    0    0 -0.10555526877E+02 -0.99788290982E+01  0.13372185827E+02  0.19743645354E+02  0.51100000000E-03 0. -1.
        -11    1    4    4    0    0  0.14228477747E+02 -0.24303103694E+02 -0.38062346989E+01  0.28417914262E+02  0.51100000000E-03 0.  1.
         12    1    4    4    0    0  0.47660788982E+01  0.10407673647E+01  0.38352421006E+01  0.62054642648E+01  0.00000000000E+00 0. -1.
</event>
<event>
 8    1  0.3007389E-007  0.9118800E+02  0.7816164E-02  0.1184000E+00
        -11   -1    0    0    0    0  0.00000000000E+00  0.00000000000E+00  0.45593999997E+02  0.45594000000E+02  0.51100000000E-03 0.  1.
         11   -1    0    0    0    0 -0.00000000000E+00 -0.00000000000E+00 -0.45593999997E+02  0.45594000000E+02  0.51100000000E-03 0. -1.
         23    2    1    2    0    0  0.35527136788E-14 -0.17763568394E-14 -0.35527136788E-14  0.91188000000E+02  0.91188000000E+02 0.  0.
    9900012    2    3    3    0    0  0.27568324856E+02  0.13218741150E+02 -0.20519068149E+02  0.54367084603E+02  0.40000000971E+02 0.  0.
         12    1    3    3    0    0 -0.27568324856E+02 -0.13218741150E+02  0.20519068149E+02  0.36820915397E+02  0.00000000000E+00 0. -1.
         11    1    4    4    0    0  0.13482577084E+02  0.15743447541E+02 -0.19874322926E+02  0.28716280005E+02  0.51100000000E-03 0. -1.
        -11    1    4    4    0    0 -0.35728273358E+01  0.41140377617E+01 -0.36349126964E+01  0.65500375913E+01  0.51100000000E-03 0.  1.
         12    1    4    4    0    0  0.17658575107E+02 -0.66387441525E+01  0.29901674735E+01  0.19100767007E+02  0.00000000000E+00 0. -1.
</event>
<event>
 8    1  0.3007389E-007  0.9118800E+02  0.7816164E-02  0.1184000E+00
        -11   -1    0    0    0    0  0.00000000000E+00  0.00000000000E+00  0.45593999997E+02  0.45594000000E+02  0.51100000000E-03 0.  1.
         11   -1    0    0    0    0 -0.00000000000E+00 -0.00000000000E+00 -0.45593999997E+02  0.45594000000E+02  0.51100000000E-03 0. -1.
         23    2    1    2    0    0  0.00000000000E+00  0.00000000000E+00 -0.35527136788E-14  0.91188000000E+02  0.91188000000E+02 0.  0.
    9900012    2    3    3    0    0 -0.14407451276E+02 -0.26238642673E+02 -0.21441535191E+02  0.54367075882E+02  0.39999981088E+02 0.  0.
        -12    1    3    3    0    0  0.14407451276E+02  0.26238642673E+02  0.21441535191E+02  0.36820924118E+02  0.00000000000E+00 0.  1.
         11    1    4    4    0    0 -0.12276159039E+02 -0.86574177404E+01 -0.25771376405E+02  0.29829830787E+02  0.51100000000E-03 0. -1.
        -11    1    4    4    0    0  0.15265300114E+01 -0.19810076896E+02  0.35678343265E+01  0.20186601560E+02  0.51100000000E-03 0.  1.
        -12    1    4    4    0    0 -0.36578222478E+01  0.22288519638E+01  0.76200688745E+00  0.43506435351E+01  0.00000000000E+00 0.  1.
</event>
<event>
 8    1  0.3007389E-007  0.9118800E+02  0.7816164E-02  0.1184000E+00
        -11   -1    0    0    0    0  0.00000000000E+00  0.00000000000E+00  0.45593999997E+02  0.45594000000E+02  0.51100000000E-03 0. -1.
         11   -1    0    0    0    0 -0.00000000000E+00 -0.00000000000E+00 -0.45593999997E+02  0.45594000000E+02  0.51100000000E-03 0.  1.
         23    2    1    2    0    0  0.00000000000E+00  0.00000000000E+00  0.00000000000E+00  0.91188000000E+02  0.91188000000E+02 0.  0.
    9900012    2    3    3    0    0 -0.25786406088E+02  0.19603502264E+02  0.17508382189E+02  0.54367089000E+02  0.40000010994E+02 0.  0.
        -12    1    3    3    0    0  0.25786406088E+02 -0.19603502264E+02 -0.17508382189E+02  0.36820911000E+02  0.00000000000E+00 0.  1.
         11    1    4    4    0    0 -0.28930402732E+01  0.32674769616E+01  0.44123534268E+01  0.62060414711E+01  0.51100000000E-03 0. -1.
        -11    1    4    4    0    0  0.70728592390E+01 -0.29047318628E+01  0.97530726988E+01  0.12392950913E+02  0.51100000000E-03 0.  1.
        -12    1    4    4    0    0 -0.29966225054E+02  0.19240757165E+02  0.33429560633E+01  0.35768096616E+02  0.00000000000E+00 0.  1.
</event>
<event>
 8    1  0.3007389E-007  0.9118800E+02  0.7816164E-02  0.1184000E+00
        -11   -1    0    0    0    0  0.00000000000E+00  0.00000000000E+00  0.45593999997E+02  0.45594000000E+02  0.51100000000E-03 0.  1.
         11   -1    0    0    0    0 -0.00000000000E+00 -0.00000000000E+00 -0.45593999997E+02  0.45594000000E+02  0.51100000000E-03 0. -1.
         23    2    1    2    0    0 -0.88817841970E-15  0.35527136788E-14 -0.35527136788E-14  0.91188000000E+02  0.91188000000E+02 0.  0.
    9900012    2    3    3    0    0 -0.10820359948E+01  0.20924681536E+02 -0.30278147923E+02  0.54367090982E+02  0.40000015512E+02 0.  0.
         12    1    3    3    0    0  0.10820359948E+01 -0.20924681536E+02  0.30278147923E+02  0.36820909018E+02  0.00000000000E+00 0. -1.
         11    1    4    4    0    0  0.28452506118E+01  0.87248991749E+01 -0.13674813259E+02  0.16468753279E+02  0.51100000000E-03 0. -1.
        -11    1    4    4    0    0  0.59319714958E+01  0.30711381517E+01  0.76597488003E+01  0.10163263616E+02  0.51100000000E-03 0.  1.
         12    1    4    4    0    0 -0.98592581023E+01  0.91286442090E+01 -0.24263083465E+02  0.27735074087E+02  0.00000000000E+00 0. -1.
</event>
<event>
 8    1  0.3007389E-007  0.9118800E+02  0.7816164E-02  0.1184000E+00
        -11   -1    0    0    0    0  0.00000000000E+00  0.00000000000E+00  0.45593999997E+02  0.45594000000E+02  0.51100000000E-03 0.  1.
         11   -1    0    0    0    0 -0.00000000000E+00 -0.00000000000E+00 -0.45593999997E+02  0.45594000000E+02  0.51100000000E-03 0. -1.
         23    2    1    2    0    0  0.00000000000E+00  0.00000000000E+00 -0.35527136788E-14  0.91188000000E+02  0.91188000000E+02 0.  0.
    9900012    2    3    3    0    0  0.29914048948E+02 -0.81069369591E+01  0.19879821610E+02  0.54367081236E+02  0.39999993294E+02 0.  0.
         12    1    3    3    0    0 -0.29914048948E+02  0.81069369591E+01 -0.19879821610E+02  0.36820918764E+02  0.00000000000E+00 0. -1.
         11    1    4    4    0    0  0.19317286660E+02 -0.51055250192E+01 -0.63408298384E+01  0.20962587458E+02  0.51100000000E-03 0. -1.
        -11    1    4    4    0    0 -0.16123761039E+01  0.17070706383E+01  0.17551256261E+02  0.17707637998E+02  0.51100000000E-03 0.  1.
        -12    1    4    4    0    0  0.12209138393E+02 -0.47084825781E+01  0.86693951872E+01  0.15696855780E+02  0.00000000000E+00 0.  1.
</event>
<event>
 8    1  0.3007389E-007  0.9118800E+02  0.7816164E-02  0.1184000E+00
        -11   -1    0    0    0    0  0.00000000000E+00  0.00000000000E+00  0.45593999997E+02  0.45594000000E+02  0.51100000000E-03 0.  1.
         11   -1    0    0    0    0 -0.00000000000E+00 -0.00000000000E+00 -0.45593999997E+02  0.45594000000E+02  0.51100000000E-03 0. -1.
         23    2    1    2    0    0  0.00000000000E+00  0.17763568394E-14  0.00000000000E+00  0.91188000000E+02  0.91188000000E+02 0.  0.
    9900012    2    3    3    0    0  0.33294193227E+02 -0.99511147389E+01 -0.12175971049E+02  0.54367051368E+02  0.39999925205E+02 0.  0.
        -12    1    3    3    0    0 -0.33294193227E+02  0.99511147389E+01  0.12175971049E+02  0.36820948632E+02  0.00000000000E+00 0.  1.
         11    1    4    4    0    0  0.10980463146E+02 -0.88947134647E+01 -0.53654718876E+01  0.15115382475E+02  0.51100000000E-03 0. -1.
        -11    1    4    4    0    0 -0.74885019163E+01  0.16977091253E+01 -0.52109115789E+01  0.92797347467E+01  0.51100000000E-03 0.  1.
        -12    1    4    4    0    0  0.29802231997E+02 -0.27541103995E+01 -0.15995875821E+01  0.29971934147E+02  0.00000000000E+00 0.  1.
</event>
<event>
 8    1  0.3007389E-007  0.9118800E+02  0.7816164E-02  0.1184000E+00
        -11   -1    0    0    0    0  0.00000000000E+00  0.00000000000E+00  0.45593999997E+02  0.45594000000E+02  0.51100000000E-03 0. -1.
         11   -1    0    0    0    0 -0.00000000000E+00 -0.00000000000E+00 -0.45593999997E+02  0.45594000000E+02  0.51100000000E-03 0.  1.
         23    2    1    2    0    0 -0.35527136788E-14 -0.35527136788E-14  0.00000000000E+00  0.91188000000E+02  0.91188000000E+02 0.  0.
    9900012    2    3    3    0    0  0.11457594394E+02 -0.20805273803E+02  0.28136157586E+02  0.54367092202E+02  0.40000018293E+02 0.  0.
        -12    1    3    3    0    0 -0.11457594394E+02  0.20805273803E+02 -0.28136157586E+02  0.36820907798E+02  0.00000000000E+00 0.  1.
         11    1    4    4    0    0 -0.86302793260E+01 -0.89814492286E+00  0.14863379230E+01  0.88032713368E+01  0.51100000000E-03 0.  1.
        -11    1    4    4    0    0  0.22751612463E+02 -0.15959319859E+02  0.29074086344E+02  0.40219873906E+02  0.51100000000E-03 0. -1.
         12    1    4    4    0    0 -0.26637387428E+01 -0.39478090216E+01 -0.24242666808E+01  0.53439469590E+01  0.00000000000E+00 0. -1.
</event>
<event>
 8    1  0.3007389E-007  0.9118800E+02  0.7816164E-02  0.1184000E+00
        -11   -1    0    0    0    0  0.00000000000E+00  0.00000000000E+00  0.45593999997E+02  0.45594000000E+02  0.51100000000E-03 0.  1.
         11   -1    0    0    0    0 -0.00000000000E+00 -0.00000000000E+00 -0.45593999997E+02  0.45594000000E+02  0.51100000000E-03 0. -1.
         23    2    1    2    0    0  0.00000000000E+00 -0.88817841970E-15  0.00000000000E+00  0.91188000000E+02  0.91188000000E+02 0.  0.
    9900012    2    3    3    0    0 -0.16106934393E+02 -0.40885563051E+01 -0.32857738013E+02  0.54367074217E+02  0.39999977293E+02 0.  0.
        -12    1    3    3    0    0  0.16106934393E+02  0.40885563051E+01  0.32857738013E+02  0.36820925783E+02  0.00000000000E+00 0.  1.
         11    1    4    4    0    0 -0.80233263128E+01  0.77118633349E+01 -0.33381447755E+02  0.35187606564E+02  0.51100000000E-03 0. -1.
        -11    1    4    4    0    0 -0.60126965995E+01 -0.96325020622E+01 -0.53746969801E+01  0.12562841409E+02  0.51100000000E-03 0.  1.
        -12    1    4    4    0    0 -0.20709114809E+01 -0.21679175777E+01  0.58984067227E+01  0.66166262440E+01  0.00000000000E+00 0.  1.
</event>
<event>
 8    1  0.3007389E-007  0.9118800E+02  0.7816164E-02  0.1184000E+00
        -11   -1    0    0    0    0  0.00000000000E+00  0.00000000000E+00  0.45593999997E+02  0.45594000000E+02  0.51100000000E-03 0.  1.
         11   -1    0    0    0    0 -0.00000000000E+00 -0.00000000000E+00 -0.45593999997E+02  0.45594000000E+02  0.51100000000E-03 0. -1.
         23    2    1    2    0    0 -0.44408920985E-15  0.00000000000E+00 -0.35527136788E-14  0.91188000000E+02  0.91188000000E+02 0.  0.
    9900012    2    3    3    0    0  0.26262253696E+01  0.28213372135E+02  0.23513697679E+02  0.54367008630E+02  0.39999827774E+02 0.  0.
         12    1    3    3    0    0 -0.26262253696E+01 -0.28213372135E+02 -0.23513697679E+02  0.36820991370E+02  0.00000000000E+00 0. -1.
         11    1    4    4    0    0 -0.37593091442E+01  0.72757474395E+01  0.17731579059E+02  0.19531456736E+02  0.51100000000E-03 0. -1.
        -11    1    4    4    0    0  0.13882041975E+02  0.14761113896E+02  0.11761565074E+02  0.23429382964E+02  0.51100000000E-03 0.  1.
         12    1    4    4    0    0 -0.74965074613E+01  0.61765107994E+01 -0.59794464532E+01  0.11406168930E+02  0.00000000000E+00 0. -1.
</event>
<event>
 8    1  0.3007389E-007  0.9118800E+02  0.7816164E-02  0.1184000E+00
        -11   -1    0    0    0    0  0.00000000000E+00  0.00000000000E+00  0.45593999997E+02  0.45594000000E+02  0.51100000000E-03 0. -1.
         11   -1    0    0    0    0 -0.00000000000E+00 -0.00000000000E+00 -0.45593999997E+02  0.45594000000E+02  0.51100000000E-03 0.  1.
         23    2    1    2    0    0  0.00000000000E+00 -0.71054273576E-14 -0.44408920985E-15  0.91188000000E+02  0.91188000000E+02 0.  0.
    9900012    2    3    3    0    0 -0.17880041813E+02  0.32054141749E+02 -0.29343489196E+01  0.54367159406E+02  0.40000171497E+02 0.  0.
         12    1    3    3    0    0  0.17880041813E+02 -0.32054141749E+02  0.29343489196E+01  0.36820840594E+02  0.00000000000E+00 0. -1.
         11    1    4    4    0    0 -0.13581018041E+02  0.11287183963E+02  0.82270120795E+01  0.19481486105E+02  0.51100000000E-03 0.  1.
        -11    1    4    4    0    0 -0.65981793281E+01 -0.39589698019E+01 -0.53798452731E+01  0.93889375204E+01  0.51100000000E-03 0. -1.
        -12    1    4    4    0    0  0.22991555560E+01  0.24725927588E+02 -0.57815157261E+01  0.25496735780E+02  0.00000000000E+00 0.  1.
</event>
<event>
 8    1  0.3007389E-007  0.9118800E+02  0.7816164E-02  0.1184000E+00
        -11   -1    0    0    0    0  0.00000000000E+00  0.00000000000E+00  0.45593999997E+02  0.45594000000E+02  0.51100000000E-03 0.  1.
         11   -1    0    0    0    0 -0.00000000000E+00 -0.00000000000E+00 -0.45593999997E+02  0.45594000000E+02  0.51100000000E-03 0. -1.
         23    2    1    2    0    0  0.00000000000E+00 -0.17763568394E-14  0.44408920985E-15  0.91188000000E+02  0.91188000000E+02 0.  0.
    9900012    2    3    3    0    0 -0.33302191857E+02  0.15429431403E+02  0.29453816265E+01  0.54367100923E+02  0.40000038174E+02 0.  0.
         12    1    3    3    0    0  0.33302191857E+02 -0.15429431403E+02 -0.29453816265E+01  0.36820899077E+02  0.00000000000E+00 0. -1.
         11    1    4    4    0    0 -0.16560928865E+02  0.25981402291E+02  0.10626242201E+02  0.32591634716E+02  0.51100000000E-03 0. -1.
        -11    1    4    4    0    0 -0.62476206099E+00 -0.15510864167E+01  0.23794518768E+00  0.16890277909E+01  0.51100000000E-03 0.  1.
        -12    1    4    4    0    0 -0.16116500931E+02 -0.90008844715E+01 -0.79188057627E+01  0.20086438416E+02  0.00000000000E+00 0.  1.
</event>
<event>
 8    1  0.3007389E-007  0.9118800E+02  0.7816164E-02  0.1184000E+00
        -11   -1    0    0    0    0  0.00000000000E+00  0.00000000000E+00  0.45593999997E+02  0.45594000000E+02  0.51100000000E-03 0.  1.
         11   -1    0    0    0    0 -0.00000000000E+00 -0.00000000000E+00 -0.45593999997E+02  0.45594000000E+02  0.51100000000E-03 0. -1.
         23    2    1    2    0    0  0.88817841970E-15  0.00000000000E+00 -0.17763568394E-14  0.91188000000E+02  0.91188000000E+02 0.  0.
    9900012    2    3    3    0    0 -0.72200778232E+01 -0.32400127958E+02  0.15933893418E+02  0.54366990034E+02  0.39999785380E+02 0.  0.
         12    1    3    3    0    0  0.72200778232E+01  0.32400127958E+02 -0.15933893418E+02  0.36821009966E+02  0.00000000000E+00 0. -1.
         11    1    4    4    0    0  0.43720575882E+01 -0.11772009452E+02 -0.38464423604E+01  0.13133552953E+02  0.51100000000E-03 0. -1.
        -11    1    4    4    0    0 -0.20604569713E+02 -0.13242763385E+02  0.12561490369E+02  0.27526534756E+02  0.51100000000E-03 0.  1.
         12    1    4    4    0    0  0.90124343011E+01 -0.73853551211E+01  0.72188454100E+01  0.13706902325E+02  0.00000000000E+00 0. -1.
</event>
<event>
 8    1  0.3007389E-007  0.9118800E+02  0.7816164E-02  0.1184000E+00
        -11   -1    0    0    0    0  0.00000000000E+00  0.00000000000E+00  0.45593999997E+02  0.45594000000E+02  0.51100000000E-03 0. -1.
         11   -1    0    0    0    0 -0.00000000000E+00 -0.00000000000E+00 -0.45593999997E+02  0.45594000000E+02  0.51100000000E-03 0.  1.
         23    2    1    2    0    0  0.35527136788E-14  0.35527136788E-14 -0.44408920985E-15  0.91188000000E+02  0.91188000000E+02 0.  0.
    9900012    2    3    3    0    0  0.24814311922E+02 -0.27078286375E+02  0.26067570449E+01  0.54367097628E+02  0.40000030664E+02 0.  0.
        -12    1    3    3    0    0 -0.24814311922E+02  0.27078286375E+02 -0.26067570449E+01  0.36820902372E+02  0.00000000000E+00 0.  1.
         11    1    4    4    0    0 -0.60590664543E+00 -0.91932226545E+01 -0.29718902192E+01  0.96806300092E+01  0.51100000000E-03 0. -1.
        -11    1    4    4    0    0  0.30803335450E+02 -0.65547805040E+01  0.16282708996E+01  0.31535089800E+02  0.51100000000E-03 0.  1.
         12    1    4    4    0    0 -0.53831168824E+01 -0.11330283216E+02  0.39503763644E+01  0.13151377819E+02  0.00000000000E+00 0. -1.
</event>
<event>
 8    1  0.3007389E-007  0.9118800E+02  0.7816164E-02  0.1184000E+00
        -11   -1    0    0    0    0  0.00000000000E+00  0.00000000000E+00  0.45593999997E+02  0.45594000000E+02  0.51100000000E-03 0.  1.
         11   -1    0    0    0    0 -0.00000000000E+00 -0.00000000000E+00 -0.45593999997E+02  0.45594000000E+02  0.51100000000E-03 0. -1.
         23    2    1    2    0    0 -0.35527136788E-14  0.00000000000E+00  0.17763568394E-14  0.91188000000E+02  0.91188000000E+02 0.  0.
    9900012    2    3    3    0    0  0.27469561565E+02 -0.22183841554E+02 -0.10443985413E+02  0.54367129967E+02  0.40000104387E+02 0.  0.
        -12    1    3    3    0    0 -0.27469561565E+02  0.22183841554E+02  0.10443985413E+02  0.36820870033E+02  0.00000000000E+00 0.  1.
         11    1    4    4    0    0  0.12632213762E+02  0.27343262337E+01 -0.15542993285E+02  0.20214697747E+02  0.51100000000E-03 0. -1.
        -11    1    4    4    0    0  0.38796714507E+01  0.22291091837E+01  0.28092014225E+00  0.44832683063E+01  0.51100000000E-03 0.  1.
         12    1    4    4    0    0  0.10957676352E+02 -0.27147276971E+02  0.48180877298E+01  0.29669163914E+02  0.00000000000E+00 0. -1.
</event>
<event>
 8    1  0.3007389E-007  0.9118800E+02  0.7816164E-02  0.1184000E+00
        -11   -1    0    0    0    0  0.00000000000E+00  0.00000000000E+00  0.45593999997E+02  0.45594000000E+02  0.51100000000E-03 0. -1.
         11   -1    0    0    0    0 -0.00000000000E+00 -0.00000000000E+00 -0.45593999997E+02  0.45594000000E+02  0.51100000000E-03 0.  1.
         23    2    1    2    0    0  0.00000000000E+00  0.00000000000E+00 -0.17763568394E-14  0.91188000000E+02  0.91188000000E+02 0.  0.
    9900012    2    3    3    0    0  0.31507915200E+02 -0.15918580052E+02 -0.10470435401E+02  0.54367083002E+02  0.39999997319E+02 0.  0.
         12    1    3    3    0    0 -0.31507915200E+02  0.15918580052E+02  0.10470435401E+02  0.36820916998E+02  0.00000000000E+00 0. -1.
         11    1    4    4    0    0  0.27839861067E+01 -0.16971055640E+01  0.10689646489E+01  0.34312434509E+01  0.51100000000E-03 0. -1.
        -11    1    4    4    0    0  0.12520943868E+02 -0.22877004643E+02 -0.17747444205E+02  0.31545255632E+02  0.51100000000E-03 0.  1.
        -12    1    4    4    0    0  0.16202985225E+02  0.86555301554E+01  0.62080441552E+01  0.19390583919E+02  0.00000000000E+00 0.  1.
</event>
<event>
 8    1  0.3007389E-007  0.9118800E+02  0.7816164E-02  0.1184000E+00
        -11   -1    0    0    0    0  0.00000000000E+00  0.00000000000E+00  0.45593999997E+02  0.45594000000E+02  0.51100000000E-03 0. -1.
         11   -1    0    0    0    0 -0.00000000000E+00 -0.00000000000E+00 -0.45593999997E+02  0.45594000000E+02  0.51100000000E-03 0.  1.
         23    2    1    2    0    0 -0.35527136788E-14  0.00000000000E+00  0.35527136788E-14  0.91188000000E+02  0.91188000000E+02 0.  0.
    9900012    2    3    3    0    0 -0.28765237302E+02  0.10872840840E+02  0.20251461106E+02  0.54367092598E+02  0.40000019196E+02 0.  0.
        -12    1    3    3    0    0  0.28765237302E+02 -0.10872840840E+02 -0.20251461106E+02  0.36820907402E+02  0.00000000000E+00 0.  1.
         11    1    4    4    0    0  0.42409712605E+01 -0.92935398627E+01  0.98050840061E+01  0.14159639580E+02  0.51100000000E-03 0.  1.
        -11    1    4    4    0    0 -0.27512367438E+02  0.16246375499E+02  0.98363641908E+01  0.33430960794E+02  0.51100000000E-03 0. -1.
        -12    1    4    4    0    0 -0.54938411247E+01  0.39200052044E+01  0.61001290931E+00  0.67764922236E+01  0.00000000000E+00 0.  1.
</event>
<event>
 8    1  0.3007389E-007  0.9118800E+02  0.7816164E-02  0.1184000E+00
        -11   -1    0    0    0    0  0.00000000000E+00  0.00000000000E+00  0.45593999997E+02  0.45594000000E+02  0.51100000000E-03 0. -1.
         11   -1    0    0    0    0 -0.00000000000E+00 -0.00000000000E+00 -0.45593999997E+02  0.45594000000E+02  0.51100000000E-03 0.  1.
         23    2    1    2    0    0 -0.13322676296E-14  0.00000000000E+00  0.00000000000E+00  0.91188000000E+02  0.91188000000E+02 0.  0.
    9900012    2    3    3    0    0  0.36888450010E+01 -0.86911438090E+01  0.35589852946E+02  0.54367065861E+02  0.39999958243E+02 0.  0.
        -12    1    3    3    0    0 -0.36888450010E+01  0.86911438090E+01 -0.35589852946E+02  0.36820934139E+02  0.00000000000E+00 0.  1.
         11    1    4    4    0    0  0.13584659343E+02  0.50371091473E+01  0.14829389917E+02  0.20732251291E+02  0.51100000000E-03 0. -1.
        -11    1    4    4    0    0  0.45542430986E+01 -0.53699837302E+01  0.13910053957E+02  0.15590620796E+02  0.51100000000E-03 0.  1.
        -12    1    4    4    0    0 -0.14450057441E+02 -0.83582692261E+01  0.68504090730E+01  0.18044193774E+02  0.00000000000E+00 0.  1.
</event>
<event>
 8    1  0.3007389E-007  0.9118800E+02  0.7816164E-02  0.1184000E+00
        -11   -1    0    0    0    0  0.00000000000E+00  0.00000000000E+00  0.45593999997E+02  0.45594000000E+02  0.51100000000E-03 0. -1.
         11   -1    0    0    0    0 -0.00000000000E+00 -0.00000000000E+00 -0.45593999997E+02  0.45594000000E+02  0.51100000000E-03 0.  1.
         23    2    1    2    0    0  0.00000000000E+00  0.00000000000E+00  0.00000000000E+00  0.91188000000E+02  0.91188000000E+02 0.  0.
    9900012    2    3    3    0    0 -0.28273607141E+01 -0.29113760956E+02  0.22364416134E+02  0.54367188566E+02  0.40000237974E+02 0.  0.
        -12    1    3    3    0    0  0.28273607141E+01  0.29113760956E+02 -0.22364416134E+02  0.36820811434E+02  0.00000000000E+00 0.  1.
         11    1    4    4    0    0 -0.74321633336E+01 -0.13573828420E+02 -0.38256686253E+01  0.15941192254E+02  0.51100000000E-03 0. -1.
        -11    1    4    4    0    0  0.61049104100E+01 -0.38614084264E+00 -0.19579997188E+01  0.64228341894E+01  0.51100000000E-03 0.  1.
         12    1    4    4    0    0 -0.15001077904E+01 -0.15153791693E+02  0.28148084479E+02  0.32003162123E+02  0.00000000000E+00 0. -1.
</event>
<event>
 8    1  0.3007389E-007  0.9118800E+02  0.7816164E-02  0.1184000E+00
        -11   -1    0    0    0    0  0.00000000000E+00  0.00000000000E+00  0.45593999997E+02  0.45594000000E+02  0.51100000000E-03 0. -1.
         11   -1    0    0    0    0 -0.00000000000E+00 -0.00000000000E+00 -0.45593999997E+02  0.45594000000E+02  0.51100000000E-03 0.  1.
         23    2    1    2    0    0  0.00000000000E+00  0.00000000000E+00  0.00000000000E+00  0.91188000000E+02  0.91188000000E+02 0.  0.
    9900012    2    3    3    0    0  0.18878434709E+01  0.19166208151E+02  0.31382864947E+02  0.54366923154E+02  0.39999632911E+02 0.  0.
        -12    1    3    3    0    0 -0.18878434709E+01 -0.19166208151E+02 -0.31382864947E+02  0.36821076846E+02  0.00000000000E+00 0.  1.
         11    1    4    4    0    0 -0.73799409757E+01  0.16344447895E+02  0.91552252985E+01  0.20135110040E+02  0.51100000000E-03 0. -1.
        -11    1    4    4    0    0  0.39778596366E+01 -0.89744622955E+01  0.18221102920E+02  0.20697172094E+02  0.51100000000E-03 0.  1.
         12    1    4    4    0    0  0.52899248100E+01  0.11796222552E+02  0.40065367280E+01  0.13534641020E+02  0.00000000000E+00 0. -1.
</event>
<event>
 8    1  0.3007389E-007  0.9118800E+02  0.7816164E-02  0.1184000E+00
        -11   -1    0    0    0    0  0.00000000000E+00  0.00000000000E+00  0.45593999997E+02  0.45594000000E+02  0.51100000000E-03 0.  1.
         11   -1    0    0    0    0 -0.00000000000E+00 -0.00000000000E+00 -0.45593999997E+02  0.45594000000E+02  0.51100000000E-03 0. -1.
         23    2    1    2    0    0 -0.20539125956E-14  0.00000000000E+00  0.00000000000E+00  0.91188000000E+02  0.91188000000E+02 0.  0.
    9900012    2    3    3    0    0 -0.40156635727E+00 -0.31032693530E+02 -0.19813909681E+02  0.54367077413E+02  0.39999984580E+02 0.  0.
        -12    1    3    3    0    0  0.40156635727E+00  0.31032693530E+02  0.19813909681E+02  0.36820922587E+02  0.00000000000E+00 0.  1.
         11    1    4    4    0    0 -0.34577008056E+01 -0.40597009789E+01 -0.11558290352E+02  0.12729137560E+02  0.51100000000E-03 0. -1.
        -11    1    4    4    0    0 -0.58962204668E+01 -0.14115010981E+01 -0.12811445569E+02  0.14173598307E+02  0.51100000000E-03 0.  1.
         12    1    4    4    0    0  0.89523549152E+01 -0.25561491453E+02  0.45558262401E+01  0.27464341546E+02  0.00000000000E+00 0. -1.
</event>
<event>
 8    1  0.3007389E-007  0.9118800E+02  0.7816164E-02  0.1184000E+00
        -11   -1    0    0    0    0  0.00000000000E+00  0.00000000000E+00  0.45593999997E+02  0.45594000000E+02  0.51100000000E-03 0.  1.
         11   -1    0    0    0    0 -0.00000000000E+00 -0.00000000000E+00 -0.45593999997E+02  0.45594000000E+02  0.51100000000E-03 0. -1.
         23    2    1    2    0    0  0.00000000000E+00  0.00000000000E+00  0.00000000000E+00  0.91188000000E+02  0.91188000000E+02 0.  0.
    9900012    2    3    3    0    0  0.22674688980E+02 -0.27808531878E+02  0.82657962878E+01  0.54367090806E+02  0.40000015112E+02 0.  0.
        -12    1    3    3    0    0 -0.22674688980E+02  0.27808531878E+02 -0.82657962878E+01  0.36820909194E+02  0.00000000000E+00 0.  1.
         11    1    4    4    0    0 -0.10262447546E+01  0.37486104476E+01 -0.73059814959E+01  0.82754229175E+01  0.51100000000E-03 0. -1.
        -11    1    4    4    0    0  0.24829710326E+02 -0.21932058406E+02  0.15048142947E+02  0.36386485227E+02  0.51100000000E-03 0.  1.
        -12    1    4    4    0    0 -0.11287765909E+01 -0.96250839196E+01  0.52363483668E+00  0.97051826615E+01  0.00000000000E+00 0.  1.
</event>
<event>
 8    1  0.3007389E-007  0.9118800E+02  0.7816164E-02  0.1184000E+00
        -11   -1    0    0    0    0  0.00000000000E+00  0.00000000000E+00  0.45593999997E+02  0.45594000000E+02  0.51100000000E-03 0. -1.
         11   -1    0    0    0    0 -0.00000000000E+00 -0.00000000000E+00 -0.45593999997E+02  0.45594000000E+02  0.51100000000E-03 0.  1.
         23    2    1    2    0    0  0.66613381478E-15  0.00000000000E+00  0.00000000000E+00  0.91188000000E+02  0.91188000000E+02 0.  0.
    9900012    2    3    3    0    0 -0.11223884168E+01  0.25941694735E+02 -0.26106466777E+02  0.54367097118E+02  0.40000029499E+02 0.  0.
         12    1    3    3    0    0  0.11223884168E+01 -0.25941694735E+02  0.26106466777E+02  0.36820902882E+02  0.00000000000E+00 0. -1.
         11    1    4    4    0    0  0.13886091759E+02 -0.97848744355E+00 -0.90227164967E+01  0.16588863591E+02  0.51100000000E-03 0. -1.
        -11    1    4    4    0    0 -0.27883085059E+01  0.18312487959E+02 -0.72809713883E+01  0.19903125990E+02  0.51100000000E-03 0.  1.
        -12    1    4    4    0    0 -0.12220171669E+02  0.86076942196E+01 -0.98027788923E+01  0.17875107536E+02  0.00000000000E+00 0.  1.
</event>
<event>
 8    1  0.3007389E-007  0.9118800E+02  0.7816164E-02  0.1184000E+00
        -11   -1    0    0    0    0  0.00000000000E+00  0.00000000000E+00  0.45593999997E+02  0.45594000000E+02  0.51100000000E-03 0.  1.
         11   -1    0    0    0    0 -0.00000000000E+00 -0.00000000000E+00 -0.45593999997E+02  0.45594000000E+02  0.51100000000E-03 0. -1.
         23    2    1    2    0    0  0.00000000000E+00  0.35527136788E-14 -0.35527136788E-14  0.91188000000E+02  0.91188000000E+02 0.  0.
    9900012    2    3    3    0    0 -0.26218098189E+02 -0.24066039985E+02  0.94454329322E+01  0.54367093486E+02  0.40000021220E+02 0.  0.
         12    1    3    3    0    0  0.26218098189E+02  0.24066039985E+02 -0.94454329322E+01  0.36820906514E+02  0.00000000000E+00 0. -1.
         11    1    4    4    0    0 -0.32335259393E+01 -0.23359225857E+01  0.12864411508E+02  0.13468678779E+02  0.51100000000E-03 0. -1.
        -11    1    4    4    0    0 -0.66595041314E+01 -0.29990601803E+01  0.10214515957E+02  0.12557057527E+02  0.51100000000E-03 0.  1.
         12    1    4    4    0    0 -0.16325068119E+02 -0.18731057219E+02 -0.13633494533E+02  0.28341357180E+02  0.00000000000E+00 0. -1.
</event>
<event>
 8    1  0.3007389E-007  0.9118800E+02  0.7816164E-02  0.1184000E+00
        -11   -1    0    0    0    0  0.00000000000E+00  0.00000000000E+00  0.45593999997E+02  0.45594000000E+02  0.51100000000E-03 0.  1.
         11   -1    0    0    0    0 -0.00000000000E+00 -0.00000000000E+00 -0.45593999997E+02  0.45594000000E+02  0.51100000000E-03 0. -1.
         23    2    1    2    0    0  0.00000000000E+00 -0.44408920985E-15  0.00000000000E+00  0.91188000000E+02  0.91188000000E+02 0.  0.
    9900012    2    3    3    0    0  0.13681405802E+02  0.78666960712E+00  0.34175749591E+02  0.54367060660E+02  0.39999946386E+02 0.  0.
         12    1    3    3    0    0 -0.13681405802E+02 -0.78666960712E+00 -0.34175749591E+02  0.36820939340E+02  0.00000000000E+00 0. -1.
         11    1    4    4    0    0  0.19588049718E+02  0.27153597742E+01  0.80401988736E+01  0.21347357416E+02  0.51100000000E-03 0. -1.
        -11    1    4    4    0    0  0.48417188137E+01 -0.51663041933E+01  0.17433102991E+02  0.18816110657E+02  0.51100000000E-03 0.  1.
        -12    1    4    4    0    0 -0.10748362730E+02  0.32376140263E+01  0.87024477268E+01  0.14203592587E+02  0.00000000000E+00 0.  1.
</event>
<event>
 8    1  0.3007389E-007  0.9118800E+02  0.7816164E-02  0.1184000E+00
        -11   -1    0    0    0    0  0.00000000000E+00  0.00000000000E+00  0.45593999997E+02  0.45594000000E+02  0.51100000000E-03 0.  1.
         11   -1    0    0    0    0 -0.00000000000E+00 -0.00000000000E+00 -0.45593999997E+02  0.45594000000E+02  0.51100000000E-03 0. -1.
         23    2    1    2    0    0  0.35527136788E-14  0.00000000000E+00  0.00000000000E+00  0.91188000000E+02  0.91188000000E+02 0.  0.
    9900012    2    3    3    0    0 -0.25902077565E+02  0.21390747257E+02 -0.15076401978E+02  0.54367087640E+02  0.40000007893E+02 0.  0.
        -12    1    3    3    0    0  0.25902077565E+02 -0.21390747257E+02  0.15076401978E+02  0.36820912360E+02  0.00000000000E+00 0.  1.
         11    1    4    4    0    0 -0.11591826170E+02  0.89404046099E+01 -0.19717232449E+02  0.24557494258E+02  0.51100000000E-03 0. -1.
        -11    1    4    4    0    0 -0.15151005439E+02  0.55338171411E+01 -0.58991473383E+01  0.17174866449E+02  0.51100000000E-03 0.  1.
        -12    1    4    4    0    0  0.84075404364E+00  0.69165255060E+01  0.10539977809E+02  0.12634726932E+02  0.00000000000E+00 0.  1.
</event>
<event>
 8    1  0.3007389E-007  0.9118800E+02  0.7816164E-02  0.1184000E+00
        -11   -1    0    0    0    0  0.00000000000E+00  0.00000000000E+00  0.45593999997E+02  0.45594000000E+02  0.51100000000E-03 0.  1.
         11   -1    0    0    0    0 -0.00000000000E+00 -0.00000000000E+00 -0.45593999997E+02  0.45594000000E+02  0.51100000000E-03 0. -1.
         23    2    1    2    0    0  0.00000000000E+00 -0.24424906542E-14  0.00000000000E+00  0.91188000000E+02  0.91188000000E+02 0.  0.
    9900012    2    3    3    0    0 -0.34515392681E+02 -0.15931901511E+01 -0.12725191729E+02  0.54367067213E+02  0.39999961325E+02 0.  0.
        -12    1    3    3    0    0  0.34515392681E+02  0.15931901511E+01  0.12725191729E+02  0.36820932787E+02  0.00000000000E+00 0.  1.
         11    1    4    4    0    0 -0.95967486293E+01  0.84206161201E+01 -0.58731503416E+01  0.14053407249E+02  0.51100000000E-03 0. -1.
        -11    1    4    4    0    0 -0.11025838823E+02  0.52535212757E+01 -0.13898060174E+02  0.18502018387E+02  0.51100000000E-03 0.  1.
        -12    1    4    4    0    0 -0.13892805228E+02 -0.15267327547E+02  0.70460187865E+01  0.21811641577E+02  0.00000000000E+00 0.  1.
</event>
<event>
 8    1  0.3007389E-007  0.9118800E+02  0.7816164E-02  0.1184000E+00
        -11   -1    0    0    0    0  0.00000000000E+00  0.00000000000E+00  0.45593999997E+02  0.45594000000E+02  0.51100000000E-03 0. -1.
         11   -1    0    0    0    0 -0.00000000000E+00 -0.00000000000E+00 -0.45593999997E+02  0.45594000000E+02  0.51100000000E-03 0.  1.
         23    2    1    2    0    0  0.00000000000E+00  0.00000000000E+00  0.00000000000E+00  0.91188000000E+02  0.91188000000E+02 0.  0.
    9900012    2    3    3    0    0  0.11457824770E+02  0.29424651395E+02 -0.18939051214E+02  0.54367088563E+02  0.40000009997E+02 0.  0.
        -12    1    3    3    0    0 -0.11457824770E+02 -0.29424651395E+02  0.18939051214E+02  0.36820911437E+02  0.00000000000E+00 0.  1.
         11    1    4    4    0    0  0.12765222620E+02 -0.22308625529E+01  0.49493066414E+01  0.13871672313E+02  0.51100000000E-03 0. -1.
        -11    1    4    4    0    0 -0.27312913237E+01  0.13009524227E+02 -0.58857632412E+01  0.14537877496E+02  0.51100000000E-03 0.  1.
         12    1    4    4    0    0  0.14238934741E+01  0.18645989721E+02 -0.18002594615E+02  0.25957538754E+02  0.00000000000E+00 0. -1.
</event>
<event>
 8    1  0.3007389E-007  0.9118800E+02  0.7816164E-02  0.1184000E+00
        -11   -1    0    0    0    0  0.00000000000E+00  0.00000000000E+00  0.45593999997E+02  0.45594000000E+02  0.51100000000E-03 0. -1.
         11   -1    0    0    0    0 -0.00000000000E+00 -0.00000000000E+00 -0.45593999997E+02  0.45594000000E+02  0.51100000000E-03 0.  1.
         23    2    1    2    0    0  0.17763568394E-14 -0.17763568394E-14 -0.71054273576E-14  0.91188000000E+02  0.91188000000E+02 0.  0.
    9900012    2    3    3    0    0 -0.82925217465E+01  0.12273673618E+02  0.33710089408E+02  0.54367094132E+02  0.40000022693E+02 0.  0.
        -12    1    3    3    0    0  0.82925217465E+01 -0.12273673618E+02 -0.33710089408E+02  0.36820905868E+02  0.00000000000E+00 0.  1.
         11    1    4    4    0    0 -0.65978256775E+01 -0.15464930912E+01  0.24312451986E+02  0.25239220796E+02  0.51100000000E-03 0. -1.
        -11    1    4    4    0    0  0.79368783016E+01  0.15043959466E+02  0.24402428944E+01  0.17183408836E+02  0.51100000000E-03 0.  1.
         12    1    4    4    0    0 -0.96315743706E+01 -0.12237927567E+01  0.69573945278E+01  0.11944464500E+02  0.00000000000E+00 0. -1.
</event>
<event>
 8    1  0.3007389E-007  0.9118800E+02  0.7816164E-02  0.1184000E+00
        -11   -1    0    0    0    0  0.00000000000E+00  0.00000000000E+00  0.45593999997E+02  0.45594000000E+02  0.51100000000E-03 0.  1.
         11   -1    0    0    0    0 -0.00000000000E+00 -0.00000000000E+00 -0.45593999997E+02  0.45594000000E+02  0.51100000000E-03 0. -1.
         23    2    1    2    0    0  0.00000000000E+00  0.00000000000E+00 -0.17763568394E-14  0.91188000000E+02  0.91188000000E+02 0.  0.
    9900012    2    3    3    0    0 -0.33152137596E+02  0.13296873582E+02  0.89391562604E+01  0.54367087615E+02  0.40000007836E+02 0.  0.
        -12    1    3    3    0    0  0.33152137596E+02 -0.13296873582E+02 -0.89391562604E+01  0.36820912385E+02  0.00000000000E+00 0.  1.
         11    1    4    4    0    0 -0.43723465669E+01 -0.12496728465E+01  0.18333959859E+00  0.45511218829E+01  0.51100000000E-03 0. -1.
        -11    1    4    4    0    0 -0.15270998928E+02 -0.50818029061E+01  0.18100855587E+02  0.24221253111E+02  0.51100000000E-03 0.  1.
         12    1    4    4    0    0 -0.13508792101E+02  0.19628349335E+02 -0.93450389250E+01  0.25594712621E+02  0.00000000000E+00 0. -1.
</event>
<event>
 8    1  0.3007389E-007  0.9118800E+02  0.7816164E-02  0.1184000E+00
        -11   -1    0    0    0    0  0.00000000000E+00  0.00000000000E+00  0.45593999997E+02  0.45594000000E+02  0.51100000000E-03 0.  1.
         11   -1    0    0    0    0 -0.00000000000E+00 -0.00000000000E+00 -0.45593999997E+02  0.45594000000E+02  0.51100000000E-03 0. -1.
         23    2    1    2    0    0  0.00000000000E+00  0.00000000000E+00  0.00000000000E+00  0.91188000000E+02  0.91188000000E+02 0.  0.
    9900012    2    3    3    0    0 -0.18384845842E+02  0.31758602048E+01  0.31744169437E+02  0.54367069296E+02  0.39999966074E+02 0.  0.
         12    1    3    3    0    0  0.18384845842E+02 -0.31758602048E+01 -0.31744169437E+02  0.36820930704E+02  0.00000000000E+00 0. -1.
         11    1    4    4    0    0 -0.28463547536E+01  0.52890565778E+01 -0.69250401225E+01  0.91668989209E+01  0.51100000000E-03 0. -1.
        -11    1    4    4    0    0 -0.91567878570E+01  0.73948544057E+01  0.22415834955E+02  0.25317983580E+02  0.51100000000E-03 0.  1.
         12    1    4    4    0    0 -0.63817032319E+01 -0.95080507788E+01  0.16253374604E+02  0.19882186795E+02  0.00000000000E+00 0. -1.
</event>
<event>
 8    1  0.3007389E-007  0.9118800E+02  0.7816164E-02  0.1184000E+00
        -11   -1    0    0    0    0  0.00000000000E+00  0.00000000000E+00  0.45593999997E+02  0.45594000000E+02  0.51100000000E-03 0.  1.
         11   -1    0    0    0    0 -0.00000000000E+00 -0.00000000000E+00 -0.45593999997E+02  0.45594000000E+02  0.51100000000E-03 0. -1.
         23    2    1    2    0    0  0.71054273576E-14  0.17763568394E-14  0.00000000000E+00  0.91188000000E+02  0.91188000000E+02 0.  0.
    9900012    2    3    3    0    0 -0.26796661432E+02 -0.11359950176E+02  0.22553734956E+02  0.54367075346E+02  0.39999979866E+02 0.  0.
         12    1    3    3    0    0  0.26796661432E+02  0.11359950176E+02 -0.22553734956E+02  0.36820924654E+02  0.00000000000E+00 0. -1.
         11    1    4    4    0    0 -0.70574835839E+01 -0.14846927077E+02 -0.17132288743E+01  0.16527990550E+02  0.51100000000E-03 0. -1.
        -11    1    4    4    0    0 -0.65410832810E+01  0.11758634993E+02  0.11436140229E+02  0.17658894953E+02  0.51100000000E-03 0.  1.
         12    1    4    4    0    0 -0.13198094568E+02 -0.82716580915E+01  0.12830823602E+02  0.20180189843E+02  0.00000000000E+00 0. -1.
</event>
<event>
 8    1  0.3007389E-007  0.9118800E+02  0.7816164E-02  0.1184000E+00
        -11   -1    0    0    0    0  0.00000000000E+00  0.00000000000E+00  0.45593999997E+02  0.45594000000E+02  0.51100000000E-03 0. -1.
         11   -1    0    0    0    0 -0.00000000000E+00 -0.00000000000E+00 -0.45593999997E+02  0.45594000000E+02  0.51100000000E-03 0.  1.
         23    2    1    2    0    0  0.00000000000E+00 -0.35527136788E-14  0.00000000000E+00  0.91188000000E+02  0.91188000000E+02 0.  0.
    9900012    2    3    3    0    0  0.87792689268E+01 -0.27853578725E+02 -0.22425052839E+02  0.54367076525E+02  0.39999982555E+02 0.  0.
         12    1    3    3    0    0 -0.87792689268E+01  0.27853578725E+02  0.22425052839E+02  0.36820923475E+02  0.00000000000E+00 0. -1.
         11    1    4    4    0    0  0.18446004190E+02 -0.19457006783E+02 -0.64248069261E+01  0.27570062166E+02  0.51100000000E-03 0. -1.
        -11    1    4    4    0    0 -0.57671769544E+01  0.49327240870E+01 -0.51206228370E+01  0.91549372167E+01  0.51100000000E-03 0.  1.
         12    1    4    4    0    0 -0.38995583086E+01 -0.13329296029E+02 -0.10879623076E+02  0.17642077143E+02  0.00000000000E+00 0. -1.
</event>
<event>
 8    1  0.3007389E-007  0.9118800E+02  0.7816164E-02  0.1184000E+00
        -11   -1    0    0    0    0  0.00000000000E+00  0.00000000000E+00  0.45593999997E+02  0.45594000000E+02  0.51100000000E-03 0.  1.
         11   -1    0    0    0    0 -0.00000000000E+00 -0.00000000000E+00 -0.45593999997E+02  0.45594000000E+02  0.51100000000E-03 0. -1.
         23    2    1    2    0    0  0.00000000000E+00 -0.35527136788E-14  0.17763568394E-14  0.91188000000E+02  0.91188000000E+02 0.  0.
    9900012    2    3    3    0    0 -0.17669477171E+02 -0.29332888290E+02  0.13533340709E+02  0.54367081086E+02  0.39999992952E+02 0.  0.
         12    1    3    3    0    0  0.17669477171E+02  0.29332888290E+02 -0.13533340709E+02  0.36820918914E+02  0.00000000000E+00 0. -1.
         11    1    4    4    0    0 -0.34573551696E+01  0.86069506389E+01 -0.24802552307E+01  0.96012796199E+01  0.51100000000E-03 0. -1.
        -11    1    4    4    0    0 -0.89868772102E+00  0.38642283039E+00  0.12570276666E+01  0.15928217224E+01  0.51100000000E-03 0.  1.
        -12    1    4    4    0    0 -0.13313434280E+02 -0.38326261759E+02  0.14756568273E+02  0.43172979744E+02  0.00000000000E+00 0.  1.
</event>
<event>
 8    1  0.3007389E-007  0.9118800E+02  0.7816164E-02  0.1184000E+00
        -11   -1    0    0    0    0  0.00000000000E+00  0.00000000000E+00  0.45593999997E+02  0.45594000000E+02  0.51100000000E-03 0. -1.
         11   -1    0    0    0    0 -0.00000000000E+00 -0.00000000000E+00 -0.45593999997E+02  0.45594000000E+02  0.51100000000E-03 0.  1.
         23    2    1    2    0    0  0.77715611724E-15  0.00000000000E+00  0.00000000000E+00  0.91188000000E+02  0.91188000000E+02 0.  0.
    9900012    2    3    3    0    0 -0.89163709284E+00 -0.31250256012E+02  0.19452687313E+02  0.54367074411E+02  0.39999977736E+02 0.  0.
        -12    1    3    3    0    0  0.89163709284E+00  0.31250256012E+02 -0.19452687313E+02  0.36820925589E+02  0.00000000000E+00 0.  1.
         11    1    4    4    0    0 -0.78690239244E+01 -0.27274922517E+02 -0.86710911537E+00  0.28400612921E+02  0.51100000000E-03 0. -1.
        -11    1    4    4    0    0  0.91554439609E+01 -0.35302720154E+01  0.60567881954E+01  0.11531247033E+02  0.51100000000E-03 0.  1.
         12    1    4    4    0    0 -0.21780571293E+01 -0.44506147935E+00  0.14263008233E+02  0.14435214458E+02  0.00000000000E+00 0. -1.
</event>
<event>
 8    1  0.3007389E-007  0.9118800E+02  0.7816164E-02  0.1184000E+00
        -11   -1    0    0    0    0  0.00000000000E+00  0.00000000000E+00  0.45593999997E+02  0.45594000000E+02  0.51100000000E-03 0.  1.
         11   -1    0    0    0    0 -0.00000000000E+00 -0.00000000000E+00 -0.45593999997E+02  0.45594000000E+02  0.51100000000E-03 0. -1.
         23    2    1    2    0    0 -0.35527136788E-14  0.71054273576E-14  0.00000000000E+00  0.91188000000E+02  0.91188000000E+02 0.  0.
    9900012    2    3    3    0    0 -0.21630618238E+02  0.22351554319E+02  0.19705466105E+02  0.54367068178E+02  0.39999963526E+02 0.  0.
         12    1    3    3    0    0  0.21630618238E+02 -0.22351554319E+02 -0.19705466105E+02  0.36820931822E+02  0.00000000000E+00 0. -1.
         11    1    4    4    0    0 -0.20649902126E+02  0.14857662342E+02  0.22117288184E+02  0.33709687405E+02  0.51100000000E-03 0. -1.
        -11    1    4    4    0    0 -0.58707498383E+01  0.11586939293E+02 -0.48000937595E+01  0.13847879484E+02  0.51100000000E-03 0.  1.
         12    1    4    4    0    0  0.48900337268E+01 -0.40930473164E+01  0.23882716812E+01  0.68095012891E+01  0.00000000000E+00 0. -1.
</event>
<event>
 8    1  0.3007389E-007  0.9118800E+02  0.7816164E-02  0.1184000E+00
        -11   -1    0    0    0    0  0.00000000000E+00  0.00000000000E+00  0.45593999997E+02  0.45594000000E+02  0.51100000000E-03 0. -1.
         11   -1    0    0    0    0 -0.00000000000E+00 -0.00000000000E+00 -0.45593999997E+02  0.45594000000E+02  0.51100000000E-03 0.  1.
         23    2    1    2    0    0  0.35527136788E-14  0.00000000000E+00  0.35527136788E-14  0.91188000000E+02  0.91188000000E+02 0.  0.
    9900012    2    3    3    0    0  0.29029473935E+02  0.10350034763E+02  0.20148225053E+02  0.54367020256E+02  0.39999854277E+02 0.  0.
        -12    1    3    3    0    0 -0.29029473935E+02 -0.10350034763E+02 -0.20148225053E+02  0.36820979744E+02  0.00000000000E+00 0.  1.
         11    1    4    4    0    0 -0.27244393015E+01  0.47057284754E+01  0.57183505461E+01  0.78908797495E+01  0.51100000000E-03 0. -1.
        -11    1    4    4    0    0  0.32294457141E+02  0.11987824356E+01  0.10140352581E+01  0.32332604428E+02  0.51100000000E-03 0.  1.
        -12    1    4    4    0    0 -0.54054390443E+00  0.44455238516E+01  0.13415839249E+02  0.14143536078E+02  0.00000000000E+00 0.  1.
</event>
<event>
 8    1  0.3007389E-007  0.9118800E+02  0.7816164E-02  0.1184000E+00
        -11   -1    0    0    0    0  0.00000000000E+00  0.00000000000E+00  0.45593999997E+02  0.45594000000E+02  0.51100000000E-03 0. -1.
         11   -1    0    0    0    0 -0.00000000000E+00 -0.00000000000E+00 -0.45593999997E+02  0.45594000000E+02  0.51100000000E-03 0.  1.
         23    2    1    2    0    0  0.35527136788E-14  0.35527136788E-14  0.00000000000E+00  0.91188000000E+02  0.91188000000E+02 0.  0.
    9900012    2    3    3    0    0 -0.28199446784E+02  0.22272274744E+02  0.80322847277E+01  0.54367073625E+02  0.39999975942E+02 0.  0.
         12    1    3    3    0    0  0.28199446784E+02 -0.22272274744E+02 -0.80322847277E+01  0.36820926375E+02  0.00000000000E+00 0. -1.
         11    1    4    4    0    0 -0.24513472825E+02  0.27393877793E+02  0.14599294342E+02  0.39553435831E+02  0.51100000000E-03 0. -1.
        -11    1    4    4    0    0 -0.70007330008E+01 -0.64288875707E+01 -0.59041548246E+01  0.11189276223E+02  0.51100000000E-03 0.  1.
        -12    1    4    4    0    0  0.33147590415E+01  0.13072845216E+01 -0.66285478934E+00  0.36243615707E+01  0.00000000000E+00 0.  1.
</event>
<event>
 8    1  0.3007389E-007  0.9118800E+02  0.7816164E-02  0.1184000E+00
        -11   -1    0    0    0    0  0.00000000000E+00  0.00000000000E+00  0.45593999997E+02  0.45594000000E+02  0.51100000000E-03 0. -1.
         11   -1    0    0    0    0 -0.00000000000E+00 -0.00000000000E+00 -0.45593999997E+02  0.45594000000E+02  0.51100000000E-03 0.  1.
         23    2    1    2    0    0  0.00000000000E+00  0.71054273576E-14 -0.35527136788E-14  0.91188000000E+02  0.91188000000E+02 0.  0.
    9900012    2    3    3    0    0 -0.14015964195E+02 -0.24363558747E+02  0.23785419842E+02  0.54367130317E+02  0.40000105183E+02 0.  0.
        -12    1    3    3    0    0  0.14015964195E+02  0.24363558747E+02 -0.23785419842E+02  0.36820869683E+02  0.00000000000E+00 0.  1.
         11    1    4    4    0    0  0.42543290542E+01 -0.39055369845E+01 -0.29264572845E+01  0.64743097963E+01  0.51100000000E-03 0.  1.
        -11    1    4    4    0    0 -0.48533136762E+01 -0.20130342498E+02  0.27528389263E+02  0.34447025392E+02  0.51100000000E-03 0. -1.
        -12    1    4    4    0    0 -0.13416979573E+02 -0.32767926494E+00 -0.81651213566E+00  0.13445795128E+02  0.00000000000E+00 0.  1.
</event>
<event>
 8    1  0.3007389E-007  0.9118800E+02  0.7816164E-02  0.1184000E+00
        -11   -1    0    0    0    0  0.00000000000E+00  0.00000000000E+00  0.45593999997E+02  0.45594000000E+02  0.51100000000E-03 0.  1.
         11   -1    0    0    0    0 -0.00000000000E+00 -0.00000000000E+00 -0.45593999997E+02  0.45594000000E+02  0.51100000000E-03 0. -1.
         23    2    1    2    0    0  0.00000000000E+00  0.00000000000E+00  0.17763568394E-14  0.91188000000E+02  0.91188000000E+02 0.  0.
    9900012    2    3    3    0    0 -0.16757224001E+02 -0.31630126305E+02 -0.86317960268E+01  0.54367118031E+02  0.40000077176E+02 0.  0.
        -12    1    3    3    0    0  0.16757224001E+02  0.31630126305E+02  0.86317960268E+01  0.36820881969E+02  0.00000000000E+00 0.  1.
         11    1    4    4    0    0 -0.46829449971E+01  0.53230837295E+01 -0.46612458031E+00  0.71051014505E+01  0.51100000000E-03 0. -1.
        -11    1    4    4    0    0 -0.54013424315E+01 -0.33702560988E+02  0.25487764915E+01  0.34227669787E+02  0.51100000000E-03 0.  1.
         12    1    4    4    0    0 -0.66729365723E+01 -0.32506490469E+01 -0.10714447938E+02  0.13034346794E+02  0.00000000000E+00 0. -1.
</event>
<event>
 8    1  0.3007389E-007  0.9118800E+02  0.7816164E-02  0.1184000E+00
        -11   -1    0    0    0    0  0.00000000000E+00  0.00000000000E+00  0.45593999997E+02  0.45594000000E+02  0.51100000000E-03 0.  1.
         11   -1    0    0    0    0 -0.00000000000E+00 -0.00000000000E+00 -0.45593999997E+02  0.45594000000E+02  0.51100000000E-03 0. -1.
         23    2    1    2    0    0  0.35527136788E-14 -0.22204460493E-15  0.00000000000E+00  0.91188000000E+02  0.91188000000E+02 0.  0.
    9900012    2    3    3    0    0  0.19206010221E+02  0.42344171494E+00  0.31412237461E+02  0.54367098411E+02  0.40000032448E+02 0.  0.
         12    1    3    3    0    0 -0.19206010221E+02 -0.42344171494E+00 -0.31412237461E+02  0.36820901589E+02  0.00000000000E+00 0. -1.
         11    1    4    4    0    0  0.11325634970E+02 -0.20831486509E+00  0.33424024890E+02  0.35291342319E+02  0.51100000000E-03 0.  1.
        -11    1    4    4    0    0  0.96014149247E+01 -0.26092463314E+01  0.50197954284E+01  0.11144221883E+02  0.51100000000E-03 0. -1.
        -12    1    4    4    0    0 -0.17210396736E+01  0.32410029114E+01 -0.70315828573E+01  0.79315342090E+01  0.00000000000E+00 0.  1.
</event>
<event>
 8    1  0.3007389E-007  0.9118800E+02  0.7816164E-02  0.1184000E+00
        -11   -1    0    0    0    0  0.00000000000E+00  0.00000000000E+00  0.45593999997E+02  0.45594000000E+02  0.51100000000E-03 0. -1.
         11   -1    0    0    0    0 -0.00000000000E+00 -0.00000000000E+00 -0.45593999997E+02  0.45594000000E+02  0.51100000000E-03 0.  1.
         23    2    1    2    0    0  0.00000000000E+00  0.66613381478E-15  0.35527136788E-14  0.91188000000E+02  0.91188000000E+02 0.  0.
    9900012    2    3    3    0    0 -0.22892789493E+02  0.16929993500E+01  0.28789485657E+02  0.54367074673E+02  0.39999978332E+02 0.  0.
        -12    1    3    3    0    0  0.22892789493E+02 -0.16929993500E+01 -0.28789485657E+02  0.36820925327E+02  0.00000000000E+00 0.  1.
         11    1    4    4    0    0  0.79807552013E+00  0.54418546123E+01 -0.83470554431E+01  0.99962013280E+01  0.51100000000E-03 0.  1.
        -11    1    4    4    0    0 -0.90173746342E+01 -0.19665194200E+01  0.17594495966E+02  0.19868229223E+02  0.51100000000E-03 0. -1.
        -12    1    4    4    0    0 -0.14673490379E+02 -0.17823358423E+01  0.19542045134E+02  0.24502644122E+02  0.00000000000E+00 0.  1.
</event>
<event>
 8    1  0.3007389E-007  0.9118800E+02  0.7816164E-02  0.1184000E+00
        -11   -1    0    0    0    0  0.00000000000E+00  0.00000000000E+00  0.45593999997E+02  0.45594000000E+02  0.51100000000E-03 0.  1.
         11   -1    0    0    0    0 -0.00000000000E+00 -0.00000000000E+00 -0.45593999997E+02  0.45594000000E+02  0.51100000000E-03 0. -1.
         23    2    1    2    0    0 -0.35527136788E-14  0.00000000000E+00  0.00000000000E+00  0.91188000000E+02  0.91188000000E+02 0.  0.
    9900012    2    3    3    0    0 -0.19475389881E+02  0.22182529135E+02 -0.22009583618E+02  0.54367120314E+02  0.40000082379E+02 0.  0.
         12    1    3    3    0    0  0.19475389881E+02 -0.22182529135E+02  0.22009583618E+02  0.36820879686E+02  0.00000000000E+00 0. -1.
         11    1    4    4    0    0 -0.84627298706E+01  0.20415907283E+01 -0.93195745152E+01  0.12753052927E+02  0.51100000000E-03 0. -1.
        -11    1    4    4    0    0 -0.15585341025E+02 -0.51182111475E+00  0.21969312253E+01  0.15747740244E+02  0.51100000000E-03 0.  1.
         12    1    4    4    0    0  0.45726810145E+01  0.20652759521E+02 -0.14886940328E+02  0.25866327143E+02  0.00000000000E+00 0. -1.
</event>
<event>
 8    1  0.3007389E-007  0.9118800E+02  0.7816164E-02  0.1184000E+00
        -11   -1    0    0    0    0  0.00000000000E+00  0.00000000000E+00  0.45593999997E+02  0.45594000000E+02  0.51100000000E-03 0. -1.
         11   -1    0    0    0    0 -0.00000000000E+00 -0.00000000000E+00 -0.45593999997E+02  0.45594000000E+02  0.51100000000E-03 0.  1.
         23    2    1    2    0    0  0.35527136788E-14  0.35527136788E-14 -0.17763568394E-14  0.91188000000E+02  0.91188000000E+02 0.  0.
    9900012    2    3    3    0    0  0.22887480878E+02  0.25725926875E+02 -0.13042983847E+02  0.54367088521E+02  0.40000009901E+02 0.  0.
         12    1    3    3    0    0 -0.22887480878E+02 -0.25725926875E+02  0.13042983847E+02  0.36820911479E+02  0.00000000000E+00 0. -1.
         11    1    4    4    0    0  0.19708360232E+02  0.30339465698E+02  0.30346449690E+01  0.36305808244E+02  0.51100000000E-03 0. -1.
        -11    1    4    4    0    0 -0.66861398250E+00 -0.42400261231E+01 -0.96337116127E+01  0.10546718252E+02  0.51100000000E-03 0.  1.
         12    1    4    4    0    0  0.38477346287E+01 -0.37351270005E+00 -0.64439172032E+01  0.75145620252E+01  0.00000000000E+00 0. -1.
</event>
<event>
 8    1  0.3007389E-007  0.9118800E+02  0.7816164E-02  0.1184000E+00
        -11   -1    0    0    0    0  0.00000000000E+00  0.00000000000E+00  0.45593999997E+02  0.45594000000E+02  0.51100000000E-03 0.  1.
         11   -1    0    0    0    0 -0.00000000000E+00 -0.00000000000E+00 -0.45593999997E+02  0.45594000000E+02  0.51100000000E-03 0. -1.
         23    2    1    2    0    0 -0.17763568394E-14  0.00000000000E+00  0.00000000000E+00  0.91188000000E+02  0.91188000000E+02 0.  0.
    9900012    2    3    3    0    0  0.13830118716E+02 -0.22289551030E+02 -0.25839538954E+02  0.54367108618E+02  0.40000055717E+02 0.  0.
        -12    1    3    3    0    0 -0.13830118716E+02  0.22289551030E+02  0.25839538954E+02  0.36820891382E+02  0.00000000000E+00 0.  1.
         11    1    4    4    0    0  0.27512066169E+01  0.21094826156E+01 -0.20439266828E+02  0.20731200725E+02  0.51100000000E-03 0. -1.
        -11    1    4    4    0    0  0.52186905175E+01 -0.51504089113E+01  0.68873748827E+01  0.10059690637E+02  0.51100000000E-03 0.  1.
        -12    1    4    4    0    0  0.58602215812E+01 -0.19248624734E+02 -0.12287647008E+02  0.23576217257E+02  0.00000000000E+00 0.  1.
</event>
<event>
 8    1  0.3007389E-007  0.9118800E+02  0.7816164E-02  0.1184000E+00
        -11   -1    0    0    0    0  0.00000000000E+00  0.00000000000E+00  0.45593999997E+02  0.45594000000E+02  0.51100000000E-03 0.  1.
         11   -1    0    0    0    0 -0.00000000000E+00 -0.00000000000E+00 -0.45593999997E+02  0.45594000000E+02  0.51100000000E-03 0. -1.
         23    2    1    2    0    0  0.00000000000E+00  0.71054273576E-14  0.17763568394E-14  0.91188000000E+02  0.91188000000E+02 0.  0.
    9900012    2    3    3    0    0 -0.25291856742E+02 -0.24647351142E+02 -0.10421566039E+02  0.54367095958E+02  0.40000026856E+02 0.  0.
         12    1    3    3    0    0  0.25291856742E+02  0.24647351142E+02  0.10421566039E+02  0.36820904042E+02  0.00000000000E+00 0. -1.
         11    1    4    4    0    0 -0.77168066821E+01 -0.19942328004E+02 -0.91537227006E+01  0.23260184675E+02  0.51100000000E-03 0. -1.
        -11    1    4    4    0    0 -0.81999115545E+01 -0.14487030776E+02  0.29718065655E+01  0.16909886006E+02  0.51100000000E-03 0.  1.
        -12    1    4    4    0    0 -0.93751385053E+01  0.97820076378E+01 -0.42396499035E+01  0.14197025277E+02  0.00000000000E+00 0.  1.
</event>
<event>
 8    1  0.3007389E-007  0.9118800E+02  0.7816164E-02  0.1184000E+00
        -11   -1    0    0    0    0  0.00000000000E+00  0.00000000000E+00  0.45593999997E+02  0.45594000000E+02  0.51100000000E-03 0.  1.
         11   -1    0    0    0    0 -0.00000000000E+00 -0.00000000000E+00 -0.45593999997E+02  0.45594000000E+02  0.51100000000E-03 0. -1.
         23    2    1    2    0    0  0.88817841970E-15  0.00000000000E+00  0.00000000000E+00  0.91188000000E+02  0.91188000000E+02 0.  0.
    9900012    2    3    3    0    0 -0.64497643182E+01  0.14063608427E+02  0.33412504364E+02  0.54367082173E+02  0.39999995429E+02 0.  0.
        -12    1    3    3    0    0  0.64497643182E+01 -0.14063608427E+02 -0.33412504364E+02  0.36820917827E+02  0.00000000000E+00 0.  1.
         11    1    4    4    0    0 -0.28152113758E+00  0.12636537871E+02 -0.28310923059E+01  0.12952854026E+02  0.51100000000E-03 0. -1.
        -11    1    4    4    0    0  0.19254079055E+01 -0.75836089961E+01  0.16305182097E+02  0.18085278115E+02  0.51100000000E-03 0.  1.
        -12    1    4    4    0    0 -0.80936510861E+01  0.90106795521E+01  0.19938414573E+02  0.23328950031E+02  0.00000000000E+00 0.  1.
</event>
<event>
 8    1  0.3007389E-007  0.9118800E+02  0.7816164E-02  0.1184000E+00
        -11   -1    0    0    0    0  0.00000000000E+00  0.00000000000E+00  0.45593999997E+02  0.45594000000E+02  0.51100000000E-03 0.  1.
         11   -1    0    0    0    0 -0.00000000000E+00 -0.00000000000E+00 -0.45593999997E+02  0.45594000000E+02  0.51100000000E-03 0. -1.
         23    2    1    2    0    0  0.99920072216E-15 -0.35527136788E-14  0.00000000000E+00  0.91188000000E+02  0.91188000000E+02 0.  0.
    9900012    2    3    3    0    0  0.37926509467E+00 -0.20097182837E+02 -0.30850248670E+02  0.54367103175E+02  0.40000043308E+02 0.  0.
        -12    1    3    3    0    0 -0.37926509467E+00  0.20097182837E+02  0.30850248670E+02  0.36820896825E+02  0.00000000000E+00 0.  1.
         11    1    4    4    0    0  0.13787505931E+02 -0.79690811683E+01 -0.82175927263E+01  0.17920111745E+02  0.51100000000E-03 0. -1.
        -11    1    4    4    0    0 -0.10656721963E+02 -0.47313499757E+01  0.83323243899E+00  0.11689553976E+02  0.51100000000E-03 0.  1.
        -12    1    4    4    0    0 -0.27515188733E+01 -0.73967516928E+01 -0.23465888383E+02  0.24757437455E+02  0.00000000000E+00 0.  1.
</event>
<event>
 8    1  0.3007389E-007  0.9118800E+02  0.7816164E-02  0.1184000E+00
        -11   -1    0    0    0    0  0.00000000000E+00  0.00000000000E+00  0.45593999997E+02  0.45594000000E+02  0.51100000000E-03 0.  1.
         11   -1    0    0    0    0 -0.00000000000E+00 -0.00000000000E+00 -0.45593999997E+02  0.45594000000E+02  0.51100000000E-03 0. -1.
         23    2    1    2    0    0 -0.88817841970E-15  0.00000000000E+00  0.00000000000E+00  0.91188000000E+02  0.91188000000E+02 0.  0.
    9900012    2    3    3    0    0  0.53812975890E+01 -0.29643731114E+02 -0.21167669411E+02  0.54367090364E+02  0.40000014103E+02 0.  0.
        -12    1    3    3    0    0 -0.53812975890E+01  0.29643731114E+02  0.21167669411E+02  0.36820909636E+02  0.00000000000E+00 0.  1.
         11    1    4    4    0    0  0.18110811176E+02 -0.12858106248E+02 -0.10036059799E+02  0.24373240948E+02  0.51100000000E-03 0. -1.
        -11    1    4    4    0    0  0.17401797633E+01  0.27081370297E+01 -0.29746683558E+01  0.43830222300E+01  0.51100000000E-03 0.  1.
         12    1    4    4    0    0 -0.14469693351E+02 -0.19493761896E+02 -0.81569412564E+01  0.25610827186E+02  0.00000000000E+00 0. -1.
</event>
<event>
 8    1  0.3007389E-007  0.9118800E+02  0.7816164E-02  0.1184000E+00
        -11   -1    0    0    0    0  0.00000000000E+00  0.00000000000E+00  0.45593999997E+02  0.45594000000E+02  0.51100000000E-03 0. -1.
         11   -1    0    0    0    0 -0.00000000000E+00 -0.00000000000E+00 -0.45593999997E+02  0.45594000000E+02  0.51100000000E-03 0.  1.
         23    2    1    2    0    0 -0.35527136788E-14 -0.88817841970E-15  0.00000000000E+00  0.91188000000E+02  0.91188000000E+02 0.  0.
    9900012    2    3    3    0    0  0.18967849821E+02  0.45148801690E+01  0.31234844347E+02  0.54367096003E+02  0.40000026957E+02 0.  0.
        -12    1    3    3    0    0 -0.18967849821E+02 -0.45148801690E+01 -0.31234844347E+02  0.36820903997E+02  0.00000000000E+00 0.  1.
         11    1    4    4    0    0  0.11249248371E+02  0.10567994738E+02  0.84269043662E+01  0.17585244359E+02  0.51100000000E-03 0. -1.
        -11    1    4    4    0    0  0.76293565395E+01  0.18146617820E+01 -0.40280224172E+01  0.88161807743E+01  0.51100000000E-03 0.  1.
         12    1    4    4    0    0  0.89244910492E-01 -0.78677763506E+01  0.26835962398E+02  0.27965670870E+02  0.00000000000E+00 0. -1.
</event>
<event>
 8    1  0.3007389E-007  0.9118800E+02  0.7816164E-02  0.1184000E+00
        -11   -1    0    0    0    0  0.00000000000E+00  0.00000000000E+00  0.45593999997E+02  0.45594000000E+02  0.51100000000E-03 0. -1.
         11   -1    0    0    0    0 -0.00000000000E+00 -0.00000000000E+00 -0.45593999997E+02  0.45594000000E+02  0.51100000000E-03 0.  1.
         23    2    1    2    0    0 -0.35527136788E-14 -0.71054273576E-14  0.17763568394E-14  0.91188000000E+02  0.91188000000E+02 0.  0.
    9900012    2    3    3    0    0  0.19977118795E+02  0.27866612259E+02 -0.13421871609E+02  0.54367082146E+02  0.39999995369E+02 0.  0.
         12    1    3    3    0    0 -0.19977118795E+02 -0.27866612259E+02  0.13421871609E+02  0.36820917854E+02  0.00000000000E+00 0. -1.
         11    1    4    4    0    0  0.21354080079E+02  0.22111946252E+02 -0.13616046920E+02  0.33620405070E+02  0.51100000000E-03 0. -1.
        -11    1    4    4    0    0  0.17312712628E+01  0.34210691370E+01  0.97251342186E+01  0.10453671606E+02  0.51100000000E-03 0.  1.
        -12    1    4    4    0    0 -0.31082325470E+01  0.23335968703E+01 -0.95309589070E+01  0.10293005470E+02  0.00000000000E+00 0.  1.
</event>
<event>
 8    1  0.3007389E-007  0.9118800E+02  0.7816164E-02  0.1184000E+00
        -11   -1    0    0    0    0  0.00000000000E+00  0.00000000000E+00  0.45593999997E+02  0.45594000000E+02  0.51100000000E-03 0.  1.
         11   -1    0    0    0    0 -0.00000000000E+00 -0.00000000000E+00 -0.45593999997E+02  0.45594000000E+02  0.51100000000E-03 0. -1.
         23    2    1    2    0    0  0.00000000000E+00  0.17763568394E-14  0.00000000000E+00  0.91188000000E+02  0.91188000000E+02 0.  0.
    9900012    2    3    3    0    0  0.98293930515E+01 -0.14059833323E+02 -0.32580421530E+02  0.54367085455E+02  0.40000002913E+02 0.  0.
        -12    1    3    3    0    0 -0.98293930515E+01  0.14059833323E+02  0.32580421530E+02  0.36820914545E+02  0.00000000000E+00 0.  1.
         11    1    4    4    0    0 -0.28731250340E+00 -0.13611281096E+01 -0.25084579706E+02  0.25123123960E+02  0.51100000000E-03 0. -1.
        -11    1    4    4    0    0  0.52054741896E+01  0.58870071788E+01  0.15315202786E+01  0.80062081966E+01  0.51100000000E-03 0.  1.
         12    1    4    4    0    0  0.49112313653E+01 -0.18585712393E+02 -0.90273621021E+01  0.21237753299E+02  0.00000000000E+00 0. -1.
</event>
<event>
 8    1  0.3007389E-007  0.9118800E+02  0.7816164E-02  0.1184000E+00
        -11   -1    0    0    0    0  0.00000000000E+00  0.00000000000E+00  0.45593999997E+02  0.45594000000E+02  0.51100000000E-03 0. -1.
         11   -1    0    0    0    0 -0.00000000000E+00 -0.00000000000E+00 -0.45593999997E+02  0.45594000000E+02  0.51100000000E-03 0.  1.
         23    2    1    2    0    0 -0.88817841970E-15  0.00000000000E+00 -0.35527136788E-14  0.91188000000E+02  0.91188000000E+02 0.  0.
    9900012    2    3    3    0    0  0.71252002099E+01  0.25380633165E+02 -0.25706723932E+02  0.54367072891E+02  0.39999974270E+02 0.  0.
         12    1    3    3    0    0 -0.71252002099E+01 -0.25380633165E+02  0.25706723932E+02  0.36820927109E+02  0.00000000000E+00 0. -1.
         11    1    4    4    0    0  0.90197931737E+01  0.11638768471E+02 -0.33986422785E+02  0.37039094676E+02  0.51100000000E-03 0.  1.
        -11    1    4    4    0    0  0.42421892074E+00  0.10089667762E+02  0.81878734171E+01  0.13000870302E+02  0.51100000000E-03 0. -1.
        -12    1    4    4    0    0 -0.23188118846E+01  0.36521969313E+01  0.91825436791E-01  0.43271079131E+01  0.00000000000E+00 0.  1.
</event>
<event>
 8    1  0.3007389E-007  0.9118800E+02  0.7816164E-02  0.1184000E+00
        -11   -1    0    0    0    0  0.00000000000E+00  0.00000000000E+00  0.45593999997E+02  0.45594000000E+02  0.51100000000E-03 0.  1.
         11   -1    0    0    0    0 -0.00000000000E+00 -0.00000000000E+00 -0.45593999997E+02  0.45594000000E+02  0.51100000000E-03 0. -1.
         23    2    1    2    0    0 -0.26645352591E-14 -0.44408920985E-15  0.00000000000E+00  0.91188000000E+02  0.91188000000E+02 0.  0.
    9900012    2    3    3    0    0  0.79322378037E+01 -0.24876161393E+01  0.35870197782E+02  0.54367085840E+02  0.40000003790E+02 0.  0.
         12    1    3    3    0    0 -0.79322378037E+01  0.24876161393E+01 -0.35870197782E+02  0.36820914160E+02  0.00000000000E+00 0. -1.
         11    1    4    4    0    0  0.18141908590E+02 -0.19994931237E+01  0.27246043162E+02  0.32794415505E+02  0.51100000000E-03 0. -1.
        -11    1    4    4    0    0 -0.90901218013E+01  0.73833293913E+01  0.40003722813E+01  0.12375251347E+02  0.51100000000E-03 0.  1.
         12    1    4    4    0    0 -0.11195489855E+01 -0.78714524069E+01  0.46237823385E+01  0.91974189879E+01  0.00000000000E+00 0. -1.
</event>
<event>
 8    1  0.3007389E-007  0.9118800E+02  0.7816164E-02  0.1184000E+00
        -11   -1    0    0    0    0  0.00000000000E+00  0.00000000000E+00  0.45593999997E+02  0.45594000000E+02  0.51100000000E-03 0.  1.
         11   -1    0    0    0    0 -0.00000000000E+00 -0.00000000000E+00 -0.45593999997E+02  0.45594000000E+02  0.51100000000E-03 0. -1.
         23    2    1    2    0    0 -0.13322676296E-14  0.00000000000E+00  0.00000000000E+00  0.91188000000E+02  0.91188000000E+02 0.  0.
    9900012    2    3    3    0    0  0.39262424768E+01 -0.11245697040E+02  0.34840917323E+02  0.54367209652E+02  0.40000286043E+02 0.  0.
         12    1    3    3    0    0 -0.39262424768E+01  0.11245697040E+02 -0.34840917323E+02  0.36820790348E+02  0.00000000000E+00 0. -1.
         11    1    4    4    0    0  0.36436227926E+01 -0.15136384717E+02  0.92575894439E+01  0.18113229748E+02  0.51100000000E-03 0. -1.
        -11    1    4    4    0    0 -0.79675063953E+01  0.51710885917E+01  0.16531756589E+00  0.94999287125E+01  0.51100000000E-03 0.  1.
        -12    1    4    4    0    0  0.82501260795E+01 -0.12804009152E+01  0.25418010314E+02  0.26754051191E+02  0.00000000000E+00 0.  1.
</event>
<event>
 8    1  0.3007389E-007  0.9118800E+02  0.7816164E-02  0.1184000E+00
        -11   -1    0    0    0    0  0.00000000000E+00  0.00000000000E+00  0.45593999997E+02  0.45594000000E+02  0.51100000000E-03 0.  1.
         11   -1    0    0    0    0 -0.00000000000E+00 -0.00000000000E+00 -0.45593999997E+02  0.45594000000E+02  0.51100000000E-03 0. -1.
         23    2    1    2    0    0  0.00000000000E+00  0.71054273576E-14  0.00000000000E+00  0.91188000000E+02  0.91188000000E+02 0.  0.
    9900012    2    3    3    0    0  0.20589919691E+02  0.29334206438E+02  0.84462263810E+01  0.54367092891E+02  0.40000019863E+02 0.  0.
         12    1    3    3    0    0 -0.20589919691E+02 -0.29334206438E+02 -0.84462263810E+01  0.36820907109E+02  0.00000000000E+00 0. -1.
         11    1    4    4    0    0  0.89362473147E+01  0.24581350310E+02  0.30164904028E+01  0.26328663349E+02  0.51100000000E-03 0. -1.
        -11    1    4    4    0    0  0.16022968447E+02  0.22878424362E+01  0.11726912361E+02  0.19987251303E+02  0.51100000000E-03 0.  1.
         12    1    4    4    0    0 -0.43692960703E+01  0.24650136925E+01 -0.62971763825E+01  0.80511782396E+01  0.00000000000E+00 0. -1.
</event>
<event>
 8    1  0.3007389E-007  0.9118800E+02  0.7816164E-02  0.1184000E+00
        -11   -1    0    0    0    0  0.00000000000E+00  0.00000000000E+00  0.45593999997E+02  0.45594000000E+02  0.51100000000E-03 0. -1.
         11   -1    0    0    0    0 -0.00000000000E+00 -0.00000000000E+00 -0.45593999997E+02  0.45594000000E+02  0.51100000000E-03 0.  1.
         23    2    1    2    0    0  0.00000000000E+00  0.35527136788E-14  0.00000000000E+00  0.91188000000E+02  0.91188000000E+02 0.  0.
    9900012    2    3    3    0    0  0.10635385437E+02 -0.29994460755E+02  0.18520479418E+02  0.54366983484E+02  0.39999770448E+02 0.  0.
        -12    1    3    3    0    0 -0.10635385437E+02  0.29994460755E+02 -0.18520479418E+02  0.36821016516E+02  0.00000000000E+00 0.  1.
         11    1    4    4    0    0  0.97708607925E+01 -0.20048158901E+01  0.12341419084E+02  0.15868195633E+02  0.51100000000E-03 0. -1.
        -11    1    4    4    0    0 -0.68590691769E+01 -0.28497427217E+02  0.83175529243E+01  0.30468539100E+02  0.51100000000E-03 0.  1.
         12    1    4    4    0    0  0.77235938216E+01  0.50778235190E+00 -0.21384925908E+01  0.80302487507E+01  0.00000000000E+00 0. -1.
</event>
<event>
 8    1  0.3007389E-007  0.9118800E+02  0.7816164E-02  0.1184000E+00
        -11   -1    0    0    0    0  0.00000000000E+00  0.00000000000E+00  0.45593999997E+02  0.45594000000E+02  0.51100000000E-03 0. -1.
         11   -1    0    0    0    0 -0.00000000000E+00 -0.00000000000E+00 -0.45593999997E+02  0.45594000000E+02  0.51100000000E-03 0.  1.
         23    2    1    2    0    0  0.35527136788E-14  0.00000000000E+00 -0.35527136788E-14  0.91188000000E+02  0.91188000000E+02 0.  0.
    9900012    2    3    3    0    0  0.30216891048E+02  0.25757969247E+01  0.20882649271E+02  0.54367078298E+02  0.39999986596E+02 0.  0.
        -12    1    3    3    0    0 -0.30216891048E+02 -0.25757969247E+01 -0.20882649271E+02  0.36820921702E+02  0.00000000000E+00 0.  1.
         11    1    4    4    0    0  0.21664440507E+02  0.89924200295E+01  0.22256128619E+02  0.32334917069E+02  0.51100000000E-03 0. -1.
        -11    1    4    4    0    0  0.10313428170E+02 -0.12144117306E+02 -0.17492336105E+01  0.16028293866E+02  0.51100000000E-03 0.  1.
         12    1    4    4    0    0 -0.17609776298E+01  0.57274942016E+01  0.37575426193E+00  0.60038673626E+01  0.00000000000E+00 0. -1.
</event>
<event>
 8    1  0.3007389E-007  0.9118800E+02  0.7816164E-02  0.1184000E+00
        -11   -1    0    0    0    0  0.00000000000E+00  0.00000000000E+00  0.45593999997E+02  0.45594000000E+02  0.51100000000E-03 0.  1.
         11   -1    0    0    0    0 -0.00000000000E+00 -0.00000000000E+00 -0.45593999997E+02  0.45594000000E+02  0.51100000000E-03 0. -1.
         23    2    1    2    0    0 -0.35527136788E-14  0.00000000000E+00  0.00000000000E+00  0.91188000000E+02  0.91188000000E+02 0.  0.
    9900012    2    3    3    0    0 -0.17181570473E+02  0.15938219901E+02  0.28399759374E+02  0.54367088143E+02  0.40000009039E+02 0.  0.
         12    1    3    3    0    0  0.17181570473E+02 -0.15938219901E+02 -0.28399759374E+02  0.36820911857E+02  0.00000000000E+00 0. -1.
         11    1    4    4    0    0 -0.11779172053E+02  0.60275088418E+01 -0.24250649757E+01  0.13452163302E+02  0.51100000000E-03 0. -1.
        -11    1    4    4    0    0 -0.14537908683E+02  0.10005040154E+02  0.22102705119E+02  0.28283938750E+02  0.51100000000E-03 0.  1.
         12    1    4    4    0    0  0.91355102639E+01 -0.94329095088E-01  0.87221192308E+01  0.12630986091E+02  0.00000000000E+00 0. -1.
</event>
<event>
 8    1  0.3007389E-007  0.9118800E+02  0.7816164E-02  0.1184000E+00
        -11   -1    0    0    0    0  0.00000000000E+00  0.00000000000E+00  0.45593999997E+02  0.45594000000E+02  0.51100000000E-03 0.  1.
         11   -1    0    0    0    0 -0.00000000000E+00 -0.00000000000E+00 -0.45593999997E+02  0.45594000000E+02  0.51100000000E-03 0. -1.
         23    2    1    2    0    0 -0.17763568394E-14  0.00000000000E+00  0.00000000000E+00  0.91188000000E+02  0.91188000000E+02 0.  0.
    9900012    2    3    3    0    0  0.65328089589E+01 -0.33067404036E+02  0.14820658794E+02  0.54367044965E+02  0.39999910607E+02 0.  0.
         12    1    3    3    0    0 -0.65328089589E+01  0.33067404036E+02 -0.14820658794E+02  0.36820955035E+02  0.00000000000E+00 0. -1.
         11    1    4    4    0    0  0.70012094958E+01 -0.14046296385E+02  0.19731284391E+01  0.15817983836E+02  0.51100000000E-03 0. -1.
        -11    1    4    4    0    0  0.93533935587E+01 -0.14345886770E+02 -0.48291512877E+01  0.17793570207E+02  0.51100000000E-03 0.  1.
         12    1    4    4    0    0 -0.98217940957E+01 -0.46752208809E+01  0.17676681642E+02  0.20755490922E+02  0.00000000000E+00 0. -1.
</event>
<event>
 8    1  0.3007389E-007  0.9118800E+02  0.7816164E-02  0.1184000E+00
        -11   -1    0    0    0    0  0.00000000000E+00  0.00000000000E+00  0.45593999997E+02  0.45594000000E+02  0.51100000000E-03 0.  1.
         11   -1    0    0    0    0 -0.00000000000E+00 -0.00000000000E+00 -0.45593999997E+02  0.45594000000E+02  0.51100000000E-03 0. -1.
         23    2    1    2    0    0  0.00000000000E+00  0.00000000000E+00  0.00000000000E+00  0.91188000000E+02  0.91188000000E+02 0.  0.
    9900012    2    3    3    0    0 -0.21274754262E+02  0.18522496964E+02 -0.23666050770E+02  0.54367081737E+02  0.39999994436E+02 0.  0.
        -12    1    3    3    0    0  0.21274754262E+02 -0.18522496964E+02  0.23666050770E+02  0.36820918263E+02  0.00000000000E+00 0.  1.
         11    1    4    4    0    0  0.26879388731E+01  0.10258944231E+01  0.31395539135E+01  0.42584356036E+01  0.51100000000E-03 0. -1.
        -11    1    4    4    0    0 -0.39126655020E+01  0.14584579822E+02  0.16359536687E+01  0.15188655786E+02  0.51100000000E-03 0.  1.
         12    1    4    4    0    0 -0.20050027633E+02  0.29120227188E+01 -0.28441558352E+02  0.34919990347E+02  0.00000000000E+00 0. -1.
</event>
<event>
 8    1  0.3007389E-007  0.9118800E+02  0.7816164E-02  0.1184000E+00
        -11   -1    0    0    0    0  0.00000000000E+00  0.00000000000E+00  0.45593999997E+02  0.45594000000E+02  0.51100000000E-03 0. -1.
         11   -1    0    0    0    0 -0.00000000000E+00 -0.00000000000E+00 -0.45593999997E+02  0.45594000000E+02  0.51100000000E-03 0.  1.
         23    2    1    2    0    0 -0.20539125956E-14  0.00000000000E+00 -0.35527136788E-14  0.91188000000E+02  0.91188000000E+02 0.  0.
    9900012    2    3    3    0    0  0.40440728794E+00 -0.23580476833E+02 -0.28276813722E+02  0.54367073515E+02  0.39999975692E+02 0.  0.
         12    1    3    3    0    0 -0.40440728794E+00  0.23580476833E+02  0.28276813722E+02  0.36820926485E+02  0.00000000000E+00 0. -1.
         11    1    4    4    0    0 -0.12581107958E+02 -0.70338594968E+01 -0.66781844993E+01  0.15885767383E+02  0.51100000000E-03 0.  1.
        -11    1    4    4    0    0 -0.17794705071E+01 -0.70908103066E+01 -0.19496905947E+02  0.20822474586E+02  0.51100000000E-03 0. -1.
         12    1    4    4    0    0  0.14764985753E+02 -0.94558070301E+01 -0.21017232753E+01  0.17658831547E+02  0.00000000000E+00 0. -1.
</event>
<event>
 8    1  0.3007389E-007  0.9118800E+02  0.7816164E-02  0.1184000E+00
        -11   -1    0    0    0    0  0.00000000000E+00  0.00000000000E+00  0.45593999997E+02  0.45594000000E+02  0.51100000000E-03 0.  1.
         11   -1    0    0    0    0 -0.00000000000E+00 -0.00000000000E+00 -0.45593999997E+02  0.45594000000E+02  0.51100000000E-03 0. -1.
         23    2    1    2    0    0 -0.17763568394E-14  0.00000000000E+00  0.35527136788E-14  0.91188000000E+02  0.91188000000E+02 0.  0.
    9900012    2    3    3    0    0  0.10576916078E+02  0.24886549487E+02  0.24991361591E+02  0.54367086740E+02  0.40000005842E+02 0.  0.
         12    1    3    3    0    0 -0.10576916078E+02 -0.24886549487E+02 -0.24991361591E+02  0.36820913260E+02  0.00000000000E+00 0. -1.
         11    1    4    4    0    0  0.18672430947E+02  0.12254783215E+02  0.20712257794E+02  0.30460417140E+02  0.51100000000E-03 0. -1.
        -11    1    4    4    0    0 -0.39934514478E+00  0.15223882978E+02  0.14119634383E+01  0.15294434624E+02  0.51100000000E-03 0.  1.
        -12    1    4    4    0    0 -0.76961697246E+01 -0.25921167062E+01  0.28671403592E+01  0.86122349763E+01  0.00000000000E+00 0.  1.
</event>
<event>
 8    1  0.3007389E-007  0.9118800E+02  0.7816164E-02  0.1184000E+00
        -11   -1    0    0    0    0  0.00000000000E+00  0.00000000000E+00  0.45593999997E+02  0.45594000000E+02  0.51100000000E-03 0.  1.
         11   -1    0    0    0    0 -0.00000000000E+00 -0.00000000000E+00 -0.45593999997E+02  0.45594000000E+02  0.51100000000E-03 0. -1.
         23    2    1    2    0    0  0.00000000000E+00 -0.13322676296E-14 -0.35527136788E-14  0.91188000000E+02  0.91188000000E+02 0.  0.
    9900012    2    3    3    0    0  0.23908882764E+02  0.31264425115E+01  0.27827514288E+02  0.54367083807E+02  0.39999999155E+02 0.  0.
         12    1    3    3    0    0 -0.23908882764E+02 -0.31264425115E+01 -0.27827514288E+02  0.36820916193E+02  0.00000000000E+00 0. -1.
         11    1    4    4    0    0  0.14648784401E+02  0.20668994225E+02  0.22313299183E+02  0.33759110287E+02  0.51100000000E-03 0.  1.
        -11    1    4    4    0    0  0.12230567932E+01 -0.27748405741E+01  0.59737317670E+00  0.30907059233E+01  0.51100000000E-03 0. -1.
        -12    1    4    4    0    0  0.80370415700E+01 -0.14767711140E+02  0.49168419284E+01  0.17517267597E+02  0.00000000000E+00 0.  1.
</event>
<event>
 8    1  0.3007389E-007  0.9118800E+02  0.7816164E-02  0.1184000E+00
        -11   -1    0    0    0    0  0.00000000000E+00  0.00000000000E+00  0.45593999997E+02  0.45594000000E+02  0.51100000000E-03 0. -1.
         11   -1    0    0    0    0 -0.00000000000E+00 -0.00000000000E+00 -0.45593999997E+02  0.45594000000E+02  0.51100000000E-03 0.  1.
         23    2    1    2    0    0  0.35527136788E-14 -0.17763568394E-14  0.00000000000E+00  0.91188000000E+02  0.91188000000E+02 0.  0.
    9900012    2    3    3    0    0  0.19083185487E+02 -0.11272605954E+02 -0.29403041767E+02  0.54367102693E+02  0.40000042209E+02 0.  0.
         12    1    3    3    0    0 -0.19083185487E+02  0.11272605954E+02  0.29403041767E+02  0.36820897307E+02  0.00000000000E+00 0. -1.
         11    1    4    4    0    0 -0.95546651035E+01  0.54248853660E+01 -0.13420985933E+02  0.17344851402E+02  0.51100000000E-03 0.  1.
        -11    1    4    4    0    0  0.18240776600E+02 -0.12061822067E+02 -0.12114545778E+02  0.24999514039E+02  0.51100000000E-03 0. -1.
        -12    1    4    4    0    0  0.10397073991E+02 -0.46356692532E+01 -0.38675100564E+01  0.12022737252E+02  0.00000000000E+00 0.  1.
</event>
<event>
 8    1  0.3007389E-007  0.9118800E+02  0.7816164E-02  0.1184000E+00
        -11   -1    0    0    0    0  0.00000000000E+00  0.00000000000E+00  0.45593999997E+02  0.45594000000E+02  0.51100000000E-03 0. -1.
         11   -1    0    0    0    0 -0.00000000000E+00 -0.00000000000E+00 -0.45593999997E+02  0.45594000000E+02  0.51100000000E-03 0.  1.
         23    2    1    2    0    0  0.49960036108E-15  0.00000000000E+00  0.35527136788E-14  0.91188000000E+02  0.91188000000E+02 0.  0.
    9900012    2    3    3    0    0 -0.17463971271E+00 -0.29131603207E+02  0.22518867962E+02  0.54367079062E+02  0.39999988337E+02 0.  0.
        -12    1    3    3    0    0  0.17463971271E+00  0.29131603207E+02 -0.22518867962E+02  0.36820920938E+02  0.00000000000E+00 0.  1.
         11    1    4    4    0    0  0.71500542936E+01 -0.10709465379E+02  0.31282483983E+01  0.13251485329E+02  0.51100000000E-03 0. -1.
        -11    1    4    4    0    0  0.55228633704E+00  0.69791420328E+01 -0.16634870452E+01  0.71958761191E+01  0.51100000000E-03 0.  1.
         12    1    4    4    0    0 -0.78769803433E+01 -0.25401279861E+02  0.21054106609E+02  0.33919717614E+02  0.00000000000E+00 0. -1.
</event>
<event>
 8    1  0.3007389E-007  0.9118800E+02  0.7816164E-02  0.1184000E+00
        -11   -1    0    0    0    0  0.00000000000E+00  0.00000000000E+00  0.45593999997E+02  0.45594000000E+02  0.51100000000E-03 0.  1.
         11   -1    0    0    0    0 -0.00000000000E+00 -0.00000000000E+00 -0.45593999997E+02  0.45594000000E+02  0.51100000000E-03 0. -1.
         23    2    1    2    0    0 -0.35527136788E-14  0.35527136788E-14  0.00000000000E+00  0.91188000000E+02  0.91188000000E+02 0.  0.
    9900012    2    3    3    0    0  0.13867299821E+02 -0.31829349522E+02  0.12262605127E+02  0.54367068727E+02  0.39999964776E+02 0.  0.
        -12    1    3    3    0    0 -0.13867299821E+02  0.31829349522E+02 -0.12262605127E+02  0.36820931273E+02  0.00000000000E+00 0.  1.
         11    1    4    4    0    0  0.39769441904E+01 -0.53851518398E+01 -0.37765340271E+01  0.76862315181E+01  0.51100000000E-03 0. -1.
        -11    1    4    4    0    0  0.17074564885E+02 -0.21068820835E+02 -0.13081453425E+01  0.27150455280E+02  0.51100000000E-03 0.  1.
        -12    1    4    4    0    0 -0.71842092547E+01 -0.53753768471E+01  0.17347284497E+02  0.19530381928E+02  0.00000000000E+00 0.  1.
</event>
<event>
 8    1  0.3007389E-007  0.9118800E+02  0.7816164E-02  0.1184000E+00
        -11   -1    0    0    0    0  0.00000000000E+00  0.00000000000E+00  0.45593999997E+02  0.45594000000E+02  0.51100000000E-03 0.  1.
         11   -1    0    0    0    0 -0.00000000000E+00 -0.00000000000E+00 -0.45593999997E+02  0.45594000000E+02  0.51100000000E-03 0. -1.
         23    2    1    2    0    0  0.00000000000E+00 -0.35527136788E-14  0.00000000000E+00  0.91188000000E+02  0.91188000000E+02 0.  0.
    9900012    2    3    3    0    0  0.85321040768E+01  0.94673421199E+01  0.34544931416E+02  0.54367086740E+02  0.40000005841E+02 0.  0.
         12    1    3    3    0    0 -0.85321040768E+01 -0.94673421199E+01 -0.34544931416E+02  0.36820913260E+02  0.00000000000E+00 0. -1.
         11    1    4    4    0    0 -0.39499157235E+01  0.13967715876E+02  0.32860667204E+02  0.35923841253E+02  0.51100000000E-03 0.  1.
        -11    1    4    4    0    0  0.31727724451E+01 -0.33089750546E+01 -0.51039246986E+01  0.68604554142E+01  0.51100000000E-03 0. -1.
        -12    1    4    4    0    0  0.93092473552E+01 -0.11913987016E+01  0.67881889098E+01  0.11582790072E+02  0.00000000000E+00 0.  1.
</event>
<event>
 8    1  0.3007389E-007  0.9118800E+02  0.7816164E-02  0.1184000E+00
        -11   -1    0    0    0    0  0.00000000000E+00  0.00000000000E+00  0.45593999997E+02  0.45594000000E+02  0.51100000000E-03 0.  1.
         11   -1    0    0    0    0 -0.00000000000E+00 -0.00000000000E+00 -0.45593999997E+02  0.45594000000E+02  0.51100000000E-03 0. -1.
         23    2    1    2    0    0 -0.35527136788E-14  0.35527136788E-14 -0.17763568394E-14  0.91188000000E+02  0.91188000000E+02 0.  0.
    9900012    2    3    3    0    0 -0.27339610918E+02 -0.19354476246E+02 -0.15288137352E+02  0.54367119788E+02  0.40000081180E+02 0.  0.
         12    1    3    3    0    0  0.27339610918E+02  0.19354476246E+02  0.15288137352E+02  0.36820880212E+02  0.00000000000E+00 0. -1.
         11    1    4    4    0    0 -0.35747325414E+01 -0.80958719782E+01  0.28823528625E+01  0.93075138525E+01  0.51100000000E-03 0. -1.
        -11    1    4    4    0    0 -0.10060522700E+02 -0.12761649405E+02  0.59266662740E+01  0.17297375116E+02  0.51100000000E-03 0.  1.
         12    1    4    4    0    0 -0.13704355677E+02  0.15030451372E+01 -0.24097156489E+02  0.27762230819E+02  0.00000000000E+00 0. -1.
</event>
<event>
 8    1  0.3007389E-007  0.9118800E+02  0.7816164E-02  0.1184000E+00
        -11   -1    0    0    0    0  0.00000000000E+00  0.00000000000E+00  0.45593999997E+02  0.45594000000E+02  0.51100000000E-03 0. -1.
         11   -1    0    0    0    0 -0.00000000000E+00 -0.00000000000E+00 -0.45593999997E+02  0.45594000000E+02  0.51100000000E-03 0.  1.
         23    2    1    2    0    0  0.00000000000E+00  0.00000000000E+00  0.17763568394E-14  0.91188000000E+02  0.91188000000E+02 0.  0.
    9900012    2    3    3    0    0  0.94029011130E+01  0.33735473024E+02 -0.11370250007E+02  0.54367091881E+02  0.40000017561E+02 0.  0.
         12    1    3    3    0    0 -0.94029011130E+01 -0.33735473024E+02  0.11370250007E+02  0.36820908119E+02  0.00000000000E+00 0. -1.
         11    1    4    4    0    0  0.18576189859E+01 -0.19329832946E+01  0.44399866131E+01  0.51865840492E+01  0.51100000000E-03 0. -1.
        -11    1    4    4    0    0  0.13368806695E+02  0.35047397581E+02 -0.19482014641E+02  0.42268119953E+02  0.51100000000E-03 0.  1.
        -12    1    4    4    0    0 -0.58235245677E+01  0.62105873719E+00  0.36717780213E+01  0.69123878785E+01  0.00000000000E+00 0.  1.
</event>
<event>
 8    1  0.3007389E-007  0.9118800E+02  0.7816164E-02  0.1184000E+00
        -11   -1    0    0    0    0  0.00000000000E+00  0.00000000000E+00  0.45593999997E+02  0.45594000000E+02  0.51100000000E-03 0.  1.
         11   -1    0    0    0    0 -0.00000000000E+00 -0.00000000000E+00 -0.45593999997E+02  0.45594000000E+02  0.51100000000E-03 0. -1.
         23    2    1    2    0    0  0.17763568394E-14  0.17763568394E-14  0.00000000000E+00  0.91188000000E+02  0.91188000000E+02 0.  0.
    9900012    2    3    3    0    0  0.15199832379E+02  0.15311201937E+02 -0.29838150211E+02  0.54367041062E+02  0.39999901708E+02 0.  0.
        -12    1    3    3    0    0 -0.15199832379E+02 -0.15311201937E+02  0.29838150211E+02  0.36820958938E+02  0.00000000000E+00 0.  1.
         11    1    4    4    0    0 -0.62464599470E+01  0.50591266344E+01 -0.21882526575E+02  0.23312185521E+02  0.51100000000E-03 0. -1.
        -11    1    4    4    0    0  0.44110774193E+01  0.11211564407E+02 -0.70707922372E+01  0.13969713081E+02  0.51100000000E-03 0.  1.
        -12    1    4    4    0    0  0.17035214907E+02 -0.95948910436E+00 -0.88483139902E+00  0.17085142460E+02  0.00000000000E+00 0.  1.
</event>
<event>
 8    1  0.3007389E-007  0.9118800E+02  0.7816164E-02  0.1184000E+00
        -11   -1    0    0    0    0  0.00000000000E+00  0.00000000000E+00  0.45593999997E+02  0.45594000000E+02  0.51100000000E-03 0. -1.
         11   -1    0    0    0    0 -0.00000000000E+00 -0.00000000000E+00 -0.45593999997E+02  0.45594000000E+02  0.51100000000E-03 0.  1.
         23    2    1    2    0    0  0.00000000000E+00  0.00000000000E+00 -0.71054273576E-14  0.91188000000E+02  0.91188000000E+02 0.  0.
    9900012    2    3    3    0    0 -0.85445403254E+01  0.23686005270E+02 -0.26865232569E+02  0.54367126355E+02  0.40000096151E+02 0.  0.
         12    1    3    3    0    0  0.85445403254E+01 -0.23686005270E+02  0.26865232569E+02  0.36820873645E+02  0.00000000000E+00 0. -1.
         11    1    4    4    0    0 -0.80218521671E+01  0.60874407727E+01 -0.33880210364E+02  0.35345094453E+02  0.51100000000E-03 0. -1.
        -11    1    4    4    0    0  0.54743093669E+00  0.36635211953E+01  0.15529095413E+01  0.40165403625E+01  0.51100000000E-03 0.  1.
        -12    1    4    4    0    0 -0.10701190949E+01  0.13935043302E+02  0.54620682539E+01  0.15005491539E+02  0.00000000000E+00 0.  1.
</event>
<event>
 8    1  0.3007389E-007  0.9118800E+02  0.7816164E-02  0.1184000E+00
        -11   -1    0    0    0    0  0.00000000000E+00  0.00000000000E+00  0.45593999997E+02  0.45594000000E+02  0.51100000000E-03 0.  1.
         11   -1    0    0    0    0 -0.00000000000E+00 -0.00000000000E+00 -0.45593999997E+02  0.45594000000E+02  0.51100000000E-03 0. -1.
         23    2    1    2    0    0  0.00000000000E+00  0.44408920985E-15  0.71054273576E-14  0.91188000000E+02  0.91188000000E+02 0.  0.
    9900012    2    3    3    0    0 -0.55710241650E+01 -0.29163651277E+01  0.36280007777E+02  0.54367075785E+02  0.39999980866E+02 0.  0.
         12    1    3    3    0    0  0.55710241650E+01  0.29163651277E+01 -0.36280007777E+02  0.36820924215E+02  0.00000000000E+00 0. -1.
         11    1    4    4    0    0 -0.48074591356E+01  0.90521354411E+01  0.76367537420E+00  0.10277938496E+02  0.51100000000E-03 0. -1.
        -11    1    4    4    0    0 -0.58329834178E+01 -0.14932471866E+02  0.12480583619E+02  0.20316677368E+02  0.51100000000E-03 0.  1.
        -12    1    4    4    0    0  0.50694183885E+01  0.29639712967E+01  0.23035748784E+02  0.23772459921E+02  0.00000000000E+00 0.  1.
</event>
<event>
 8    1  0.3007389E-007  0.9118800E+02  0.7816164E-02  0.1184000E+00
        -11   -1    0    0    0    0  0.00000000000E+00  0.00000000000E+00  0.45593999997E+02  0.45594000000E+02  0.51100000000E-03 0. -1.
         11   -1    0    0    0    0 -0.00000000000E+00 -0.00000000000E+00 -0.45593999997E+02  0.45594000000E+02  0.51100000000E-03 0.  1.
         23    2    1    2    0    0 -0.30531133177E-14  0.35527136788E-14 -0.35527136788E-14  0.91188000000E+02  0.91188000000E+02 0.  0.
    9900012    2    3    3    0    0  0.46739509836E+00 -0.19121633992E+02 -0.31463049121E+02  0.54367098263E+02  0.40000032111E+02 0.  0.
         12    1    3    3    0    0 -0.46739509836E+00  0.19121633992E+02  0.31463049121E+02  0.36820901737E+02  0.00000000000E+00 0. -1.
         11    1    4    4    0    0 -0.12487578499E+02 -0.19772249554E+02 -0.14691259496E+02  0.27617287612E+02  0.51100000000E-03 0.  1.
        -11    1    4    4    0    0 -0.37000581320E+01  0.15198383591E+00 -0.10698471639E+01  0.38546209258E+01  0.51100000000E-03 0. -1.
        -12    1    4    4    0    0  0.16655031730E+02  0.49863172639E+00 -0.15701942461E+02  0.22895189725E+02  0.00000000000E+00 0.  1.
</event>
<event>
 8    1  0.3007389E-007  0.9118800E+02  0.7816164E-02  0.1184000E+00
        -11   -1    0    0    0    0  0.00000000000E+00  0.00000000000E+00  0.45593999997E+02  0.45594000000E+02  0.51100000000E-03 0. -1.
         11   -1    0    0    0    0 -0.00000000000E+00 -0.00000000000E+00 -0.45593999997E+02  0.45594000000E+02  0.51100000000E-03 0.  1.
         23    2    1    2    0    0  0.17763568394E-14  0.00000000000E+00  0.35527136788E-14  0.91188000000E+02  0.91188000000E+02 0.  0.
    9900012    2    3    3    0    0 -0.15907137627E+02  0.25951733845E+02 -0.20718361496E+02  0.54367081758E+02  0.39999994485E+02 0.  0.
         12    1    3    3    0    0  0.15907137627E+02 -0.25951733845E+02  0.20718361496E+02  0.36820918242E+02  0.00000000000E+00 0. -1.
         11    1    4    4    0    0 -0.19370099829E+02  0.58240760145E+01  0.34719366998E+01  0.20522547930E+02  0.51100000000E-03 0.  1.
        -11    1    4    4    0    0 -0.27461361781E+01  0.45807904924E+01 -0.13195364076E+01  0.55014618090E+01  0.51100000000E-03 0. -1.
        -12    1    4    4    0    0  0.62090983801E+01  0.15546867338E+02 -0.22870761789E+02  0.28343072020E+02  0.00000000000E+00 0.  1.
</event>
<event>
 8    1  0.3007389E-007  0.9118800E+02  0.7816164E-02  0.1184000E+00
        -11   -1    0    0    0    0  0.00000000000E+00  0.00000000000E+00  0.45593999997E+02  0.45594000000E+02  0.51100000000E-03 0. -1.
         11   -1    0    0    0    0 -0.00000000000E+00 -0.00000000000E+00 -0.45593999997E+02  0.45594000000E+02  0.51100000000E-03 0.  1.
         23    2    1    2    0    0 -0.71054273576E-14  0.00000000000E+00  0.00000000000E+00  0.91188000000E+02  0.91188000000E+02 0.  0.
    9900012    2    3    3    0    0 -0.33366754193E+02  0.93597899721E+01 -0.12443461451E+02  0.54367004813E+02  0.39999819072E+02 0.  0.
         12    1    3    3    0    0  0.33366754193E+02 -0.93597899721E+01  0.12443461451E+02  0.36820995187E+02  0.00000000000E+00 0. -1.
         11    1    4    4    0    0 -0.16776927177E+02  0.15716227645E+02  0.36409679650E+01  0.23274916646E+02  0.51100000000E-03 0. -1.
        -11    1    4    4    0    0 -0.32322736980E+01  0.59918667471E+01 -0.96230367333E+01  0.11787828324E+02  0.51100000000E-03 0.  1.
        -12    1    4    4    0    0 -0.13357553317E+02 -0.12348304420E+02 -0.64613926824E+01  0.19304259843E+02  0.00000000000E+00 0.  1.
</event>
<event>
 8    1  0.3007389E-007  0.9118800E+02  0.7816164E-02  0.1184000E+00
        -11   -1    0    0    0    0  0.00000000000E+00  0.00000000000E+00  0.45593999997E+02  0.45594000000E+02  0.51100000000E-03 0. -1.
         11   -1    0    0    0    0 -0.00000000000E+00 -0.00000000000E+00 -0.45593999997E+02  0.45594000000E+02  0.51100000000E-03 0.  1.
         23    2    1    2    0    0  0.12212453271E-14  0.00000000000E+00  0.71054273576E-14  0.91188000000E+02  0.91188000000E+02 0.  0.
    9900012    2    3    3    0    0 -0.32217859079E+00 -0.37222317164E+01 -0.36630862188E+02  0.54367097341E+02  0.40000030008E+02 0.  0.
         12    1    3    3    0    0  0.32217859079E+00  0.37222317164E+01  0.36630862188E+02  0.36820902659E+02  0.00000000000E+00 0. -1.
         11    1    4    4    0    0 -0.15008109383E+02 -0.74427635851E+01 -0.13788524264E+02  0.21697038477E+02  0.51100000000E-03 0. -1.
        -11    1    4    4    0    0  0.18191758977E+02  0.38876128503E+00 -0.20089719915E+02  0.27105130078E+02  0.51100000000E-03 0.  1.
        -12    1    4    4    0    0 -0.35058281848E+01  0.33317705837E+01 -0.27526180093E+01  0.55649287856E+01  0.00000000000E+00 0.  1.
</event>
<event>
 8    1  0.3007389E-007  0.9118800E+02  0.7816164E-02  0.1184000E+00
        -11   -1    0    0    0    0  0.00000000000E+00  0.00000000000E+00  0.45593999997E+02  0.45594000000E+02  0.51100000000E-03 0. -1.
         11   -1    0    0    0    0 -0.00000000000E+00 -0.00000000000E+00 -0.45593999997E+02  0.45594000000E+02  0.51100000000E-03 0.  1.
         23    2    1    2    0    0  0.00000000000E+00  0.00000000000E+00  0.00000000000E+00  0.91188000000E+02  0.91188000000E+02 0.  0.
    9900012    2    3    3    0    0  0.87043724730E+01  0.19901551969E+02  0.29731170834E+02  0.54367076735E+02  0.39999983033E+02 0.  0.
        -12    1    3    3    0    0 -0.87043724730E+01 -0.19901551969E+02 -0.29731170834E+02  0.36820923265E+02  0.00000000000E+00 0.  1.
         11    1    4    4    0    0  0.14157666308E+02 -0.25303700746E+01 -0.20634387364E+01  0.14529283109E+02  0.51100000000E-03 0. -1.
        -11    1    4    4    0    0 -0.56248315323E+01  0.13543114541E+02  0.15932389400E+02  0.21653999942E+02  0.51100000000E-03 0.  1.
         12    1    4    4    0    0  0.17153769753E+00  0.88888075022E+01  0.15862220171E+02  0.18183793684E+02  0.00000000000E+00 0. -1.
</event>
<event>
 8    1  0.3007389E-007  0.9118800E+02  0.7816164E-02  0.1184000E+00
        -11   -1    0    0    0    0  0.00000000000E+00  0.00000000000E+00  0.45593999997E+02  0.45594000000E+02  0.51100000000E-03 0.  1.
         11   -1    0    0    0    0 -0.00000000000E+00 -0.00000000000E+00 -0.45593999997E+02  0.45594000000E+02  0.51100000000E-03 0. -1.
         23    2    1    2    0    0  0.00000000000E+00  0.00000000000E+00  0.00000000000E+00  0.91188000000E+02  0.91188000000E+02 0.  0.
    9900012    2    3    3    0    0 -0.22494331146E+02 -0.27770736508E+01 -0.29018613630E+02  0.54366986858E+02  0.39999778139E+02 0.  0.
        -12    1    3    3    0    0  0.22494331146E+02  0.27770736508E+01  0.29018613630E+02  0.36821013142E+02  0.00000000000E+00 0.  1.
         11    1    4    4    0    0 -0.28423382152E+02 -0.10617460562E+02 -0.23682903756E+02  0.38490246197E+02  0.51100000000E-03 0. -1.
        -11    1    4    4    0    0  0.31702224218E+01  0.10589123894E+02 -0.41311469243E+01  0.11800263989E+02  0.51100000000E-03 0.  1.
        -12    1    4    4    0    0  0.27588285837E+01 -0.27487369825E+01 -0.12045629501E+01  0.40764766716E+01  0.00000000000E+00 0.  1.
</event>
<event>
 8    1  0.3007389E-007  0.9118800E+02  0.7816164E-02  0.1184000E+00
        -11   -1    0    0    0    0  0.00000000000E+00  0.00000000000E+00  0.45593999997E+02  0.45594000000E+02  0.51100000000E-03 0.  1.
         11   -1    0    0    0    0 -0.00000000000E+00 -0.00000000000E+00 -0.45593999997E+02  0.45594000000E+02  0.51100000000E-03 0. -1.
         23    2    1    2    0    0 -0.17763568394E-14  0.00000000000E+00  0.00000000000E+00  0.91188000000E+02  0.91188000000E+02 0.  0.
    9900012    2    3    3    0    0 -0.13273217510E+02  0.18302791851E+02  0.29062177408E+02  0.54367073229E+02  0.39999975040E+02 0.  0.
         12    1    3    3    0    0  0.13273217510E+02 -0.18302791851E+02 -0.29062177408E+02  0.36820926771E+02  0.00000000000E+00 0. -1.
         11    1    4    4    0    0  0.22459129302E+01  0.19513084416E+01 -0.25312880324E+01  0.39062960575E+01  0.51100000000E-03 0. -1.
        -11    1    4    4    0    0 -0.11467373678E+02 -0.75683844077E+01  0.18022089204E+02  0.22662232925E+02  0.51100000000E-03 0.  1.
         12    1    4    4    0    0 -0.40517567624E+01  0.23919867817E+02  0.13571376236E+02  0.27798544246E+02  0.00000000000E+00 0. -1.
</event>
<event>
 8    1  0.3007389E-007  0.9118800E+02  0.7816164E-02  0.1184000E+00
        -11   -1    0    0    0    0  0.00000000000E+00  0.00000000000E+00  0.45593999997E+02  0.45594000000E+02  0.51100000000E-03 0. -1.
         11   -1    0    0    0    0 -0.00000000000E+00 -0.00000000000E+00 -0.45593999997E+02  0.45594000000E+02  0.51100000000E-03 0.  1.
         23    2    1    2    0    0  0.17763568394E-14 -0.17763568394E-14 -0.71054273576E-14  0.91188000000E+02  0.91188000000E+02 0.  0.
    9900012    2    3    3    0    0  0.81204150685E+01  0.14245167358E+02 -0.32968300136E+02  0.54367153353E+02  0.40000157699E+02 0.  0.
         12    1    3    3    0    0 -0.81204150685E+01 -0.14245167358E+02  0.32968300136E+02  0.36820846647E+02  0.00000000000E+00 0. -1.
         11    1    4    4    0    0  0.47151483076E+01 -0.96060826859E+01 -0.21912831229E+02  0.24386094826E+02  0.51100000000E-03 0. -1.
        -11    1    4    4    0    0  0.15520341624E+01  0.49157015482E+01 -0.96037072335E+01  0.10899730485E+02  0.51100000000E-03 0.  1.
         12    1    4    4    0    0  0.18532325985E+01  0.18935548496E+02 -0.14517616734E+01  0.19081328043E+02  0.00000000000E+00 0. -1.
</event>
<event>
 8    1  0.3007389E-007  0.9118800E+02  0.7816164E-02  0.1184000E+00
        -11   -1    0    0    0    0  0.00000000000E+00  0.00000000000E+00  0.45593999997E+02  0.45594000000E+02  0.51100000000E-03 0.  1.
         11   -1    0    0    0    0 -0.00000000000E+00 -0.00000000000E+00 -0.45593999997E+02  0.45594000000E+02  0.51100000000E-03 0. -1.
         23    2    1    2    0    0 -0.17763568394E-14  0.00000000000E+00  0.00000000000E+00  0.91188000000E+02  0.91188000000E+02 0.  0.
    9900012    2    3    3    0    0 -0.66488173414E+01  0.13133682850E+02  0.33750241788E+02  0.54367092651E+02  0.40000019317E+02 0.  0.
         12    1    3    3    0    0  0.66488173414E+01 -0.13133682850E+02 -0.33750241788E+02  0.36820907349E+02  0.00000000000E+00 0. -1.
         11    1    4    4    0    0  0.88301276349E+01  0.11000474206E+02  0.74833713732E+01  0.15968169406E+02  0.51100000000E-03 0. -1.
        -11    1    4    4    0    0 -0.15331152610E+02  0.11094462552E+02  0.19461201924E+02  0.27145344357E+02  0.51100000000E-03 0.  1.
         12    1    4    4    0    0 -0.14779236640E+00 -0.89612539081E+01  0.68056684909E+01  0.11253578888E+02  0.00000000000E+00 0. -1.
</event>
<event>
 8    1  0.3007389E-007  0.9118800E+02  0.7816164E-02  0.1184000E+00
        -11   -1    0    0    0    0  0.00000000000E+00  0.00000000000E+00  0.45593999997E+02  0.45594000000E+02  0.51100000000E-03 0.  1.
         11   -1    0    0    0    0 -0.00000000000E+00 -0.00000000000E+00 -0.45593999997E+02  0.45594000000E+02  0.51100000000E-03 0. -1.
         23    2    1    2    0    0 -0.17763568394E-14 -0.35527136788E-14  0.00000000000E+00  0.91188000000E+02  0.91188000000E+02 0.  0.
    9900012    2    3    3    0    0 -0.13631396938E+02 -0.89041525708E+01 -0.33025465484E+02  0.54367078149E+02  0.39999986257E+02 0.  0.
        -12    1    3    3    0    0  0.13631396938E+02  0.89041525708E+01  0.33025465484E+02  0.36820921851E+02  0.00000000000E+00 0.  1.
         11    1    4    4    0    0 -0.20433732061E+01 -0.15688120892E+02 -0.29820574139E+02  0.33757357027E+02  0.51100000000E-03 0. -1.
        -11    1    4    4    0    0  0.45712840088E+00 -0.22496052807E+01 -0.49463495156E+01  0.54530784045E+01  0.51100000000E-03 0.  1.
        -12    1    4    4    0    0 -0.12045152132E+02  0.90335736020E+01  0.17414581706E+01  0.15156642718E+02  0.00000000000E+00 0.  1.
</event>
<event>
 8    1  0.3007389E-007  0.9118800E+02  0.7816164E-02  0.1184000E+00
        -11   -1    0    0    0    0  0.00000000000E+00  0.00000000000E+00  0.45593999997E+02  0.45594000000E+02  0.51100000000E-03 0.  1.
         11   -1    0    0    0    0 -0.00000000000E+00 -0.00000000000E+00 -0.45593999997E+02  0.45594000000E+02  0.51100000000E-03 0. -1.
         23    2    1    2    0    0  0.00000000000E+00  0.00000000000E+00  0.00000000000E+00  0.91188000000E+02  0.91188000000E+02 0.  0.
    9900012    2    3    3    0    0 -0.32468208917E+02  0.13108130998E+02  0.11391746787E+02  0.54367087690E+02  0.40000008006E+02 0.  0.
         12    1    3    3    0    0  0.32468208917E+02 -0.13108130998E+02 -0.11391746787E+02  0.36820912310E+02  0.00000000000E+00 0. -1.
         11    1    4    4    0    0 -0.23699152880E+02 -0.20808741883E+01 -0.97474389822E+01  0.25709773464E+02  0.51100000000E-03 0. -1.
        -11    1    4    4    0    0 -0.34807790920E+01  0.33015865339E+00  0.28822060365E+01  0.45312183485E+01  0.51100000000E-03 0.  1.
         12    1    4    4    0    0 -0.52882769449E+01  0.14858846533E+02  0.18256979732E+02  0.24126095877E+02  0.00000000000E+00 0. -1.
</event>
<event>
 8    1  0.3007389E-007  0.9118800E+02  0.7816164E-02  0.1184000E+00
        -11   -1    0    0    0    0  0.00000000000E+00  0.00000000000E+00  0.45593999997E+02  0.45594000000E+02  0.51100000000E-03 0.  1.
         11   -1    0    0    0    0 -0.00000000000E+00 -0.00000000000E+00 -0.45593999997E+02  0.45594000000E+02  0.51100000000E-03 0. -1.
         23    2    1    2    0    0  0.00000000000E+00  0.00000000000E+00  0.00000000000E+00  0.91188000000E+02  0.91188000000E+02 0.  0.
    9900012    2    3    3    0    0  0.29789477566E+02  0.80408989807E+01  0.20092544395E+02  0.54367090582E+02  0.40000014601E+02 0.  0.
         12    1    3    3    0    0 -0.29789477566E+02 -0.80408989807E+01 -0.20092544395E+02  0.36820909418E+02  0.00000000000E+00 0. -1.
         11    1    4    4    0    0 -0.16507880346E+01 -0.37081093996E+01 -0.18693803305E+01  0.44687536893E+01  0.51100000000E-03 0. -1.
        -11    1    4    4    0    0  0.42042377508E+00  0.52951968489E+01  0.17021871081E+02  0.17831431832E+02  0.51100000000E-03 0.  1.
        -12    1    4    4    0    0  0.31019841826E+02  0.64538115314E+01  0.49400536440E+01  0.32066905061E+02  0.00000000000E+00 0.  1.
</event>
<event>
 8    1  0.3007389E-007  0.9118800E+02  0.7816164E-02  0.1184000E+00
        -11   -1    0    0    0    0  0.00000000000E+00  0.00000000000E+00  0.45593999997E+02  0.45594000000E+02  0.51100000000E-03 0. -1.
         11   -1    0    0    0    0 -0.00000000000E+00 -0.00000000000E+00 -0.45593999997E+02  0.45594000000E+02  0.51100000000E-03 0.  1.
         23    2    1    2    0    0  0.00000000000E+00  0.00000000000E+00  0.00000000000E+00  0.91188000000E+02  0.91188000000E+02 0.  0.
    9900012    2    3    3    0    0 -0.16385876909E+02  0.32830215758E+02  0.30754894140E+01  0.54367100175E+02  0.40000036469E+02 0.  0.
         12    1    3    3    0    0  0.16385876909E+02 -0.32830215758E+02 -0.30754894140E+01  0.36820899825E+02  0.00000000000E+00 0. -1.
         11    1    4    4    0    0 -0.15656607136E+01 -0.40512558106E+01 -0.31557968972E+01  0.53687076127E+01  0.51100000000E-03 0. -1.
        -11    1    4    4    0    0 -0.20684534646E+02  0.15598478944E+02 -0.52308983275E+00  0.25912084866E+02  0.51100000000E-03 0.  1.
        -12    1    4    4    0    0  0.58643184501E+01  0.21282992625E+02  0.67543761439E+01  0.23086307696E+02  0.00000000000E+00 0.  1.
</event>
<event>
 8    1  0.3007389E-007  0.9118800E+02  0.7816164E-02  0.1184000E+00
        -11   -1    0    0    0    0  0.00000000000E+00  0.00000000000E+00  0.45593999997E+02  0.45594000000E+02  0.51100000000E-03 0.  1.
         11   -1    0    0    0    0 -0.00000000000E+00 -0.00000000000E+00 -0.45593999997E+02  0.45594000000E+02  0.51100000000E-03 0. -1.
         23    2    1    2    0    0  0.17763568394E-14  0.00000000000E+00  0.00000000000E+00  0.91188000000E+02  0.91188000000E+02 0.  0.
    9900012    2    3    3    0    0 -0.15242587894E+02  0.43448790593E+01  0.33234995800E+02  0.54367090104E+02  0.40000013509E+02 0.  0.
         12    1    3    3    0    0  0.15242587894E+02 -0.43448790593E+01 -0.33234995800E+02  0.36820909896E+02  0.00000000000E+00 0. -1.
         11    1    4    4    0    0 -0.14815910684E+02  0.16488582430E+02  0.32458863063E+02  0.39306009102E+02  0.51100000000E-03 0.  1.
        -11    1    4    4    0    0 -0.37858186710E+01 -0.91509413493E+01 -0.15050490905E+01  0.10016851981E+02  0.51100000000E-03 0. -1.
        -12    1    4    4    0    0  0.33591414610E+01 -0.29927620219E+01  0.22811818282E+01  0.50442290202E+01  0.00000000000E+00 0.  1.
</event>
<event>
 8    1  0.3007389E-007  0.9118800E+02  0.7816164E-02  0.1184000E+00
        -11   -1    0    0    0    0  0.00000000000E+00  0.00000000000E+00  0.45593999997E+02  0.45594000000E+02  0.51100000000E-03 0. -1.
         11   -1    0    0    0    0 -0.00000000000E+00 -0.00000000000E+00 -0.45593999997E+02  0.45594000000E+02  0.51100000000E-03 0.  1.
         23    2    1    2    0    0  0.35527136788E-14  0.00000000000E+00  0.35527136788E-14  0.91188000000E+02  0.91188000000E+02 0.  0.
    9900012    2    3    3    0    0  0.18067318961E+02 -0.89332927762E+01  0.30814770879E+02  0.54367057065E+02  0.39999938192E+02 0.  0.
        -12    1    3    3    0    0 -0.18067318961E+02  0.89332927762E+01 -0.30814770879E+02  0.36820942935E+02  0.00000000000E+00 0.  1.
         11    1    4    4    0    0 -0.13691759226E+01 -0.14527030314E+02  0.26532805636E+02  0.30280340613E+02  0.51100000000E-03 0. -1.
        -11    1    4    4    0    0  0.87172122723E+01  0.65871337156E+01 -0.27010358581E+01  0.11255030669E+02  0.51100000000E-03 0.  1.
        -12    1    4    4    0    0  0.10719282611E+02 -0.99339617783E+00  0.69830011008E+01  0.12831685783E+02  0.00000000000E+00 0.  1.
</event>
<event>
 8    1  0.3007389E-007  0.9118800E+02  0.7816164E-02  0.1184000E+00
        -11   -1    0    0    0    0  0.00000000000E+00  0.00000000000E+00  0.45593999997E+02  0.45594000000E+02  0.51100000000E-03 0. -1.
         11   -1    0    0    0    0 -0.00000000000E+00 -0.00000000000E+00 -0.45593999997E+02  0.45594000000E+02  0.51100000000E-03 0.  1.
         23    2    1    2    0    0  0.35527136788E-14  0.00000000000E+00  0.00000000000E+00  0.91188000000E+02  0.91188000000E+02 0.  0.
    9900012    2    3    3    0    0  0.25658590009E+02  0.11654445594E+02  0.23697896856E+02  0.54367086666E+02  0.40000005672E+02 0.  0.
        -12    1    3    3    0    0 -0.25658590009E+02 -0.11654445594E+02 -0.23697896856E+02  0.36820913334E+02  0.00000000000E+00 0.  1.
         11    1    4    4    0    0  0.69413491012E+01 -0.48217330708E+01  0.19127670390E+01  0.86654552770E+01  0.51100000000E-03 0. -1.
        -11    1    4    4    0    0 -0.63438232097E+01  0.12465812934E+02  0.12238831768E+02  0.18585736153E+02  0.51100000000E-03 0.  1.
         12    1    4    4    0    0  0.25061064118E+02  0.40103657302E+01  0.95462980494E+01  0.27115895236E+02  0.00000000000E+00 0. -1.
</event>
<event>
 8    1  0.3007389E-007  0.9118800E+02  0.7816164E-02  0.1184000E+00
        -11   -1    0    0    0    0  0.00000000000E+00  0.00000000000E+00  0.45593999997E+02  0.45594000000E+02  0.51100000000E-03 0. -1.
         11   -1    0    0    0    0 -0.00000000000E+00 -0.00000000000E+00 -0.45593999997E+02  0.45594000000E+02  0.51100000000E-03 0.  1.
         23    2    1    2    0    0  0.11102230246E-15  0.00000000000E+00  0.00000000000E+00  0.91188000000E+02  0.91188000000E+02 0.  0.
    9900012    2    3    3    0    0  0.43308950604E+00  0.77694181539E+01  0.35989295541E+02  0.54367070918E+02  0.39999969771E+02 0.  0.
        -12    1    3    3    0    0 -0.43308950604E+00 -0.77694181539E+01 -0.35989295541E+02  0.36820929082E+02  0.00000000000E+00 0.  1.
         11    1    4    4    0    0 -0.14402529821E+01  0.47734192221E+01  0.11876632782E+02  0.12880771181E+02  0.51100000000E-03 0. -1.
        -11    1    4    4    0    0 -0.10150350035E+02  0.19639362379E+01  0.27141681324E+02  0.29044061643E+02  0.51100000000E-03 0.  1.
        -12    1    4    4    0    0  0.12023692523E+02  0.10320626939E+01 -0.30290185656E+01  0.12442238093E+02  0.00000000000E+00 0.  1.
</event>
<event>
 8    1  0.3007389E-007  0.9118800E+02  0.7816164E-02  0.1184000E+00
        -11   -1    0    0    0    0  0.00000000000E+00  0.00000000000E+00  0.45593999997E+02  0.45594000000E+02  0.51100000000E-03 0.  1.
         11   -1    0    0    0    0 -0.00000000000E+00 -0.00000000000E+00 -0.45593999997E+02  0.45594000000E+02  0.51100000000E-03 0. -1.
         23    2    1    2    0    0 -0.35527136788E-14  0.00000000000E+00  0.00000000000E+00  0.91188000000E+02  0.91188000000E+02 0.  0.
    9900012    2    3    3    0    0  0.17066590827E+02  0.37871988990E+01  0.32406314309E+02  0.54367073816E+02  0.39999976379E+02 0.  0.
         12    1    3    3    0    0 -0.17066590827E+02 -0.37871988990E+01 -0.32406314309E+02  0.36820926184E+02  0.00000000000E+00 0. -1.
         11    1    4    4    0    0 -0.26571001823E+01  0.92254501778E+01  0.50314761530E+01  0.10839043542E+02  0.51100000000E-03 0. -1.
        -11    1    4    4    0    0  0.20905204285E+02 -0.13197099190E+01  0.31336333223E+02  0.37692638281E+02  0.51100000000E-03 0.  1.
         12    1    4    4    0    0 -0.11815132751E+01 -0.41185413599E+01 -0.39614950670E+01  0.58353919935E+01  0.00000000000E+00 0. -1.
</event>
<event>
 8    1  0.3007389E-007  0.9118800E+02  0.7816164E-02  0.1184000E+00
        -11   -1    0    0    0    0  0.00000000000E+00  0.00000000000E+00  0.45593999997E+02  0.45594000000E+02  0.51100000000E-03 0.  1.
         11   -1    0    0    0    0 -0.00000000000E+00 -0.00000000000E+00 -0.45593999997E+02  0.45594000000E+02  0.51100000000E-03 0. -1.
         23    2    1    2    0    0  0.00000000000E+00  0.00000000000E+00  0.00000000000E+00  0.91188000000E+02  0.91188000000E+02 0.  0.
    9900012    2    3    3    0    0  0.78673251805E+01 -0.24989270026E+02  0.25873191422E+02  0.54367075835E+02  0.39999980982E+02 0.  0.
         12    1    3    3    0    0 -0.78673251805E+01  0.24989270026E+02 -0.25873191422E+02  0.36820924165E+02  0.00000000000E+00 0. -1.
         11    1    4    4    0    0  0.52553845770E+01 -0.63053677372E+01 -0.34963182787E+00  0.82157758020E+01  0.51100000000E-03 0. -1.
        -11    1    4    4    0    0 -0.94122257577E+01 -0.22868754308E+02  0.20794792132E+02  0.32310885122E+02  0.51100000000E-03 0.  1.
         12    1    4    4    0    0  0.12024166361E+02  0.41848520183E+01  0.54280311179E+01  0.13840414911E+02  0.00000000000E+00 0. -1.
</event>
<event>
 8    1  0.3007389E-007  0.9118800E+02  0.7816164E-02  0.1184000E+00
        -11   -1    0    0    0    0  0.00000000000E+00  0.00000000000E+00  0.45593999997E+02  0.45594000000E+02  0.51100000000E-03 0.  1.
         11   -1    0    0    0    0 -0.00000000000E+00 -0.00000000000E+00 -0.45593999997E+02  0.45594000000E+02  0.51100000000E-03 0. -1.
         23    2    1    2    0    0  0.88817841970E-15  0.00000000000E+00 -0.71054273576E-14  0.91188000000E+02  0.91188000000E+02 0.  0.
    9900012    2    3    3    0    0 -0.69035969956E+01  0.11861532609E+02  0.34167538075E+02  0.54367132745E+02  0.40000110718E+02 0.  0.
         12    1    3    3    0    0  0.69035969956E+01 -0.11861532609E+02 -0.34167538075E+02  0.36820867255E+02  0.00000000000E+00 0. -1.
         11    1    4    4    0    0  0.11010626212E+02  0.13265278324E+02  0.16493312145E+02  0.23858559143E+02  0.51100000000E-03 0. -1.
        -11    1    4    4    0    0 -0.13637860522E+02  0.19607257896E+01  0.20071547106E+01  0.13923518073E+02  0.51100000000E-03 0.  1.
        -12    1    4    4    0    0 -0.42763626862E+01 -0.33644715043E+01  0.15667071219E+02  0.16585055529E+02  0.00000000000E+00 0.  1.
</event>
<event>
 8    1  0.3007389E-007  0.9118800E+02  0.7816164E-02  0.1184000E+00
        -11   -1    0    0    0    0  0.00000000000E+00  0.00000000000E+00  0.45593999997E+02  0.45594000000E+02  0.51100000000E-03 0.  1.
         11   -1    0    0    0    0 -0.00000000000E+00 -0.00000000000E+00 -0.45593999997E+02  0.45594000000E+02  0.51100000000E-03 0. -1.
         23    2    1    2    0    0  0.00000000000E+00 -0.35527136788E-14 -0.88817841970E-15  0.91188000000E+02  0.91188000000E+02 0.  0.
    9900012    2    3    3    0    0  0.31056945241E+02 -0.19411838661E+02  0.37982397501E+01  0.54367082669E+02  0.39999996560E+02 0.  0.
         12    1    3    3    0    0 -0.31056945241E+02  0.19411838661E+02 -0.37982397501E+01  0.36820917331E+02  0.00000000000E+00 0. -1.
         11    1    4    4    0    0  0.37220539671E+01 -0.58961551133E+01 -0.70266957728E+01  0.98991304971E+01  0.51100000000E-03 0. -1.
        -11    1    4    4    0    0 -0.31780068609E+01  0.48711124467E+01  0.62718731852E+01  0.85535874105E+01  0.51100000000E-03 0.  1.
        -12    1    4    4    0    0  0.30512898135E+02 -0.18386795994E+02  0.45530623378E+01  0.35914364761E+02  0.00000000000E+00 0.  1.
</event>
<event>
 8    1  0.3007389E-007  0.9118800E+02  0.7816164E-02  0.1184000E+00
        -11   -1    0    0    0    0  0.00000000000E+00  0.00000000000E+00  0.45593999997E+02  0.45594000000E+02  0.51100000000E-03 0. -1.
         11   -1    0    0    0    0 -0.00000000000E+00 -0.00000000000E+00 -0.45593999997E+02  0.45594000000E+02  0.51100000000E-03 0.  1.
         23    2    1    2    0    0  0.00000000000E+00  0.35527136788E-14 -0.16653345369E-15  0.91188000000E+02  0.91188000000E+02 0.  0.
    9900012    2    3    3    0    0  0.29957592557E+02  0.21404697412E+02 -0.40345328677E+00  0.54367065768E+02  0.39999958032E+02 0.  0.
        -12    1    3    3    0    0 -0.29957592557E+02 -0.21404697412E+02  0.40345328677E+00  0.36820934232E+02  0.00000000000E+00 0.  1.
         11    1    4    4    0    0  0.68949000135E+01 -0.99555299721E+01 -0.78678706896E+00  0.12135536963E+02  0.51100000000E-03 0. -1.
        -11    1    4    4    0    0  0.71868966071E+01  0.23348517732E+02 -0.37654095272E+00  0.24432489568E+02  0.51100000000E-03 0.  1.
         12    1    4    4    0    0  0.15875795937E+02  0.80117096524E+01  0.75987473491E+00  0.17799039238E+02  0.00000000000E+00 0. -1.
</event>
<event>
 8    1  0.3007389E-007  0.9118800E+02  0.7816164E-02  0.1184000E+00
        -11   -1    0    0    0    0  0.00000000000E+00  0.00000000000E+00  0.45593999997E+02  0.45594000000E+02  0.51100000000E-03 0. -1.
         11   -1    0    0    0    0 -0.00000000000E+00 -0.00000000000E+00 -0.45593999997E+02  0.45594000000E+02  0.51100000000E-03 0.  1.
         23    2    1    2    0    0  0.00000000000E+00  0.00000000000E+00  0.35527136788E-14  0.91188000000E+02  0.91188000000E+02 0.  0.
    9900012    2    3    3    0    0  0.29213958700E+02 -0.11677729936E+02 -0.19129941683E+02  0.54367089797E+02  0.40000012810E+02 0.  0.
         12    1    3    3    0    0 -0.29213958700E+02  0.11677729936E+02  0.19129941683E+02  0.36820910203E+02  0.00000000000E+00 0. -1.
         11    1    4    4    0    0  0.49476224355E+01  0.94956302816E+01 -0.86102648711E+01  0.13739818908E+02  0.51100000000E-03 0. -1.
        -11    1    4    4    0    0  0.49288860497E+01  0.41402928068E+01 -0.53202060702E+01  0.83510798768E+01  0.51100000000E-03 0.  1.
        -12    1    4    4    0    0  0.19337450215E+02 -0.25313653025E+02 -0.51994707414E+01  0.32276191012E+02  0.00000000000E+00 0.  1.
</event>
<event>
 8    1  0.3007389E-007  0.9118800E+02  0.7816164E-02  0.1184000E+00
        -11   -1    0    0    0    0  0.00000000000E+00  0.00000000000E+00  0.45593999997E+02  0.45594000000E+02  0.51100000000E-03 0. -1.
         11   -1    0    0    0    0 -0.00000000000E+00 -0.00000000000E+00 -0.45593999997E+02  0.45594000000E+02  0.51100000000E-03 0.  1.
         23    2    1    2    0    0 -0.35527136788E-14  0.00000000000E+00  0.00000000000E+00  0.91188000000E+02  0.91188000000E+02 0.  0.
    9900012    2    3    3    0    0 -0.29036372986E+02 -0.22414220638E+02  0.32050035932E+01  0.54367078080E+02  0.39999986099E+02 0.  0.
        -12    1    3    3    0    0  0.29036372986E+02  0.22414220638E+02 -0.32050035932E+01  0.36820921920E+02  0.00000000000E+00 0.  1.
         11    1    4    4    0    0  0.37657128965E+01 -0.38907224479E+01 -0.35058857543E+01  0.64505464861E+01  0.51100000000E-03 0. -1.
        -11    1    4    4    0    0 -0.21337737193E+02  0.44149587146E+01  0.35917559501E+01  0.22083740626E+02  0.51100000000E-03 0.  1.
         12    1    4    4    0    0 -0.11464348690E+02 -0.22938456905E+02  0.31191333975E+01  0.25832790968E+02  0.00000000000E+00 0. -1.
</event>
<event>
 8    1  0.3007389E-007  0.9118800E+02  0.7816164E-02  0.1184000E+00
        -11   -1    0    0    0    0  0.00000000000E+00  0.00000000000E+00  0.45593999997E+02  0.45594000000E+02  0.51100000000E-03 0. -1.
         11   -1    0    0    0    0 -0.00000000000E+00 -0.00000000000E+00 -0.45593999997E+02  0.45594000000E+02  0.51100000000E-03 0.  1.
         23    2    1    2    0    0  0.00000000000E+00  0.22204460493E-15  0.00000000000E+00  0.91188000000E+02  0.91188000000E+02 0.  0.
    9900012    2    3    3    0    0 -0.27691134497E+02 -0.12721186446E+01 -0.24235544898E+02  0.54367097620E+02  0.40000030645E+02 0.  0.
         12    1    3    3    0    0  0.27691134497E+02  0.12721186446E+01  0.24235544898E+02  0.36820902380E+02  0.00000000000E+00 0. -1.
         11    1    4    4    0    0 -0.17775271918E+02 -0.71045681813E+01 -0.46090860819E+01  0.19689562097E+02  0.51100000000E-03 0. -1.
        -11    1    4    4    0    0 -0.13156522395E+02 -0.57464449852E+00  0.63210856519E+00  0.13184227673E+02  0.51100000000E-03 0.  1.
        -12    1    4    4    0    0  0.32406598164E+01  0.64070940352E+01 -0.20258567381E+02  0.21493307851E+02  0.00000000000E+00 0.  1.
</event>
<event>
 8    1  0.3007389E-007  0.9118800E+02  0.7816164E-02  0.1184000E+00
        -11   -1    0    0    0    0  0.00000000000E+00  0.00000000000E+00  0.45593999997E+02  0.45594000000E+02  0.51100000000E-03 0. -1.
         11   -1    0    0    0    0 -0.00000000000E+00 -0.00000000000E+00 -0.45593999997E+02  0.45594000000E+02  0.51100000000E-03 0.  1.
         23    2    1    2    0    0 -0.11102230246E-15  0.00000000000E+00  0.00000000000E+00  0.91188000000E+02  0.91188000000E+02 0.  0.
    9900012    2    3    3    0    0 -0.29500601482E+00  0.33406542042E+02  0.15482094127E+02  0.54367091289E+02  0.40000016211E+02 0.  0.
        -12    1    3    3    0    0  0.29500601482E+00 -0.33406542042E+02 -0.15482094127E+02  0.36820908711E+02  0.00000000000E+00 0.  1.
         11    1    4    4    0    0  0.70530562963E+01  0.13727944146E+02 -0.51470989779E+01  0.16269440118E+02  0.51100000000E-03 0. -1.
        -11    1    4    4    0    0 -0.15978981117E+01  0.13972287478E+02 -0.18675123370E+01  0.14186814242E+02  0.51100000000E-03 0.  1.
         12    1    4    4    0    0 -0.57501641994E+01  0.57063104184E+01  0.22496705442E+02  0.23910836929E+02  0.00000000000E+00 0. -1.
</event>
<event>
 8    1  0.3007389E-007  0.9118800E+02  0.7816164E-02  0.1184000E+00
        -11   -1    0    0    0    0  0.00000000000E+00  0.00000000000E+00  0.45593999997E+02  0.45594000000E+02  0.51100000000E-03 0. -1.
         11   -1    0    0    0    0 -0.00000000000E+00 -0.00000000000E+00 -0.45593999997E+02  0.45594000000E+02  0.51100000000E-03 0.  1.
         23    2    1    2    0    0  0.00000000000E+00 -0.35527136788E-14  0.35527136788E-14  0.91188000000E+02  0.91188000000E+02 0.  0.
    9900012    2    3    3    0    0 -0.22583343636E+02  0.24000138570E+02 -0.16424692130E+02  0.54367019938E+02  0.39999853551E+02 0.  0.
         12    1    3    3    0    0  0.22583343636E+02 -0.24000138570E+02  0.16424692130E+02  0.36820980062E+02  0.00000000000E+00 0. -1.
         11    1    4    4    0    0  0.78923045983E+01  0.82310427597E+01  0.11077691419E+01  0.11457123964E+02  0.51100000000E-03 0. -1.
        -11    1    4    4    0    0 -0.13136617203E+02  0.15610991116E+02 -0.37153712478E+01  0.20738315720E+02  0.51100000000E-03 0.  1.
         12    1    4    4    0    0 -0.17339031032E+02  0.15810469523E+00 -0.13817090024E+02  0.22171580254E+02  0.00000000000E+00 0. -1.
</event>
<event>
 8    1  0.3007389E-007  0.9118800E+02  0.7816164E-02  0.1184000E+00
        -11   -1    0    0    0    0  0.00000000000E+00  0.00000000000E+00  0.45593999997E+02  0.45594000000E+02  0.51100000000E-03 0. -1.
         11   -1    0    0    0    0 -0.00000000000E+00 -0.00000000000E+00 -0.45593999997E+02  0.45594000000E+02  0.51100000000E-03 0.  1.
         23    2    1    2    0    0  0.00000000000E+00 -0.71054273576E-14  0.88817841970E-15  0.91188000000E+02  0.91188000000E+02 0.  0.
    9900012    2    3    3    0    0  0.71252771115E+01 -0.35699791984E+02 -0.55257705370E+01  0.54367097490E+02  0.40000030349E+02 0.  0.
         12    1    3    3    0    0 -0.71252771115E+01  0.35699791984E+02  0.55257705370E+01  0.36820902510E+02  0.00000000000E+00 0. -1.
         11    1    4    4    0    0 -0.23729482239E+01 -0.16283947505E+02 -0.27224804552E+01  0.16679620190E+02  0.51100000000E-03 0. -1.
        -11    1    4    4    0    0  0.94131123911E+01 -0.70222386073E+01 -0.15827533788E+02  0.19708610961E+02  0.51100000000E-03 0.  1.
         12    1    4    4    0    0  0.85112944312E-01 -0.12393605872E+02  0.13024243706E+02  0.17978866339E+02  0.00000000000E+00 0. -1.
</event>
<event>
 8    1  0.3007389E-007  0.9118800E+02  0.7816164E-02  0.1184000E+00
        -11   -1    0    0    0    0  0.00000000000E+00  0.00000000000E+00  0.45593999997E+02  0.45594000000E+02  0.51100000000E-03 0.  1.
         11   -1    0    0    0    0 -0.00000000000E+00 -0.00000000000E+00 -0.45593999997E+02  0.45594000000E+02  0.51100000000E-03 0. -1.
         23    2    1    2    0    0  0.00000000000E+00  0.17763568394E-14  0.17763568394E-14  0.91188000000E+02  0.91188000000E+02 0.  0.
    9900012    2    3    3    0    0 -0.35209544147E+02 -0.10426912495E+02  0.27088156155E+01  0.54367215309E+02  0.40000298938E+02 0.  0.
         12    1    3    3    0    0  0.35209544147E+02  0.10426912495E+02 -0.27088156155E+01  0.36820784691E+02  0.00000000000E+00 0. -1.
         11    1    4    4    0    0 -0.82544897951E+01 -0.10367022604E+02 -0.38799189003E+01  0.13808168973E+02  0.51100000000E-03 0. -1.
        -11    1    4    4    0    0 -0.31292487404E+00  0.44392055691E+01  0.12179754476E+02  0.12967300699E+02  0.51100000000E-03 0.  1.
         12    1    4    4    0    0 -0.26642129478E+02 -0.44990954603E+01 -0.55910199602E+01  0.27591745637E+02  0.00000000000E+00 0. -1.
</event>
<event>
 8    1  0.3007389E-007  0.9118800E+02  0.7816164E-02  0.1184000E+00
        -11   -1    0    0    0    0  0.00000000000E+00  0.00000000000E+00  0.45593999997E+02  0.45594000000E+02  0.51100000000E-03 0.  1.
         11   -1    0    0    0    0 -0.00000000000E+00 -0.00000000000E+00 -0.45593999997E+02  0.45594000000E+02  0.51100000000E-03 0. -1.
         23    2    1    2    0    0  0.35527136788E-14  0.00000000000E+00  0.00000000000E+00  0.91188000000E+02  0.91188000000E+02 0.  0.
    9900012    2    3    3    0    0 -0.26187326905E+02  0.15517352971E+02 -0.20717487950E+02  0.54367100491E+02  0.40000037189E+02 0.  0.
        -12    1    3    3    0    0  0.26187326905E+02 -0.15517352971E+02  0.20717487950E+02  0.36820899509E+02  0.00000000000E+00 0.  1.
         11    1    4    4    0    0 -0.16489772914E+01 -0.11398539515E+02 -0.26228480446E+01  0.11812076926E+02  0.51100000000E-03 0.  1.
        -11    1    4    4    0    0 -0.13690797349E+02  0.23338450335E+02 -0.13562189570E+02  0.30266387004E+02  0.51100000000E-03 0. -1.
        -12    1    4    4    0    0 -0.10847552265E+02  0.35774421511E+01 -0.45324503356E+01  0.12288636561E+02  0.00000000000E+00 0.  1.
</event>
<event>
 8    1  0.3007389E-007  0.9118800E+02  0.7816164E-02  0.1184000E+00
        -11   -1    0    0    0    0  0.00000000000E+00  0.00000000000E+00  0.45593999997E+02  0.45594000000E+02  0.51100000000E-03 0.  1.
         11   -1    0    0    0    0 -0.00000000000E+00 -0.00000000000E+00 -0.45593999997E+02  0.45594000000E+02  0.51100000000E-03 0. -1.
         23    2    1    2    0    0  0.00000000000E+00  0.00000000000E+00  0.17763568394E-14  0.91188000000E+02  0.91188000000E+02 0.  0.
    9900012    2    3    3    0    0  0.33432780872E+02 -0.11089272707E+02 -0.10726475991E+02  0.54367080767E+02  0.39999992224E+02 0.  0.
         12    1    3    3    0    0 -0.33432780872E+02  0.11089272707E+02  0.10726475991E+02  0.36820919233E+02  0.00000000000E+00 0. -1.
         11    1    4    4    0    0  0.19507705505E+02 -0.82157455305E+01 -0.11999561911E+02  0.24331841998E+02  0.51100000000E-03 0. -1.
        -11    1    4    4    0    0  0.21011979935E+02 -0.25360061303E+01 -0.35445667975E+01  0.21459230693E+02  0.51100000000E-03 0.  1.
        -12    1    4    4    0    0 -0.70869045677E+01 -0.33752104611E+00  0.48176527181E+01  0.85760080761E+01  0.00000000000E+00 0.  1.
</event>
<event>
 8    1  0.3007389E-007  0.9118800E+02  0.7816164E-02  0.1184000E+00
        -11   -1    0    0    0    0  0.00000000000E+00  0.00000000000E+00  0.45593999997E+02  0.45594000000E+02  0.51100000000E-03 0.  1.
         11   -1    0    0    0    0 -0.00000000000E+00 -0.00000000000E+00 -0.45593999997E+02  0.45594000000E+02  0.51100000000E-03 0. -1.
         23    2    1    2    0    0  0.35527136788E-14 -0.17763568394E-14  0.53290705182E-14  0.91188000000E+02  0.91188000000E+02 0.  0.
    9900012    2    3    3    0    0 -0.30882535889E+02  0.12241343075E+02 -0.15880736460E+02  0.54367091622E+02  0.40000016972E+02 0.  0.
        -12    1    3    3    0    0  0.30882535889E+02 -0.12241343075E+02  0.15880736460E+02  0.36820908378E+02  0.00000000000E+00 0.  1.
         11    1    4    4    0    0 -0.10798489131E+02  0.20746564007E+01 -0.15243689328E+02  0.18795787594E+02  0.51100000000E-03 0. -1.
        -11    1    4    4    0    0 -0.38005706133E+01  0.13421890854E+02 -0.93747830891E+01  0.16807083307E+02  0.51100000000E-03 0.  1.
        -12    1    4    4    0    0 -0.16283476145E+02 -0.32552041797E+01  0.87377359567E+01  0.18764220721E+02  0.00000000000E+00 0.  1.
</event>
<event>
 8    1  0.3007389E-007  0.9118800E+02  0.7816164E-02  0.1184000E+00
        -11   -1    0    0    0    0  0.00000000000E+00  0.00000000000E+00  0.45593999997E+02  0.45594000000E+02  0.51100000000E-03 0.  1.
         11   -1    0    0    0    0 -0.00000000000E+00 -0.00000000000E+00 -0.45593999997E+02  0.45594000000E+02  0.51100000000E-03 0. -1.
         23    2    1    2    0    0  0.00000000000E+00 -0.17763568394E-14 -0.35527136788E-14  0.91188000000E+02  0.91188000000E+02 0.  0.
    9900012    2    3    3    0    0  0.12401078850E+02  0.14645227721E+02  0.31424644942E+02  0.54367112431E+02  0.40000064409E+02 0.  0.
         12    1    3    3    0    0 -0.12401078850E+02 -0.14645227721E+02 -0.31424644942E+02  0.36820887569E+02  0.00000000000E+00 0. -1.
         11    1    4    4    0    0  0.13232209896E+02  0.85651831423E+01  0.27888415070E+02  0.32034628706E+02  0.51100000000E-03 0. -1.
        -11    1    4    4    0    0 -0.88341222480E+01  0.97462298590E+01  0.31244174636E+01  0.13520084952E+02  0.51100000000E-03 0.  1.
        -12    1    4    4    0    0  0.80029912014E+01 -0.36661852797E+01  0.41181240857E+00  0.88123987730E+01  0.00000000000E+00 0.  1.
</event>
<event>
 8    1  0.3007389E-007  0.9118800E+02  0.7816164E-02  0.1184000E+00
        -11   -1    0    0    0    0  0.00000000000E+00  0.00000000000E+00  0.45593999997E+02  0.45594000000E+02  0.51100000000E-03 0. -1.
         11   -1    0    0    0    0 -0.00000000000E+00 -0.00000000000E+00 -0.45593999997E+02  0.45594000000E+02  0.51100000000E-03 0.  1.
         23    2    1    2    0    0  0.00000000000E+00  0.00000000000E+00  0.00000000000E+00  0.91188000000E+02  0.91188000000E+02 0.  0.
    9900012    2    3    3    0    0 -0.17985312818E+02 -0.23973549483E+02  0.21391116428E+02  0.54367049252E+02  0.39999920380E+02 0.  0.
        -12    1    3    3    0    0  0.17985312818E+02  0.23973549483E+02 -0.21391116428E+02  0.36820950748E+02  0.00000000000E+00 0.  1.
         11    1    4    4    0    0  0.14333769599E+01 -0.30667882582E+01  0.17783556796E+02  0.18102890716E+02  0.51100000000E-03 0. -1.
        -11    1    4    4    0    0 -0.79515031722E+01 -0.14122910384E+02  0.12308238496E+02  0.20351307957E+02  0.51100000000E-03 0.  1.
        -12    1    4    4    0    0 -0.11467186605E+02 -0.67838508402E+01 -0.87006788633E+01  0.15912850579E+02  0.00000000000E+00 0.  1.
</event>
<event>
 8    1  0.3007389E-007  0.9118800E+02  0.7816164E-02  0.1184000E+00
        -11   -1    0    0    0    0  0.00000000000E+00  0.00000000000E+00  0.45593999997E+02  0.45594000000E+02  0.51100000000E-03 0. -1.
         11   -1    0    0    0    0 -0.00000000000E+00 -0.00000000000E+00 -0.45593999997E+02  0.45594000000E+02  0.51100000000E-03 0.  1.
         23    2    1    2    0    0 -0.35527136788E-14 -0.17763568394E-14  0.35527136788E-14  0.91188000000E+02  0.91188000000E+02 0.  0.
    9900012    2    3    3    0    0 -0.25100336529E+02 -0.11854330778E+02  0.24191480244E+02  0.54367085177E+02  0.40000002278E+02 0.  0.
        -12    1    3    3    0    0  0.25100336529E+02  0.11854330778E+02 -0.24191480244E+02  0.36820914823E+02  0.00000000000E+00 0.  1.
         11    1    4    4    0    0 -0.39445482678E+01  0.67363111900E+01  0.17288386570E+01  0.79953882238E+01  0.51100000000E-03 0. -1.
        -11    1    4    4    0    0 -0.20030424441E+02  0.53952567989E+00  0.17432220077E+02  0.26559203457E+02  0.51100000000E-03 0.  1.
        -12    1    4    4    0    0 -0.11253638202E+01 -0.19130167648E+02  0.50304215100E+01  0.19812493496E+02  0.00000000000E+00 0.  1.
</event>
<event>
 8    1  0.3007389E-007  0.9118800E+02  0.7816164E-02  0.1184000E+00
        -11   -1    0    0    0    0  0.00000000000E+00  0.00000000000E+00  0.45593999997E+02  0.45594000000E+02  0.51100000000E-03 0.  1.
         11   -1    0    0    0    0 -0.00000000000E+00 -0.00000000000E+00 -0.45593999997E+02  0.45594000000E+02  0.51100000000E-03 0. -1.
         23    2    1    2    0    0  0.00000000000E+00 -0.39968028887E-14  0.17763568394E-14  0.91188000000E+02  0.91188000000E+02 0.  0.
    9900012    2    3    3    0    0  0.35101370770E+02 -0.35222134817E+01 -0.10549191476E+02  0.54366842244E+02  0.39999448459E+02 0.  0.
        -12    1    3    3    0    0 -0.35101370770E+02  0.35222134817E+01  0.10549191476E+02  0.36821157756E+02  0.00000000000E+00 0.  1.
         11    1    4    4    0    0  0.11530697284E+01  0.65003404153E+00 -0.12508391940E+01  0.18211845058E+01  0.51100000000E-03 0. -1.
        -11    1    4    4    0    0  0.18091162231E+02  0.16056821201E+02 -0.11430792853E+02  0.26753965752E+02  0.51100000000E-03 0.  1.
        -12    1    4    4    0    0  0.15857138811E+02 -0.20229068724E+02  0.21324405716E+01  0.25791691986E+02  0.00000000000E+00 0.  1.
</event>
<event>
 8    1  0.3007389E-007  0.9118800E+02  0.7816164E-02  0.1184000E+00
        -11   -1    0    0    0    0  0.00000000000E+00  0.00000000000E+00  0.45593999997E+02  0.45594000000E+02  0.51100000000E-03 0.  1.
         11   -1    0    0    0    0 -0.00000000000E+00 -0.00000000000E+00 -0.45593999997E+02  0.45594000000E+02  0.51100000000E-03 0. -1.
         23    2    1    2    0    0  0.17763568394E-14  0.00000000000E+00 -0.35527136788E-14  0.91188000000E+02  0.91188000000E+02 0.  0.
    9900012    2    3    3    0    0 -0.63957249492E+01 -0.28313369851E+02  0.22654521530E+02  0.54367088066E+02  0.40000008863E+02 0.  0.
         12    1    3    3    0    0  0.63957249492E+01  0.28313369851E+02 -0.22654521530E+02  0.36820911934E+02  0.00000000000E+00 0. -1.
         11    1    4    4    0    0 -0.11363585887E+02  0.20233731876E+01  0.61581894665E+00  0.11558735074E+02  0.51100000000E-03 0. -1.
        -11    1    4    4    0    0  0.76090016590E+01 -0.32361076534E+02  0.21005815753E+02  0.39324044507E+02  0.51100000000E-03 0.  1.
         12    1    4    4    0    0 -0.26411407214E+01  0.20243334960E+01  0.10328868310E+01  0.34843084850E+01  0.00000000000E+00 0. -1.
</event>
<event>
 8    1  0.3007389E-007  0.9118800E+02  0.7816164E-02  0.1184000E+00
        -11   -1    0    0    0    0  0.00000000000E+00  0.00000000000E+00  0.45593999997E+02  0.45594000000E+02  0.51100000000E-03 0.  1.
         11   -1    0    0    0    0 -0.00000000000E+00 -0.00000000000E+00 -0.45593999997E+02  0.45594000000E+02  0.51100000000E-03 0. -1.
         23    2    1    2    0    0 -0.17763568394E-14  0.17763568394E-14  0.00000000000E+00  0.91188000000E+02  0.91188000000E+02 0.  0.
    9900012    2    3    3    0    0  0.15779925703E+02 -0.11234616508E+02 -0.31313866136E+02  0.54367070141E+02  0.39999968001E+02 0.  0.
        -12    1    3    3    0    0 -0.15779925703E+02  0.11234616508E+02  0.31313866136E+02  0.36820929859E+02  0.00000000000E+00 0.  1.
         11    1    4    4    0    0 -0.69506375005E+01 -0.10909401108E+01 -0.53786090620E+01  0.88561248688E+01  0.51100000000E-03 0. -1.
        -11    1    4    4    0    0  0.91560030095E+01  0.78731823129E+01 -0.13598587608E+01  0.12151897257E+02  0.51100000000E-03 0.  1.
        -12    1    4    4    0    0  0.13574560194E+02 -0.18016858710E+02 -0.24575398313E+02  0.33359048015E+02  0.00000000000E+00 0.  1.
</event>
<event>
 8    1  0.3007389E-007  0.9118800E+02  0.7816164E-02  0.1184000E+00
        -11   -1    0    0    0    0  0.00000000000E+00  0.00000000000E+00  0.45593999997E+02  0.45594000000E+02  0.51100000000E-03 0.  1.
         11   -1    0    0    0    0 -0.00000000000E+00 -0.00000000000E+00 -0.45593999997E+02  0.45594000000E+02  0.51100000000E-03 0. -1.
         23    2    1    2    0    0  0.00000000000E+00  0.00000000000E+00  0.17763568394E-14  0.91188000000E+02  0.91188000000E+02 0.  0.
    9900012    2    3    3    0    0 -0.17639792265E+02  0.29171086859E+02  0.13916291539E+02  0.54367112587E+02  0.40000064765E+02 0.  0.
         12    1    3    3    0    0  0.17639792265E+02 -0.29171086859E+02 -0.13916291539E+02  0.36820887413E+02  0.00000000000E+00 0. -1.
         11    1    4    4    0    0 -0.45550548977E+01  0.11950106343E+02 -0.20308374163E+01  0.12949048907E+02  0.51100000000E-03 0. -1.
        -11    1    4    4    0    0 -0.22991076271E+01  0.23731810645E+02  0.16185067827E+02  0.28817375890E+02  0.51100000000E-03 0.  1.
         12    1    4    4    0    0 -0.10785629740E+02 -0.65108301290E+01 -0.23793887169E+00  0.12600687790E+02  0.00000000000E+00 0. -1.
</event>
<event>
 8    1  0.3007389E-007  0.9118800E+02  0.7816164E-02  0.1184000E+00
        -11   -1    0    0    0    0  0.00000000000E+00  0.00000000000E+00  0.45593999997E+02  0.45594000000E+02  0.51100000000E-03 0.  1.
         11   -1    0    0    0    0 -0.00000000000E+00 -0.00000000000E+00 -0.45593999997E+02  0.45594000000E+02  0.51100000000E-03 0. -1.
         23    2    1    2    0    0 -0.35527136788E-14  0.88817841970E-15 -0.71054273576E-14  0.91188000000E+02  0.91188000000E+02 0.  0.
    9900012    2    3    3    0    0  0.16426785298E+02 -0.35752946041E+01  0.32759087130E+02  0.54367084798E+02  0.40000001413E+02 0.  0.
         12    1    3    3    0    0 -0.16426785298E+02  0.35752946041E+01 -0.32759087130E+02  0.36820915202E+02  0.00000000000E+00 0. -1.
         11    1    4    4    0    0  0.14255938035E+02 -0.17682485037E+02  0.13114696246E+02  0.26227796404E+02  0.51100000000E-03 0. -1.
        -11    1    4    4    0    0  0.63455538376E+01  0.10572943023E+01  0.58101876360E+01  0.86684603808E+01  0.51100000000E-03 0.  1.
         12    1    4    4    0    0 -0.41747065739E+01  0.13049896131E+02  0.13834203248E+02  0.19470828013E+02  0.00000000000E+00 0. -1.
</event>
<event>
 8    1  0.3007389E-007  0.9118800E+02  0.7816164E-02  0.1184000E+00
        -11   -1    0    0    0    0  0.00000000000E+00  0.00000000000E+00  0.45593999997E+02  0.45594000000E+02  0.51100000000E-03 0.  1.
         11   -1    0    0    0    0 -0.00000000000E+00 -0.00000000000E+00 -0.45593999997E+02  0.45594000000E+02  0.51100000000E-03 0. -1.
         23    2    1    2    0    0 -0.44408920985E-15 -0.71054273576E-14  0.00000000000E+00  0.91188000000E+02  0.91188000000E+02 0.  0.
    9900012    2    3    3    0    0  0.35844826017E+01  0.29228684321E+02 -0.22104634390E+02  0.54367090666E+02  0.40000014792E+02 0.  0.
        -12    1    3    3    0    0 -0.35844826017E+01 -0.29228684321E+02  0.22104634390E+02  0.36820909334E+02  0.00000000000E+00 0.  1.
         11    1    4    4    0    0  0.31385205170E+01 -0.18749892187E+01 -0.15516600081E+02  0.15941479666E+02  0.51100000000E-03 0. -1.
        -11    1    4    4    0    0  0.59490542981E+00 -0.30836125606E+01  0.12003809580E+01  0.33620668642E+01  0.51100000000E-03 0.  1.
         12    1    4    4    0    0 -0.14894334507E+00  0.34187286100E+02 -0.77884152664E+01  0.35063544136E+02  0.00000000000E+00 0. -1.
</event>
<event>
 8    1  0.3007389E-007  0.9118800E+02  0.7816164E-02  0.1184000E+00
        -11   -1    0    0    0    0  0.00000000000E+00  0.00000000000E+00  0.45593999997E+02  0.45594000000E+02  0.51100000000E-03 0. -1.
         11   -1    0    0    0    0 -0.00000000000E+00 -0.00000000000E+00 -0.45593999997E+02  0.45594000000E+02  0.51100000000E-03 0.  1.
         23    2    1    2    0    0 -0.35527136788E-14 -0.17763568394E-14  0.35527136788E-14  0.91188000000E+02  0.91188000000E+02 0.  0.
    9900012    2    3    3    0    0  0.30131272547E+02  0.92104306085E+01 -0.19053992842E+02  0.54367078494E+02  0.39999987043E+02 0.  0.
         12    1    3    3    0    0 -0.30131272547E+02 -0.92104306085E+01  0.19053992842E+02  0.36820921506E+02  0.00000000000E+00 0. -1.
         11    1    4    4    0    0  0.23412334343E+02  0.22957433302E+02 -0.88926571650E+01  0.33974409412E+02  0.51100000000E-03 0. -1.
        -11    1    4    4    0    0  0.69040178923E+01 -0.41653837119E+01 -0.40142425625E+01  0.90072208886E+01  0.51100000000E-03 0.  1.
        -12    1    4    4    0    0 -0.18507968772E+00 -0.95816189817E+01 -0.61470931149E+01  0.11385448193E+02  0.00000000000E+00 0.  1.
</event>
<event>
 8    1  0.3007389E-007  0.9118800E+02  0.7816164E-02  0.1184000E+00
        -11   -1    0    0    0    0  0.00000000000E+00  0.00000000000E+00  0.45593999997E+02  0.45594000000E+02  0.51100000000E-03 0. -1.
         11   -1    0    0    0    0 -0.00000000000E+00 -0.00000000000E+00 -0.45593999997E+02  0.45594000000E+02  0.51100000000E-03 0.  1.
         23    2    1    2    0    0 -0.35527136788E-14  0.00000000000E+00  0.00000000000E+00  0.91188000000E+02  0.91188000000E+02 0.  0.
    9900012    2    3    3    0    0 -0.24566365264E+02 -0.18001083287E+02 -0.20693822957E+02  0.54367087324E+02  0.40000007171E+02 0.  0.
         12    1    3    3    0    0  0.24566365264E+02  0.18001083287E+02  0.20693822957E+02  0.36820912676E+02  0.00000000000E+00 0. -1.
         11    1    4    4    0    0  0.41048697314E+01 -0.16592144924E+01 -0.11958742938E+01  0.45861818358E+01  0.51100000000E-03 0. -1.
        -11    1    4    4    0    0 -0.30529405007E+02 -0.13321269251E+01 -0.11324412724E+02  0.32589284374E+02  0.51100000000E-03 0.  1.
        -12    1    4    4    0    0  0.18581700117E+01 -0.15009741869E+02 -0.81735359394E+01  0.17191621114E+02  0.00000000000E+00 0.  1.
</event>
<event>
 8    1  0.3007389E-007  0.9118800E+02  0.7816164E-02  0.1184000E+00
        -11   -1    0    0    0    0  0.00000000000E+00  0.00000000000E+00  0.45593999997E+02  0.45594000000E+02  0.51100000000E-03 0.  1.
         11   -1    0    0    0    0 -0.00000000000E+00 -0.00000000000E+00 -0.45593999997E+02  0.45594000000E+02  0.51100000000E-03 0. -1.
         23    2    1    2    0    0  0.71054273576E-14  0.00000000000E+00 -0.88817841970E-15  0.91188000000E+02  0.91188000000E+02 0.  0.
    9900012    2    3    3    0    0 -0.36292202555E+02 -0.28693564224E+01 -0.55154741143E+01  0.54367114252E+02  0.40000068561E+02 0.  0.
         12    1    3    3    0    0  0.36292202555E+02  0.28693564224E+01  0.55154741143E+01  0.36820885748E+02  0.00000000000E+00 0. -1.
         11    1    4    4    0    0 -0.23555042485E+02 -0.10714880469E+02 -0.16094009250E+02  0.30474018835E+02  0.51100000000E-03 0. -1.
        -11    1    4    4    0    0 -0.33104705230E+01  0.46721430641E+01  0.12512359398E+02  0.13760351517E+02  0.51100000000E-03 0.  1.
        -12    1    4    4    0    0 -0.94266895469E+01  0.31733809829E+01 -0.19338242621E+01  0.10132743900E+02  0.00000000000E+00 0.  1.
</event>
<event>
 8    1  0.3007389E-007  0.9118800E+02  0.7816164E-02  0.1184000E+00
        -11   -1    0    0    0    0  0.00000000000E+00  0.00000000000E+00  0.45593999997E+02  0.45594000000E+02  0.51100000000E-03 0. -1.
         11   -1    0    0    0    0 -0.00000000000E+00 -0.00000000000E+00 -0.45593999997E+02  0.45594000000E+02  0.51100000000E-03 0.  1.
         23    2    1    2    0    0  0.00000000000E+00 -0.35527136788E-14 -0.35527136788E-14  0.91188000000E+02  0.91188000000E+02 0.  0.
    9900012    2    3    3    0    0 -0.10964238177E+02  0.28115052248E+02 -0.21097596045E+02  0.54367092344E+02  0.40000018617E+02 0.  0.
         12    1    3    3    0    0  0.10964238177E+02 -0.28115052248E+02  0.21097596045E+02  0.36820907656E+02  0.00000000000E+00 0. -1.
         11    1    4    4    0    0  0.21384109662E+01  0.17103782147E+02 -0.19174187985E+02  0.25782972101E+02  0.51100000000E-03 0. -1.
        -11    1    4    4    0    0  0.48281059055E+01  0.10086638047E+01 -0.58795329408E+01  0.76744326935E+01  0.51100000000E-03 0.  1.
         12    1    4    4    0    0 -0.17930755049E+02  0.10002606297E+02  0.39561248815E+01  0.20909687550E+02  0.00000000000E+00 0. -1.
</event>
<event>
 8    1  0.3007389E-007  0.9118800E+02  0.7816164E-02  0.1184000E+00
        -11   -1    0    0    0    0  0.00000000000E+00  0.00000000000E+00  0.45593999997E+02  0.45594000000E+02  0.51100000000E-03 0.  1.
         11   -1    0    0    0    0 -0.00000000000E+00 -0.00000000000E+00 -0.45593999997E+02  0.45594000000E+02  0.51100000000E-03 0. -1.
         23    2    1    2    0    0  0.35527136788E-14  0.00000000000E+00  0.00000000000E+00  0.91188000000E+02  0.91188000000E+02 0.  0.
    9900012    2    3    3    0    0 -0.26731008202E+02  0.20837192754E+02  0.14389036233E+02  0.54367085223E+02  0.40000002382E+02 0.  0.
         12    1    3    3    0    0  0.26731008202E+02 -0.20837192754E+02 -0.14389036233E+02  0.36820914777E+02  0.00000000000E+00 0. -1.
         11    1    4    4    0    0 -0.76389688225E+00 -0.60931962764E+00  0.80973809652E+01  0.81561257722E+01  0.51100000000E-03 0. -1.
        -11    1    4    4    0    0 -0.22903244835E+02  0.16612747874E+02 -0.91550628577E+01  0.29738143723E+02  0.51100000000E-03 0.  1.
        -12    1    4    4    0    0 -0.30638664848E+01  0.48337645069E+01  0.15446718125E+02  0.16472815727E+02  0.00000000000E+00 0.  1.
</event>
<event>
 8    1  0.3007389E-007  0.9118800E+02  0.7816164E-02  0.1184000E+00
        -11   -1    0    0    0    0  0.00000000000E+00  0.00000000000E+00  0.45593999997E+02  0.45594000000E+02  0.51100000000E-03 0.  1.
         11   -1    0    0    0    0 -0.00000000000E+00 -0.00000000000E+00 -0.45593999997E+02  0.45594000000E+02  0.51100000000E-03 0. -1.
         23    2    1    2    0    0 -0.35527136788E-14  0.00000000000E+00 -0.88817841970E-15  0.91188000000E+02  0.91188000000E+02 0.  0.
    9900012    2    3    3    0    0 -0.29033514263E+02  0.21416326037E+02 -0.73604374767E+01  0.54367081879E+02  0.39999994761E+02 0.  0.
        -12    1    3    3    0    0  0.29033514263E+02 -0.21416326037E+02  0.73604374767E+01  0.36820918121E+02  0.00000000000E+00 0.  1.
         11    1    4    4    0    0 -0.29954993260E+02  0.19427877428E+02 -0.80296768584E+00  0.35712586016E+02  0.51100000000E-03 0. -1.
        -11    1    4    4    0    0 -0.91991334076E-01 -0.64754413656E+01  0.17949044845E+01  0.67202295834E+01  0.51100000000E-03 0.  1.
         12    1    4    4    0    0  0.10134703309E+01  0.84638899748E+01 -0.83523742753E+01  0.11934266280E+02  0.00000000000E+00 0. -1.
</event>
<event>
 8    1  0.3007389E-007  0.9118800E+02  0.7816164E-02  0.1184000E+00
        -11   -1    0    0    0    0  0.00000000000E+00  0.00000000000E+00  0.45593999997E+02  0.45594000000E+02  0.51100000000E-03 0.  1.
         11   -1    0    0    0    0 -0.00000000000E+00 -0.00000000000E+00 -0.45593999997E+02  0.45594000000E+02  0.51100000000E-03 0. -1.
         23    2    1    2    0    0  0.00000000000E+00  0.35527136788E-14 -0.88817841970E-15  0.91188000000E+02  0.91188000000E+02 0.  0.
    9900012    2    3    3    0    0 -0.21763344843E+02  0.29309399485E+02  0.48060123105E+01  0.54367057164E+02  0.39999938418E+02 0.  0.
         12    1    3    3    0    0  0.21763344843E+02 -0.29309399485E+02 -0.48060123105E+01  0.36820942836E+02  0.00000000000E+00 0. -1.
         11    1    4    4    0    0 -0.22932016116E+01  0.42412496024E+01  0.72382762357E+01  0.86971038252E+01  0.51100000000E-03 0. -1.
        -11    1    4    4    0    0 -0.21442036579E+01  0.19507571626E+02  0.11505463135E+02  0.22749036074E+02  0.51100000000E-03 0.  1.
         12    1    4    4    0    0 -0.17325939574E+02  0.55605782566E+01 -0.13937727060E+02  0.22920917265E+02  0.00000000000E+00 0. -1.
</event>
<event>
 8    1  0.3007389E-007  0.9118800E+02  0.7816164E-02  0.1184000E+00
        -11   -1    0    0    0    0  0.00000000000E+00  0.00000000000E+00  0.45593999997E+02  0.45594000000E+02  0.51100000000E-03 0.  1.
         11   -1    0    0    0    0 -0.00000000000E+00 -0.00000000000E+00 -0.45593999997E+02  0.45594000000E+02  0.51100000000E-03 0. -1.
         23    2    1    2    0    0  0.00000000000E+00  0.00000000000E+00  0.00000000000E+00  0.91188000000E+02  0.91188000000E+02 0.  0.
    9900012    2    3    3    0    0 -0.28625631505E+02 -0.20599650224E+02  0.10583373902E+02  0.54367079702E+02  0.39999989797E+02 0.  0.
        -12    1    3    3    0    0  0.28625631505E+02  0.20599650224E+02 -0.10583373902E+02  0.36820920298E+02  0.00000000000E+00 0.  1.
         11    1    4    4    0    0 -0.18445287659E+01 -0.84976074029E+01 -0.67112998359E+01  0.10984223400E+02  0.51100000000E-03 0. -1.
        -11    1    4    4    0    0 -0.19979005958E+02 -0.19307892506E+02  0.18530845338E+02  0.33396820527E+02  0.51100000000E-03 0.  1.
        -12    1    4    4    0    0 -0.68020967811E+01  0.72058496845E+01 -0.12361715997E+01  0.99860357759E+01  0.00000000000E+00 0.  1.
</event>
<event>
 8    1  0.3007389E-007  0.9118800E+02  0.7816164E-02  0.1184000E+00
        -11   -1    0    0    0    0  0.00000000000E+00  0.00000000000E+00  0.45593999997E+02  0.45594000000E+02  0.51100000000E-03 0.  1.
         11   -1    0    0    0    0 -0.00000000000E+00 -0.00000000000E+00 -0.45593999997E+02  0.45594000000E+02  0.51100000000E-03 0. -1.
         23    2    1    2    0    0 -0.44408920985E-15  0.35527136788E-14 -0.35527136788E-14  0.91188000000E+02  0.91188000000E+02 0.  0.
    9900012    2    3    3    0    0 -0.30969500851E+01  0.23369686133E+02 -0.28285017854E+02  0.54367142259E+02  0.40000132408E+02 0.  0.
        -12    1    3    3    0    0  0.30969500851E+01 -0.23369686133E+02  0.28285017854E+02  0.36820857741E+02  0.00000000000E+00 0.  1.
         11    1    4    4    0    0  0.24245380911E+01  0.97283041678E+01 -0.11900667273E+02  0.15560982255E+02  0.51100000000E-03 0. -1.
        -11    1    4    4    0    0 -0.15968290971E+02  0.96987349599E+01  0.35274409364E+00  0.18686257117E+02  0.51100000000E-03 0.  1.
        -12    1    4    4    0    0  0.10446802795E+02  0.39426470049E+01 -0.16737094674E+02  0.20119902887E+02  0.00000000000E+00 0.  1.
</event>
<event>
 8    1  0.3007389E-007  0.9118800E+02  0.7816164E-02  0.1184000E+00
        -11   -1    0    0    0    0  0.00000000000E+00  0.00000000000E+00  0.45593999997E+02  0.45594000000E+02  0.51100000000E-03 0.  1.
         11   -1    0    0    0    0 -0.00000000000E+00 -0.00000000000E+00 -0.45593999997E+02  0.45594000000E+02  0.51100000000E-03 0. -1.
         23    2    1    2    0    0 -0.17763568394E-14 -0.88817841970E-15  0.00000000000E+00  0.91188000000E+02  0.91188000000E+02 0.  0.
    9900012    2    3    3    0    0  0.98849898331E+01  0.70895809133E+01 -0.34753518137E+02  0.54367052097E+02  0.39999926866E+02 0.  0.
        -12    1    3    3    0    0 -0.98849898331E+01 -0.70895809133E+01  0.34753518137E+02  0.36820947903E+02  0.00000000000E+00 0.  1.
         11    1    4    4    0    0 -0.49976403142E+01 -0.41119932373E+00  0.61822835471E+01  0.79602841477E+01  0.51100000000E-03 0.  1.
        -11    1    4    4    0    0  0.16048033022E+02  0.10124111665E+02 -0.36109051512E+02  0.40790937747E+02  0.51100000000E-03 0. -1.
         12    1    4    4    0    0 -0.11654028747E+01 -0.26233314284E+01 -0.48267501720E+01  0.56158302028E+01  0.00000000000E+00 0. -1.
</event>
<event>
 8    1  0.3007389E-007  0.9118800E+02  0.7816164E-02  0.1184000E+00
        -11   -1    0    0    0    0  0.00000000000E+00  0.00000000000E+00  0.45593999997E+02  0.45594000000E+02  0.51100000000E-03 0. -1.
         11   -1    0    0    0    0 -0.00000000000E+00 -0.00000000000E+00 -0.45593999997E+02  0.45594000000E+02  0.51100000000E-03 0.  1.
         23    2    1    2    0    0  0.00000000000E+00 -0.35527136788E-14  0.44408920985E-15  0.91188000000E+02  0.91188000000E+02 0.  0.
    9900012    2    3    3    0    0  0.26811233330E+02 -0.24953628066E+02  0.37755205342E+01  0.54367077393E+02  0.39999984532E+02 0.  0.
        -12    1    3    3    0    0 -0.26811233330E+02  0.24953628066E+02 -0.37755205342E+01  0.36820922607E+02  0.00000000000E+00 0.  1.
         11    1    4    4    0    0  0.82220343370E+01 -0.13155422179E+02  0.82474880123E+01  0.17569520202E+02  0.51100000000E-03 0. -1.
        -11    1    4    4    0    0  0.59578128066E+01 -0.20255509328E+02 -0.45401362324E+01  0.21596157733E+02  0.51100000000E-03 0.  1.
        -12    1    4    4    0    0  0.12631386187E+02  0.84573034412E+01  0.68168754220E-01  0.15201399458E+02  0.00000000000E+00 0.  1.
</event>
<event>
 8    1  0.3007389E-007  0.9118800E+02  0.7816164E-02  0.1184000E+00
        -11   -1    0    0    0    0  0.00000000000E+00  0.00000000000E+00  0.45593999997E+02  0.45594000000E+02  0.51100000000E-03 0.  1.
         11   -1    0    0    0    0 -0.00000000000E+00 -0.00000000000E+00 -0.45593999997E+02  0.45594000000E+02  0.51100000000E-03 0. -1.
         23    2    1    2    0    0 -0.44408920985E-15 -0.35527136788E-14  0.00000000000E+00  0.91188000000E+02  0.91188000000E+02 0.  0.
    9900012    2    3    3    0    0  0.39845139033E+01 -0.31853562451E+02 -0.18034803026E+02  0.54367083226E+02  0.39999997831E+02 0.  0.
         12    1    3    3    0    0 -0.39845139033E+01  0.31853562451E+02  0.18034803026E+02  0.36820916774E+02  0.00000000000E+00 0. -1.
         11    1    4    4    0    0  0.15350991805E+01  0.29582667279E+01 -0.20801668413E+01  0.39287359132E+01  0.51100000000E-03 0. -1.
        -11    1    4    4    0    0  0.85276704872E-01 -0.23045603816E+01  0.90623077814E+01  0.93511332604E+01  0.51100000000E-03 0.  1.
        -12    1    4    4    0    0  0.23641380180E+01 -0.32507268797E+02 -0.25016943966E+02  0.41087214053E+02  0.00000000000E+00 0.  1.
</event>
<event>
 8    1  0.3007389E-007  0.9118800E+02  0.7816164E-02  0.1184000E+00
        -11   -1    0    0    0    0  0.00000000000E+00  0.00000000000E+00  0.45593999997E+02  0.45594000000E+02  0.51100000000E-03 0. -1.
         11   -1    0    0    0    0 -0.00000000000E+00 -0.00000000000E+00 -0.45593999997E+02  0.45594000000E+02  0.51100000000E-03 0.  1.
         23    2    1    2    0    0  0.00000000000E+00 -0.66613381478E-15  0.00000000000E+00  0.91188000000E+02  0.91188000000E+02 0.  0.
    9900012    2    3    3    0    0  0.29585616271E+02  0.18870482353E+01 -0.21838274260E+02  0.54367083881E+02  0.39999999323E+02 0.  0.
         12    1    3    3    0    0 -0.29585616271E+02 -0.18870482353E+01  0.21838274260E+02  0.36820916119E+02  0.00000000000E+00 0. -1.
         11    1    4    4    0    0  0.30273056044E+01 -0.93500425062E+01 -0.11326343042E+01  0.98929639046E+01  0.51100000000E-03 0. -1.
        -11    1    4    4    0    0  0.12707563857E+02 -0.63763892661E+01 -0.16315376012E+02  0.21640979968E+02  0.51100000000E-03 0.  1.
        -12    1    4    4    0    0  0.13850746809E+02  0.17613480008E+02 -0.43902639435E+01  0.22833140009E+02  0.00000000000E+00 0.  1.
</event>
<event>
 8    1  0.3007389E-007  0.9118800E+02  0.7816164E-02  0.1184000E+00
        -11   -1    0    0    0    0  0.00000000000E+00  0.00000000000E+00  0.45593999997E+02  0.45594000000E+02  0.51100000000E-03 0. -1.
         11   -1    0    0    0    0 -0.00000000000E+00 -0.00000000000E+00 -0.45593999997E+02  0.45594000000E+02  0.51100000000E-03 0.  1.
         23    2    1    2    0    0  0.71054273576E-14 -0.88817841970E-15  0.88817841970E-15  0.91188000000E+02  0.91188000000E+02 0.  0.
    9900012    2    3    3    0    0  0.36323210871E+02 -0.56723311206E+01 -0.20563883348E+01  0.54367085817E+02  0.40000003737E+02 0.  0.
        -12    1    3    3    0    0 -0.36323210871E+02  0.56723311206E+01  0.20563883348E+01  0.36820914183E+02  0.00000000000E+00 0.  1.
         11    1    4    4    0    0  0.12148135927E+02  0.11176556517E+02  0.57571168765E+01  0.17482477429E+02  0.51100000000E-03 0. -1.
        -11    1    4    4    0    0  0.12405668963E+02  0.29380348541E+01 -0.49853966397E+01  0.13688931702E+02  0.51100000000E-03 0.  1.
         12    1    4    4    0    0  0.11769405980E+02 -0.19786922491E+02 -0.28281085715E+01  0.23195676685E+02  0.00000000000E+00 0. -1.
</event>
<event>
 8    1  0.3007389E-007  0.9118800E+02  0.7816164E-02  0.1184000E+00
        -11   -1    0    0    0    0  0.00000000000E+00  0.00000000000E+00  0.45593999997E+02  0.45594000000E+02  0.51100000000E-03 0.  1.
         11   -1    0    0    0    0 -0.00000000000E+00 -0.00000000000E+00 -0.45593999997E+02  0.45594000000E+02  0.51100000000E-03 0. -1.
         23    2    1    2    0    0  0.88817841970E-15  0.00000000000E+00 -0.17763568394E-14  0.91188000000E+02  0.91188000000E+02 0.  0.
    9900012    2    3    3    0    0 -0.68571280106E+01  0.33177111503E+02  0.14423527919E+02  0.54367094391E+02  0.40000023283E+02 0.  0.
         12    1    3    3    0    0  0.68571280106E+01 -0.33177111503E+02 -0.14423527919E+02  0.36820905609E+02  0.00000000000E+00 0. -1.
         11    1    4    4    0    0 -0.59612839837E+01  0.36456659138E+02  0.11904745384E+01  0.36960007198E+02  0.51100000000E-03 0. -1.
        -11    1    4    4    0    0 -0.54502586367E+01 -0.35858251624E+01  0.94239166653E+01  0.11461835232E+02  0.51100000000E-03 0.  1.
        -12    1    4    4    0    0  0.45544146098E+01  0.30627752739E+00  0.38091367157E+01  0.59452519610E+01  0.00000000000E+00 0.  1.
</event>
<event>
 8    1  0.3007389E-007  0.9118800E+02  0.7816164E-02  0.1184000E+00
        -11   -1    0    0    0    0  0.00000000000E+00  0.00000000000E+00  0.45593999997E+02  0.45594000000E+02  0.51100000000E-03 0. -1.
         11   -1    0    0    0    0 -0.00000000000E+00 -0.00000000000E+00 -0.45593999997E+02  0.45594000000E+02  0.51100000000E-03 0.  1.
         23    2    1    2    0    0 -0.35527136788E-14  0.00000000000E+00  0.00000000000E+00  0.91188000000E+02  0.91188000000E+02 0.  0.
    9900012    2    3    3    0    0  0.29240411397E+02 -0.87714579757E+01 -0.20587358808E+02  0.54367089143E+02  0.40000011319E+02 0.  0.
         12    1    3    3    0    0 -0.29240411397E+02  0.87714579757E+01  0.20587358808E+02  0.36820910857E+02  0.00000000000E+00 0. -1.
         11    1    4    4    0    0  0.14290209063E+02 -0.37131058414E+01 -0.10632848972E+01  0.14802966090E+02  0.51100000000E-03 0. -1.
        -11    1    4    4    0    0 -0.21126639578E+01  0.42256413365E-01  0.71698908119E+01  0.74747889012E+01  0.51100000000E-03 0.  1.
        -12    1    4    4    0    0  0.17062866292E+02 -0.51006085476E+01 -0.26693964722E+02  0.32089334151E+02  0.00000000000E+00 0.  1.
</event>
<event>
 8    1  0.3007389E-007  0.9118800E+02  0.7816164E-02  0.1184000E+00
        -11   -1    0    0    0    0  0.00000000000E+00  0.00000000000E+00  0.45593999997E+02  0.45594000000E+02  0.51100000000E-03 0.  1.
         11   -1    0    0    0    0 -0.00000000000E+00 -0.00000000000E+00 -0.45593999997E+02  0.45594000000E+02  0.51100000000E-03 0. -1.
         23    2    1    2    0    0  0.35527136788E-14  0.35527136788E-14  0.00000000000E+00  0.91188000000E+02  0.91188000000E+02 0.  0.
    9900012    2    3    3    0    0  0.23959906375E+02  0.26766863258E+02  0.80769507460E+01  0.54367092685E+02  0.40000019394E+02 0.  0.
         12    1    3    3    0    0 -0.23959906375E+02 -0.26766863258E+02 -0.80769507460E+01  0.36820907315E+02  0.00000000000E+00 0. -1.
         11    1    4    4    0    0  0.44124595201E+01 -0.46781701943E+01 -0.15120551090E+00  0.64325685967E+01  0.51100000000E-03 0. -1.
        -11    1    4    4    0    0  0.15912270916E+02  0.46512835536E+00  0.43443457673E+01  0.16501213607E+02  0.51100000000E-03 0.  1.
        -12    1    4    4    0    0  0.36351759388E+01  0.30979905097E+02  0.38838104896E+01  0.31433310482E+02  0.00000000000E+00 0.  1.
</event>
<event>
 8    1  0.3007389E-007  0.9118800E+02  0.7816164E-02  0.1184000E+00
        -11   -1    0    0    0    0  0.00000000000E+00  0.00000000000E+00  0.45593999997E+02  0.45594000000E+02  0.51100000000E-03 0. -1.
         11   -1    0    0    0    0 -0.00000000000E+00 -0.00000000000E+00 -0.45593999997E+02  0.45594000000E+02  0.51100000000E-03 0.  1.
         23    2    1    2    0    0  0.00000000000E+00  0.00000000000E+00  0.88817841970E-15  0.91188000000E+02  0.91188000000E+02 0.  0.
    9900012    2    3    3    0    0 -0.19116479121E+02 -0.31252709535E+02 -0.36890562389E+01  0.54367071668E+02  0.39999971482E+02 0.  0.
        -12    1    3    3    0    0  0.19116479121E+02  0.31252709535E+02  0.36890562389E+01  0.36820928332E+02  0.00000000000E+00 0.  1.
         11    1    4    4    0    0 -0.70811400982E+01 -0.16307380628E+02 -0.48591506825E+01  0.18430533189E+02  0.51100000000E-03 0. -1.
        -11    1    4    4    0    0 -0.71303186121E+01 -0.21118002611E+02  0.97110677119E+01  0.24312883707E+02  0.51100000000E-03 0.  1.
        -12    1    4    4    0    0 -0.49050204111E+01  0.61726737038E+01 -0.85409732683E+01  0.11623654772E+02  0.00000000000E+00 0.  1.
</event>
<event>
 8    1  0.3007389E-007  0.9118800E+02  0.7816164E-02  0.1184000E+00
        -11   -1    0    0    0    0  0.00000000000E+00  0.00000000000E+00  0.45593999997E+02  0.45594000000E+02  0.51100000000E-03 0. -1.
         11   -1    0    0    0    0 -0.00000000000E+00 -0.00000000000E+00 -0.45593999997E+02  0.45594000000E+02  0.51100000000E-03 0.  1.
         23    2    1    2    0    0 -0.35527136788E-14 -0.17763568394E-14  0.17763568394E-14  0.91188000000E+02  0.91188000000E+02 0.  0.
    9900012    2    3    3    0    0 -0.31447896995E+02 -0.11552521401E+02  0.15275743958E+02  0.54367091135E+02  0.40000015862E+02 0.  0.
        -12    1    3    3    0    0  0.31447896995E+02  0.11552521401E+02 -0.15275743958E+02  0.36820908865E+02  0.00000000000E+00 0.  1.
         11    1    4    4    0    0 -0.23936810603E+02  0.44933035575E+01  0.20616904032E+02  0.31909519125E+02  0.51100000000E-03 0. -1.
        -11    1    4    4    0    0 -0.48084150863E+01  0.54623561382E+00 -0.23615853604E+01  0.53848226213E+01  0.51100000000E-03 0.  1.
         12    1    4    4    0    0 -0.27026713061E+01 -0.16592060572E+02 -0.29795747131E+01  0.17072749389E+02  0.00000000000E+00 0. -1.
</event>
<event>
 8    1  0.3007389E-007  0.9118800E+02  0.7816164E-02  0.1184000E+00
        -11   -1    0    0    0    0  0.00000000000E+00  0.00000000000E+00  0.45593999997E+02  0.45594000000E+02  0.51100000000E-03 0.  1.
         11   -1    0    0    0    0 -0.00000000000E+00 -0.00000000000E+00 -0.45593999997E+02  0.45594000000E+02  0.51100000000E-03 0. -1.
         23    2    1    2    0    0  0.71054273576E-14 -0.17763568394E-14  0.00000000000E+00  0.91188000000E+02  0.91188000000E+02 0.  0.
    9900012    2    3    3    0    0  0.34415916345E+02 -0.43141642645E+01  0.12357690963E+02  0.54367084244E+02  0.40000000151E+02 0.  0.
        -12    1    3    3    0    0 -0.34415916345E+02  0.43141642645E+01 -0.12357690963E+02  0.36820915756E+02  0.00000000000E+00 0.  1.
         11    1    4    4    0    0  0.18254318209E+02 -0.37829005149E+01 -0.62518093282E+01  0.19662542809E+02  0.51100000000E-03 0. -1.
        -11    1    4    4    0    0  0.13128396347E+02 -0.10135121560E+02  0.41734338994E+01  0.17102427619E+02  0.51100000000E-03 0.  1.
        -12    1    4    4    0    0  0.30332017898E+01  0.96038578107E+01  0.14436066392E+02  0.17602113816E+02  0.00000000000E+00 0.  1.
</event>
<event>
 8    1  0.3007389E-007  0.9118800E+02  0.7816164E-02  0.1184000E+00
        -11   -1    0    0    0    0  0.00000000000E+00  0.00000000000E+00  0.45593999997E+02  0.45594000000E+02  0.51100000000E-03 0. -1.
         11   -1    0    0    0    0 -0.00000000000E+00 -0.00000000000E+00 -0.45593999997E+02  0.45594000000E+02  0.51100000000E-03 0.  1.
         23    2    1    2    0    0 -0.35527136788E-14  0.00000000000E+00 -0.17763568394E-14  0.91188000000E+02  0.91188000000E+02 0.  0.
    9900012    2    3    3    0    0  0.29825611174E+02 -0.15458664415E+02  0.15074567092E+02  0.54367082570E+02  0.39999996334E+02 0.  0.
        -12    1    3    3    0    0 -0.29825611174E+02  0.15458664415E+02 -0.15074567092E+02  0.36820917430E+02  0.00000000000E+00 0.  1.
         11    1    4    4    0    0  0.10947458724E+02 -0.14188757763E+00 -0.27798436222E+01  0.11295774229E+02  0.51100000000E-03 0.  1.
        -11    1    4    4    0    0  0.19256255065E+02 -0.11666825460E+02  0.25846130748E+02  0.34277407287E+02  0.51100000000E-03 0. -1.
         12    1    4    4    0    0 -0.37810261482E+00 -0.36499513772E+01 -0.79917200339E+01  0.87939010537E+01  0.00000000000E+00 0. -1.
</event>
<event>
 8    1  0.3007389E-007  0.9118800E+02  0.7816164E-02  0.1184000E+00
        -11   -1    0    0    0    0  0.00000000000E+00  0.00000000000E+00  0.45593999997E+02  0.45594000000E+02  0.51100000000E-03 0.  1.
         11   -1    0    0    0    0 -0.00000000000E+00 -0.00000000000E+00 -0.45593999997E+02  0.45594000000E+02  0.51100000000E-03 0. -1.
         23    2    1    2    0    0  0.71054273576E-14  0.00000000000E+00  0.88817841970E-15  0.91188000000E+02  0.91188000000E+02 0.  0.
    9900012    2    3    3    0    0 -0.36632905780E+02  0.77717374244E+00  0.36340356230E+01  0.54367082035E+02  0.39999995115E+02 0.  0.
         12    1    3    3    0    0  0.36632905780E+02 -0.77717374244E+00 -0.36340356230E+01  0.36820917965E+02  0.00000000000E+00 0. -1.
         11    1    4    4    0    0 -0.35322853167E+01 -0.12737730120E+02  0.18206419972E+01  0.13343220965E+02  0.51100000000E-03 0. -1.
        -11    1    4    4    0    0 -0.25666563843E+02  0.12736332089E+01  0.54009416443E+01  0.26259566104E+02  0.51100000000E-03 0.  1.
         12    1    4    4    0    0 -0.74340566197E+01  0.12241270654E+02 -0.35875480185E+01  0.14764294966E+02  0.00000000000E+00 0. -1.
</event>
<event>
 8    1  0.3007389E-007  0.9118800E+02  0.7816164E-02  0.1184000E+00
        -11   -1    0    0    0    0  0.00000000000E+00  0.00000000000E+00  0.45593999997E+02  0.45594000000E+02  0.51100000000E-03 0.  1.
         11   -1    0    0    0    0 -0.00000000000E+00 -0.00000000000E+00 -0.45593999997E+02  0.45594000000E+02  0.51100000000E-03 0. -1.
         23    2    1    2    0    0  0.00000000000E+00 -0.88817841970E-15  0.00000000000E+00  0.91188000000E+02  0.91188000000E+02 0.  0.
    9900012    2    3    3    0    0 -0.28400852202E+02  0.47135645487E+01  0.22955427409E+02  0.54367112666E+02  0.40000064944E+02 0.  0.
        -12    1    3    3    0    0  0.28400852202E+02 -0.47135645487E+01 -0.22955427409E+02  0.36820887334E+02  0.00000000000E+00 0.  1.
         11    1    4    4    0    0 -0.52177037460E+01  0.28105209537E-01  0.71696337952E+01  0.88672922193E+01  0.51100000000E-03 0. -1.
        -11    1    4    4    0    0 -0.91211139055E+01  0.18466797127E+02  0.15553066009E+02  0.25809207224E+02  0.51100000000E-03 0.  1.
         12    1    4    4    0    0 -0.14062034551E+02 -0.13781337788E+02  0.23272760416E+00  0.19690613222E+02  0.00000000000E+00 0. -1.
</event>
<event>
 8    1  0.3007389E-007  0.9118800E+02  0.7816164E-02  0.1184000E+00
        -11   -1    0    0    0    0  0.00000000000E+00  0.00000000000E+00  0.45593999997E+02  0.45594000000E+02  0.51100000000E-03 0.  1.
         11   -1    0    0    0    0 -0.00000000000E+00 -0.00000000000E+00 -0.45593999997E+02  0.45594000000E+02  0.51100000000E-03 0. -1.
         23    2    1    2    0    0 -0.44408920985E-15 -0.71054273576E-14  0.00000000000E+00  0.91188000000E+02  0.91188000000E+02 0.  0.
    9900012    2    3    3    0    0 -0.11292119034E+01  0.33281530855E+02 -0.15711126741E+02  0.54367151028E+02  0.40000152397E+02 0.  0.
        -12    1    3    3    0    0  0.11292119034E+01 -0.33281530855E+02  0.15711126741E+02  0.36820848972E+02  0.00000000000E+00 0.  1.
         11    1    4    4    0    0 -0.10635860990E+02  0.17161390912E+02 -0.29050289907E+01  0.20397893781E+02  0.51100000000E-03 0. -1.
        -11    1    4    4    0    0 -0.60263527389E+01  0.31618962858E+01 -0.11914526062E+02  0.13721167844E+02  0.51100000000E-03 0.  1.
        -12    1    4    4    0    0  0.15533001825E+02  0.12958243657E+02 -0.89157168838E+00  0.20248089403E+02  0.00000000000E+00 0.  1.
</event>
<event>
 8    1  0.3007389E-007  0.9118800E+02  0.7816164E-02  0.1184000E+00
        -11   -1    0    0    0    0  0.00000000000E+00  0.00000000000E+00  0.45593999997E+02  0.45594000000E+02  0.51100000000E-03 0.  1.
         11   -1    0    0    0    0 -0.00000000000E+00 -0.00000000000E+00 -0.45593999997E+02  0.45594000000E+02  0.51100000000E-03 0. -1.
         23    2    1    2    0    0  0.00000000000E+00  0.00000000000E+00  0.35527136788E-14  0.91188000000E+02  0.91188000000E+02 0.  0.
    9900012    2    3    3    0    0  0.15090396984E+02  0.24655499973E+02 -0.22807040758E+02  0.54367151718E+02  0.40000153971E+02 0.  0.
        -12    1    3    3    0    0 -0.15090396984E+02 -0.24655499973E+02  0.22807040758E+02  0.36820848282E+02  0.00000000000E+00 0.  1.
         11    1    4    4    0    0  0.32972457627E+01  0.13526022212E+02 -0.23240519456E+02  0.27091453474E+02  0.51100000000E-03 0. -1.
        -11    1    4    4    0    0  0.34018938423E+01  0.12691392494E+02 -0.79125779661E+01  0.15337966472E+02  0.51100000000E-03 0.  1.
        -12    1    4    4    0    0  0.83912573794E+01 -0.15619147329E+01  0.83460566636E+01  0.11937731772E+02  0.00000000000E+00 0.  1.
</event>
<event>
 8    1  0.3007389E-007  0.9118800E+02  0.7816164E-02  0.1184000E+00
        -11   -1    0    0    0    0  0.00000000000E+00  0.00000000000E+00  0.45593999997E+02  0.45594000000E+02  0.51100000000E-03 0.  1.
         11   -1    0    0    0    0 -0.00000000000E+00 -0.00000000000E+00 -0.45593999997E+02  0.45594000000E+02  0.51100000000E-03 0. -1.
         23    2    1    2    0    0 -0.17763568394E-14  0.00000000000E+00 -0.35527136788E-14  0.91188000000E+02  0.91188000000E+02 0.  0.
    9900012    2    3    3    0    0 -0.77386378369E+01 -0.21935576524E+02 -0.28543305907E+02  0.54367131663E+02  0.40000108252E+02 0.  0.
        -12    1    3    3    0    0  0.77386378369E+01  0.21935576524E+02  0.28543305907E+02  0.36820868337E+02  0.00000000000E+00 0.  1.
         11    1    4    4    0    0 -0.43284441800E+00 -0.72433446698E+01 -0.41266571468E+01  0.83476161726E+01  0.51100000000E-03 0. -1.
        -11    1    4    4    0    0  0.12539147095E+02 -0.97613235614E+00 -0.16254992992E+02  0.20552562898E+02  0.51100000000E-03 0.  1.
         12    1    4    4    0    0 -0.19844940514E+02 -0.13716099498E+02 -0.81616557678E+01  0.25466952592E+02  0.00000000000E+00 0. -1.
</event>
<event>
 8    1  0.3007389E-007  0.9118800E+02  0.7816164E-02  0.1184000E+00
        -11   -1    0    0    0    0  0.00000000000E+00  0.00000000000E+00  0.45593999997E+02  0.45594000000E+02  0.51100000000E-03 0. -1.
         11   -1    0    0    0    0 -0.00000000000E+00 -0.00000000000E+00 -0.45593999997E+02  0.45594000000E+02  0.51100000000E-03 0.  1.
         23    2    1    2    0    0  0.44408920985E-15  0.00000000000E+00  0.00000000000E+00  0.91188000000E+02  0.91188000000E+02 0.  0.
    9900012    2    3    3    0    0  0.33925323325E+01 -0.21195534354E+02  0.29916892488E+02  0.54367076487E+02  0.39999982468E+02 0.  0.
        -12    1    3    3    0    0 -0.33925323325E+01  0.21195534354E+02 -0.29916892488E+02  0.36820923513E+02  0.00000000000E+00 0.  1.
         11    1    4    4    0    0  0.12330792813E+01 -0.21868987316E+02  0.18421662999E+02  0.28620460490E+02  0.51100000000E-03 0. -1.
        -11    1    4    4    0    0  0.71799310967E+01 -0.47944641510E+01 -0.32606511389E+01  0.92287671527E+01  0.51100000000E-03 0.  1.
        -12    1    4    4    0    0 -0.50204780455E+01  0.54679171124E+01  0.14755880628E+02  0.16517848845E+02  0.00000000000E+00 0.  1.
</event>
<event>
 8    1  0.3007389E-007  0.9118800E+02  0.7816164E-02  0.1184000E+00
        -11   -1    0    0    0    0  0.00000000000E+00  0.00000000000E+00  0.45593999997E+02  0.45594000000E+02  0.51100000000E-03 0.  1.
         11   -1    0    0    0    0 -0.00000000000E+00 -0.00000000000E+00 -0.45593999997E+02  0.45594000000E+02  0.51100000000E-03 0. -1.
         23    2    1    2    0    0 -0.35527136788E-14 -0.88817841970E-15 -0.35527136788E-14  0.91188000000E+02  0.91188000000E+02 0.  0.
    9900012    2    3    3    0    0  0.28700621977E+02  0.58815969886E+01  0.22303828575E+02  0.54367086729E+02  0.40000005816E+02 0.  0.
         12    1    3    3    0    0 -0.28700621977E+02 -0.58815969886E+01 -0.22303828575E+02  0.36820913271E+02  0.00000000000E+00 0. -1.
         11    1    4    4    0    0 -0.16441458307E+01  0.47269948757E+01 -0.36170727445E+01  0.61750232038E+01  0.51100000000E-03 0.  1.
        -11    1    4    4    0    0  0.15979222133E+01 -0.77765981740E+01  0.13430065614E+02  0.15601137690E+02  0.51100000000E-03 0. -1.
        -12    1    4    4    0    0  0.28746845595E+02  0.89312002869E+01  0.12490835706E+02  0.32590925836E+02  0.00000000000E+00 0.  1.
</event>
<event>
 8    1  0.3007389E-007  0.9118800E+02  0.7816164E-02  0.1184000E+00
        -11   -1    0    0    0    0  0.00000000000E+00  0.00000000000E+00  0.45593999997E+02  0.45594000000E+02  0.51100000000E-03 0.  1.
         11   -1    0    0    0    0 -0.00000000000E+00 -0.00000000000E+00 -0.45593999997E+02  0.45594000000E+02  0.51100000000E-03 0. -1.
         23    2    1    2    0    0  0.00000000000E+00  0.00000000000E+00  0.00000000000E+00  0.91188000000E+02  0.91188000000E+02 0.  0.
    9900012    2    3    3    0    0 -0.23117489595E+02  0.18778774697E+02 -0.21649809651E+02  0.54367150441E+02  0.40000151060E+02 0.  0.
        -12    1    3    3    0    0  0.23117489595E+02 -0.18778774697E+02  0.21649809651E+02  0.36820849559E+02  0.00000000000E+00 0.  1.
         11    1    4    4    0    0  0.75524340994E+01  0.88872323536E+01 -0.15765321851E+01  0.11768925768E+02  0.51100000000E-03 0.  1.
        -11    1    4    4    0    0  0.14369243056E+01  0.85350245813E+00 -0.62893287965E+01  0.65076013152E+01  0.51100000000E-03 0. -1.
        -12    1    4    4    0    0 -0.32106848000E+02  0.90380398856E+01 -0.13783948670E+02  0.36090623358E+02  0.00000000000E+00 0.  1.
</event>
<event>
 8    1  0.3007389E-007  0.9118800E+02  0.7816164E-02  0.1184000E+00
        -11   -1    0    0    0    0  0.00000000000E+00  0.00000000000E+00  0.45593999997E+02  0.45594000000E+02  0.51100000000E-03 0. -1.
         11   -1    0    0    0    0 -0.00000000000E+00 -0.00000000000E+00 -0.45593999997E+02  0.45594000000E+02  0.51100000000E-03 0.  1.
         23    2    1    2    0    0 -0.71054273576E-14  0.00000000000E+00  0.00000000000E+00  0.91188000000E+02  0.91188000000E+02 0.  0.
    9900012    2    3    3    0    0  0.29556512978E+02  0.20321582515E+02  0.83200661642E+01  0.54367113586E+02  0.40000067042E+02 0.  0.
        -12    1    3    3    0    0 -0.29556512978E+02 -0.20321582515E+02 -0.83200661642E+01  0.36820886414E+02  0.00000000000E+00 0.  1.
         11    1    4    4    0    0  0.19116845911E+02  0.24717775359E+02  0.62255325717E+01  0.31861881181E+02  0.51100000000E-03 0. -1.
        -11    1    4    4    0    0  0.27567415427E+01 -0.71531536012E+01  0.89937146173E+01  0.11817534991E+02  0.51100000000E-03 0.  1.
         12    1    4    4    0    0  0.76829255238E+01  0.27569607572E+01 -0.68991810248E+01  0.10687697415E+02  0.00000000000E+00 0. -1.
</event>
<event>
 8    1  0.3007389E-007  0.9118800E+02  0.7816164E-02  0.1184000E+00
        -11   -1    0    0    0    0  0.00000000000E+00  0.00000000000E+00  0.45593999997E+02  0.45594000000E+02  0.51100000000E-03 0. -1.
         11   -1    0    0    0    0 -0.00000000000E+00 -0.00000000000E+00 -0.45593999997E+02  0.45594000000E+02  0.51100000000E-03 0.  1.
         23    2    1    2    0    0  0.00000000000E+00  0.35527136788E-14  0.17763568394E-14  0.91188000000E+02  0.91188000000E+02 0.  0.
    9900012    2    3    3    0    0  0.18971098724E+02  0.29833942808E+02  0.10286555014E+02  0.54367082788E+02  0.39999996832E+02 0.  0.
        -12    1    3    3    0    0 -0.18971098724E+02 -0.29833942808E+02 -0.10286555014E+02  0.36820917212E+02  0.00000000000E+00 0.  1.
         11    1    4    4    0    0  0.55818151147E+01  0.10911147915E+02  0.22881010921E+01  0.12467767068E+02  0.51100000000E-03 0. -1.
        -11    1    4    4    0    0  0.14712097513E+02  0.69549831265E+01 -0.10831804280E+02  0.19548544390E+02  0.51100000000E-03 0.  1.
        -12    1    4    4    0    0 -0.13228139041E+01  0.11967811767E+02  0.18830258202E+02  0.22350771330E+02  0.00000000000E+00 0.  1.
</event>
<event>
 8    1  0.3007389E-007  0.9118800E+02  0.7816164E-02  0.1184000E+00
        -11   -1    0    0    0    0  0.00000000000E+00  0.00000000000E+00  0.45593999997E+02  0.45594000000E+02  0.51100000000E-03 0. -1.
         11   -1    0    0    0    0 -0.00000000000E+00 -0.00000000000E+00 -0.45593999997E+02  0.45594000000E+02  0.51100000000E-03 0.  1.
         23    2    1    2    0    0  0.88817841970E-15 -0.71054273576E-14  0.88817841970E-15  0.91188000000E+02  0.91188000000E+02 0.  0.
    9900012    2    3    3    0    0 -0.51182017837E+01  0.36231986925E+02  0.41021506306E+01  0.54367075163E+02  0.39999979450E+02 0.  0.
         12    1    3    3    0    0  0.51182017837E+01 -0.36231986925E+02 -0.41021506306E+01  0.36820924837E+02  0.00000000000E+00 0. -1.
         11    1    4    4    0    0 -0.74468370210E+01  0.88276364027E+01  0.58087383664E+01  0.12927644323E+02  0.51100000000E-03 0. -1.
        -11    1    4    4    0    0 -0.55443288398E+01 -0.47425177266E+00 -0.98802234748E+01  0.11339458241E+02  0.51100000000E-03 0.  1.
        -12    1    4    4    0    0  0.78729640771E+01  0.27878602295E+02  0.81736357390E+01  0.30099972599E+02  0.00000000000E+00 0.  1.
</event>
<event>
 8    1  0.3007389E-007  0.9118800E+02  0.7816164E-02  0.1184000E+00
        -11   -1    0    0    0    0  0.00000000000E+00  0.00000000000E+00  0.45593999997E+02  0.45594000000E+02  0.51100000000E-03 0.  1.
         11   -1    0    0    0    0 -0.00000000000E+00 -0.00000000000E+00 -0.45593999997E+02  0.45594000000E+02  0.51100000000E-03 0. -1.
         23    2    1    2    0    0  0.00000000000E+00  0.00000000000E+00 -0.17763568394E-14  0.91188000000E+02  0.91188000000E+02 0.  0.
    9900012    2    3    3    0    0 -0.27431779775E+02  0.21901393215E+02  0.11117831873E+02  0.54367085400E+02  0.40000002787E+02 0.  0.
         12    1    3    3    0    0  0.27431779775E+02 -0.21901393215E+02 -0.11117831873E+02  0.36820914600E+02  0.00000000000E+00 0. -1.
         11    1    4    4    0    0 -0.76747297998E+01  0.58169232743E+01 -0.72043896790E+01  0.12026691348E+02  0.51100000000E-03 0. -1.
        -11    1    4    4    0    0 -0.13511687868E+02  0.58597687188E+01 -0.54628322902E+01  0.15708123229E+02  0.51100000000E-03 0.  1.
        -12    1    4    4    0    0 -0.62453621076E+01  0.10224701222E+02  0.23785053842E+02  0.26632270823E+02  0.00000000000E+00 0.  1.
</event>
<event>
 8    1  0.3007389E-007  0.9118800E+02  0.7816164E-02  0.1184000E+00
        -11   -1    0    0    0    0  0.00000000000E+00  0.00000000000E+00  0.45593999997E+02  0.45594000000E+02  0.51100000000E-03 0.  1.
         11   -1    0    0    0    0 -0.00000000000E+00 -0.00000000000E+00 -0.45593999997E+02  0.45594000000E+02  0.51100000000E-03 0. -1.
         23    2    1    2    0    0 -0.44408920985E-15  0.00000000000E+00 -0.35527136788E-14  0.91188000000E+02  0.91188000000E+02 0.  0.
    9900012    2    3    3    0    0  0.36176711795E+01  0.19202717254E+02 -0.31208146460E+02  0.54367077955E+02  0.39999985815E+02 0.  0.
        -12    1    3    3    0    0 -0.36176711795E+01 -0.19202717254E+02  0.31208146460E+02  0.36820922045E+02  0.00000000000E+00 0.  1.
         11    1    4    4    0    0 -0.87246439329E+01 -0.65378133956E+00  0.85042900778E+00  0.87903396723E+01  0.51100000000E-03 0. -1.
        -11    1    4    4    0    0  0.75541329890E+01  0.21969119066E+01  0.86086034165E+00  0.79140651962E+01  0.51100000000E-03 0.  1.
         12    1    4    4    0    0  0.47881821234E+01  0.17659586687E+02 -0.32919435810E+02  0.37662673087E+02  0.00000000000E+00 0. -1.
</event>
<event>
 8    1  0.3007389E-007  0.9118800E+02  0.7816164E-02  0.1184000E+00
        -11   -1    0    0    0    0  0.00000000000E+00  0.00000000000E+00  0.45593999997E+02  0.45594000000E+02  0.51100000000E-03 0.  1.
         11   -1    0    0    0    0 -0.00000000000E+00 -0.00000000000E+00 -0.45593999997E+02  0.45594000000E+02  0.51100000000E-03 0. -1.
         23    2    1    2    0    0  0.17763568394E-14  0.00000000000E+00  0.88817841970E-15  0.91188000000E+02  0.91188000000E+02 0.  0.
    9900012    2    3    3    0    0  0.13555961261E+02  0.33315881729E+02 -0.78784384572E+01  0.54367056861E+02  0.39999937726E+02 0.  0.
         12    1    3    3    0    0 -0.13555961261E+02 -0.33315881729E+02  0.78784384572E+01  0.36820943139E+02  0.00000000000E+00 0. -1.
         11    1    4    4    0    0  0.30748622267E+01  0.17126864040E+01 -0.12260745317E+02  0.12755937771E+02  0.51100000000E-03 0. -1.
        -11    1    4    4    0    0  0.13149178545E+02  0.31511134623E+02 -0.24932158816E+01  0.34235487835E+02  0.51100000000E-03 0.  1.
        -12    1    4    4    0    0 -0.26680795103E+01  0.92060702505E-01  0.68755227412E+01  0.73756312551E+01  0.00000000000E+00 0.  1.
</event>
<event>
 8    1  0.3007389E-007  0.9118800E+02  0.7816164E-02  0.1184000E+00
        -11   -1    0    0    0    0  0.00000000000E+00  0.00000000000E+00  0.45593999997E+02  0.45594000000E+02  0.51100000000E-03 0.  1.
         11   -1    0    0    0    0 -0.00000000000E+00 -0.00000000000E+00 -0.45593999997E+02  0.45594000000E+02  0.51100000000E-03 0. -1.
         23    2    1    2    0    0 -0.11102230246E-15  0.00000000000E+00  0.00000000000E+00  0.91188000000E+02  0.91188000000E+02 0.  0.
    9900012    2    3    3    0    0  0.65301825028E+00  0.17564964757E+02 -0.32354679709E+02  0.54367085850E+02  0.40000003813E+02 0.  0.
        -12    1    3    3    0    0 -0.65301825028E+00 -0.17564964757E+02  0.32354679709E+02  0.36820914150E+02  0.00000000000E+00 0.  1.
         11    1    4    4    0    0  0.85604023133E+01 -0.57579299736E+01 -0.23781894918E+01  0.10587257948E+02  0.51100000000E-03 0. -1.
        -11    1    4    4    0    0 -0.91429301439E+01  0.16916635956E+02 -0.31659683406E+02  0.37041885715E+02  0.51100000000E-03 0.  1.
        -12    1    4    4    0    0  0.12355460809E+01  0.64062587743E+01  0.16831931891E+01  0.67379421868E+01  0.00000000000E+00 0.  1.
</event>
<event>
 8    1  0.3007389E-007  0.9118800E+02  0.7816164E-02  0.1184000E+00
        -11   -1    0    0    0    0  0.00000000000E+00  0.00000000000E+00  0.45593999997E+02  0.45594000000E+02  0.51100000000E-03 0.  1.
         11   -1    0    0    0    0 -0.00000000000E+00 -0.00000000000E+00 -0.45593999997E+02  0.45594000000E+02  0.51100000000E-03 0. -1.
         23    2    1    2    0    0  0.00000000000E+00  0.88817841970E-15  0.00000000000E+00  0.91188000000E+02  0.91188000000E+02 0.  0.
    9900012    2    3    3    0    0  0.98581982346E+01  0.72783641596E+01 -0.34722036920E+02  0.54367102331E+02  0.40000041385E+02 0.  0.
        -12    1    3    3    0    0 -0.98581982346E+01 -0.72783641596E+01  0.34722036920E+02  0.36820897669E+02  0.00000000000E+00 0.  1.
         11    1    4    4    0    0  0.11523899902E+02  0.14484880922E+01  0.56464510612E+01  0.12914363962E+02  0.51100000000E-03 0.  1.
        -11    1    4    4    0    0 -0.37622109698E+01  0.11078793833E+01 -0.23004694179E+02  0.23336614636E+02  0.51100000000E-03 0. -1.
        -12    1    4    4    0    0  0.20965093027E+01  0.47219966841E+01 -0.17363793802E+02  0.18116123733E+02  0.00000000000E+00 0.  1.
</event>
<event>
 8    1  0.3007389E-007  0.9118800E+02  0.7816164E-02  0.1184000E+00
        -11   -1    0    0    0    0  0.00000000000E+00  0.00000000000E+00  0.45593999997E+02  0.45594000000E+02  0.51100000000E-03 0.  1.
         11   -1    0    0    0    0 -0.00000000000E+00 -0.00000000000E+00 -0.45593999997E+02  0.45594000000E+02  0.51100000000E-03 0. -1.
         23    2    1    2    0    0  0.00000000000E+00  0.00000000000E+00 -0.44408920985E-15  0.91188000000E+02  0.91188000000E+02 0.  0.
    9900012    2    3    3    0    0  0.19228808559E+02  0.31313668523E+02 -0.23424487553E+01  0.54367082288E+02  0.39999995693E+02 0.  0.
        -12    1    3    3    0    0 -0.19228808559E+02 -0.31313668523E+02  0.23424487553E+01  0.36820917712E+02  0.00000000000E+00 0.  1.
         11    1    4    4    0    0  0.13373053497E+02  0.10933611325E+01  0.51965280468E+00  0.13427733900E+02  0.51100000000E-03 0. -1.
        -11    1    4    4    0    0  0.37573428740E+01  0.27861373914E+02  0.83209738840E+01  0.29319147131E+02  0.51100000000E-03 0.  1.
        -12    1    4    4    0    0  0.20984121878E+01  0.23589334760E+01 -0.11183075444E+02  0.11620201256E+02  0.00000000000E+00 0.  1.
</event>
<event>
 8    1  0.3007389E-007  0.9118800E+02  0.7816164E-02  0.1184000E+00
        -11   -1    0    0    0    0  0.00000000000E+00  0.00000000000E+00  0.45593999997E+02  0.45594000000E+02  0.51100000000E-03 0.  1.
         11   -1    0    0    0    0 -0.00000000000E+00 -0.00000000000E+00 -0.45593999997E+02  0.45594000000E+02  0.51100000000E-03 0. -1.
         23    2    1    2    0    0  0.35527136788E-14  0.00000000000E+00  0.00000000000E+00  0.91188000000E+02  0.91188000000E+02 0.  0.
    9900012    2    3    3    0    0  0.24116669833E+02 -0.14525298807E+02 -0.23731449116E+02  0.54367085476E+02  0.40000002959E+02 0.  0.
        -12    1    3    3    0    0 -0.24116669833E+02  0.14525298807E+02  0.23731449116E+02  0.36820914524E+02  0.00000000000E+00 0.  1.
         11    1    4    4    0    0  0.84854896731E+01 -0.34531947025E+01 -0.76870841807E+01  0.11959069868E+02  0.51100000000E-03 0. -1.
        -11    1    4    4    0    0  0.21312305281E+02 -0.36463498310E+01  0.23745088089E+01  0.21751977285E+02  0.51100000000E-03 0.  1.
        -12    1    4    4    0    0 -0.56811251212E+01 -0.74257542738E+01 -0.18418873744E+02  0.20656038323E+02  0.00000000000E+00 0.  1.
</event>
<event>
 8    1  0.3007389E-007  0.9118800E+02  0.7816164E-02  0.1184000E+00
        -11   -1    0    0    0    0  0.00000000000E+00  0.00000000000E+00  0.45593999997E+02  0.45594000000E+02  0.51100000000E-03 0. -1.
         11   -1    0    0    0    0 -0.00000000000E+00 -0.00000000000E+00 -0.45593999997E+02  0.45594000000E+02  0.51100000000E-03 0.  1.
         23    2    1    2    0    0  0.00000000000E+00  0.00000000000E+00  0.00000000000E+00  0.91188000000E+02  0.91188000000E+02 0.  0.
    9900012    2    3    3    0    0  0.32017903629E+02  0.68896234618E+01 -0.16827696921E+02  0.54367021633E+02  0.39999857416E+02 0.  0.
         12    1    3    3    0    0 -0.32017903629E+02 -0.68896234618E+01  0.16827696921E+02  0.36820978367E+02  0.00000000000E+00 0. -1.
         11    1    4    4    0    0 -0.51476511587E+01  0.23675755390E+00  0.70496424220E+01  0.87322291043E+01  0.51100000000E-03 0. -1.
        -11    1    4    4    0    0  0.29421968013E+02  0.68262462820E+01 -0.22738605666E+02  0.37806005184E+02  0.51100000000E-03 0.  1.
         12    1    4    4    0    0  0.77435867755E+01 -0.17338037402E+00 -0.11387336762E+01  0.78287873447E+01  0.00000000000E+00 0. -1.
</event>
<event>
 8    1  0.3007389E-007  0.9118800E+02  0.7816164E-02  0.1184000E+00
        -11   -1    0    0    0    0  0.00000000000E+00  0.00000000000E+00  0.45593999997E+02  0.45594000000E+02  0.51100000000E-03 0. -1.
         11   -1    0    0    0    0 -0.00000000000E+00 -0.00000000000E+00 -0.45593999997E+02  0.45594000000E+02  0.51100000000E-03 0.  1.
         23    2    1    2    0    0 -0.17763568394E-14  0.00000000000E+00  0.35527136788E-14  0.91188000000E+02  0.91188000000E+02 0.  0.
    9900012    2    3    3    0    0  0.15427128887E+02  0.27483658095E+02  0.19037642649E+02  0.54367087387E+02  0.40000007317E+02 0.  0.
        -12    1    3    3    0    0 -0.15427128887E+02 -0.27483658095E+02 -0.19037642649E+02  0.36820912613E+02  0.00000000000E+00 0.  1.
         11    1    4    4    0    0 -0.54482366414E+00  0.27602897211E+01 -0.26279901747E+01  0.38499824401E+01  0.51100000000E-03 0. -1.
        -11    1    4    4    0    0  0.65037282777E+01  0.75809037828E+00 -0.85737049266E+01  0.10788030356E+02  0.51100000000E-03 0.  1.
         12    1    4    4    0    0  0.94682242739E+01  0.23965277996E+02  0.30239337750E+02  0.39729074591E+02  0.00000000000E+00 0. -1.
</event>
<event>
 8    1  0.3007389E-007  0.9118800E+02  0.7816164E-02  0.1184000E+00
        -11   -1    0    0    0    0  0.00000000000E+00  0.00000000000E+00  0.45593999997E+02  0.45594000000E+02  0.51100000000E-03 0.  1.
         11   -1    0    0    0    0 -0.00000000000E+00 -0.00000000000E+00 -0.45593999997E+02  0.45594000000E+02  0.51100000000E-03 0. -1.
         23    2    1    2    0    0  0.00000000000E+00  0.35527136788E-14 -0.35527136788E-14  0.91188000000E+02  0.91188000000E+02 0.  0.
    9900012    2    3    3    0    0  0.86580479963E+01 -0.28794253745E+02  0.21253443827E+02  0.54367085857E+02  0.40000003828E+02 0.  0.
         12    1    3    3    0    0 -0.86580479963E+01  0.28794253745E+02 -0.21253443827E+02  0.36820914143E+02  0.00000000000E+00 0. -1.
         11    1    4    4    0    0  0.83555871845E+01 -0.58613960426E+01 -0.59703057156E+01  0.11824396448E+02  0.51100000000E-03 0. -1.
        -11    1    4    4    0    0  0.37981187322E+01 -0.26467548574E+02  0.26263127226E+02  0.37479443504E+02  0.51100000000E-03 0.  1.
        -12    1    4    4    0    0 -0.34956579203E+01  0.35346908717E+01  0.96062231601E+00  0.50632459044E+01  0.00000000000E+00 0.  1.
</event>
<event>
 8    1  0.3007389E-007  0.9118800E+02  0.7816164E-02  0.1184000E+00
        -11   -1    0    0    0    0  0.00000000000E+00  0.00000000000E+00  0.45593999997E+02  0.45594000000E+02  0.51100000000E-03 0.  1.
         11   -1    0    0    0    0 -0.00000000000E+00 -0.00000000000E+00 -0.45593999997E+02  0.45594000000E+02  0.51100000000E-03 0. -1.
         23    2    1    2    0    0  0.00000000000E+00  0.35527136788E-14  0.00000000000E+00  0.91188000000E+02  0.91188000000E+02 0.  0.
    9900012    2    3    3    0    0 -0.12628702687E+02  0.26783202752E+02  0.21885064475E+02  0.54367080290E+02  0.39999991137E+02 0.  0.
         12    1    3    3    0    0  0.12628702687E+02 -0.26783202752E+02 -0.21885064475E+02  0.36820919710E+02  0.00000000000E+00 0. -1.
         11    1    4    4    0    0  0.12251188251E+01  0.29144399275E+02  0.21464375828E+02  0.36216244356E+02  0.51100000000E-03 0. -1.
        -11    1    4    4    0    0 -0.56174326197E+01 -0.65318946826E+01 -0.14354274258E+01  0.87339366575E+01  0.51100000000E-03 0.  1.
         12    1    4    4    0    0 -0.82363888922E+01  0.41706981590E+01  0.18561160725E+01  0.94168992769E+01  0.00000000000E+00 0. -1.
</event>
<event>
 8    1  0.3007389E-007  0.9118800E+02  0.7816164E-02  0.1184000E+00
        -11   -1    0    0    0    0  0.00000000000E+00  0.00000000000E+00  0.45593999997E+02  0.45594000000E+02  0.51100000000E-03 0.  1.
         11   -1    0    0    0    0 -0.00000000000E+00 -0.00000000000E+00 -0.45593999997E+02  0.45594000000E+02  0.51100000000E-03 0. -1.
         23    2    1    2    0    0  0.00000000000E+00 -0.26645352591E-14  0.00000000000E+00  0.91188000000E+02  0.91188000000E+02 0.  0.
    9900012    2    3    3    0    0 -0.19174957409E+02 -0.19684304983E+01 -0.31372375533E+02  0.54367086692E+02  0.40000005731E+02 0.  0.
        -12    1    3    3    0    0  0.19174957409E+02  0.19684304983E+01  0.31372375533E+02  0.36820913308E+02  0.00000000000E+00 0.  1.
         11    1    4    4    0    0  0.37200583442E+01 -0.12210456597E+02 -0.41901025844E+01  0.13434695542E+02  0.51100000000E-03 0. -1.
        -11    1    4    4    0    0 -0.17776215631E+02 -0.14539056216E+01 -0.15673051413E+02  0.23743466987E+02  0.51100000000E-03 0.  1.
         12    1    4    4    0    0 -0.51188001219E+01  0.11695931720E+02 -0.11509221536E+02  0.17188924162E+02  0.00000000000E+00 0. -1.
</event>
<event>
 8    1  0.3007389E-007  0.9118800E+02  0.7816164E-02  0.1184000E+00
        -11   -1    0    0    0    0  0.00000000000E+00  0.00000000000E+00  0.45593999997E+02  0.45594000000E+02  0.51100000000E-03 0.  1.
         11   -1    0    0    0    0 -0.00000000000E+00 -0.00000000000E+00 -0.45593999997E+02  0.45594000000E+02  0.51100000000E-03 0. -1.
         23    2    1    2    0    0  0.00000000000E+00  0.00000000000E+00  0.00000000000E+00  0.91188000000E+02  0.91188000000E+02 0.  0.
    9900012    2    3    3    0    0  0.11999542777E+02  0.99482264896E+01  0.33358995787E+02  0.54367097823E+02  0.40000031108E+02 0.  0.
         12    1    3    3    0    0 -0.11999542777E+02 -0.99482264896E+01 -0.33358995787E+02  0.36820902177E+02  0.00000000000E+00 0. -1.
         11    1    4    4    0    0  0.18023287285E+02  0.10568777975E+02  0.27143721728E+02  0.34253752815E+02  0.51100000000E-03 0. -1.
        -11    1    4    4    0    0  0.22301148084E+01 -0.38306953707E+00  0.10548274104E+02  0.10788245509E+02  0.51100000000E-03 0.  1.
         12    1    4    4    0    0 -0.82538593159E+01 -0.23748194820E+00 -0.43330000445E+01  0.93250994991E+01  0.00000000000E+00 0. -1.
</event>
<event>
 8    1  0.3007389E-007  0.9118800E+02  0.7816164E-02  0.1184000E+00
        -11   -1    0    0    0    0  0.00000000000E+00  0.00000000000E+00  0.45593999997E+02  0.45594000000E+02  0.51100000000E-03 0.  1.
         11   -1    0    0    0    0 -0.00000000000E+00 -0.00000000000E+00 -0.45593999997E+02  0.45594000000E+02  0.51100000000E-03 0. -1.
         23    2    1    2    0    0  0.00000000000E+00  0.35527136788E-14 -0.17763568394E-14  0.91188000000E+02  0.91188000000E+02 0.  0.
    9900012    2    3    3    0    0  0.16332159340E+02  0.30486648981E+02 -0.12633539356E+02  0.54367061508E+02  0.39999948319E+02 0.  0.
        -12    1    3    3    0    0 -0.16332159340E+02 -0.30486648981E+02  0.12633539356E+02  0.36820938492E+02  0.00000000000E+00 0.  1.
         11    1    4    4    0    0  0.26094415076E+01  0.14864534702E+02 -0.10331403368E+02  0.18289381419E+02  0.51100000000E-03 0. -1.
        -11    1    4    4    0    0 -0.52696667406E+01 -0.54752810064E+00 -0.88271667235E+01  0.10295049646E+02  0.51100000000E-03 0.  1.
        -12    1    4    4    0    0  0.18992384573E+02  0.16169642379E+02  0.65250307355E+01  0.25782630443E+02  0.00000000000E+00 0.  1.
</event>
<event>
 8    1  0.3007389E-007  0.9118800E+02  0.7816164E-02  0.1184000E+00
        -11   -1    0    0    0    0  0.00000000000E+00  0.00000000000E+00  0.45593999997E+02  0.45594000000E+02  0.51100000000E-03 0.  1.
         11   -1    0    0    0    0 -0.00000000000E+00 -0.00000000000E+00 -0.45593999997E+02  0.45594000000E+02  0.51100000000E-03 0. -1.
         23    2    1    2    0    0  0.35527136788E-14  0.00000000000E+00  0.00000000000E+00  0.91188000000E+02  0.91188000000E+02 0.  0.
    9900012    2    3    3    0    0 -0.26969889609E+02  0.16717717092E+02  0.18679427758E+02  0.54367108761E+02  0.40000056042E+02 0.  0.
        -12    1    3    3    0    0  0.26969889609E+02 -0.16717717092E+02 -0.18679427758E+02  0.36820891239E+02  0.00000000000E+00 0.  1.
         11    1    4    4    0    0 -0.26842908136E+02  0.19173183861E+02  0.89491083869E+00  0.32999296390E+02  0.51100000000E-03 0. -1.
        -11    1    4    4    0    0 -0.11022111310E+01 -0.24458945453E+01  0.19343635604E+02  0.19528786654E+02  0.51100000000E-03 0.  1.
         12    1    4    4    0    0  0.97522965855E+00 -0.95722231253E-02 -0.15591186849E+01  0.18390257171E+01  0.00000000000E+00 0. -1.
</event>
<event>
 8    1  0.3007389E-007  0.9118800E+02  0.7816164E-02  0.1184000E+00
        -11   -1    0    0    0    0  0.00000000000E+00  0.00000000000E+00  0.45593999997E+02  0.45594000000E+02  0.51100000000E-03 0. -1.
         11   -1    0    0    0    0 -0.00000000000E+00 -0.00000000000E+00 -0.45593999997E+02  0.45594000000E+02  0.51100000000E-03 0.  1.
         23    2    1    2    0    0  0.00000000000E+00 -0.17763568394E-14  0.00000000000E+00  0.91188000000E+02  0.91188000000E+02 0.  0.
    9900012    2    3    3    0    0 -0.31430511172E+02 -0.60335336634E+01 -0.18207123090E+02  0.54367083495E+02  0.39999998444E+02 0.  0.
         12    1    3    3    0    0  0.31430511172E+02  0.60335336634E+01  0.18207123090E+02  0.36820916505E+02  0.00000000000E+00 0. -1.
         11    1    4    4    0    0 -0.45635504822E+01  0.14091640290E+02 -0.10379210916E+02  0.18086689541E+02  0.51100000000E-03 0. -1.
        -11    1    4    4    0    0 -0.15189215014E+02 -0.44266225956E+01 -0.26533394260E+01  0.16042052572E+02  0.51100000000E-03 0.  1.
         12    1    4    4    0    0 -0.11677745676E+02 -0.15698551357E+02 -0.51745727486E+01  0.20238341383E+02  0.00000000000E+00 0. -1.
</event>
<event>
 8    1  0.3007389E-007  0.9118800E+02  0.7816164E-02  0.1184000E+00
        -11   -1    0    0    0    0  0.00000000000E+00  0.00000000000E+00  0.45593999997E+02  0.45594000000E+02  0.51100000000E-03 0.  1.
         11   -1    0    0    0    0 -0.00000000000E+00 -0.00000000000E+00 -0.45593999997E+02  0.45594000000E+02  0.51100000000E-03 0. -1.
         23    2    1    2    0    0 -0.35527136788E-14 -0.71054273576E-14 -0.88817841970E-15  0.91188000000E+02  0.91188000000E+02 0.  0.
    9900012    2    3    3    0    0 -0.19617759765E+02 -0.31048385329E+02  0.26311756451E+01  0.54367057385E+02  0.39999938922E+02 0.  0.
         12    1    3    3    0    0  0.19617759765E+02  0.31048385329E+02 -0.26311756451E+01  0.36820942615E+02  0.00000000000E+00 0. -1.
         11    1    4    4    0    0 -0.35515588915E+00  0.44946610422E+01 -0.31676768369E+01  0.55101987618E+01  0.51100000000E-03 0. -1.
        -11    1    4    4    0    0 -0.80349276194E+01  0.21532533009E+01 -0.24430691149E+01  0.86697836528E+01  0.51100000000E-03 0.  1.
        -12    1    4    4    0    0 -0.11227676256E+02 -0.37696299672E+02  0.82419215969E+01  0.40187074971E+02  0.00000000000E+00 0.  1.
</event>
<event>
 8    1  0.3007389E-007  0.9118800E+02  0.7816164E-02  0.1184000E+00
        -11   -1    0    0    0    0  0.00000000000E+00  0.00000000000E+00  0.45593999997E+02  0.45594000000E+02  0.51100000000E-03 0. -1.
         11   -1    0    0    0    0 -0.00000000000E+00 -0.00000000000E+00 -0.45593999997E+02  0.45594000000E+02  0.51100000000E-03 0.  1.
         23    2    1    2    0    0  0.00000000000E+00  0.35527136788E-14 -0.71054273576E-14  0.91188000000E+02  0.91188000000E+02 0.  0.
    9900012    2    3    3    0    0  0.10566031814E+02  0.18782595952E+02 -0.29855502772E+02  0.54367109397E+02  0.40000057493E+02 0.  0.
         12    1    3    3    0    0 -0.10566031814E+02 -0.18782595952E+02  0.29855502772E+02  0.36820890603E+02  0.00000000000E+00 0. -1.
         11    1    4    4    0    0 -0.80992965722E+01  0.44327896423E+01 -0.21780010219E+01  0.94864069958E+01  0.51100000000E-03 0. -1.
        -11    1    4    4    0    0  0.16912617473E+02  0.12261259910E+02 -0.32910235047E+02  0.38980234677E+02  0.51100000000E-03 0.  1.
        -12    1    4    4    0    0  0.17527109128E+01  0.20885463999E+01  0.52327332969E+01  0.59004677242E+01  0.00000000000E+00 0.  1.
</event>
<event>
 8    1  0.3007389E-007  0.9118800E+02  0.7816164E-02  0.1184000E+00
        -11   -1    0    0    0    0  0.00000000000E+00  0.00000000000E+00  0.45593999997E+02  0.45594000000E+02  0.51100000000E-03 0.  1.
         11   -1    0    0    0    0 -0.00000000000E+00 -0.00000000000E+00 -0.45593999997E+02  0.45594000000E+02  0.51100000000E-03 0. -1.
         23    2    1    2    0    0  0.00000000000E+00 -0.10658141036E-13  0.44408920985E-15  0.91188000000E+02  0.91188000000E+02 0.  0.
    9900012    2    3    3    0    0  0.20947574210E+02 -0.30062358954E+02  0.36378059745E+01  0.54367083071E+02  0.39999997478E+02 0.  0.
         12    1    3    3    0    0 -0.20947574210E+02  0.30062358954E+02 -0.36378059745E+01  0.36820916929E+02  0.00000000000E+00 0. -1.
         11    1    4    4    0    0  0.23581484717E+02 -0.30806681476E+02  0.12862461832E+02  0.40872741156E+02  0.51100000000E-03 0. -1.
        -11    1    4    4    0    0  0.23398461940E+01 -0.18728144575E+01 -0.38836715082E+00  0.30221091160E+01  0.51100000000E-03 0.  1.
        -12    1    4    4    0    0 -0.49737567010E+01  0.26171369793E+01 -0.88362887066E+01  0.10472232799E+02  0.00000000000E+00 0.  1.
</event>
<event>
 8    1  0.3007389E-007  0.9118800E+02  0.7816164E-02  0.1184000E+00
        -11   -1    0    0    0    0  0.00000000000E+00  0.00000000000E+00  0.45593999997E+02  0.45594000000E+02  0.51100000000E-03 0. -1.
         11   -1    0    0    0    0 -0.00000000000E+00 -0.00000000000E+00 -0.45593999997E+02  0.45594000000E+02  0.51100000000E-03 0.  1.
         23    2    1    2    0    0 -0.17763568394E-14 -0.71054273576E-14 -0.35527136788E-14  0.91188000000E+02  0.91188000000E+02 0.  0.
    9900012    2    3    3    0    0  0.11315441367E+02 -0.28630347765E+02 -0.20200068798E+02  0.54367098247E+02  0.40000032073E+02 0.  0.
         12    1    3    3    0    0 -0.11315441367E+02  0.28630347765E+02  0.20200068798E+02  0.36820901753E+02  0.00000000000E+00 0. -1.
         11    1    4    4    0    0  0.14429019348E+02 -0.21213027873E+02 -0.21907891990E+02  0.33736402929E+02  0.51100000000E-03 0. -1.
        -11    1    4    4    0    0 -0.78789877260E+01 -0.11730976572E+02  0.12556872181E+01  0.14187001429E+02  0.51100000000E-03 0.  1.
         12    1    4    4    0    0  0.47654097451E+01  0.43136566801E+01  0.45213597310E+00  0.64436938886E+01  0.00000000000E+00 0. -1.
</event>
<event>
 8    1  0.3007389E-007  0.9118800E+02  0.7816164E-02  0.1184000E+00
        -11   -1    0    0    0    0  0.00000000000E+00  0.00000000000E+00  0.45593999997E+02  0.45594000000E+02  0.51100000000E-03 0.  1.
         11   -1    0    0    0    0 -0.00000000000E+00 -0.00000000000E+00 -0.45593999997E+02  0.45594000000E+02  0.51100000000E-03 0. -1.
         23    2    1    2    0    0  0.00000000000E+00 -0.17763568394E-14 -0.71054273576E-14  0.91188000000E+02  0.91188000000E+02 0.  0.
    9900012    2    3    3    0    0 -0.29151181404E+01 -0.15086595617E+02 -0.33461581873E+02  0.54367071949E+02  0.39999972123E+02 0.  0.
         12    1    3    3    0    0  0.29151181404E+01  0.15086595617E+02  0.33461581873E+02  0.36820928051E+02  0.00000000000E+00 0. -1.
         11    1    4    4    0    0  0.24225133059E+01  0.30771609515E+01 -0.14338462613E+01  0.41705402050E+01  0.51100000000E-03 0. -1.
        -11    1    4    4    0    0  0.22741970690E+01 -0.13107912274E+02  0.32993450314E+01  0.13706750687E+02  0.51100000000E-03 0.  1.
         12    1    4    4    0    0 -0.76118285153E+01 -0.50558442942E+01 -0.35327080643E+02  0.36489781057E+02  0.00000000000E+00 0. -1.
</event>
<event>
 8    1  0.3007389E-007  0.9118800E+02  0.7816164E-02  0.1184000E+00
        -11   -1    0    0    0    0  0.00000000000E+00  0.00000000000E+00  0.45593999997E+02  0.45594000000E+02  0.51100000000E-03 0.  1.
         11   -1    0    0    0    0 -0.00000000000E+00 -0.00000000000E+00 -0.45593999997E+02  0.45594000000E+02  0.51100000000E-03 0. -1.
         23    2    1    2    0    0  0.00000000000E+00 -0.88817841970E-15  0.00000000000E+00  0.91188000000E+02  0.91188000000E+02 0.  0.
    9900012    2    3    3    0    0 -0.27569471832E+02  0.26674176546E+01  0.24260847193E+02  0.54367087456E+02  0.40000007474E+02 0.  0.
         12    1    3    3    0    0  0.27569471832E+02 -0.26674176546E+01 -0.24260847193E+02  0.36820912544E+02  0.00000000000E+00 0. -1.
         11    1    4    4    0    0  0.27770483721E+01  0.33292806879E+01 -0.21422347062E+01  0.48358326437E+01  0.51100000000E-03 0. -1.
        -11    1    4    4    0    0 -0.12306697463E+02  0.75282098743E+01  0.25977647615E+02  0.29714759333E+02  0.51100000000E-03 0.  1.
        -12    1    4    4    0    0 -0.18039822741E+02 -0.81900729076E+01  0.42543428408E+00  0.19816495479E+02  0.00000000000E+00 0.  1.
</event>
<event>
 8    1  0.3007389E-007  0.9118800E+02  0.7816164E-02  0.1184000E+00
        -11   -1    0    0    0    0  0.00000000000E+00  0.00000000000E+00  0.45593999997E+02  0.45594000000E+02  0.51100000000E-03 0. -1.
         11   -1    0    0    0    0 -0.00000000000E+00 -0.00000000000E+00 -0.45593999997E+02  0.45594000000E+02  0.51100000000E-03 0.  1.
         23    2    1    2    0    0  0.00000000000E+00  0.00000000000E+00 -0.17763568394E-14  0.91188000000E+02  0.91188000000E+02 0.  0.
    9900012    2    3    3    0    0  0.50365780151E+01 -0.34663832843E+02  0.11350389879E+02  0.54367085076E+02  0.40000002047E+02 0.  0.
        -12    1    3    3    0    0 -0.50365780151E+01  0.34663832843E+02 -0.11350389879E+02  0.36820914924E+02  0.00000000000E+00 0.  1.
         11    1    4    4    0    0  0.71925328083E+01 -0.25303568964E+02 -0.10490834059E+02  0.28320676723E+02  0.51100000000E-03 0.  1.
        -11    1    4    4    0    0 -0.43904366902E+01 -0.52527287506E+01  0.47636194046E+01  0.83402136514E+01  0.51100000000E-03 0. -1.
        -12    1    4    4    0    0  0.22344818970E+01 -0.41075351277E+01  0.17077604534E+02  0.17706194701E+02  0.00000000000E+00 0.  1.
</event>
<event>
 8    1  0.3007389E-007  0.9118800E+02  0.7816164E-02  0.1184000E+00
        -11   -1    0    0    0    0  0.00000000000E+00  0.00000000000E+00  0.45593999997E+02  0.45594000000E+02  0.51100000000E-03 0. -1.
         11   -1    0    0    0    0 -0.00000000000E+00 -0.00000000000E+00 -0.45593999997E+02  0.45594000000E+02  0.51100000000E-03 0.  1.
         23    2    1    2    0    0  0.33306690739E-15 -0.23314683517E-14  0.00000000000E+00  0.91188000000E+02  0.91188000000E+02 0.  0.
    9900012    2    3    3    0    0  0.24059769771E+00 -0.78502904181E+00 -0.36811793729E+02  0.54367050591E+02  0.39999923433E+02 0.  0.
         12    1    3    3    0    0 -0.24059769771E+00  0.78502904181E+00  0.36811793729E+02  0.36820949409E+02  0.00000000000E+00 0. -1.
         11    1    4    4    0    0 -0.67731653026E+01  0.81159545583E+01 -0.55376305679E+01  0.11933559367E+02  0.51100000000E-03 0. -1.
        -11    1    4    4    0    0  0.65698693361E+01  0.57152324978E+01 -0.93971392264E+00  0.87584318297E+01  0.51100000000E-03 0.  1.
        -12    1    4    4    0    0  0.44389366413E+00 -0.14616216098E+02 -0.30334449238E+02  0.33675059394E+02  0.00000000000E+00 0.  1.
</event>
<event>
 8    1  0.3007389E-007  0.9118800E+02  0.7816164E-02  0.1184000E+00
        -11   -1    0    0    0    0  0.00000000000E+00  0.00000000000E+00  0.45593999997E+02  0.45594000000E+02  0.51100000000E-03 0. -1.
         11   -1    0    0    0    0 -0.00000000000E+00 -0.00000000000E+00 -0.45593999997E+02  0.45594000000E+02  0.51100000000E-03 0.  1.
         23    2    1    2    0    0  0.00000000000E+00 -0.35527136788E-14  0.00000000000E+00  0.91188000000E+02  0.91188000000E+02 0.  0.
    9900012    2    3    3    0    0 -0.67664444224E+01 -0.11706707385E+02 -0.34248348009E+02  0.54367066969E+02  0.39999960770E+02 0.  0.
         12    1    3    3    0    0  0.67664444224E+01  0.11706707385E+02  0.34248348009E+02  0.36820933031E+02  0.00000000000E+00 0. -1.
         11    1    4    4    0    0 -0.11564121602E+02  0.29793082048E+01 -0.22246467887E+02  0.25248970663E+02  0.51100000000E-03 0. -1.
        -11    1    4    4    0    0 -0.34170523971E+01 -0.17161503010E+02 -0.54648853428E+01  0.18331895830E+02  0.51100000000E-03 0.  1.
         12    1    4    4    0    0  0.82147295766E+01  0.24754874208E+01 -0.65369947786E+01  0.10786200477E+02  0.00000000000E+00 0. -1.
</event>
<event>
 8    1  0.3007389E-007  0.9118800E+02  0.7816164E-02  0.1184000E+00
        -11   -1    0    0    0    0  0.00000000000E+00  0.00000000000E+00  0.45593999997E+02  0.45594000000E+02  0.51100000000E-03 0. -1.
         11   -1    0    0    0    0 -0.00000000000E+00 -0.00000000000E+00 -0.45593999997E+02  0.45594000000E+02  0.51100000000E-03 0.  1.
         23    2    1    2    0    0 -0.99920072216E-15 -0.35527136788E-14  0.35527136788E-14  0.91188000000E+02  0.91188000000E+02 0.  0.
    9900012    2    3    3    0    0 -0.53999562258E+00 -0.24475205711E+02  0.27503669938E+02  0.54367093575E+02  0.40000021423E+02 0.  0.
        -12    1    3    3    0    0  0.53999562258E+00  0.24475205711E+02 -0.27503669938E+02  0.36820906425E+02  0.00000000000E+00 0.  1.
         11    1    4    4    0    0  0.87689357938E+01 -0.27235298060E+01 -0.41299526665E+01  0.10068185480E+02  0.51100000000E-03 0.  1.
        -11    1    4    4    0    0  0.47542028061E+01 -0.13871774369E+02  0.17752902701E+02  0.23025944563E+02  0.51100000000E-03 0. -1.
        -12    1    4    4    0    0 -0.14063134222E+02 -0.78799015360E+01  0.13880719904E+02  0.21272963532E+02  0.00000000000E+00 0.  1.
</event>
<event>
 8    1  0.3007389E-007  0.9118800E+02  0.7816164E-02  0.1184000E+00
        -11   -1    0    0    0    0  0.00000000000E+00  0.00000000000E+00  0.45593999997E+02  0.45594000000E+02  0.51100000000E-03 0. -1.
         11   -1    0    0    0    0 -0.00000000000E+00 -0.00000000000E+00 -0.45593999997E+02  0.45594000000E+02  0.51100000000E-03 0.  1.
         23    2    1    2    0    0  0.00000000000E+00  0.44408920985E-15  0.00000000000E+00  0.91188000000E+02  0.91188000000E+02 0.  0.
    9900012    2    3    3    0    0  0.36128721449E+02 -0.36242758372E+01  0.61123417860E+01  0.54367073735E+02  0.39999976194E+02 0.  0.
        -12    1    3    3    0    0 -0.36128721449E+02  0.36242758372E+01 -0.61123417860E+01  0.36820926265E+02  0.00000000000E+00 0.  1.
         11    1    4    4    0    0  0.22875587266E+02 -0.92497030175E+01  0.20448040723E+01  0.24759457236E+02  0.51100000000E-03 0. -1.
        -11    1    4    4    0    0  0.13895315450E+02 -0.64440724134E+01  0.74839963091E+01  0.17047464965E+02  0.51100000000E-03 0.  1.
        -12    1    4    4    0    0 -0.64218126708E+00  0.12069499594E+02 -0.34164585955E+01  0.12560151534E+02  0.00000000000E+00 0.  1.
</event>
<event>
 8    1  0.3007389E-007  0.9118800E+02  0.7816164E-02  0.1184000E+00
        -11   -1    0    0    0    0  0.00000000000E+00  0.00000000000E+00  0.45593999997E+02  0.45594000000E+02  0.51100000000E-03 0.  1.
         11   -1    0    0    0    0 -0.00000000000E+00 -0.00000000000E+00 -0.45593999997E+02  0.45594000000E+02  0.51100000000E-03 0. -1.
         23    2    1    2    0    0  0.35527136788E-14  0.00000000000E+00  0.00000000000E+00  0.91188000000E+02  0.91188000000E+02 0.  0.
    9900012    2    3    3    0    0 -0.16087586301E+02  0.13598964629E+01  0.33092595477E+02  0.54367087100E+02  0.40000006661E+02 0.  0.
         12    1    3    3    0    0  0.16087586301E+02 -0.13598964629E+01 -0.33092595477E+02  0.36820912900E+02  0.00000000000E+00 0. -1.
         11    1    4    4    0    0 -0.19445322245E+02 -0.74518815891E+01  0.22267087431E+02  0.30487280616E+02  0.51100000000E-03 0.  1.
        -11    1    4    4    0    0  0.58453513099E+01  0.87503565875E+01 -0.20883615861E+01  0.10728379501E+02  0.51100000000E-03 0. -1.
         12    1    4    4    0    0 -0.24876153665E+01  0.61421464482E-01  0.12913869632E+02  0.13151426983E+02  0.00000000000E+00 0. -1.
</event>
<event>
 8    1  0.3007389E-007  0.9118800E+02  0.7816164E-02  0.1184000E+00
        -11   -1    0    0    0    0  0.00000000000E+00  0.00000000000E+00  0.45593999997E+02  0.45594000000E+02  0.51100000000E-03 0.  1.
         11   -1    0    0    0    0 -0.00000000000E+00 -0.00000000000E+00 -0.45593999997E+02  0.45594000000E+02  0.51100000000E-03 0. -1.
         23    2    1    2    0    0  0.00000000000E+00 -0.88817841970E-15 -0.17763568394E-14  0.91188000000E+02  0.91188000000E+02 0.  0.
    9900012    2    3    3    0    0 -0.33193808433E+02 -0.63097858937E+01  0.14633430695E+02  0.54367087325E+02  0.40000007175E+02 0.  0.
         12    1    3    3    0    0  0.33193808433E+02  0.63097858937E+01 -0.14633430695E+02  0.36820912675E+02  0.00000000000E+00 0. -1.
         11    1    4    4    0    0 -0.10223195922E+02 -0.15105936195E+02  0.20732879946E+02  0.27614404834E+02  0.51100000000E-03 0. -1.
        -11    1    4    4    0    0 -0.21232609462E+02  0.85161148281E+01 -0.28455443361E+01  0.23053091748E+02  0.51100000000E-03 0.  1.
         12    1    4    4    0    0 -0.17380030487E+01  0.28003547308E+00 -0.32539049156E+01  0.36995907427E+01  0.00000000000E+00 0. -1.
</event>
<event>
 8    1  0.3007389E-007  0.9118800E+02  0.7816164E-02  0.1184000E+00
        -11   -1    0    0    0    0  0.00000000000E+00  0.00000000000E+00  0.45593999997E+02  0.45594000000E+02  0.51100000000E-03 0. -1.
         11   -1    0    0    0    0 -0.00000000000E+00 -0.00000000000E+00 -0.45593999997E+02  0.45594000000E+02  0.51100000000E-03 0.  1.
         23    2    1    2    0    0  0.00000000000E+00  0.17763568394E-14  0.13322676296E-14  0.91188000000E+02  0.91188000000E+02 0.  0.
    9900012    2    3    3    0    0 -0.35547501307E+02 -0.92608813253E+01 -0.25280570649E+01  0.54367084142E+02  0.39999999919E+02 0.  0.
         12    1    3    3    0    0  0.35547501307E+02  0.92608813253E+01  0.25280570649E+01  0.36820915858E+02  0.00000000000E+00 0. -1.
         11    1    4    4    0    0 -0.95240278970E+01  0.14416855854E+02  0.22525308071E+01  0.17424888390E+02  0.51100000000E-03 0. -1.
        -11    1    4    4    0    0 -0.37563925814E+01 -0.71805350652E+01  0.21342293212E+01  0.83800658771E+01  0.51100000000E-03 0.  1.
         12    1    4    4    0    0 -0.22267080828E+02 -0.16497202114E+02 -0.69148171932E+01  0.28562129875E+02  0.00000000000E+00 0. -1.
</event>
<event>
 8    1  0.3007389E-007  0.9118800E+02  0.7816164E-02  0.1184000E+00
        -11   -1    0    0    0    0  0.00000000000E+00  0.00000000000E+00  0.45593999997E+02  0.45594000000E+02  0.51100000000E-03 0. -1.
         11   -1    0    0    0    0 -0.00000000000E+00 -0.00000000000E+00 -0.45593999997E+02  0.45594000000E+02  0.51100000000E-03 0.  1.
         23    2    1    2    0    0  0.00000000000E+00 -0.71054273576E-14  0.17763568394E-14  0.91188000000E+02  0.91188000000E+02 0.  0.
    9900012    2    3    3    0    0  0.51164754529E+01 -0.35412465102E+02  0.86925679096E+01  0.54367058370E+02  0.39999941165E+02 0.  0.
         12    1    3    3    0    0 -0.51164754529E+01  0.35412465102E+02 -0.86925679096E+01  0.36820941630E+02  0.00000000000E+00 0. -1.
         11    1    4    4    0    0 -0.22679599207E+01 -0.11346860649E+02  0.62741546322E+01  0.13162822851E+02  0.51100000000E-03 0. -1.
        -11    1    4    4    0    0  0.11155783603E+02 -0.15389024811E+02  0.15868190574E+02  0.24760312292E+02  0.51100000000E-03 0.  1.
         12    1    4    4    0    0 -0.37713482295E+01 -0.86765796426E+01 -0.13449777297E+02  0.16443923227E+02  0.00000000000E+00 0. -1.
</event>
<event>
 8    1  0.3007389E-007  0.9118800E+02  0.7816164E-02  0.1184000E+00
        -11   -1    0    0    0    0  0.00000000000E+00  0.00000000000E+00  0.45593999997E+02  0.45594000000E+02  0.51100000000E-03 0. -1.
         11   -1    0    0    0    0 -0.00000000000E+00 -0.00000000000E+00 -0.45593999997E+02  0.45594000000E+02  0.51100000000E-03 0.  1.
         23    2    1    2    0    0 -0.17763568394E-14  0.00000000000E+00  0.35527136788E-14  0.91188000000E+02  0.91188000000E+02 0.  0.
    9900012    2    3    3    0    0 -0.97898386804E+01 -0.18033842022E+02  0.30573187361E+02  0.54367079521E+02  0.39999989385E+02 0.  0.
        -12    1    3    3    0    0  0.97898386804E+01  0.18033842022E+02 -0.30573187361E+02  0.36820920479E+02  0.00000000000E+00 0.  1.
         11    1    4    4    0    0 -0.80513389653E+01  0.96685147756E+01  0.12895076619E+02  0.18016304793E+02  0.51100000000E-03 0. -1.
        -11    1    4    4    0    0  0.20025421888E+01 -0.12204543392E+02  0.16140101111E+02  0.20333812205E+02  0.51100000000E-03 0.  1.
         12    1    4    4    0    0 -0.37410419039E+01 -0.15497813406E+02  0.15380096308E+01  0.16016962524E+02  0.00000000000E+00 0. -1.
</event>
<event>
 8    1  0.3007389E-007  0.9118800E+02  0.7816164E-02  0.1184000E+00
        -11   -1    0    0    0    0  0.00000000000E+00  0.00000000000E+00  0.45593999997E+02  0.45594000000E+02  0.51100000000E-03 0. -1.
         11   -1    0    0    0    0 -0.00000000000E+00 -0.00000000000E+00 -0.45593999997E+02  0.45594000000E+02  0.51100000000E-03 0.  1.
         23    2    1    2    0    0  0.00000000000E+00  0.00000000000E+00  0.44408920985E-15  0.91188000000E+02  0.91188000000E+02 0.  0.
    9900012    2    3    3    0    0  0.33093692894E+02 -0.16049768706E+02  0.17297911928E+01  0.54367085258E+02  0.40000002462E+02 0.  0.
        -12    1    3    3    0    0 -0.33093692894E+02  0.16049768706E+02 -0.17297911928E+01  0.36820914742E+02  0.00000000000E+00 0.  1.
         11    1    4    4    0    0  0.95959914497E+01  0.82967053549E+01  0.50002218242E+01  0.13635270082E+02  0.51100000000E-03 0. -1.
        -11    1    4    4    0    0  0.16095155448E+02 -0.31819689647E+01  0.44817120878E+01  0.17007783480E+02  0.51100000000E-03 0.  1.
        -12    1    4    4    0    0  0.74025459966E+01 -0.21164505096E+02 -0.77521427191E+01  0.23724031696E+02  0.00000000000E+00 0.  1.
</event>
<event>
 8    1  0.3007389E-007  0.9118800E+02  0.7816164E-02  0.1184000E+00
        -11   -1    0    0    0    0  0.00000000000E+00  0.00000000000E+00  0.45593999997E+02  0.45594000000E+02  0.51100000000E-03 0.  1.
         11   -1    0    0    0    0 -0.00000000000E+00 -0.00000000000E+00 -0.45593999997E+02  0.45594000000E+02  0.51100000000E-03 0. -1.
         23    2    1    2    0    0  0.00000000000E+00  0.88817841970E-15  0.00000000000E+00  0.91188000000E+02  0.91188000000E+02 0.  0.
    9900012    2    3    3    0    0  0.15283063046E+02 -0.71435065294E+01 -0.32728679685E+02  0.54367242600E+02  0.40000361153E+02 0.  0.
        -12    1    3    3    0    0 -0.15283063046E+02  0.71435065294E+01  0.32728679685E+02  0.36820757400E+02  0.00000000000E+00 0.  1.
         11    1    4    4    0    0  0.24798499889E+01  0.43522370938E+01  0.10494110298E+01  0.51178987347E+01  0.51100000000E-03 0. -1.
        -11    1    4    4    0    0 -0.82049532000E+01 -0.12252049648E+02 -0.15484597197E+02  0.21382392948E+02  0.51100000000E-03 0.  1.
         12    1    4    4    0    0  0.21008166257E+02  0.75630602474E+00 -0.18293493519E+02  0.27866950917E+02  0.00000000000E+00 0. -1.
</event>
<event>
 8    1  0.3007389E-007  0.9118800E+02  0.7816164E-02  0.1184000E+00
        -11   -1    0    0    0    0  0.00000000000E+00  0.00000000000E+00  0.45593999997E+02  0.45594000000E+02  0.51100000000E-03 0.  1.
         11   -1    0    0    0    0 -0.00000000000E+00 -0.00000000000E+00 -0.45593999997E+02  0.45594000000E+02  0.51100000000E-03 0. -1.
         23    2    1    2    0    0  0.00000000000E+00  0.35527136788E-14  0.00000000000E+00  0.91188000000E+02  0.91188000000E+02 0.  0.
    9900012    2    3    3    0    0 -0.90381689521E+01  0.29746025647E+02 -0.19729797448E+02  0.54367089540E+02  0.40000012223E+02 0.  0.
        -12    1    3    3    0    0  0.90381689521E+01 -0.29746025647E+02  0.19729797448E+02  0.36820910460E+02  0.00000000000E+00 0.  1.
         11    1    4    4    0    0 -0.91557693243E+01  0.30667760914E+02 -0.16867346494E+02  0.36177991229E+02  0.51100000000E-03 0. -1.
        -11    1    4    4    0    0  0.75643833968E+00  0.57822531637E+01  0.51095786615E+01  0.77533505641E+01  0.51100000000E-03 0.  1.
        -12    1    4    4    0    0 -0.63883796751E+00 -0.67039884305E+01 -0.79720296160E+01  0.10435747746E+02  0.00000000000E+00 0.  1.
</event>
<event>
 8    1  0.3007389E-007  0.9118800E+02  0.7816164E-02  0.1184000E+00
        -11   -1    0    0    0    0  0.00000000000E+00  0.00000000000E+00  0.45593999997E+02  0.45594000000E+02  0.51100000000E-03 0.  1.
         11   -1    0    0    0    0 -0.00000000000E+00 -0.00000000000E+00 -0.45593999997E+02  0.45594000000E+02  0.51100000000E-03 0. -1.
         23    2    1    2    0    0  0.00000000000E+00  0.35527136788E-14 -0.35527136788E-14  0.91188000000E+02  0.91188000000E+02 0.  0.
    9900012    2    3    3    0    0  0.17631408250E+01 -0.31607944309E+02  0.18804546759E+02  0.54367057755E+02  0.39999939763E+02 0.  0.
         12    1    3    3    0    0 -0.17631408250E+01  0.31607944309E+02 -0.18804546759E+02  0.36820942245E+02  0.00000000000E+00 0. -1.
         11    1    4    4    0    0  0.10734299699E+01 -0.16159032932E+02 -0.27496210505E+01  0.16426412066E+02  0.51100000000E-03 0. -1.
        -11    1    4    4    0    0 -0.31314004095E+01  0.54995174655E+01  0.13969453099E+02  0.15336100580E+02  0.51100000000E-03 0.  1.
        -12    1    4    4    0    0  0.38211112646E+01 -0.20948428843E+02  0.75847147107E+01  0.22604545108E+02  0.00000000000E+00 0.  1.
</event>
<event>
 8    1  0.3007389E-007  0.9118800E+02  0.7816164E-02  0.1184000E+00
        -11   -1    0    0    0    0  0.00000000000E+00  0.00000000000E+00  0.45593999997E+02  0.45594000000E+02  0.51100000000E-03 0.  1.
         11   -1    0    0    0    0 -0.00000000000E+00 -0.00000000000E+00 -0.45593999997E+02  0.45594000000E+02  0.51100000000E-03 0. -1.
         23    2    1    2    0    0  0.00000000000E+00 -0.88817841970E-15  0.00000000000E+00  0.91188000000E+02  0.91188000000E+02 0.  0.
    9900012    2    3    3    0    0 -0.36448713545E+02  0.36310854316E+01  0.37527214140E+01  0.54367130666E+02  0.40000105980E+02 0.  0.
        -12    1    3    3    0    0  0.36448713545E+02 -0.36310854316E+01 -0.37527214140E+01  0.36820869334E+02  0.00000000000E+00 0.  1.
         11    1    4    4    0    0 -0.53976863999E+01 -0.15099158647E+02  0.63359385720E+01  0.17241337772E+02  0.51100000000E-03 0.  1.
        -11    1    4    4    0    0 -0.27471758245E+02  0.15820423220E+02  0.26857163677E+00  0.31702609086E+02  0.51100000000E-03 0. -1.
         12    1    4    4    0    0 -0.35792689002E+01  0.29098208584E+01 -0.28517887948E+01  0.54231838082E+01  0.00000000000E+00 0. -1.
</event>
<event>
 8    1  0.3007389E-007  0.9118800E+02  0.7816164E-02  0.1184000E+00
        -11   -1    0    0    0    0  0.00000000000E+00  0.00000000000E+00  0.45593999997E+02  0.45594000000E+02  0.51100000000E-03 0.  1.
         11   -1    0    0    0    0 -0.00000000000E+00 -0.00000000000E+00 -0.45593999997E+02  0.45594000000E+02  0.51100000000E-03 0. -1.
         23    2    1    2    0    0  0.17763568394E-14  0.00000000000E+00  0.71054273576E-14  0.91188000000E+02  0.91188000000E+02 0.  0.
    9900012    2    3    3    0    0  0.90880243781E+01 -0.54101297196E+01  0.35269220875E+02  0.54367087032E+02  0.40000006506E+02 0.  0.
         12    1    3    3    0    0 -0.90880243781E+01  0.54101297196E+01 -0.35269220875E+02  0.36820912968E+02  0.00000000000E+00 0. -1.
         11    1    4    4    0    0  0.74357975492E+01 -0.75031381229E+00  0.36809159530E+02  0.37560195441E+02  0.51100000000E-03 0.  1.
        -11    1    4    4    0    0  0.38753821176E+01  0.27325861852E+01 -0.61881027629E+01  0.77960393715E+01  0.51100000000E-03 0. -1.
         12    1    4    4    0    0 -0.22231552887E+01 -0.73924020925E+01  0.46481641079E+01  0.90108522188E+01  0.00000000000E+00 0. -1.
</event>
<event>
 8    1  0.3007389E-007  0.9118800E+02  0.7816164E-02  0.1184000E+00
        -11   -1    0    0    0    0  0.00000000000E+00  0.00000000000E+00  0.45593999997E+02  0.45594000000E+02  0.51100000000E-03 0. -1.
         11   -1    0    0    0    0 -0.00000000000E+00 -0.00000000000E+00 -0.45593999997E+02  0.45594000000E+02  0.51100000000E-03 0.  1.
         23    2    1    2    0    0 -0.35527136788E-14  0.35527136788E-14 -0.17763568394E-14  0.91188000000E+02  0.91188000000E+02 0.  0.
    9900012    2    3    3    0    0 -0.24127261189E+02  0.26774119625E+02 -0.75367707973E+01  0.54367066711E+02  0.39999960181E+02 0.  0.
        -12    1    3    3    0    0  0.24127261189E+02 -0.26774119625E+02  0.75367707973E+01  0.36820933289E+02  0.00000000000E+00 0.  1.
         11    1    4    4    0    0 -0.24235444772E+02  0.14044587129E+02  0.24306865643E+01  0.28116106565E+02  0.51100000000E-03 0. -1.
        -11    1    4    4    0    0 -0.76070801629E+01  0.29496836552E+01 -0.11062903254E+02  0.13746131490E+02  0.51100000000E-03 0.  1.
         12    1    4    4    0    0  0.77152637454E+01  0.97798488411E+01  0.10954458929E+01  0.12504828656E+02  0.00000000000E+00 0. -1.
</event>
<event>
 8    1  0.3007389E-007  0.9118800E+02  0.7816164E-02  0.1184000E+00
        -11   -1    0    0    0    0  0.00000000000E+00  0.00000000000E+00  0.45593999997E+02  0.45594000000E+02  0.51100000000E-03 0. -1.
         11   -1    0    0    0    0 -0.00000000000E+00 -0.00000000000E+00 -0.45593999997E+02  0.45594000000E+02  0.51100000000E-03 0.  1.
         23    2    1    2    0    0  0.00000000000E+00  0.00000000000E+00  0.17763568394E-14  0.91188000000E+02  0.91188000000E+02 0.  0.
    9900012    2    3    3    0    0 -0.33157136994E+02 -0.13102594492E+02  0.92036280640E+01  0.54367075438E+02  0.39999980077E+02 0.  0.
        -12    1    3    3    0    0  0.33157136994E+02  0.13102594492E+02 -0.92036280640E+01  0.36820924562E+02  0.00000000000E+00 0.  1.
         11    1    4    4    0    0 -0.77810393580E+01 -0.59688524255E+01  0.23690633399E+01  0.10088817281E+02  0.51100000000E-03 0. -1.
        -11    1    4    4    0    0 -0.29755938623E+02 -0.13635962522E+02  0.12031060699E+02  0.34872650875E+02  0.51100000000E-03 0.  1.
         12    1    4    4    0    0  0.43798409877E+01  0.65022204551E+01 -0.51964959748E+01  0.94056072818E+01  0.00000000000E+00 0. -1.
</event>
<event>
 8    1  0.3007389E-007  0.9118800E+02  0.7816164E-02  0.1184000E+00
        -11   -1    0    0    0    0  0.00000000000E+00  0.00000000000E+00  0.45593999997E+02  0.45594000000E+02  0.51100000000E-03 0.  1.
         11   -1    0    0    0    0 -0.00000000000E+00 -0.00000000000E+00 -0.45593999997E+02  0.45594000000E+02  0.51100000000E-03 0. -1.
         23    2    1    2    0    0 -0.10658141036E-13 -0.35527136788E-14 -0.35527136788E-14  0.91188000000E+02  0.91188000000E+02 0.  0.
    9900012    2    3    3    0    0 -0.29618169509E+02 -0.11351848286E+02 -0.18699709494E+02  0.54367088011E+02  0.40000008738E+02 0.  0.
        -12    1    3    3    0    0  0.29618169509E+02  0.11351848286E+02  0.18699709494E+02  0.36820911989E+02  0.00000000000E+00 0.  1.
         11    1    4    4    0    0 -0.12320787221E+01  0.36746507217E+01 -0.12219611931E+01  0.40637747627E+01  0.51100000000E-03 0.  1.
        -11    1    4    4    0    0 -0.18596490776E+02 -0.22999587575E+02 -0.10652215441E+01  0.29596371315E+02  0.51100000000E-03 0. -1.
         12    1    4    4    0    0 -0.97896000105E+01  0.79730885677E+01 -0.16412526757E+02  0.20706941933E+02  0.00000000000E+00 0. -1.
</event>
<event>
 8    1  0.3007389E-007  0.9118800E+02  0.7816164E-02  0.1184000E+00
        -11   -1    0    0    0    0  0.00000000000E+00  0.00000000000E+00  0.45593999997E+02  0.45594000000E+02  0.51100000000E-03 0.  1.
         11   -1    0    0    0    0 -0.00000000000E+00 -0.00000000000E+00 -0.45593999997E+02  0.45594000000E+02  0.51100000000E-03 0. -1.
         23    2    1    2    0    0  0.35527136788E-14  0.00000000000E+00  0.35527136788E-14  0.91188000000E+02  0.91188000000E+02 0.  0.
    9900012    2    3    3    0    0  0.25047763920E+02 -0.15081938837E+02  0.22381350996E+02  0.54367078924E+02  0.39999988023E+02 0.  0.
         12    1    3    3    0    0 -0.25047763920E+02  0.15081938837E+02 -0.22381350996E+02  0.36820921076E+02  0.00000000000E+00 0. -1.
         11    1    4    4    0    0  0.12054651128E+02 -0.15781114983E+02  0.34526452480E+01  0.20156362851E+02  0.51100000000E-03 0. -1.
        -11    1    4    4    0    0  0.64404620109E+01  0.80171170459E+01 -0.25476594791E+01  0.10594540373E+02  0.51100000000E-03 0.  1.
        -12    1    4    4    0    0  0.65526507816E+01 -0.73179408999E+01  0.21476365227E+02  0.23616175699E+02  0.00000000000E+00 0.  1.
</event>
<event>
 8    1  0.3007389E-007  0.9118800E+02  0.7816164E-02  0.1184000E+00
        -11   -1    0    0    0    0  0.00000000000E+00  0.00000000000E+00  0.45593999997E+02  0.45594000000E+02  0.51100000000E-03 0.  1.
         11   -1    0    0    0    0 -0.00000000000E+00 -0.00000000000E+00 -0.45593999997E+02  0.45594000000E+02  0.51100000000E-03 0. -1.
         23    2    1    2    0    0  0.00000000000E+00  0.00000000000E+00 -0.17763568394E-14  0.91188000000E+02  0.91188000000E+02 0.  0.
    9900012    2    3    3    0    0 -0.32803743061E+02  0.10767627700E+02  0.12796587271E+02  0.54367081884E+02  0.39999994771E+02 0.  0.
         12    1    3    3    0    0  0.32803743061E+02 -0.10767627700E+02 -0.12796587271E+02  0.36820918116E+02  0.00000000000E+00 0. -1.
         11    1    4    4    0    0 -0.28733344418E+02  0.62360612352E+01  0.16290095946E+02  0.33613401604E+02  0.51100000000E-03 0. -1.
        -11    1    4    4    0    0 -0.29239091760E+01  0.11310874295E+02 -0.63632702364E+01  0.13303245114E+02  0.51100000000E-03 0.  1.
         12    1    4    4    0    0 -0.11464894676E+01 -0.67793078302E+01  0.28697615608E+01  0.74504351666E+01  0.00000000000E+00 0. -1.
</event>
<event>
 8    1  0.3007389E-007  0.9118800E+02  0.7816164E-02  0.1184000E+00
        -11   -1    0    0    0    0  0.00000000000E+00  0.00000000000E+00  0.45593999997E+02  0.45594000000E+02  0.51100000000E-03 0.  1.
         11   -1    0    0    0    0 -0.00000000000E+00 -0.00000000000E+00 -0.45593999997E+02  0.45594000000E+02  0.51100000000E-03 0. -1.
         23    2    1    2    0    0  0.00000000000E+00  0.00000000000E+00  0.00000000000E+00  0.91188000000E+02  0.91188000000E+02 0.  0.
    9900012    2    3    3    0    0  0.82229060064E+01 -0.26134109628E+02  0.24600275596E+02  0.54367062632E+02  0.39999950882E+02 0.  0.
         12    1    3    3    0    0 -0.82229060064E+01  0.26134109628E+02 -0.24600275596E+02  0.36820937368E+02  0.00000000000E+00 0. -1.
         11    1    4    4    0    0  0.12632876102E+02 -0.11523057222E+02  0.96176426521E+01  0.19618090039E+02  0.51100000000E-03 0.  1.
        -11    1    4    4    0    0 -0.30433265879E+00  0.72122682859E+01 -0.11386754136E+01  0.73079418549E+01  0.51100000000E-03 0. -1.
         12    1    4    4    0    0 -0.41056374368E+01 -0.21823320692E+02  0.16121308358E+02  0.27441030738E+02  0.00000000000E+00 0. -1.
</event>
<event>
 8    1  0.3007389E-007  0.9118800E+02  0.7816164E-02  0.1184000E+00
        -11   -1    0    0    0    0  0.00000000000E+00  0.00000000000E+00  0.45593999997E+02  0.45594000000E+02  0.51100000000E-03 0.  1.
         11   -1    0    0    0    0 -0.00000000000E+00 -0.00000000000E+00 -0.45593999997E+02  0.45594000000E+02  0.51100000000E-03 0. -1.
         23    2    1    2    0    0  0.00000000000E+00  0.35527136788E-14 -0.35527136788E-14  0.91188000000E+02  0.91188000000E+02 0.  0.
    9900012    2    3    3    0    0 -0.14749073162E+02  0.17798375136E+02 -0.28661076417E+02  0.54367155115E+02  0.40000161716E+02 0.  0.
        -12    1    3    3    0    0  0.14749073162E+02 -0.17798375136E+02  0.28661076417E+02  0.36820844885E+02  0.00000000000E+00 0.  1.
         11    1    4    4    0    0 -0.12857154250E+02  0.13436873557E+02 -0.12054395671E+01  0.18636230070E+02  0.51100000000E-03 0. -1.
        -11    1    4    4    0    0  0.86284298189E+00  0.10760901623E+02 -0.44208825430E+01  0.11665577760E+02  0.51100000000E-03 0.  1.
         12    1    4    4    0    0 -0.27547618939E+01 -0.63994000437E+01 -0.23034754307E+02  0.24065347286E+02  0.00000000000E+00 0. -1.
</event>
<event>
 8    1  0.3007389E-007  0.9118800E+02  0.7816164E-02  0.1184000E+00
        -11   -1    0    0    0    0  0.00000000000E+00  0.00000000000E+00  0.45593999997E+02  0.45594000000E+02  0.51100000000E-03 0.  1.
         11   -1    0    0    0    0 -0.00000000000E+00 -0.00000000000E+00 -0.45593999997E+02  0.45594000000E+02  0.51100000000E-03 0. -1.
         23    2    1    2    0    0  0.00000000000E+00  0.35527136788E-14  0.00000000000E+00  0.91188000000E+02  0.91188000000E+02 0.  0.
    9900012    2    3    3    0    0  0.20860724930E+02 -0.13170303581E+02 -0.27334089048E+02  0.54367093369E+02  0.40000020954E+02 0.  0.
        -12    1    3    3    0    0 -0.20860724930E+02  0.13170303581E+02  0.27334089048E+02  0.36820906631E+02  0.00000000000E+00 0.  1.
         11    1    4    4    0    0  0.15526445732E+02 -0.71003236180E+01 -0.20227922661E+02  0.26469869059E+02  0.51100000000E-03 0. -1.
        -11    1    4    4    0    0  0.48432086367E+01 -0.11871000126E+02  0.55466234319E+01  0.13969335906E+02  0.51100000000E-03 0.  1.
        -12    1    4    4    0    0  0.49107056143E+00  0.58010201628E+01 -0.12652789818E+02  0.13927888405E+02  0.00000000000E+00 0.  1.
</event>
<event>
 8    1  0.3007389E-007  0.9118800E+02  0.7816164E-02  0.1184000E+00
        -11   -1    0    0    0    0  0.00000000000E+00  0.00000000000E+00  0.45593999997E+02  0.45594000000E+02  0.51100000000E-03 0.  1.
         11   -1    0    0    0    0 -0.00000000000E+00 -0.00000000000E+00 -0.45593999997E+02  0.45594000000E+02  0.51100000000E-03 0. -1.
         23    2    1    2    0    0  0.35527136788E-14  0.00000000000E+00  0.17763568394E-14  0.91188000000E+02  0.91188000000E+02 0.  0.
    9900012    2    3    3    0    0  0.30664288942E+02  0.15210418694E+02  0.13569237090E+02  0.54367086807E+02  0.40000005994E+02 0.  0.
         12    1    3    3    0    0 -0.30664288942E+02 -0.15210418694E+02 -0.13569237090E+02  0.36820913193E+02  0.00000000000E+00 0. -1.
         11    1    4    4    0    0  0.34203862587E+02  0.27819363828E+01  0.30986588564E+01  0.34456422810E+02  0.51100000000E-03 0.  1.
        -11    1    4    4    0    0 -0.49911774481E+01  0.78994659249E+01  0.11724120913E+02  0.14992278868E+02  0.51100000000E-03 0. -1.
        -12    1    4    4    0    0  0.14516038037E+01  0.45290163860E+01 -0.12535426799E+01  0.49183851291E+01  0.00000000000E+00 0.  1.
</event>
<event>
 8    1  0.3007389E-007  0.9118800E+02  0.7816164E-02  0.1184000E+00
        -11   -1    0    0    0    0  0.00000000000E+00  0.00000000000E+00  0.45593999997E+02  0.45594000000E+02  0.51100000000E-03 0.  1.
         11   -1    0    0    0    0 -0.00000000000E+00 -0.00000000000E+00 -0.45593999997E+02  0.45594000000E+02  0.51100000000E-03 0. -1.
         23    2    1    2    0    0  0.00000000000E+00 -0.22204460493E-15  0.71054273576E-14  0.91188000000E+02  0.91188000000E+02 0.  0.
    9900012    2    3    3    0    0 -0.98001688568E+01 -0.14158691613E+01 -0.35464654620E+02  0.54366950009E+02  0.39999694135E+02 0.  0.
        -12    1    3    3    0    0  0.98001688568E+01  0.14158691613E+01  0.35464654620E+02  0.36821049991E+02  0.00000000000E+00 0.  1.
         11    1    4    4    0    0  0.10999318460E+02 -0.82900197784E+00 -0.17660613810E+02  0.20822332513E+02  0.51100000000E-03 0. -1.
        -11    1    4    4    0    0  0.23732088732E+01 -0.30451590887E+01 -0.66971916800E+01  0.77302969471E+01  0.51100000000E-03 0.  1.
        -12    1    4    4    0    0 -0.23172696190E+02  0.24582919052E+01 -0.11106849131E+02  0.25814320550E+02  0.00000000000E+00 0.  1.
</event>
<event>
 8    1  0.3007389E-007  0.9118800E+02  0.7816164E-02  0.1184000E+00
        -11   -1    0    0    0    0  0.00000000000E+00  0.00000000000E+00  0.45593999997E+02  0.45594000000E+02  0.51100000000E-03 0.  1.
         11   -1    0    0    0    0 -0.00000000000E+00 -0.00000000000E+00 -0.45593999997E+02  0.45594000000E+02  0.51100000000E-03 0. -1.
         23    2    1    2    0    0  0.35527136788E-14  0.00000000000E+00 -0.35527136788E-14  0.91188000000E+02  0.91188000000E+02 0.  0.
    9900012    2    3    3    0    0 -0.26933849783E+02 -0.18718007015E+02 -0.16732714180E+02  0.54367085093E+02  0.40000002087E+02 0.  0.
        -12    1    3    3    0    0  0.26933849783E+02  0.18718007015E+02  0.16732714180E+02  0.36820914907E+02  0.00000000000E+00 0.  1.
         11    1    4    4    0    0 -0.12934677892E+02 -0.11570290613E+02  0.73549301824E+01  0.18848674099E+02  0.51100000000E-03 0. -1.
        -11    1    4    4    0    0 -0.10610075972E+02 -0.12838991974E+02 -0.23587910509E+02  0.28875646305E+02  0.51100000000E-03 0.  1.
        -12    1    4    4    0    0 -0.33890959185E+01  0.56912755729E+01 -0.49973385324E+00  0.66427646892E+01  0.00000000000E+00 0.  1.
</event>
<event>
 8    1  0.3007389E-007  0.9118800E+02  0.7816164E-02  0.1184000E+00
        -11   -1    0    0    0    0  0.00000000000E+00  0.00000000000E+00  0.45593999997E+02  0.45594000000E+02  0.51100000000E-03 0.  1.
         11   -1    0    0    0    0 -0.00000000000E+00 -0.00000000000E+00 -0.45593999997E+02  0.45594000000E+02  0.51100000000E-03 0. -1.
         23    2    1    2    0    0  0.00000000000E+00  0.88817841970E-15  0.71054273576E-14  0.91188000000E+02  0.91188000000E+02 0.  0.
    9900012    2    3    3    0    0  0.50360961351E+01  0.61487373672E+01  0.35952890876E+02  0.54367087493E+02  0.40000007558E+02 0.  0.
         12    1    3    3    0    0 -0.50360961351E+01 -0.61487373672E+01 -0.35952890876E+02  0.36820912507E+02  0.00000000000E+00 0. -1.
         11    1    4    4    0    0  0.18222378714E+01 -0.24059902252E+01 -0.66147594788E+01  0.72707897128E+01  0.51100000000E-03 0. -1.
        -11    1    4    4    0    0 -0.60756393239E+01  0.59801993725E+01  0.10043879095E+02  0.13174053486E+02  0.51100000000E-03 0.  1.
        -12    1    4    4    0    0  0.92894975875E+01  0.25745282200E+01  0.32523771260E+02  0.33922244294E+02  0.00000000000E+00 0.  1.
</event>
<event>
 8    1  0.3007389E-007  0.9118800E+02  0.7816164E-02  0.1184000E+00
        -11   -1    0    0    0    0  0.00000000000E+00  0.00000000000E+00  0.45593999997E+02  0.45594000000E+02  0.51100000000E-03 0.  1.
         11   -1    0    0    0    0 -0.00000000000E+00 -0.00000000000E+00 -0.45593999997E+02  0.45594000000E+02  0.51100000000E-03 0. -1.
         23    2    1    2    0    0  0.13322676296E-14 -0.44408920985E-15  0.00000000000E+00  0.91188000000E+02  0.91188000000E+02 0.  0.
    9900012    2    3    3    0    0 -0.33968191305E+01  0.16727643696E+01  0.36625718080E+02  0.54367085485E+02  0.40000002981E+02 0.  0.
         12    1    3    3    0    0  0.33968191305E+01 -0.16727643696E+01 -0.36625718080E+02  0.36820914515E+02  0.00000000000E+00 0. -1.
         11    1    4    4    0    0 -0.13568608488E+02  0.72574949795E+01  0.13462531334E+02  0.20445491431E+02  0.51100000000E-03 0. -1.
        -11    1    4    4    0    0 -0.53522909850E+01 -0.10745992297E+01 -0.25550279309E+00  0.54650767818E+01  0.51100000000E-03 0.  1.
        -12    1    4    4    0    0  0.15524080343E+02 -0.45101313802E+01  0.23418689539E+02  0.28456517273E+02  0.00000000000E+00 0.  1.
</event>
<event>
 8    1  0.3007389E-007  0.9118800E+02  0.7816164E-02  0.1184000E+00
        -11   -1    0    0    0    0  0.00000000000E+00  0.00000000000E+00  0.45593999997E+02  0.45594000000E+02  0.51100000000E-03 0. -1.
         11   -1    0    0    0    0 -0.00000000000E+00 -0.00000000000E+00 -0.45593999997E+02  0.45594000000E+02  0.51100000000E-03 0.  1.
         23    2    1    2    0    0  0.00000000000E+00  0.17763568394E-14 -0.71054273576E-14  0.91188000000E+02  0.91188000000E+02 0.  0.
    9900012    2    3    3    0    0  0.66348304938E+01 -0.69475655381E+01  0.35545615442E+02  0.54367076332E+02  0.39999982114E+02 0.  0.
        -12    1    3    3    0    0 -0.66348304938E+01  0.69475655381E+01 -0.35545615442E+02  0.36820923668E+02  0.00000000000E+00 0.  1.
         11    1    4    4    0    0 -0.49514568943E+01  0.87128940135E+01  0.55131976824E+01  0.11437954206E+02  0.51100000000E-03 0. -1.
        -11    1    4    4    0    0  0.45674195736E+01 -0.24156166470E+01  0.27184670672E+02  0.27671336165E+02  0.51100000000E-03 0.  1.
        -12    1    4    4    0    0  0.70188678145E+01 -0.13244842905E+02  0.28477470877E+01  0.15257785961E+02  0.00000000000E+00 0.  1.
</event>
<event>
 8    1  0.3007389E-007  0.9118800E+02  0.7816164E-02  0.1184000E+00
        -11   -1    0    0    0    0  0.00000000000E+00  0.00000000000E+00  0.45593999997E+02  0.45594000000E+02  0.51100000000E-03 0. -1.
         11   -1    0    0    0    0 -0.00000000000E+00 -0.00000000000E+00 -0.45593999997E+02  0.45594000000E+02  0.51100000000E-03 0.  1.
         23    2    1    2    0    0  0.00000000000E+00  0.00000000000E+00  0.16653345369E-15  0.91188000000E+02  0.91188000000E+02 0.  0.
    9900012    2    3    3    0    0  0.46285478799E+01 -0.36527112039E+02 -0.35623316214E+00  0.54367078346E+02  0.39999986705E+02 0.  0.
         12    1    3    3    0    0 -0.46285478799E+01  0.36527112039E+02  0.35623316214E+00  0.36820921654E+02  0.00000000000E+00 0. -1.
         11    1    4    4    0    0 -0.54530107600E+01 -0.59080801955E+00 -0.40620477889E+01  0.68252921523E+01  0.51100000000E-03 0. -1.
        -11    1    4    4    0    0  0.15092392981E+02 -0.13470569032E+02 -0.79566409056E+01  0.21738093079E+02  0.51100000000E-03 0.  1.
        -12    1    4    4    0    0 -0.50108343408E+01 -0.22465734987E+02  0.11662455532E+02  0.25803693115E+02  0.00000000000E+00 0.  1.
</event>
<event>
 8    1  0.3007389E-007  0.9118800E+02  0.7816164E-02  0.1184000E+00
        -11   -1    0    0    0    0  0.00000000000E+00  0.00000000000E+00  0.45593999997E+02  0.45594000000E+02  0.51100000000E-03 0. -1.
         11   -1    0    0    0    0 -0.00000000000E+00 -0.00000000000E+00 -0.45593999997E+02  0.45594000000E+02  0.51100000000E-03 0.  1.
         23    2    1    2    0    0  0.00000000000E+00  0.35527136788E-14  0.35527136788E-14  0.91188000000E+02  0.91188000000E+02 0.  0.
    9900012    2    3    3    0    0  0.20588448058E+02 -0.19713881949E+02 -0.23307886556E+02  0.54367096825E+02  0.40000028832E+02 0.  0.
         12    1    3    3    0    0 -0.20588448058E+02  0.19713881949E+02  0.23307886556E+02  0.36820903175E+02  0.00000000000E+00 0. -1.
         11    1    4    4    0    0 -0.71732969877E+00 -0.16995530517E+02 -0.28053064360E+01  0.17240428183E+02  0.51100000000E-03 0. -1.
        -11    1    4    4    0    0 -0.82317181073E+00  0.55800705587E+01 -0.95205875577E+01  0.11066001400E+02  0.51100000000E-03 0.  1.
        -12    1    4    4    0    0  0.22128949568E+02 -0.82984219902E+01 -0.10981992562E+02  0.26060667243E+02  0.00000000000E+00 0.  1.
</event>
<event>
 8    1  0.3007389E-007  0.9118800E+02  0.7816164E-02  0.1184000E+00
        -11   -1    0    0    0    0  0.00000000000E+00  0.00000000000E+00  0.45593999997E+02  0.45594000000E+02  0.51100000000E-03 0. -1.
         11   -1    0    0    0    0 -0.00000000000E+00 -0.00000000000E+00 -0.45593999997E+02  0.45594000000E+02  0.51100000000E-03 0.  1.
         23    2    1    2    0    0 -0.44408920985E-15 -0.35527136788E-14  0.00000000000E+00  0.91188000000E+02  0.91188000000E+02 0.  0.
    9900012    2    3    3    0    0 -0.18415071031E+01 -0.28886382012E+02 -0.22758854421E+02  0.54367086531E+02  0.40000005365E+02 0.  0.
        -12    1    3    3    0    0  0.18415071031E+01  0.28886382012E+02  0.22758854421E+02  0.36820913469E+02  0.00000000000E+00 0.  1.
         11    1    4    4    0    0  0.25575148328E+01 -0.14855547881E+02  0.27267641588E+01  0.15318728015E+02  0.51100000000E-03 0. -1.
        -11    1    4    4    0    0  0.98806172772E+01 -0.32058685441E+01 -0.15128809938E+02  0.18351705133E+02  0.51100000000E-03 0.  1.
        -12    1    4    4    0    0 -0.14279639213E+02 -0.10824965587E+02 -0.10356808642E+02  0.20696653383E+02  0.00000000000E+00 0.  1.
</event>
<event>
 8    1  0.3007389E-007  0.9118800E+02  0.7816164E-02  0.1184000E+00
        -11   -1    0    0    0    0  0.00000000000E+00  0.00000000000E+00  0.45593999997E+02  0.45594000000E+02  0.51100000000E-03 0.  1.
         11   -1    0    0    0    0 -0.00000000000E+00 -0.00000000000E+00 -0.45593999997E+02  0.45594000000E+02  0.51100000000E-03 0. -1.
         23    2    1    2    0    0  0.55511151231E-16  0.00000000000E+00  0.00000000000E+00  0.91188000000E+02  0.91188000000E+02 0.  0.
    9900012    2    3    3    0    0 -0.32074859596E+00  0.42603822046E+01 -0.36572202079E+02  0.54367086091E+02  0.40000004361E+02 0.  0.
        -12    1    3    3    0    0  0.32074859596E+00 -0.42603822046E+01  0.36572202079E+02  0.36820913909E+02  0.00000000000E+00 0.  1.
         11    1    4    4    0    0  0.94134352712E+01  0.65868256056E+01 -0.30974252666E+02  0.33036394531E+02  0.51100000000E-03 0. -1.
        -11    1    4    4    0    0  0.47550393073E+01  0.35855359030E+00 -0.44956623311E+01  0.65536203390E+01  0.51100000000E-03 0.  1.
        -12    1    4    4    0    0 -0.14489223174E+02 -0.26849969913E+01 -0.11022870825E+01  0.14777071220E+02  0.00000000000E+00 0.  1.
</event>
<event>
 8    1  0.3007389E-007  0.9118800E+02  0.7816164E-02  0.1184000E+00
        -11   -1    0    0    0    0  0.00000000000E+00  0.00000000000E+00  0.45593999997E+02  0.45594000000E+02  0.51100000000E-03 0. -1.
         11   -1    0    0    0    0 -0.00000000000E+00 -0.00000000000E+00 -0.45593999997E+02  0.45594000000E+02  0.51100000000E-03 0.  1.
         23    2    1    2    0    0  0.00000000000E+00  0.00000000000E+00  0.00000000000E+00  0.91188000000E+02  0.91188000000E+02 0.  0.
    9900012    2    3    3    0    0 -0.30354795730E+02 -0.16421640508E+02  0.12833397505E+02  0.54367082137E+02  0.39999995348E+02 0.  0.
         12    1    3    3    0    0  0.30354795730E+02  0.16421640508E+02 -0.12833397505E+02  0.36820917863E+02  0.00000000000E+00 0. -1.
         11    1    4    4    0    0 -0.80383386078E+01 -0.10587930145E+02 -0.55431093733E+01  0.14402958520E+02  0.51100000000E-03 0.  1.
        -11    1    4    4    0    0 -0.23624830851E+02  0.30239106524E+01  0.19705229401E+02  0.30912339517E+02  0.51100000000E-03 0. -1.
         12    1    4    4    0    0  0.13083737296E+01 -0.88576210149E+01 -0.13287225235E+01  0.90517841006E+01  0.00000000000E+00 0. -1.
</event>
<event>
 8    1  0.3007389E-007  0.9118800E+02  0.7816164E-02  0.1184000E+00
        -11   -1    0    0    0    0  0.00000000000E+00  0.00000000000E+00  0.45593999997E+02  0.45594000000E+02  0.51100000000E-03 0. -1.
         11   -1    0    0    0    0 -0.00000000000E+00 -0.00000000000E+00 -0.45593999997E+02  0.45594000000E+02  0.51100000000E-03 0.  1.
         23    2    1    2    0    0  0.00000000000E+00 -0.17763568394E-14 -0.35527136788E-14  0.91188000000E+02  0.91188000000E+02 0.  0.
    9900012    2    3    3    0    0  0.19121552439E+02  0.10472158767E+02  0.29672843207E+02  0.54367115968E+02  0.40000072473E+02 0.  0.
        -12    1    3    3    0    0 -0.19121552439E+02 -0.10472158767E+02 -0.29672843207E+02  0.36820884032E+02  0.00000000000E+00 0.  1.
         11    1    4    4    0    0  0.92716648227E+01  0.80266448840E+01  0.39364121397E+01  0.12879679246E+02  0.51100000000E-03 0. -1.
        -11    1    4    4    0    0  0.14044629300E+02 -0.72867199216E+01  0.26497886176E+02  0.30862369829E+02  0.51100000000E-03 0.  1.
        -12    1    4    4    0    0 -0.41947416837E+01  0.97322338043E+01 -0.76145510884E+00  0.10625066894E+02  0.00000000000E+00 0.  1.
</event>
<event>
 8    1  0.3007389E-007  0.9118800E+02  0.7816164E-02  0.1184000E+00
        -11   -1    0    0    0    0  0.00000000000E+00  0.00000000000E+00  0.45593999997E+02  0.45594000000E+02  0.51100000000E-03 0.  1.
         11   -1    0    0    0    0 -0.00000000000E+00 -0.00000000000E+00 -0.45593999997E+02  0.45594000000E+02  0.51100000000E-03 0. -1.
         23    2    1    2    0    0  0.88817841970E-15  0.00000000000E+00  0.00000000000E+00  0.91188000000E+02  0.91188000000E+02 0.  0.
    9900012    2    3    3    0    0  0.25048232748E+01 -0.22823514093E+02 -0.28785324518E+02  0.54367057009E+02  0.39999938063E+02 0.  0.
        -12    1    3    3    0    0 -0.25048232748E+01  0.22823514093E+02  0.28785324518E+02  0.36820942991E+02  0.00000000000E+00 0.  1.
         11    1    4    4    0    0  0.10126279311E+02 -0.26633960028E+02 -0.24152556689E+02  0.37353117063E+02  0.51100000000E-03 0. -1.
        -11    1    4    4    0    0  0.84738421931E+00  0.60792727621E+01 -0.54500395389E+01  0.82084437360E+01  0.51100000000E-03 0.  1.
         12    1    4    4    0    0 -0.84688402558E+01 -0.22688268270E+01  0.81727171040E+00  0.88054962097E+01  0.00000000000E+00 0. -1.
</event>
<event>
 8    1  0.3007389E-007  0.9118800E+02  0.7816164E-02  0.1184000E+00
        -11   -1    0    0    0    0  0.00000000000E+00  0.00000000000E+00  0.45593999997E+02  0.45594000000E+02  0.51100000000E-03 0. -1.
         11   -1    0    0    0    0 -0.00000000000E+00 -0.00000000000E+00 -0.45593999997E+02  0.45594000000E+02  0.51100000000E-03 0.  1.
         23    2    1    2    0    0  0.88817841970E-15  0.00000000000E+00  0.35527136788E-14  0.91188000000E+02  0.91188000000E+02 0.  0.
    9900012    2    3    3    0    0  0.48462472069E+01  0.25633014647E+02  0.25985437211E+02  0.54367075257E+02  0.39999979662E+02 0.  0.
        -12    1    3    3    0    0 -0.48462472069E+01 -0.25633014647E+02 -0.25985437211E+02  0.36820924743E+02  0.00000000000E+00 0.  1.
         11    1    4    4    0    0  0.46959729702E+01  0.14374137054E+02 -0.84790454645E+01  0.17336729519E+02  0.51100000000E-03 0. -1.
        -11    1    4    4    0    0 -0.90261758264E+00  0.15188508721E-01  0.10495853153E+02  0.10534604068E+02  0.51100000000E-03 0.  1.
        -12    1    4    4    0    0  0.10528918194E+01  0.11243689085E+02  0.23968629523E+02  0.26495741669E+02  0.00000000000E+00 0.  1.
</event>
<event>
 8    1  0.3007389E-007  0.9118800E+02  0.7816164E-02  0.1184000E+00
        -11   -1    0    0    0    0  0.00000000000E+00  0.00000000000E+00  0.45593999997E+02  0.45594000000E+02  0.51100000000E-03 0.  1.
         11   -1    0    0    0    0 -0.00000000000E+00 -0.00000000000E+00 -0.45593999997E+02  0.45594000000E+02  0.51100000000E-03 0. -1.
         23    2    1    2    0    0  0.00000000000E+00  0.00000000000E+00 -0.66613381478E-15  0.91188000000E+02  0.91188000000E+02 0.  0.
    9900012    2    3    3    0    0  0.36485778734E+02 -0.48476753453E+01 -0.10334624750E+01  0.54367081343E+02  0.39999993538E+02 0.  0.
        -12    1    3    3    0    0 -0.36485778734E+02  0.48476753453E+01  0.10334624750E+01  0.36820918657E+02  0.00000000000E+00 0.  1.
         11    1    4    4    0    0  0.25710645343E+02 -0.11730163941E+02  0.67092104749E+01  0.29045611295E+02  0.51100000000E-03 0.  1.
        -11    1    4    4    0    0  0.11089377431E+02  0.82262835236E+01  0.32971888126E+01  0.14195685498E+02  0.51100000000E-03 0. -1.
         12    1    4    4    0    0 -0.31424404053E+00 -0.13437949275E+01 -0.11039861762E+02  0.11125784550E+02  0.00000000000E+00 0. -1.
</event>
<event>
 8    1  0.3007389E-007  0.9118800E+02  0.7816164E-02  0.1184000E+00
        -11   -1    0    0    0    0  0.00000000000E+00  0.00000000000E+00  0.45593999997E+02  0.45594000000E+02  0.51100000000E-03 0.  1.
         11   -1    0    0    0    0 -0.00000000000E+00 -0.00000000000E+00 -0.45593999997E+02  0.45594000000E+02  0.51100000000E-03 0. -1.
         23    2    1    2    0    0  0.35527136788E-14  0.88817841970E-15  0.35527136788E-14  0.91188000000E+02  0.91188000000E+02 0.  0.
    9900012    2    3    3    0    0  0.22696195268E+02  0.29442668843E+01 -0.28844323173E+02  0.54367068909E+02  0.39999965192E+02 0.  0.
        -12    1    3    3    0    0 -0.22696195268E+02 -0.29442668843E+01  0.28844323173E+02  0.36820931091E+02  0.00000000000E+00 0.  1.
         11    1    4    4    0    0  0.82293156941E+01 -0.74874512450E+01 -0.55476020312E+01  0.12432194155E+02  0.51100000000E-03 0. -1.
        -11    1    4    4    0    0  0.55602792381E+01 -0.11018748831E+00  0.68239340219E+01  0.88031200312E+01  0.51100000000E-03 0.  1.
         12    1    4    4    0    0  0.89066003354E+01  0.10541905618E+02 -0.30120655163E+02  0.33131754723E+02  0.00000000000E+00 0. -1.
</event>
<event>
 8    1  0.3007389E-007  0.9118800E+02  0.7816164E-02  0.1184000E+00
        -11   -1    0    0    0    0  0.00000000000E+00  0.00000000000E+00  0.45593999997E+02  0.45594000000E+02  0.51100000000E-03 0.  1.
         11   -1    0    0    0    0 -0.00000000000E+00 -0.00000000000E+00 -0.45593999997E+02  0.45594000000E+02  0.51100000000E-03 0. -1.
         23    2    1    2    0    0  0.00000000000E+00 -0.35527136788E-14  0.00000000000E+00  0.91188000000E+02  0.91188000000E+02 0.  0.
    9900012    2    3    3    0    0  0.31252549170E+02 -0.17558889193E+02  0.84109948241E+01  0.54367065014E+02  0.39999956313E+02 0.  0.
         12    1    3    3    0    0 -0.31252549170E+02  0.17558889193E+02 -0.84109948241E+01  0.36820934986E+02  0.00000000000E+00 0. -1.
         11    1    4    4    0    0  0.12032565629E+02  0.53798958880E+00  0.49019332444E+01  0.13003884735E+02  0.51100000000E-03 0. -1.
        -11    1    4    4    0    0  0.22976714014E+01 -0.12638611592E+02 -0.12141500845E+02  0.17675684990E+02  0.51100000000E-03 0.  1.
         12    1    4    4    0    0  0.16922312140E+02 -0.54582671894E+01  0.15650562424E+02  0.23687495289E+02  0.00000000000E+00 0. -1.
</event>
<event>
 8    1  0.3007389E-007  0.9118800E+02  0.7816164E-02  0.1184000E+00
        -11   -1    0    0    0    0  0.00000000000E+00  0.00000000000E+00  0.45593999997E+02  0.45594000000E+02  0.51100000000E-03 0. -1.
         11   -1    0    0    0    0 -0.00000000000E+00 -0.00000000000E+00 -0.45593999997E+02  0.45594000000E+02  0.51100000000E-03 0.  1.
         23    2    1    2    0    0 -0.35527136788E-14 -0.13322676296E-14  0.00000000000E+00  0.91188000000E+02  0.91188000000E+02 0.  0.
    9900012    2    3    3    0    0  0.29863107314E+02  0.28936082937E+01 -0.21344918610E+02  0.54367031817E+02  0.39999880634E+02 0.  0.
         12    1    3    3    0    0 -0.29863107314E+02 -0.28936082937E+01  0.21344918610E+02  0.36820968183E+02  0.00000000000E+00 0. -1.
         11    1    4    4    0    0  0.29758779354E+01 -0.48274055603E+00  0.51233301267E+01  0.59445268760E+01  0.51100000000E-03 0. -1.
        -11    1    4    4    0    0  0.85001060494E+01  0.12966795737E+02 -0.22474140286E+02  0.27303416937E+02  0.51100000000E-03 0.  1.
         12    1    4    4    0    0  0.18387123330E+02 -0.95904468877E+01 -0.39941084506E+01  0.21119088005E+02  0.00000000000E+00 0. -1.
</event>
<event>
 8    1  0.3007389E-007  0.9118800E+02  0.7816164E-02  0.1184000E+00
        -11   -1    0    0    0    0  0.00000000000E+00  0.00000000000E+00  0.45593999997E+02  0.45594000000E+02  0.51100000000E-03 0.  1.
         11   -1    0    0    0    0 -0.00000000000E+00 -0.00000000000E+00 -0.45593999997E+02  0.45594000000E+02  0.51100000000E-03 0. -1.
         23    2    1    2    0    0  0.00000000000E+00  0.00000000000E+00  0.35527136788E-14  0.91188000000E+02  0.91188000000E+02 0.  0.
    9900012    2    3    3    0    0 -0.62166242034E+01 -0.18637640242E+02 -0.31141169587E+02  0.54367075331E+02  0.39999979832E+02 0.  0.
        -12    1    3    3    0    0  0.62166242034E+01  0.18637640242E+02  0.31141169587E+02  0.36820924669E+02  0.00000000000E+00 0.  1.
         11    1    4    4    0    0  0.66543950430E+01  0.13721924600E+01  0.66738460431E+01  0.95238703689E+01  0.51100000000E-03 0.  1.
        -11    1    4    4    0    0 -0.10115054546E+02 -0.18044219354E+02 -0.31662422981E+02  0.37820856810E+02  0.51100000000E-03 0. -1.
        -12    1    4    4    0    0 -0.27559647009E+01 -0.19656133479E+01 -0.61525926493E+01  0.70223481524E+01  0.00000000000E+00 0.  1.
</event>
<event>
 8    1  0.3007389E-007  0.9118800E+02  0.7816164E-02  0.1184000E+00
        -11   -1    0    0    0    0  0.00000000000E+00  0.00000000000E+00  0.45593999997E+02  0.45594000000E+02  0.51100000000E-03 0. -1.
         11   -1    0    0    0    0 -0.00000000000E+00 -0.00000000000E+00 -0.45593999997E+02  0.45594000000E+02  0.51100000000E-03 0.  1.
         23    2    1    2    0    0  0.00000000000E+00 -0.35527136788E-14  0.35527136788E-14  0.91188000000E+02  0.91188000000E+02 0.  0.
    9900012    2    3    3    0    0  0.19965327525E+02 -0.21736953712E+02  0.22015220713E+02  0.54367090140E+02  0.40000013593E+02 0.  0.
        -12    1    3    3    0    0 -0.19965327525E+02  0.21736953712E+02 -0.22015220713E+02  0.36820909860E+02  0.00000000000E+00 0.  1.
         11    1    4    4    0    0  0.76470522646E+00 -0.10757439022E+02 -0.60855358787E+01  0.12383093943E+02  0.51100000000E-03 0. -1.
        -11    1    4    4    0    0  0.87089274995E+01  0.64180523521E+01  0.11002888576E+02  0.15430501335E+02  0.51100000000E-03 0.  1.
         12    1    4    4    0    0  0.10491694799E+02 -0.17397567042E+02  0.17097868016E+02  0.26553494862E+02  0.00000000000E+00 0. -1.
</event>
<event>
 8    1  0.3007389E-007  0.9118800E+02  0.7816164E-02  0.1184000E+00
        -11   -1    0    0    0    0  0.00000000000E+00  0.00000000000E+00  0.45593999997E+02  0.45594000000E+02  0.51100000000E-03 0. -1.
         11   -1    0    0    0    0 -0.00000000000E+00 -0.00000000000E+00 -0.45593999997E+02  0.45594000000E+02  0.51100000000E-03 0.  1.
         23    2    1    2    0    0  0.25535129566E-14  0.00000000000E+00  0.00000000000E+00  0.91188000000E+02  0.91188000000E+02 0.  0.
    9900012    2    3    3    0    0  0.76510032573E+00 -0.31780669052E+02 -0.18579108723E+02  0.54367087670E+02  0.40000007960E+02 0.  0.
        -12    1    3    3    0    0 -0.76510032573E+00  0.31780669052E+02  0.18579108723E+02  0.36820912330E+02  0.00000000000E+00 0.  1.
         11    1    4    4    0    0 -0.16807301191E+01  0.18070357140E+01  0.49911568634E+01  0.55679330906E+01  0.51100000000E-03 0. -1.
        -11    1    4    4    0    0  0.10009536384E+02 -0.16585987958E+02 -0.23149870751E+02  0.30186128125E+02  0.51100000000E-03 0.  1.
        -12    1    4    4    0    0 -0.75637059387E+01 -0.17001716808E+02 -0.42039483553E+00  0.18613026454E+02  0.00000000000E+00 0.  1.
</event>
<event>
 8    1  0.3007389E-007  0.9118800E+02  0.7816164E-02  0.1184000E+00
        -11   -1    0    0    0    0  0.00000000000E+00  0.00000000000E+00  0.45593999997E+02  0.45594000000E+02  0.51100000000E-03 0.  1.
         11   -1    0    0    0    0 -0.00000000000E+00 -0.00000000000E+00 -0.45593999997E+02  0.45594000000E+02  0.51100000000E-03 0. -1.
         23    2    1    2    0    0 -0.22204460493E-15  0.00000000000E+00  0.00000000000E+00  0.91188000000E+02  0.91188000000E+02 0.  0.
    9900012    2    3    3    0    0  0.16626461803E+01 -0.33113918043E+02 -0.16015123473E+02  0.54367080127E+02  0.39999990766E+02 0.  0.
        -12    1    3    3    0    0 -0.16626461803E+01  0.33113918043E+02  0.16015123473E+02  0.36820919873E+02  0.00000000000E+00 0.  1.
         11    1    4    4    0    0  0.16455391647E+02 -0.16540423745E+02 -0.62810393681E+01  0.24162305100E+02  0.51100000000E-03 0. -1.
        -11    1    4    4    0    0 -0.65153429975E+01 -0.41930728921E+01  0.50272464676E+01  0.92360577067E+01  0.51100000000E-03 0.  1.
         12    1    4    4    0    0 -0.82774024693E+01 -0.12380421406E+02 -0.14761330572E+02  0.20968717321E+02  0.00000000000E+00 0. -1.
</event>
<event>
 8    1  0.3007389E-007  0.9118800E+02  0.7816164E-02  0.1184000E+00
        -11   -1    0    0    0    0  0.00000000000E+00  0.00000000000E+00  0.45593999997E+02  0.45594000000E+02  0.51100000000E-03 0.  1.
         11   -1    0    0    0    0 -0.00000000000E+00 -0.00000000000E+00 -0.45593999997E+02  0.45594000000E+02  0.51100000000E-03 0. -1.
         23    2    1    2    0    0  0.00000000000E+00  0.00000000000E+00  0.00000000000E+00  0.91188000000E+02  0.91188000000E+02 0.  0.
    9900012    2    3    3    0    0 -0.28899747788E+02 -0.69608772951E+01  0.21728623585E+02  0.54367050558E+02  0.39999923357E+02 0.  0.
         12    1    3    3    0    0  0.28899747788E+02  0.69608772951E+01 -0.21728623585E+02  0.36820949442E+02  0.00000000000E+00 0. -1.
         11    1    4    4    0    0 -0.73640453577E+01  0.10561931647E+02 -0.17127918303E+01  0.12989119303E+02  0.51100000000E-03 0. -1.
        -11    1    4    4    0    0 -0.17622186950E+01 -0.11788735308E+02  0.28417701925E+01  0.12253789332E+02  0.51100000000E-03 0.  1.
        -12    1    4    4    0    0 -0.19773483735E+02 -0.57340736334E+01  0.20599645223E+02  0.29124141923E+02  0.00000000000E+00 0.  1.
</event>
<event>
 8    1  0.3007389E-007  0.9118800E+02  0.7816164E-02  0.1184000E+00
        -11   -1    0    0    0    0  0.00000000000E+00  0.00000000000E+00  0.45593999997E+02  0.45594000000E+02  0.51100000000E-03 0.  1.
         11   -1    0    0    0    0 -0.00000000000E+00 -0.00000000000E+00 -0.45593999997E+02  0.45594000000E+02  0.51100000000E-03 0. -1.
         23    2    1    2    0    0 -0.17763568394E-14 -0.35527136788E-14  0.00000000000E+00  0.91188000000E+02  0.91188000000E+02 0.  0.
    9900012    2    3    3    0    0  0.12365041096E+02  0.27838095793E+02  0.20686374256E+02  0.54367083409E+02  0.39999998248E+02 0.  0.
         12    1    3    3    0    0 -0.12365041096E+02 -0.27838095793E+02 -0.20686374256E+02  0.36820916591E+02  0.00000000000E+00 0. -1.
         11    1    4    4    0    0  0.10336854543E+02  0.10813746458E+02  0.78583034354E+01  0.16897946841E+02  0.51100000000E-03 0. -1.
        -11    1    4    4    0    0  0.27383978859E+01  0.25436147549E+02  0.13633428263E+02  0.28989080558E+02  0.51100000000E-03 0.  1.
         12    1    4    4    0    0 -0.71021133212E+00 -0.84117982143E+01 -0.80535744203E+00  0.84800560106E+01  0.00000000000E+00 0. -1.
</event>
<event>
 8    1  0.3007389E-007  0.9118800E+02  0.7816164E-02  0.1184000E+00
        -11   -1    0    0    0    0  0.00000000000E+00  0.00000000000E+00  0.45593999997E+02  0.45594000000E+02  0.51100000000E-03 0.  1.
         11   -1    0    0    0    0 -0.00000000000E+00 -0.00000000000E+00 -0.45593999997E+02  0.45594000000E+02  0.51100000000E-03 0. -1.
         23    2    1    2    0    0 -0.35527136788E-14  0.00000000000E+00 -0.35527136788E-14  0.91188000000E+02  0.91188000000E+02 0.  0.
    9900012    2    3    3    0    0 -0.18703760521E+02  0.87048252277E+01  0.30498779104E+02  0.54367079768E+02  0.39999989948E+02 0.  0.
         12    1    3    3    0    0  0.18703760521E+02 -0.87048252277E+01 -0.30498779104E+02  0.36820920232E+02  0.00000000000E+00 0. -1.
         11    1    4    4    0    0 -0.27313523774E+00 -0.77045194592E+01  0.82010406078E+00  0.77528571434E+01  0.51100000000E-03 0. -1.
        -11    1    4    4    0    0 -0.13985862073E+02 -0.16888798079E-01  0.20073956807E+01  0.14129198874E+02  0.51100000000E-03 0.  1.
         12    1    4    4    0    0 -0.44447632099E+01  0.16426233485E+02  0.27671279363E+02  0.32485023750E+02  0.00000000000E+00 0. -1.
</event>
<event>
 8    1  0.3007389E-007  0.9118800E+02  0.7816164E-02  0.1184000E+00
        -11   -1    0    0    0    0  0.00000000000E+00  0.00000000000E+00  0.45593999997E+02  0.45594000000E+02  0.51100000000E-03 0. -1.
         11   -1    0    0    0    0 -0.00000000000E+00 -0.00000000000E+00 -0.45593999997E+02  0.45594000000E+02  0.51100000000E-03 0.  1.
         23    2    1    2    0    0  0.00000000000E+00  0.35527136788E-14  0.88817841970E-15  0.91188000000E+02  0.91188000000E+02 0.  0.
    9900012    2    3    3    0    0 -0.18336880560E+02  0.31693433077E+02  0.38813231689E+01  0.54367088029E+02  0.40000008779E+02 0.  0.
        -12    1    3    3    0    0  0.18336880560E+02 -0.31693433077E+02 -0.38813231689E+01  0.36820911971E+02  0.00000000000E+00 0.  1.
         11    1    4    4    0    0 -0.16947423325E+01 -0.62292533902E+00  0.94710327743E+01  0.96416103233E+01  0.51100000000E-03 0. -1.
        -11    1    4    4    0    0 -0.13260687777E+02  0.33979748031E+02  0.17044225011E+01  0.36515396381E+02  0.51100000000E-03 0.  1.
        -12    1    4    4    0    0 -0.33814504504E+01 -0.16633896150E+01 -0.72941321065E+01  0.82100813240E+01  0.00000000000E+00 0.  1.
</event>
<event>
 8    1  0.3007389E-007  0.9118800E+02  0.7816164E-02  0.1184000E+00
        -11   -1    0    0    0    0  0.00000000000E+00  0.00000000000E+00  0.45593999997E+02  0.45594000000E+02  0.51100000000E-03 0. -1.
         11   -1    0    0    0    0 -0.00000000000E+00 -0.00000000000E+00 -0.45593999997E+02  0.45594000000E+02  0.51100000000E-03 0.  1.
         23    2    1    2    0    0  0.00000000000E+00  0.88817841970E-15  0.00000000000E+00  0.91188000000E+02  0.91188000000E+02 0.  0.
    9900012    2    3    3    0    0  0.78945534375E+01  0.61003646968E+01 -0.35443499997E+02  0.54367080464E+02  0.39999991534E+02 0.  0.
         12    1    3    3    0    0 -0.78945534375E+01 -0.61003646968E+01  0.35443499997E+02  0.36820919536E+02  0.00000000000E+00 0. -1.
         11    1    4    4    0    0 -0.97907828293E-01  0.10358609808E+02 -0.16100535714E+02  0.19145172594E+02  0.51100000000E-03 0.  1.
        -11    1    4    4    0    0 -0.92961107248E+01 -0.73768203088E+01 -0.78678994550E+01  0.14238644408E+02  0.51100000000E-03 0. -1.
         12    1    4    4    0    0  0.17288571991E+02  0.31185751975E+01 -0.11475064828E+02  0.20983263463E+02  0.00000000000E+00 0. -1.
</event>
<event>
 8    1  0.3007389E-007  0.9118800E+02  0.7816164E-02  0.1184000E+00
        -11   -1    0    0    0    0  0.00000000000E+00  0.00000000000E+00  0.45593999997E+02  0.45594000000E+02  0.51100000000E-03 0.  1.
         11   -1    0    0    0    0 -0.00000000000E+00 -0.00000000000E+00 -0.45593999997E+02  0.45594000000E+02  0.51100000000E-03 0. -1.
         23    2    1    2    0    0 -0.35527136788E-14 -0.88817841970E-15  0.00000000000E+00  0.91188000000E+02  0.91188000000E+02 0.  0.
    9900012    2    3    3    0    0  0.16748456660E+02 -0.47370820215E+01  0.32447317105E+02  0.54367093793E+02  0.40000021920E+02 0.  0.
         12    1    3    3    0    0 -0.16748456660E+02  0.47370820215E+01 -0.32447317105E+02  0.36820906207E+02  0.00000000000E+00 0. -1.
         11    1    4    4    0    0  0.32330747491E+01  0.83518461072E+00 -0.27342927115E+01  0.43158617402E+01  0.51100000000E-03 0. -1.
        -11    1    4    4    0    0 -0.67946682656E+01 -0.56267117207E+01 -0.66894284944E+00  0.88473095585E+01  0.51100000000E-03 0.  1.
        -12    1    4    4    0    0  0.20310050177E+02  0.54445088557E-01  0.35850552666E+02  0.41203922494E+02  0.00000000000E+00 0.  1.
</event>
<event>
 8    1  0.3007389E-007  0.9118800E+02  0.7816164E-02  0.1184000E+00
        -11   -1    0    0    0    0  0.00000000000E+00  0.00000000000E+00  0.45593999997E+02  0.45594000000E+02  0.51100000000E-03 0. -1.
         11   -1    0    0    0    0 -0.00000000000E+00 -0.00000000000E+00 -0.45593999997E+02  0.45594000000E+02  0.51100000000E-03 0.  1.
         23    2    1    2    0    0  0.17763568394E-14  0.00000000000E+00  0.00000000000E+00  0.91188000000E+02  0.91188000000E+02 0.  0.
    9900012    2    3    3    0    0  0.11504828302E+02  0.34095072920E+02  0.78066429342E+01  0.54367099066E+02  0.40000033941E+02 0.  0.
        -12    1    3    3    0    0 -0.11504828302E+02 -0.34095072920E+02 -0.78066429342E+01  0.36820900934E+02  0.00000000000E+00 0.  1.
         11    1    4    4    0    0 -0.64334863961E+01  0.10975189915E+02  0.47218518412E+01  0.13569835148E+02  0.51100000000E-03 0. -1.
        -11    1    4    4    0    0 -0.71156641896E+01  0.87054131590E+01  0.38444832000E+01  0.11882632135E+02  0.51100000000E-03 0.  1.
        -12    1    4    4    0    0  0.25053978888E+02  0.14414469846E+02 -0.75969210698E+00  0.28914631783E+02  0.00000000000E+00 0.  1.
</event>
<event>
 8    1  0.3007389E-007  0.9118800E+02  0.7816164E-02  0.1184000E+00
        -11   -1    0    0    0    0  0.00000000000E+00  0.00000000000E+00  0.45593999997E+02  0.45594000000E+02  0.51100000000E-03 0. -1.
         11   -1    0    0    0    0 -0.00000000000E+00 -0.00000000000E+00 -0.45593999997E+02  0.45594000000E+02  0.51100000000E-03 0.  1.
         23    2    1    2    0    0 -0.22204460493E-15  0.00000000000E+00  0.00000000000E+00  0.91188000000E+02  0.91188000000E+02 0.  0.
    9900012    2    3    3    0    0  0.16037016441E+01 -0.12721053386E+02 -0.34516393519E+02  0.54367102675E+02  0.40000042169E+02 0.  0.
         12    1    3    3    0    0 -0.16037016441E+01  0.12721053386E+02  0.34516393519E+02  0.36820897325E+02  0.00000000000E+00 0. -1.
         11    1    4    4    0    0 -0.52836816770E+01 -0.18222845397E+01  0.89586498720E-01  0.55898156508E+01  0.51100000000E-03 0. -1.
        -11    1    4    4    0    0  0.63889132247E+01 -0.31692120822E+01  0.48134084410E+01  0.86041279916E+01  0.51100000000E-03 0.  1.
        -12    1    4    4    0    0  0.49847009646E+00 -0.77295567640E+01 -0.39419388459E+02  0.40173159033E+02  0.00000000000E+00 0.  1.
</event>
<event>
 8    1  0.3007389E-007  0.9118800E+02  0.7816164E-02  0.1184000E+00
        -11   -1    0    0    0    0  0.00000000000E+00  0.00000000000E+00  0.45593999997E+02  0.45594000000E+02  0.51100000000E-03 0.  1.
         11   -1    0    0    0    0 -0.00000000000E+00 -0.00000000000E+00 -0.45593999997E+02  0.45594000000E+02  0.51100000000E-03 0. -1.
         23    2    1    2    0    0  0.00000000000E+00 -0.44408920985E-15  0.71054273576E-14  0.91188000000E+02  0.91188000000E+02 0.  0.
    9900012    2    3    3    0    0  0.21824514492E+02 -0.39148884303E+01  0.29396349993E+02  0.54367066047E+02  0.39999958667E+02 0.  0.
         12    1    3    3    0    0 -0.21824514492E+02  0.39148884303E+01 -0.29396349993E+02  0.36820933953E+02  0.00000000000E+00 0. -1.
         11    1    4    4    0    0  0.32685876030E+02 -0.19712553207E+01  0.15028252132E+02  0.36029164600E+02  0.51100000000E-03 0. -1.
        -11    1    4    4    0    0 -0.10057622167E+02 -0.25007060890E+01  0.13574210440E+02  0.17078304480E+02  0.51100000000E-03 0.  1.
         12    1    4    4    0    0 -0.80373937009E+00  0.55707297947E+00  0.79388742171E+00  0.12595969664E+01  0.00000000000E+00 0. -1.
</event>
<event>
 8    1  0.3007389E-007  0.9118800E+02  0.7816164E-02  0.1184000E+00
        -11   -1    0    0    0    0  0.00000000000E+00  0.00000000000E+00  0.45593999997E+02  0.45594000000E+02  0.51100000000E-03 0. -1.
         11   -1    0    0    0    0 -0.00000000000E+00 -0.00000000000E+00 -0.45593999997E+02  0.45594000000E+02  0.51100000000E-03 0.  1.
         23    2    1    2    0    0 -0.35527136788E-14  0.35527136788E-14  0.00000000000E+00  0.91188000000E+02  0.91188000000E+02 0.  0.
    9900012    2    3    3    0    0 -0.24488950850E+02  0.18361745847E+02  0.20467433772E+02  0.54367105532E+02  0.40000048680E+02 0.  0.
        -12    1    3    3    0    0  0.24488950850E+02 -0.18361745847E+02 -0.20467433772E+02  0.36820894468E+02  0.00000000000E+00 0.  1.
         11    1    4    4    0    0 -0.30737661885E+01 -0.29099544980E+01 -0.45774173451E+01  0.62344705930E+01  0.51100000000E-03 0. -1.
        -11    1    4    4    0    0  0.57060444502E+01  0.36329757099E+01  0.10888249315E+02  0.12818401974E+02  0.51100000000E-03 0.  1.
         12    1    4    4    0    0 -0.27121229111E+02  0.17638724635E+02  0.14156601802E+02  0.35314232964E+02  0.00000000000E+00 0. -1.
</event>
<event>
 8    1  0.3007389E-007  0.9118800E+02  0.7816164E-02  0.1184000E+00
        -11   -1    0    0    0    0  0.00000000000E+00  0.00000000000E+00  0.45593999997E+02  0.45594000000E+02  0.51100000000E-03 0.  1.
         11   -1    0    0    0    0 -0.00000000000E+00 -0.00000000000E+00 -0.45593999997E+02  0.45594000000E+02  0.51100000000E-03 0. -1.
         23    2    1    2    0    0 -0.17763568394E-14 -0.35527136788E-14  0.00000000000E+00  0.91188000000E+02  0.91188000000E+02 0.  0.
    9900012    2    3    3    0    0 -0.14359727617E+02  0.25152968158E+02 -0.22735620603E+02  0.54367054486E+02  0.39999932311E+02 0.  0.
        -12    1    3    3    0    0  0.14359727617E+02 -0.25152968158E+02  0.22735620603E+02  0.36820945514E+02  0.00000000000E+00 0.  1.
         11    1    4    4    0    0 -0.26214299613E+01  0.21673671066E+02 -0.16967321538E+02  0.27649772385E+02  0.51100000000E-03 0. -1.
        -11    1    4    4    0    0  0.59940028528E+01 -0.17903834805E+01  0.21223966209E+01  0.66059148408E+01  0.51100000000E-03 0.  1.
         12    1    4    4    0    0 -0.17732300508E+02  0.52696805726E+01 -0.78906956851E+01  0.20111367260E+02  0.00000000000E+00 0. -1.
</event>
<event>
 8    1  0.3007389E-007  0.9118800E+02  0.7816164E-02  0.1184000E+00
        -11   -1    0    0    0    0  0.00000000000E+00  0.00000000000E+00  0.45593999997E+02  0.45594000000E+02  0.51100000000E-03 0. -1.
         11   -1    0    0    0    0 -0.00000000000E+00 -0.00000000000E+00 -0.45593999997E+02  0.45594000000E+02  0.51100000000E-03 0.  1.
         23    2    1    2    0    0 -0.88817841970E-15  0.00000000000E+00  0.35527136788E-14  0.91188000000E+02  0.91188000000E+02 0.  0.
    9900012    2    3    3    0    0  0.65908750469E+01 -0.29171342042E+02  0.21479594962E+02  0.54367084339E+02  0.40000000367E+02 0.  0.
        -12    1    3    3    0    0 -0.65908750469E+01  0.29171342042E+02 -0.21479594962E+02  0.36820915661E+02  0.00000000000E+00 0.  1.
         11    1    4    4    0    0  0.71624860201E+01 -0.51388582328E+00 -0.82106964739E+01  0.10907833033E+02  0.51100000000E-03 0.  1.
        -11    1    4    4    0    0  0.32278597406E+01 -0.24698222002E+02  0.18603443900E+02  0.31088733872E+02  0.51100000000E-03 0. -1.
        -12    1    4    4    0    0 -0.37994707138E+01 -0.39592342160E+01  0.11086847536E+02  0.12370517433E+02  0.00000000000E+00 0.  1.
</event>
<event>
 8    1  0.3007389E-007  0.9118800E+02  0.7816164E-02  0.1184000E+00
        -11   -1    0    0    0    0  0.00000000000E+00  0.00000000000E+00  0.45593999997E+02  0.45594000000E+02  0.51100000000E-03 0.  1.
         11   -1    0    0    0    0 -0.00000000000E+00 -0.00000000000E+00 -0.45593999997E+02  0.45594000000E+02  0.51100000000E-03 0. -1.
         23    2    1    2    0    0 -0.35527136788E-14  0.71054273576E-14  0.00000000000E+00  0.91188000000E+02  0.91188000000E+02 0.  0.
    9900012    2    3    3    0    0 -0.18009934150E+02  0.30300676953E+02 -0.10643835818E+02  0.54367082130E+02  0.39999995331E+02 0.  0.
        -12    1    3    3    0    0  0.18009934150E+02 -0.30300676953E+02  0.10643835818E+02  0.36820917870E+02  0.00000000000E+00 0.  1.
         11    1    4    4    0    0 -0.81463081893E+01  0.22640552211E+02 -0.75418025458E+01  0.25215783300E+02  0.51100000000E-03 0. -1.
        -11    1    4    4    0    0 -0.72805958106E+01  0.15099368695E+02 -0.92635904537E+01  0.19152339771E+02  0.51100000000E-03 0.  1.
        -12    1    4    4    0    0 -0.25830301500E+01 -0.74392439534E+01  0.61615571812E+01  0.99989590584E+01  0.00000000000E+00 0.  1.
</event>
<event>
 8    1  0.3007389E-007  0.9118800E+02  0.7816164E-02  0.1184000E+00
        -11   -1    0    0    0    0  0.00000000000E+00  0.00000000000E+00  0.45593999997E+02  0.45594000000E+02  0.51100000000E-03 0.  1.
         11   -1    0    0    0    0 -0.00000000000E+00 -0.00000000000E+00 -0.45593999997E+02  0.45594000000E+02  0.51100000000E-03 0. -1.
         23    2    1    2    0    0  0.00000000000E+00  0.17763568394E-14  0.00000000000E+00  0.91188000000E+02  0.91188000000E+02 0.  0.
    9900012    2    3    3    0    0 -0.55720433083E+01 -0.14127642764E+02  0.33543135503E+02  0.54367083443E+02  0.39999998326E+02 0.  0.
         12    1    3    3    0    0  0.55720433083E+01  0.14127642764E+02 -0.33543135503E+02  0.36820916557E+02  0.00000000000E+00 0. -1.
         11    1    4    4    0    0 -0.26016323220E+01 -0.42741415199E+00  0.26595089639E+02  0.26725455408E+02  0.51100000000E-03 0. -1.
        -11    1    4    4    0    0 -0.56806020732E+01 -0.16319729437E+02  0.12217461440E+02  0.21162919768E+02  0.51100000000E-03 0.  1.
         12    1    4    4    0    0  0.27101910869E+01  0.26195008250E+01 -0.52694155761E+01  0.64787082674E+01  0.00000000000E+00 0. -1.
</event>
<event>
 8    1  0.3007389E-007  0.9118800E+02  0.7816164E-02  0.1184000E+00
        -11   -1    0    0    0    0  0.00000000000E+00  0.00000000000E+00  0.45593999997E+02  0.45594000000E+02  0.51100000000E-03 0.  1.
         11   -1    0    0    0    0 -0.00000000000E+00 -0.00000000000E+00 -0.45593999997E+02  0.45594000000E+02  0.51100000000E-03 0. -1.
         23    2    1    2    0    0  0.00000000000E+00 -0.88817841970E-15  0.00000000000E+00  0.91188000000E+02  0.91188000000E+02 0.  0.
    9900012    2    3    3    0    0 -0.32558075450E+02  0.33924655961E+01 -0.16859523197E+02  0.54367073583E+02  0.39999975846E+02 0.  0.
        -12    1    3    3    0    0  0.32558075450E+02 -0.33924655961E+01  0.16859523197E+02  0.36820926417E+02  0.00000000000E+00 0.  1.
         11    1    4    4    0    0  0.58570175563E+00 -0.77059510740E+01  0.13178455711E+01  0.78397350537E+01  0.51100000000E-03 0.  1.
        -11    1    4    4    0    0 -0.19481520925E+02  0.15335679035E+02 -0.20329033309E+02  0.32062163130E+02  0.51100000000E-03 0. -1.
        -12    1    4    4    0    0 -0.13662256280E+02 -0.42372623649E+01  0.21516645417E+01  0.14465175399E+02  0.00000000000E+00 0.  1.
</event>
<event>
 8    1  0.3007389E-007  0.9118800E+02  0.7816164E-02  0.1184000E+00
        -11   -1    0    0    0    0  0.00000000000E+00  0.00000000000E+00  0.45593999997E+02  0.45594000000E+02  0.51100000000E-03 0.  1.
         11   -1    0    0    0    0 -0.00000000000E+00 -0.00000000000E+00 -0.45593999997E+02  0.45594000000E+02  0.51100000000E-03 0. -1.
         23    2    1    2    0    0 -0.35527136788E-14  0.17763568394E-14 -0.35527136788E-14  0.91188000000E+02  0.91188000000E+02 0.  0.
    9900012    2    3    3    0    0 -0.22401725169E+02 -0.11770855158E+02 -0.26746650049E+02  0.54367168796E+02  0.40000192904E+02 0.  0.
        -12    1    3    3    0    0  0.22401725169E+02  0.11770855158E+02  0.26746650049E+02  0.36820831204E+02  0.00000000000E+00 0.  1.
         11    1    4    4    0    0 -0.27528373111E+00  0.40413279961E+01 -0.10772452446E+02  0.11508859417E+02  0.51100000000E-03 0. -1.
        -11    1    4    4    0    0 -0.14503882376E+02 -0.22011460100E+02 -0.29225450253E+01  0.26521844758E+02  0.51100000000E-03 0.  1.
        -12    1    4    4    0    0 -0.76225590620E+01  0.61992769461E+01 -0.13051652577E+02  0.16336464621E+02  0.00000000000E+00 0.  1.
</event>
<event>
 8    1  0.3007389E-007  0.9118800E+02  0.7816164E-02  0.1184000E+00
        -11   -1    0    0    0    0  0.00000000000E+00  0.00000000000E+00  0.45593999997E+02  0.45594000000E+02  0.51100000000E-03 0. -1.
         11   -1    0    0    0    0 -0.00000000000E+00 -0.00000000000E+00 -0.45593999997E+02  0.45594000000E+02  0.51100000000E-03 0.  1.
         23    2    1    2    0    0  0.71054273576E-14  0.88817841970E-15 -0.17763568394E-14  0.91188000000E+02  0.91188000000E+02 0.  0.
    9900012    2    3    3    0    0 -0.36213312931E+02  0.19906755122E+01  0.63571504134E+01  0.54367079536E+02  0.39999989418E+02 0.  0.
        -12    1    3    3    0    0  0.36213312931E+02 -0.19906755122E+01 -0.63571504134E+01  0.36820920464E+02  0.00000000000E+00 0.  1.
         11    1    4    4    0    0 -0.31580436439E+02  0.10416006087E+02  0.40643898911E+01  0.33501289735E+02  0.51100000000E-03 0. -1.
        -11    1    4    4    0    0 -0.53893270339E+00 -0.30606551284E+01 -0.79861997658E+01  0.85695650552E+01  0.51100000000E-03 0.  1.
         12    1    4    4    0    0 -0.40939437885E+01 -0.53646754460E+01  0.10278960288E+02  0.12296224745E+02  0.00000000000E+00 0. -1.
</event>
<event>
 8    1  0.3007389E-007  0.9118800E+02  0.7816164E-02  0.1184000E+00
        -11   -1    0    0    0    0  0.00000000000E+00  0.00000000000E+00  0.45593999997E+02  0.45594000000E+02  0.51100000000E-03 0. -1.
         11   -1    0    0    0    0 -0.00000000000E+00 -0.00000000000E+00 -0.45593999997E+02  0.45594000000E+02  0.51100000000E-03 0.  1.
         23    2    1    2    0    0 -0.11102230246E-15 -0.44408920985E-15  0.00000000000E+00  0.91188000000E+02  0.91188000000E+02 0.  0.
    9900012    2    3    3    0    0 -0.62293331964E+00  0.20668999959E+01 -0.36757586745E+02  0.54367077893E+02  0.39999985673E+02 0.  0.
         12    1    3    3    0    0  0.62293331964E+00 -0.20668999959E+01  0.36757586745E+02  0.36820922107E+02  0.00000000000E+00 0. -1.
         11    1    4    4    0    0  0.23706456867E+01 -0.79615896810E+00 -0.26512939368E+02  0.26630617422E+02  0.51100000000E-03 0.  1.
        -11    1    4    4    0    0 -0.53205659593E+01 -0.25979823931E+01 -0.17434644689E+02  0.18412625297E+02  0.51100000000E-03 0. -1.
        -12    1    4    4    0    0  0.23269869530E+01  0.54610413572E+01  0.71899973127E+01  0.93238351734E+01  0.00000000000E+00 0.  1.
</event>
<event>
 8    1  0.3007389E-007  0.9118800E+02  0.7816164E-02  0.1184000E+00
        -11   -1    0    0    0    0  0.00000000000E+00  0.00000000000E+00  0.45593999997E+02  0.45594000000E+02  0.51100000000E-03 0. -1.
         11   -1    0    0    0    0 -0.00000000000E+00 -0.00000000000E+00 -0.45593999997E+02  0.45594000000E+02  0.51100000000E-03 0.  1.
         23    2    1    2    0    0  0.00000000000E+00  0.00000000000E+00  0.00000000000E+00  0.91188000000E+02  0.91188000000E+02 0.  0.
    9900012    2    3    3    0    0  0.17535051233E+02 -0.32340652252E+02 -0.15442594840E+01  0.54367074602E+02  0.39999978170E+02 0.  0.
        -12    1    3    3    0    0 -0.17535051233E+02  0.32340652252E+02  0.15442594840E+01  0.36820925398E+02  0.00000000000E+00 0.  1.
         11    1    4    4    0    0 -0.45971065205E+01 -0.27248860726E+01 -0.18747387975E+01  0.56633063037E+01  0.51100000000E-03 0.  1.
        -11    1    4    4    0    0  0.26940968816E+02 -0.19128341033E+02 -0.85675529967E+01  0.34133739849E+02  0.51100000000E-03 0. -1.
         12    1    4    4    0    0 -0.48088110627E+01 -0.10487425146E+02  0.88980323102E+01  0.14570028450E+02  0.00000000000E+00 0. -1.
</event>
<event>
 8    1  0.3007389E-007  0.9118800E+02  0.7816164E-02  0.1184000E+00
        -11   -1    0    0    0    0  0.00000000000E+00  0.00000000000E+00  0.45593999997E+02  0.45594000000E+02  0.51100000000E-03 0.  1.
         11   -1    0    0    0    0 -0.00000000000E+00 -0.00000000000E+00 -0.45593999997E+02  0.45594000000E+02  0.51100000000E-03 0. -1.
         23    2    1    2    0    0  0.35527136788E-14 -0.35527136788E-14 -0.88817841970E-15  0.91188000000E+02  0.91188000000E+02 0.  0.
    9900012    2    3    3    0    0  0.26499839063E+02  0.24363383708E+02 -0.77435989514E+01  0.54367092070E+02  0.40000017992E+02 0.  0.
         12    1    3    3    0    0 -0.26499839063E+02 -0.24363383708E+02  0.77435989514E+01  0.36820907930E+02  0.00000000000E+00 0. -1.
         11    1    4    4    0    0 -0.14107801846E+01  0.16996968146E+02 -0.10716065695E+02  0.20142524448E+02  0.51100000000E-03 0. -1.
        -11    1    4    4    0    0  0.18693395376E+02 -0.29278037152E+01 -0.30247720669E+01  0.19161532079E+02  0.51100000000E-03 0.  1.
        -12    1    4    4    0    0  0.92172238716E+01  0.10294219277E+02  0.59972388107E+01  0.15063035543E+02  0.00000000000E+00 0.  1.
</event>
<event>
 8    1  0.3007389E-007  0.9118800E+02  0.7816164E-02  0.1184000E+00
        -11   -1    0    0    0    0  0.00000000000E+00  0.00000000000E+00  0.45593999997E+02  0.45594000000E+02  0.51100000000E-03 0. -1.
         11   -1    0    0    0    0 -0.00000000000E+00 -0.00000000000E+00 -0.45593999997E+02  0.45594000000E+02  0.51100000000E-03 0.  1.
         23    2    1    2    0    0  0.00000000000E+00  0.00000000000E+00  0.12212453271E-14  0.91188000000E+02  0.91188000000E+02 0.  0.
    9900012    2    3    3    0    0  0.32637449541E+02 -0.17027024497E+02  0.81006937055E+00  0.54367097131E+02  0.40000029529E+02 0.  0.
        -12    1    3    3    0    0 -0.32637449541E+02  0.17027024497E+02 -0.81006937055E+00  0.36820902869E+02  0.00000000000E+00 0.  1.
         11    1    4    4    0    0  0.13204132910E+02  0.83595106635E+01 -0.11019228698E+02  0.19122080059E+02  0.51100000000E-03 0. -1.
        -11    1    4    4    0    0  0.13939475394E+02 -0.10981317152E+02  0.71689741654E+01  0.19138769331E+02  0.51100000000E-03 0.  1.
        -12    1    4    4    0    0  0.54938412364E+01 -0.14405218008E+02  0.46603239027E+01  0.16106247740E+02  0.00000000000E+00 0.  1.
</event>
<event>
 8    1  0.3007389E-007  0.9118800E+02  0.7816164E-02  0.1184000E+00
        -11   -1    0    0    0    0  0.00000000000E+00  0.00000000000E+00  0.45593999997E+02  0.45594000000E+02  0.51100000000E-03 0.  1.
         11   -1    0    0    0    0 -0.00000000000E+00 -0.00000000000E+00 -0.45593999997E+02  0.45594000000E+02  0.51100000000E-03 0. -1.
         23    2    1    2    0    0  0.00000000000E+00  0.00000000000E+00  0.17763568394E-14  0.91188000000E+02  0.91188000000E+02 0.  0.
    9900012    2    3    3    0    0  0.32601675966E+02  0.95442640405E+01  0.14206247893E+02  0.54367085685E+02  0.40000003435E+02 0.  0.
         12    1    3    3    0    0 -0.32601675966E+02 -0.95442640405E+01 -0.14206247893E+02  0.36820914315E+02  0.00000000000E+00 0. -1.
         11    1    4    4    0    0  0.87274273306E-01 -0.55421065394E+01  0.46015587459E+01  0.72039506415E+01  0.51100000000E-03 0. -1.
        -11    1    4    4    0    0  0.34194468011E+02  0.12384538018E+02  0.16221007747E+02  0.39821596114E+02  0.51100000000E-03 0.  1.
         12    1    4    4    0    0 -0.16800663187E+01  0.27018325614E+01 -0.66163186002E+01  0.73415389289E+01  0.00000000000E+00 0. -1.
</event>
<event>
 8    1  0.3007389E-007  0.9118800E+02  0.7816164E-02  0.1184000E+00
        -11   -1    0    0    0    0  0.00000000000E+00  0.00000000000E+00  0.45593999997E+02  0.45594000000E+02  0.51100000000E-03 0. -1.
         11   -1    0    0    0    0 -0.00000000000E+00 -0.00000000000E+00 -0.45593999997E+02  0.45594000000E+02  0.51100000000E-03 0.  1.
         23    2    1    2    0    0 -0.35527136788E-14  0.35527136788E-14 -0.35527136788E-14  0.91188000000E+02  0.91188000000E+02 0.  0.
    9900012    2    3    3    0    0 -0.16394356984E+02  0.14502525362E+02 -0.29608815644E+02  0.54367080041E+02  0.39999990569E+02 0.  0.
         12    1    3    3    0    0  0.16394356984E+02 -0.14502525362E+02  0.29608815644E+02  0.36820919959E+02  0.00000000000E+00 0. -1.
         11    1    4    4    0    0 -0.10443937044E+02  0.10053352720E+02  0.42537556215E+01  0.15107619238E+02  0.51100000000E-03 0. -1.
        -11    1    4    4    0    0 -0.10976557230E+02  0.72031699338E+01 -0.17195860227E+02  0.21634880978E+02  0.51100000000E-03 0.  1.
        -12    1    4    4    0    0  0.50261372903E+01 -0.27539972924E+01 -0.16666711038E+02  0.17624579824E+02  0.00000000000E+00 0.  1.
</event>
<event>
 8    1  0.3007389E-007  0.9118800E+02  0.7816164E-02  0.1184000E+00
        -11   -1    0    0    0    0  0.00000000000E+00  0.00000000000E+00  0.45593999997E+02  0.45594000000E+02  0.51100000000E-03 0.  1.
         11   -1    0    0    0    0 -0.00000000000E+00 -0.00000000000E+00 -0.45593999997E+02  0.45594000000E+02  0.51100000000E-03 0. -1.
         23    2    1    2    0    0  0.00000000000E+00 -0.13322676296E-14 -0.35527136788E-14  0.91188000000E+02  0.91188000000E+02 0.  0.
    9900012    2    3    3    0    0  0.25019640887E+02 -0.31434423430E+01  0.26831273893E+02  0.54367069558E+02  0.39999966671E+02 0.  0.
         12    1    3    3    0    0 -0.25019640887E+02  0.31434423430E+01 -0.26831273893E+02  0.36820930442E+02  0.00000000000E+00 0. -1.
         11    1    4    4    0    0  0.14625931736E+02 -0.16057385354E+01  0.13289768393E+02  0.19827108200E+02  0.51100000000E-03 0. -1.
        -11    1    4    4    0    0  0.95114057325E+01 -0.13153363247E+02 -0.56927611163E+00  0.16241978921E+02  0.51100000000E-03 0.  1.
         12    1    4    4    0    0  0.88230341913E+00  0.11615659440E+02  0.14110781612E+02  0.18297982436E+02  0.00000000000E+00 0. -1.
</event>
<event>
 8    1  0.3007389E-007  0.9118800E+02  0.7816164E-02  0.1184000E+00
        -11   -1    0    0    0    0  0.00000000000E+00  0.00000000000E+00  0.45593999997E+02  0.45594000000E+02  0.51100000000E-03 0. -1.
         11   -1    0    0    0    0 -0.00000000000E+00 -0.00000000000E+00 -0.45593999997E+02  0.45594000000E+02  0.51100000000E-03 0.  1.
         23    2    1    2    0    0  0.17763568394E-14  0.35527136788E-14 -0.35527136788E-14  0.91188000000E+02  0.91188000000E+02 0.  0.
    9900012    2    3    3    0    0  0.21604645092E+01  0.23316344667E+02 -0.28415785605E+02  0.54367130822E+02  0.40000106334E+02 0.  0.
         12    1    3    3    0    0 -0.21604645092E+01 -0.23316344667E+02  0.28415785605E+02  0.36820869178E+02  0.00000000000E+00 0. -1.
         11    1    4    4    0    0  0.91474596297E+01  0.14444295905E+02 -0.19113595378E+02  0.25644555570E+02  0.51100000000E-03 0. -1.
        -11    1    4    4    0    0 -0.15779686827E+00  0.12776280764E+02  0.38958849862E+01  0.13358000229E+02  0.51100000000E-03 0.  1.
         12    1    4    4    0    0 -0.68291982523E+01 -0.39042320024E+01 -0.13198075213E+02  0.15364575023E+02  0.00000000000E+00 0. -1.
</event>
<event>
 8    1  0.3007389E-007  0.9118800E+02  0.7816164E-02  0.1184000E+00
        -11   -1    0    0    0    0  0.00000000000E+00  0.00000000000E+00  0.45593999997E+02  0.45594000000E+02  0.51100000000E-03 0.  1.
         11   -1    0    0    0    0 -0.00000000000E+00 -0.00000000000E+00 -0.45593999997E+02  0.45594000000E+02  0.51100000000E-03 0. -1.
         23    2    1    2    0    0  0.00000000000E+00  0.11102230246E-15 -0.88817841970E-15  0.91188000000E+02  0.91188000000E+02 0.  0.
    9900012    2    3    3    0    0 -0.36078889209E+02  0.68475154315E+00  0.73229279334E+01  0.54367076535E+02  0.39999982578E+02 0.  0.
        -12    1    3    3    0    0  0.36078889209E+02 -0.68475154315E+00 -0.73229279334E+01  0.36820923465E+02  0.00000000000E+00 0.  1.
         11    1    4    4    0    0 -0.90423351307E+01 -0.12700754979E+02  0.10801577235E+02  0.18966999569E+02  0.51100000000E-03 0. -1.
        -11    1    4    4    0    0 -0.50418664204E+01  0.74001008727E+01  0.59301555241E+01  0.10740049103E+02  0.51100000000E-03 0.  1.
         12    1    4    4    0    0 -0.21994687658E+02  0.59854056492E+01 -0.94088048256E+01  0.24660027863E+02  0.00000000000E+00 0. -1.
</event>
<event>
 8    1  0.3007389E-007  0.9118800E+02  0.7816164E-02  0.1184000E+00
        -11   -1    0    0    0    0  0.00000000000E+00  0.00000000000E+00  0.45593999997E+02  0.45594000000E+02  0.51100000000E-03 0. -1.
         11   -1    0    0    0    0 -0.00000000000E+00 -0.00000000000E+00 -0.45593999997E+02  0.45594000000E+02  0.51100000000E-03 0.  1.
         23    2    1    2    0    0  0.88817841970E-15  0.00000000000E+00  0.17763568394E-14  0.91188000000E+02  0.91188000000E+02 0.  0.
    9900012    2    3    3    0    0  0.57129560295E+01  0.35088112319E+02  0.95898696341E+01  0.54367094358E+02  0.40000023209E+02 0.  0.
        -12    1    3    3    0    0 -0.57129560295E+01 -0.35088112319E+02 -0.95898696341E+01  0.36820905642E+02  0.00000000000E+00 0.  1.
         11    1    4    4    0    0 -0.14900066972E+01 -0.10934648290E+01  0.10399336196E+02  0.10562290418E+02  0.51100000000E-03 0.  1.
        -11    1    4    4    0    0  0.11815270782E+02  0.34123761740E+02 -0.59500701669E+01  0.36598293323E+02  0.51100000000E-03 0. -1.
         12    1    4    4    0    0 -0.46123080554E+01  0.20578154077E+01  0.51406036046E+01  0.72065106168E+01  0.00000000000E+00 0. -1.
</event>
<event>
 8    1  0.3007389E-007  0.9118800E+02  0.7816164E-02  0.1184000E+00
        -11   -1    0    0    0    0  0.00000000000E+00  0.00000000000E+00  0.45593999997E+02  0.45594000000E+02  0.51100000000E-03 0. -1.
         11   -1    0    0    0    0 -0.00000000000E+00 -0.00000000000E+00 -0.45593999997E+02  0.45594000000E+02  0.51100000000E-03 0.  1.
         23    2    1    2    0    0  0.00000000000E+00 -0.88817841970E-15  0.00000000000E+00  0.91188000000E+02  0.91188000000E+02 0.  0.
    9900012    2    3    3    0    0 -0.30440993325E+02  0.47165923516E+01  0.20171277840E+02  0.54367071607E+02  0.39999971342E+02 0.  0.
        -12    1    3    3    0    0  0.30440993325E+02 -0.47165923516E+01 -0.20171277840E+02  0.36820928393E+02  0.00000000000E+00 0.  1.
         11    1    4    4    0    0 -0.31850495283E+01 -0.10501732436E+02 -0.66191935820E+00  0.10994046668E+02  0.51100000000E-03 0. -1.
        -11    1    4    4    0    0 -0.38729247975E+01  0.77330683853E+01 -0.30015709089E+01  0.91547431051E+01  0.51100000000E-03 0.  1.
         12    1    4    4    0    0 -0.23383018999E+02  0.74852564019E+01  0.23834768107E+02  0.34218281834E+02  0.00000000000E+00 0. -1.
</event>
<event>
 8    1  0.3007389E-007  0.9118800E+02  0.7816164E-02  0.1184000E+00
        -11   -1    0    0    0    0  0.00000000000E+00  0.00000000000E+00  0.45593999997E+02  0.45594000000E+02  0.51100000000E-03 0.  1.
         11   -1    0    0    0    0 -0.00000000000E+00 -0.00000000000E+00 -0.45593999997E+02  0.45594000000E+02  0.51100000000E-03 0. -1.
         23    2    1    2    0    0  0.00000000000E+00  0.00000000000E+00  0.44408920985E-15  0.91188000000E+02  0.91188000000E+02 0.  0.
    9900012    2    3    3    0    0  0.16493633284E+02 -0.32792568544E+02  0.28961826306E+01  0.54367077083E+02  0.39999983826E+02 0.  0.
        -12    1    3    3    0    0 -0.16493633284E+02  0.32792568544E+02 -0.28961826306E+01  0.36820922917E+02  0.00000000000E+00 0.  1.
         11    1    4    4    0    0 -0.35735454483E+01 -0.23011365191E+02 -0.96405838393E+01  0.25203849151E+02  0.51100000000E-03 0. -1.
        -11    1    4    4    0    0  0.12622253415E+02 -0.95315367170E+01  0.15545458040E+01  0.15893020052E+02  0.51100000000E-03 0.  1.
        -12    1    4    4    0    0  0.74449253176E+01 -0.24966663601E+00  0.10982220666E+02  0.13270207880E+02  0.00000000000E+00 0.  1.
</event>
<event>
 8    1  0.3007389E-007  0.9118800E+02  0.7816164E-02  0.1184000E+00
        -11   -1    0    0    0    0  0.00000000000E+00  0.00000000000E+00  0.45593999997E+02  0.45594000000E+02  0.51100000000E-03 0.  1.
         11   -1    0    0    0    0 -0.00000000000E+00 -0.00000000000E+00 -0.45593999997E+02  0.45594000000E+02  0.51100000000E-03 0. -1.
         23    2    1    2    0    0  0.35527136788E-14  0.00000000000E+00  0.35527136788E-14  0.91188000000E+02  0.91188000000E+02 0.  0.
    9900012    2    3    3    0    0 -0.13609741912E+02 -0.19174910487E+02 -0.28335093036E+02  0.54367085231E+02  0.40000002401E+02 0.  0.
        -12    1    3    3    0    0  0.13609741912E+02  0.19174910487E+02  0.28335093036E+02  0.36820914769E+02  0.00000000000E+00 0.  1.
         11    1    4    4    0    0 -0.14074602262E+02  0.33170964458E+01 -0.58562883470E+01  0.15601079166E+02  0.51100000000E-03 0. -1.
        -11    1    4    4    0    0 -0.10669795774E+01 -0.17345607204E+02 -0.18810807598E+01  0.17479902739E+02  0.51100000000E-03 0.  1.
         12    1    4    4    0    0  0.15318399276E+01 -0.51463997286E+01 -0.20597723929E+02  0.21286103326E+02  0.00000000000E+00 0. -1.
</event>
<event>
 8    1  0.3007389E-007  0.9118800E+02  0.7816164E-02  0.1184000E+00
        -11   -1    0    0    0    0  0.00000000000E+00  0.00000000000E+00  0.45593999997E+02  0.45594000000E+02  0.51100000000E-03 0.  1.
         11   -1    0    0    0    0 -0.00000000000E+00 -0.00000000000E+00 -0.45593999997E+02  0.45594000000E+02  0.51100000000E-03 0. -1.
         23    2    1    2    0    0  0.00000000000E+00  0.00000000000E+00  0.00000000000E+00  0.91188000000E+02  0.91188000000E+02 0.  0.
    9900012    2    3    3    0    0 -0.52552501331E+01  0.26627546121E+02  0.24882432621E+02  0.54367091272E+02  0.40000016173E+02 0.  0.
         12    1    3    3    0    0  0.52552501331E+01 -0.26627546121E+02 -0.24882432621E+02  0.36820908728E+02  0.00000000000E+00 0. -1.
         11    1    4    4    0    0 -0.32278062073E+01  0.68661633465E+00  0.23340576889E+02  0.23572711017E+02  0.51100000000E-03 0.  1.
        -11    1    4    4    0    0  0.69501985286E+01  0.75546586111E+01 -0.11896307118E+00  0.10266074166E+02  0.51100000000E-03 0. -1.
        -12    1    4    4    0    0 -0.89776424543E+01  0.18386271175E+02  0.16608188031E+01  0.20528306089E+02  0.00000000000E+00 0.  1.
</event>
<event>
 8    1  0.3007389E-007  0.9118800E+02  0.7816164E-02  0.1184000E+00
        -11   -1    0    0    0    0  0.00000000000E+00  0.00000000000E+00  0.45593999997E+02  0.45594000000E+02  0.51100000000E-03 0. -1.
         11   -1    0    0    0    0 -0.00000000000E+00 -0.00000000000E+00 -0.45593999997E+02  0.45594000000E+02  0.51100000000E-03 0.  1.
         23    2    1    2    0    0  0.17763568394E-14  0.35527136788E-14  0.00000000000E+00  0.91188000000E+02  0.91188000000E+02 0.  0.
    9900012    2    3    3    0    0  0.12780714110E+02  0.31144806555E+02 -0.14914206011E+02  0.54367093311E+02  0.40000020821E+02 0.  0.
         12    1    3    3    0    0 -0.12780714110E+02 -0.31144806555E+02  0.14914206011E+02  0.36820906689E+02  0.00000000000E+00 0. -1.
         11    1    4    4    0    0 -0.10342944178E+01  0.10964254720E+02 -0.15172254236E+02  0.18747851753E+02  0.51100000000E-03 0.  1.
        -11    1    4    4    0    0  0.44908420477E+01 -0.42909671025E+01 -0.60625847003E+01  0.86795734043E+01  0.51100000000E-03 0. -1.
         12    1    4    4    0    0  0.93241664798E+01  0.24471518937E+02  0.63206329256E+01  0.26939668154E+02  0.00000000000E+00 0. -1.
</event>
<event>
 8    1  0.3007389E-007  0.9118800E+02  0.7816164E-02  0.1184000E+00
        -11   -1    0    0    0    0  0.00000000000E+00  0.00000000000E+00  0.45593999997E+02  0.45594000000E+02  0.51100000000E-03 0.  1.
         11   -1    0    0    0    0 -0.00000000000E+00 -0.00000000000E+00 -0.45593999997E+02  0.45594000000E+02  0.51100000000E-03 0. -1.
         23    2    1    2    0    0 -0.17763568394E-14  0.00000000000E+00 -0.71054273576E-14  0.91188000000E+02  0.91188000000E+02 0.  0.
    9900012    2    3    3    0    0 -0.65601158425E+01 -0.13425679806E+02  0.33652517386E+02  0.54367137374E+02  0.40000121272E+02 0.  0.
         12    1    3    3    0    0  0.65601158425E+01  0.13425679806E+02 -0.33652517386E+02  0.36820862626E+02  0.00000000000E+00 0. -1.
         11    1    4    4    0    0  0.32622411071E+01  0.36601739925E+01  0.88672916179E+00  0.49825073571E+01  0.51100000000E-03 0. -1.
        -11    1    4    4    0    0 -0.20635055939E+02 -0.79108795240E+01  0.15261785602E+02  0.26857208501E+02  0.51100000000E-03 0.  1.
         12    1    4    4    0    0  0.10812698989E+02 -0.91749742742E+01  0.17504002622E+02  0.22527421516E+02  0.00000000000E+00 0. -1.
</event>
<event>
 8    1  0.3007389E-007  0.9118800E+02  0.7816164E-02  0.1184000E+00
        -11   -1    0    0    0    0  0.00000000000E+00  0.00000000000E+00  0.45593999997E+02  0.45594000000E+02  0.51100000000E-03 0.  1.
         11   -1    0    0    0    0 -0.00000000000E+00 -0.00000000000E+00 -0.45593999997E+02  0.45594000000E+02  0.51100000000E-03 0. -1.
         23    2    1    2    0    0  0.35527136788E-14  0.00000000000E+00  0.17763568394E-14  0.91188000000E+02  0.91188000000E+02 0.  0.
    9900012    2    3    3    0    0  0.30957920484E+02 -0.19719229502E+02  0.29221908848E+01  0.54367081320E+02  0.39999993485E+02 0.  0.
         12    1    3    3    0    0 -0.30957920484E+02  0.19719229502E+02 -0.29221908848E+01  0.36820918680E+02  0.00000000000E+00 0. -1.
         11    1    4    4    0    0  0.22352244545E+02 -0.51349505255E+01 -0.70231849581E+01  0.23985739103E+02  0.51100000000E-03 0. -1.
        -11    1    4    4    0    0  0.32546974909E+01 -0.10744731043E+02 -0.62844752221E+01  0.12866115576E+02  0.51100000000E-03 0.  1.
         12    1    4    4    0    0  0.53509784480E+01 -0.38395479341E+01  0.16229851065E+02  0.17515226641E+02  0.00000000000E+00 0. -1.
</event>
<event>
 8    1  0.3007389E-007  0.9118800E+02  0.7816164E-02  0.1184000E+00
        -11   -1    0    0    0    0  0.00000000000E+00  0.00000000000E+00  0.45593999997E+02  0.45594000000E+02  0.51100000000E-03 0.  1.
         11   -1    0    0    0    0 -0.00000000000E+00 -0.00000000000E+00 -0.45593999997E+02  0.45594000000E+02  0.51100000000E-03 0. -1.
         23    2    1    2    0    0  0.00000000000E+00  0.00000000000E+00 -0.35527136788E-14  0.91188000000E+02  0.91188000000E+02 0.  0.
    9900012    2    3    3    0    0 -0.10127826843E+02 -0.27836444700E+02 -0.21870973972E+02  0.54367081589E+02  0.39999994099E+02 0.  0.
        -12    1    3    3    0    0  0.10127826843E+02  0.27836444700E+02  0.21870973972E+02  0.36820918411E+02  0.00000000000E+00 0.  1.
         11    1    4    4    0    0 -0.16625035267E+01 -0.24953684107E+02 -0.79999416422E+01  0.26257367252E+02  0.51100000000E-03 0. -1.
        -11    1    4    4    0    0  0.64511859521E+01  0.34993524008E+01 -0.79979013891E+01  0.10854938706E+02  0.51100000000E-03 0.  1.
         12    1    4    4    0    0 -0.14916509269E+02 -0.63821129945E+01 -0.58731309408E+01  0.17254775631E+02  0.00000000000E+00 0. -1.
</event>
<event>
 8    1  0.3007389E-007  0.9118800E+02  0.7816164E-02  0.1184000E+00
        -11   -1    0    0    0    0  0.00000000000E+00  0.00000000000E+00  0.45593999997E+02  0.45594000000E+02  0.51100000000E-03 0. -1.
         11   -1    0    0    0    0 -0.00000000000E+00 -0.00000000000E+00 -0.45593999997E+02  0.45594000000E+02  0.51100000000E-03 0.  1.
         23    2    1    2    0    0 -0.17763568394E-14 -0.11657341759E-14  0.00000000000E+00  0.91188000000E+02  0.91188000000E+02 0.  0.
    9900012    2    3    3    0    0 -0.89741140120E+01 -0.13921125455E+00  0.35710302506E+02  0.54367084651E+02  0.40000001079E+02 0.  0.
        -12    1    3    3    0    0  0.89741140120E+01  0.13921125455E+00 -0.35710302506E+02  0.36820915349E+02  0.00000000000E+00 0.  1.
         11    1    4    4    0    0 -0.14290363249E+02  0.17846072599E+01  0.13285858614E+02  0.19593706751E+02  0.51100000000E-03 0. -1.
        -11    1    4    4    0    0 -0.71999999047E+01 -0.65366187654E+01  0.13298472743E+01  0.98150841843E+01  0.51100000000E-03 0.  1.
        -12    1    4    4    0    0  0.12516249142E+02  0.46128002509E+01  0.21094596617E+02  0.24958293715E+02  0.00000000000E+00 0.  1.
</event>
<event>
 8    1  0.3007389E-007  0.9118800E+02  0.7816164E-02  0.1184000E+00
        -11   -1    0    0    0    0  0.00000000000E+00  0.00000000000E+00  0.45593999997E+02  0.45594000000E+02  0.51100000000E-03 0. -1.
         11   -1    0    0    0    0 -0.00000000000E+00 -0.00000000000E+00 -0.45593999997E+02  0.45594000000E+02  0.51100000000E-03 0.  1.
         23    2    1    2    0    0  0.00000000000E+00  0.35527136788E-14  0.35527136788E-14  0.91188000000E+02  0.91188000000E+02 0.  0.
    9900012    2    3    3    0    0 -0.23804096154E+02 -0.21499322225E+02 -0.18081143218E+02  0.54367033284E+02  0.39999883977E+02 0.  0.
         12    1    3    3    0    0  0.23804096154E+02  0.21499322225E+02  0.18081143218E+02  0.36820966716E+02  0.00000000000E+00 0. -1.
         11    1    4    4    0    0 -0.30985307424E+01 -0.64122512373E+01  0.12042506197E+02  0.13990704573E+02  0.51100000000E-03 0. -1.
        -11    1    4    4    0    0 -0.32047489851E+01 -0.65002153063E+01 -0.63801232144E+01  0.96555262714E+01  0.51100000000E-03 0.  1.
        -12    1    4    4    0    0 -0.17500816426E+02 -0.85868556813E+01 -0.23743526201E+02  0.30720802439E+02  0.00000000000E+00 0.  1.
</event>
<event>
 8    1  0.3007389E-007  0.9118800E+02  0.7816164E-02  0.1184000E+00
        -11   -1    0    0    0    0  0.00000000000E+00  0.00000000000E+00  0.45593999997E+02  0.45594000000E+02  0.51100000000E-03 0. -1.
         11   -1    0    0    0    0 -0.00000000000E+00 -0.00000000000E+00 -0.45593999997E+02  0.45594000000E+02  0.51100000000E-03 0.  1.
         23    2    1    2    0    0 -0.88817841970E-15  0.35527136788E-14  0.00000000000E+00  0.91188000000E+02  0.91188000000E+02 0.  0.
    9900012    2    3    3    0    0  0.61790034072E+01 -0.24530785366E+02  0.26755150914E+02  0.54367114429E+02  0.40000068964E+02 0.  0.
        -12    1    3    3    0    0 -0.61790034072E+01  0.24530785366E+02 -0.26755150914E+02  0.36820885571E+02  0.00000000000E+00 0.  1.
         11    1    4    4    0    0 -0.13956080633E+02 -0.16316584924E+02  0.12102652904E+02  0.24647055357E+02  0.51100000000E-03 0. -1.
        -11    1    4    4    0    0  0.12469477366E+02 -0.81511489495E+01  0.21459262547E+01  0.15051049622E+02  0.51100000000E-03 0.  1.
         12    1    4    4    0    0  0.76656066739E+01 -0.63051492998E-01  0.12506571755E+02  0.14669009450E+02  0.00000000000E+00 0. -1.
</event>
<event>
 8    1  0.3007389E-007  0.9118800E+02  0.7816164E-02  0.1184000E+00
        -11   -1    0    0    0    0  0.00000000000E+00  0.00000000000E+00  0.45593999997E+02  0.45594000000E+02  0.51100000000E-03 0. -1.
         11   -1    0    0    0    0 -0.00000000000E+00 -0.00000000000E+00 -0.45593999997E+02  0.45594000000E+02  0.51100000000E-03 0.  1.
         23    2    1    2    0    0  0.00000000000E+00  0.00000000000E+00 -0.35527136788E-14  0.91188000000E+02  0.91188000000E+02 0.  0.
    9900012    2    3    3    0    0  0.14669500592E+02 -0.15630548620E+02 -0.29937793258E+02  0.54367085251E+02  0.40000002446E+02 0.  0.
         12    1    3    3    0    0 -0.14669500592E+02  0.15630548620E+02  0.29937793258E+02  0.36820914749E+02  0.00000000000E+00 0. -1.
         11    1    4    4    0    0 -0.46388241294E+01 -0.15571699831E+01 -0.52364010343E+01  0.71668238232E+01  0.51100000000E-03 0. -1.
        -11    1    4    4    0    0  0.14698186900E+02  0.53845664549E+01 -0.22031431699E+02  0.27026176885E+02  0.51100000000E-03 0.  1.
         12    1    4    4    0    0  0.46101378213E+01 -0.19457945092E+02 -0.26699605255E+01  0.20174084543E+02  0.00000000000E+00 0. -1.
</event>
<event>
 8    1  0.3007389E-007  0.9118800E+02  0.7816164E-02  0.1184000E+00
        -11   -1    0    0    0    0  0.00000000000E+00  0.00000000000E+00  0.45593999997E+02  0.45594000000E+02  0.51100000000E-03 0. -1.
         11   -1    0    0    0    0 -0.00000000000E+00 -0.00000000000E+00 -0.45593999997E+02  0.45594000000E+02  0.51100000000E-03 0.  1.
         23    2    1    2    0    0 -0.17763568394E-14  0.00000000000E+00  0.00000000000E+00  0.91188000000E+02  0.91188000000E+02 0.  0.
    9900012    2    3    3    0    0  0.97808036491E+01  0.12426471326E+02 -0.33252044336E+02  0.54367085262E+02  0.40000002472E+02 0.  0.
         12    1    3    3    0    0 -0.97808036491E+01 -0.12426471326E+02  0.33252044336E+02  0.36820914738E+02  0.00000000000E+00 0. -1.
         11    1    4    4    0    0  0.48075130091E+01 -0.48464857063E+01  0.14048944971E+00  0.68279090929E+01  0.51100000000E-03 0. -1.
        -11    1    4    4    0    0 -0.62430806164E+01  0.56416721472E+01 -0.29828162006E+02  0.30992317905E+02  0.51100000000E-03 0.  1.
        -12    1    4    4    0    0  0.11216371256E+02  0.11631284885E+02 -0.35643717794E+01  0.16546858264E+02  0.00000000000E+00 0.  1.
</event>
<event>
 8    1  0.3007389E-007  0.9118800E+02  0.7816164E-02  0.1184000E+00
        -11   -1    0    0    0    0  0.00000000000E+00  0.00000000000E+00  0.45593999997E+02  0.45594000000E+02  0.51100000000E-03 0.  1.
         11   -1    0    0    0    0 -0.00000000000E+00 -0.00000000000E+00 -0.45593999997E+02  0.45594000000E+02  0.51100000000E-03 0. -1.
         23    2    1    2    0    0  0.44408920985E-15  0.00000000000E+00  0.35527136788E-14  0.91188000000E+02  0.91188000000E+02 0.  0.
    9900012    2    3    3    0    0 -0.39096239935E+01 -0.29939837745E+02 -0.21073724457E+02  0.54367069723E+02  0.39999967049E+02 0.  0.
        -12    1    3    3    0    0  0.39096239935E+01  0.29939837745E+02  0.21073724457E+02  0.36820930277E+02  0.00000000000E+00 0.  1.
         11    1    4    4    0    0 -0.62006792840E+01 -0.41645360869E+01 -0.24027830804E+02  0.25162043594E+02  0.51100000000E-03 0. -1.
        -11    1    4    4    0    0  0.40039506918E+01 -0.12762865822E+02 -0.44980742667E+01  0.14112230069E+02  0.51100000000E-03 0.  1.
        -12    1    4    4    0    0 -0.17128954013E+01 -0.13012435835E+02  0.74521806141E+01  0.15092796061E+02  0.00000000000E+00 0.  1.
</event>
<event>
 8    1  0.3007389E-007  0.9118800E+02  0.7816164E-02  0.1184000E+00
        -11   -1    0    0    0    0  0.00000000000E+00  0.00000000000E+00  0.45593999997E+02  0.45594000000E+02  0.51100000000E-03 0.  1.
         11   -1    0    0    0    0 -0.00000000000E+00 -0.00000000000E+00 -0.45593999997E+02  0.45594000000E+02  0.51100000000E-03 0. -1.
         23    2    1    2    0    0  0.88817841970E-15  0.00000000000E+00  0.00000000000E+00  0.91188000000E+02  0.91188000000E+02 0.  0.
    9900012    2    3    3    0    0 -0.48409987740E+01  0.34408977548E+02  0.12180534364E+02  0.54367103455E+02  0.40000043946E+02 0.  0.
        -12    1    3    3    0    0  0.48409987740E+01 -0.34408977548E+02 -0.12180534364E+02  0.36820896545E+02  0.00000000000E+00 0.  1.
         11    1    4    4    0    0 -0.13915282522E+02  0.17850706399E+02  0.87682344999E+01  0.24272716022E+02  0.51100000000E-03 0. -1.
        -11    1    4    4    0    0  0.98903403294E+01  0.18970363301E+02  0.95656915277E+01  0.23434930558E+02  0.51100000000E-03 0.  1.
         12    1    4    4    0    0 -0.81605658179E+00 -0.24120921521E+01 -0.61533916636E+01  0.66594568743E+01  0.00000000000E+00 0. -1.
</event>
<event>
 8    1  0.3007389E-007  0.9118800E+02  0.7816164E-02  0.1184000E+00
        -11   -1    0    0    0    0  0.00000000000E+00  0.00000000000E+00  0.45593999997E+02  0.45594000000E+02  0.51100000000E-03 0. -1.
         11   -1    0    0    0    0 -0.00000000000E+00 -0.00000000000E+00 -0.45593999997E+02  0.45594000000E+02  0.51100000000E-03 0.  1.
         23    2    1    2    0    0  0.00000000000E+00  0.00000000000E+00 -0.35527136788E-14  0.91188000000E+02  0.91188000000E+02 0.  0.
    9900012    2    3    3    0    0 -0.21231737226E+02  0.13109854994E+02  0.27076276981E+02  0.54367085580E+02  0.40000003197E+02 0.  0.
        -12    1    3    3    0    0  0.21231737226E+02 -0.13109854994E+02 -0.27076276981E+02  0.36820914420E+02  0.00000000000E+00 0.  1.
         11    1    4    4    0    0  0.31656463856E+01  0.12857499367E+01  0.24349443082E+02  0.24588002127E+02  0.51100000000E-03 0. -1.
        -11    1    4    4    0    0 -0.17870902617E+02  0.31224441501E+01  0.46619818846E+01  0.18731067593E+02  0.51100000000E-03 0.  1.
         12    1    4    4    0    0 -0.65264809937E+01  0.87016609072E+01 -0.19351479862E+01  0.11048015860E+02  0.00000000000E+00 0. -1.
</event>
<event>
 8    1  0.3007389E-007  0.9118800E+02  0.7816164E-02  0.1184000E+00
        -11   -1    0    0    0    0  0.00000000000E+00  0.00000000000E+00  0.45593999997E+02  0.45594000000E+02  0.51100000000E-03 0.  1.
         11   -1    0    0    0    0 -0.00000000000E+00 -0.00000000000E+00 -0.45593999997E+02  0.45594000000E+02  0.51100000000E-03 0. -1.
         23    2    1    2    0    0  0.35527136788E-14 -0.53290705182E-14 -0.35527136788E-14  0.91188000000E+02  0.91188000000E+02 0.  0.
    9900012    2    3    3    0    0  0.20918051768E+02  0.79788952847E+01 -0.29232719355E+02  0.54367088270E+02  0.40000009328E+02 0.  0.
        -12    1    3    3    0    0 -0.20918051768E+02 -0.79788952847E+01  0.29232719355E+02  0.36820911730E+02  0.00000000000E+00 0.  1.
         11    1    4    4    0    0  0.66456342477E+01  0.15780273174E+02 -0.40701029694E+01  0.17599636770E+02  0.51100000000E-03 0. -1.
        -11    1    4    4    0    0  0.10900594166E+01  0.34703757352E+00  0.37732395707E+01  0.39428418341E+01  0.51100000000E-03 0.  1.
         12    1    4    4    0    0  0.13182358104E+02 -0.81484154629E+01 -0.28935855957E+02  0.32824609665E+02  0.00000000000E+00 0. -1.
</event>
<event>
 8    1  0.3007389E-007  0.9118800E+02  0.7816164E-02  0.1184000E+00
        -11   -1    0    0    0    0  0.00000000000E+00  0.00000000000E+00  0.45593999997E+02  0.45594000000E+02  0.51100000000E-03 0. -1.
         11   -1    0    0    0    0 -0.00000000000E+00 -0.00000000000E+00 -0.45593999997E+02  0.45594000000E+02  0.51100000000E-03 0.  1.
         23    2    1    2    0    0  0.88817841970E-15  0.00000000000E+00  0.00000000000E+00  0.91188000000E+02  0.91188000000E+02 0.  0.
    9900012    2    3    3    0    0  0.72667942380E+01 -0.84358642765E+01 -0.35097153104E+02  0.54367078493E+02  0.39999987041E+02 0.  0.
         12    1    3    3    0    0 -0.72667942380E+01  0.84358642765E+01  0.35097153104E+02  0.36820921507E+02  0.00000000000E+00 0. -1.
         11    1    4    4    0    0  0.21135951432E+01 -0.51705691942E+00 -0.29041924047E+02  0.29123323727E+02  0.51100000000E-03 0. -1.
        -11    1    4    4    0    0 -0.60611512087E+01 -0.30879104557E+01 -0.10276619434E+02  0.12324027435E+02  0.51100000000E-03 0.  1.
         12    1    4    4    0    0  0.11214350303E+02 -0.48308969014E+01  0.42213903771E+01  0.12919727331E+02  0.00000000000E+00 0. -1.
</event>
<event>
 8    1  0.3007389E-007  0.9118800E+02  0.7816164E-02  0.1184000E+00
        -11   -1    0    0    0    0  0.00000000000E+00  0.00000000000E+00  0.45593999997E+02  0.45594000000E+02  0.51100000000E-03 0.  1.
         11   -1    0    0    0    0 -0.00000000000E+00 -0.00000000000E+00 -0.45593999997E+02  0.45594000000E+02  0.51100000000E-03 0. -1.
         23    2    1    2    0    0  0.35527136788E-14 -0.17763568394E-14 -0.35527136788E-14  0.91188000000E+02  0.91188000000E+02 0.  0.
    9900012    2    3    3    0    0 -0.27121155458E+02 -0.11839489380E+02 -0.21910023445E+02  0.54367085977E+02  0.40000004101E+02 0.  0.
        -12    1    3    3    0    0  0.27121155458E+02  0.11839489380E+02  0.21910023445E+02  0.36820914023E+02  0.00000000000E+00 0.  1.
         11    1    4    4    0    0 -0.91544956427E+01 -0.22541902029E+01  0.69045936124E+00  0.94531951389E+01  0.51100000000E-03 0.  1.
        -11    1    4    4    0    0 -0.26119830710E+02 -0.33515874287E+01 -0.22520429895E+02  0.34650374566E+02  0.51100000000E-03 0. -1.
         12    1    4    4    0    0  0.81531708947E+01 -0.62337117482E+01 -0.80052910998E-01  0.10263516272E+02  0.00000000000E+00 0. -1.
</event>
<event>
 8    1  0.3007389E-007  0.9118800E+02  0.7816164E-02  0.1184000E+00
        -11   -1    0    0    0    0  0.00000000000E+00  0.00000000000E+00  0.45593999997E+02  0.45594000000E+02  0.51100000000E-03 0.  1.
         11   -1    0    0    0    0 -0.00000000000E+00 -0.00000000000E+00 -0.45593999997E+02  0.45594000000E+02  0.51100000000E-03 0. -1.
         23    2    1    2    0    0  0.00000000000E+00  0.00000000000E+00  0.35527136788E-14  0.91188000000E+02  0.91188000000E+02 0.  0.
    9900012    2    3    3    0    0  0.76835442827E+01  0.22781762282E+02 -0.27887884048E+02  0.54367087164E+02  0.40000006807E+02 0.  0.
        -12    1    3    3    0    0 -0.76835442827E+01 -0.22781762282E+02  0.27887884048E+02  0.36820912836E+02  0.00000000000E+00 0.  1.
         11    1    4    4    0    0 -0.11828467841E+02  0.61034882728E+00 -0.19508262604E+02  0.22822302409E+02  0.51100000000E-03 0. -1.
        -11    1    4    4    0    0  0.15407412042E+02  0.12284653028E+02 -0.55600849317E+01  0.20474754957E+02  0.51100000000E-03 0.  1.
        -12    1    4    4    0    0  0.41046000817E+01  0.98867604270E+01 -0.28195365118E+01  0.11070029797E+02  0.00000000000E+00 0.  1.
</event>
<event>
 8    1  0.3007389E-007  0.9118800E+02  0.7816164E-02  0.1184000E+00
        -11   -1    0    0    0    0  0.00000000000E+00  0.00000000000E+00  0.45593999997E+02  0.45594000000E+02  0.51100000000E-03 0.  1.
         11   -1    0    0    0    0 -0.00000000000E+00 -0.00000000000E+00 -0.45593999997E+02  0.45594000000E+02  0.51100000000E-03 0. -1.
         23    2    1    2    0    0  0.71054273576E-14  0.00000000000E+00  0.35527136788E-14  0.91188000000E+02  0.91188000000E+02 0.  0.
    9900012    2    3    3    0    0 -0.33369197319E+02  0.93352380791E+01 -0.12455032990E+02  0.54367111275E+02  0.40000061773E+02 0.  0.
         12    1    3    3    0    0  0.33369197319E+02 -0.93352380791E+01  0.12455032990E+02  0.36820888725E+02  0.00000000000E+00 0. -1.
         11    1    4    4    0    0 -0.28589166599E+02  0.32470007835E+01 -0.20439911475E+02  0.35294099256E+02  0.51100000000E-03 0. -1.
        -11    1    4    4    0    0 -0.61042837694E+01 -0.38930047540E+01  0.29848003230E+01  0.78311429294E+01  0.51100000000E-03 0.  1.
         12    1    4    4    0    0  0.13242530491E+01  0.99812420495E+01  0.50000781625E+01  0.11241869089E+02  0.00000000000E+00 0. -1.
</event>
<event>
 8    1  0.3007389E-007  0.9118800E+02  0.7816164E-02  0.1184000E+00
        -11   -1    0    0    0    0  0.00000000000E+00  0.00000000000E+00  0.45593999997E+02  0.45594000000E+02  0.51100000000E-03 0.  1.
         11   -1    0    0    0    0 -0.00000000000E+00 -0.00000000000E+00 -0.45593999997E+02  0.45594000000E+02  0.51100000000E-03 0. -1.
         23    2    1    2    0    0  0.00000000000E+00  0.71054273576E-14  0.00000000000E+00  0.91188000000E+02  0.91188000000E+02 0.  0.
    9900012    2    3    3    0    0 -0.27453489081E+02  0.18179940165E+02 -0.16479613746E+02  0.54367055466E+02  0.39999934547E+02 0.  0.
        -12    1    3    3    0    0  0.27453489081E+02 -0.18179940165E+02  0.16479613746E+02  0.36820944534E+02  0.00000000000E+00 0.  1.
         11    1    4    4    0    0 -0.13411563097E+02  0.26302472047E+02 -0.21115265364E+02  0.36297995704E+02  0.51100000000E-03 0. -1.
        -11    1    4    4    0    0 -0.12668638906E+02 -0.70243924582E+01  0.16171066267E+01  0.14575717315E+02  0.51100000000E-03 0.  1.
        -12    1    4    4    0    0 -0.13732870786E+01 -0.10981394237E+01  0.30185449912E+01  0.34933424479E+01  0.00000000000E+00 0.  1.
</event>
<event>
 8    1  0.3007389E-007  0.9118800E+02  0.7816164E-02  0.1184000E+00
        -11   -1    0    0    0    0  0.00000000000E+00  0.00000000000E+00  0.45593999997E+02  0.45594000000E+02  0.51100000000E-03 0.  1.
         11   -1    0    0    0    0 -0.00000000000E+00 -0.00000000000E+00 -0.45593999997E+02  0.45594000000E+02  0.51100000000E-03 0. -1.
         23    2    1    2    0    0  0.00000000000E+00  0.00000000000E+00  0.17763568394E-14  0.91188000000E+02  0.91188000000E+02 0.  0.
    9900012    2    3    3    0    0 -0.18201238596E+02  0.30652049983E+02 -0.92166130483E+01  0.54367092750E+02  0.40000019543E+02 0.  0.
        -12    1    3    3    0    0  0.18201238596E+02 -0.30652049983E+02  0.92166130483E+01  0.36820907250E+02  0.00000000000E+00 0.  1.
         11    1    4    4    0    0 -0.23912109408E+01  0.51137877331E+01  0.92478346480E+01  0.10834720148E+02  0.51100000000E-03 0. -1.
        -11    1    4    4    0    0 -0.15167527643E+02  0.19560973379E+01 -0.38107833108E+01  0.15760783017E+02  0.51100000000E-03 0.  1.
         12    1    4    4    0    0 -0.64250001218E+00  0.23582164912E+02 -0.14653664385E+02  0.27771589586E+02  0.00000000000E+00 0. -1.
</event>
<event>
 8    1  0.3007389E-007  0.9118800E+02  0.7816164E-02  0.1184000E+00
        -11   -1    0    0    0    0  0.00000000000E+00  0.00000000000E+00  0.45593999997E+02  0.45594000000E+02  0.51100000000E-03 0. -1.
         11   -1    0    0    0    0 -0.00000000000E+00 -0.00000000000E+00 -0.45593999997E+02  0.45594000000E+02  0.51100000000E-03 0.  1.
         23    2    1    2    0    0  0.00000000000E+00  0.00000000000E+00 -0.44408920985E-15  0.91188000000E+02  0.91188000000E+02 0.  0.
    9900012    2    3    3    0    0 -0.29967881520E+02  0.21357089690E+02  0.12577640382E+01  0.54367066101E+02  0.39999958791E+02 0.  0.
         12    1    3    3    0    0  0.29967881520E+02 -0.21357089690E+02 -0.12577640382E+01  0.36820933899E+02  0.00000000000E+00 0. -1.
         11    1    4    4    0    0 -0.23825212850E+02  0.23653435589E+01  0.38255521092E+01  0.24246040227E+02  0.51100000000E-03 0. -1.
        -11    1    4    4    0    0 -0.17781245836E+01  0.21208798256E+02  0.42741510951E+01  0.21708137146E+02  0.51100000000E-03 0.  1.
         12    1    4    4    0    0 -0.43645440863E+01 -0.22170521253E+01 -0.68419391661E+01  0.84128887286E+01  0.00000000000E+00 0. -1.
</event>
<event>
 8    1  0.3007389E-007  0.9118800E+02  0.7816164E-02  0.1184000E+00
        -11   -1    0    0    0    0  0.00000000000E+00  0.00000000000E+00  0.45593999997E+02  0.45594000000E+02  0.51100000000E-03 0.  1.
         11   -1    0    0    0    0 -0.00000000000E+00 -0.00000000000E+00 -0.45593999997E+02  0.45594000000E+02  0.51100000000E-03 0. -1.
         23    2    1    2    0    0  0.00000000000E+00  0.17763568394E-14  0.00000000000E+00  0.91188000000E+02  0.91188000000E+02 0.  0.
    9900012    2    3    3    0    0 -0.30500745652E+02  0.52443939960E+01 -0.19949469713E+02  0.54367075303E+02  0.39999979769E+02 0.  0.
        -12    1    3    3    0    0  0.30500745652E+02 -0.52443939960E+01  0.19949469713E+02  0.36820924697E+02  0.00000000000E+00 0.  1.
         11    1    4    4    0    0  0.64915757424E+01  0.10053504774E+02 -0.93873683709E+01  0.15209740269E+02  0.51100000000E-03 0. -1.
        -11    1    4    4    0    0 -0.28538436275E+02 -0.30712542507E+01 -0.57420584674E+01  0.29271935081E+02  0.51100000000E-03 0.  1.
         12    1    4    4    0    0 -0.84538851190E+01 -0.17378565272E+01 -0.48200428744E+01  0.98853999528E+01  0.00000000000E+00 0. -1.
</event>
<event>
 8    1  0.3007389E-007  0.9118800E+02  0.7816164E-02  0.1184000E+00
        -11   -1    0    0    0    0  0.00000000000E+00  0.00000000000E+00  0.45593999997E+02  0.45594000000E+02  0.51100000000E-03 0.  1.
         11   -1    0    0    0    0 -0.00000000000E+00 -0.00000000000E+00 -0.45593999997E+02  0.45594000000E+02  0.51100000000E-03 0. -1.
         23    2    1    2    0    0  0.00000000000E+00  0.00000000000E+00  0.00000000000E+00  0.91188000000E+02  0.91188000000E+02 0.  0.
    9900012    2    3    3    0    0 -0.13478409081E+01  0.27851341313E+02  0.24046921595E+02  0.54367240553E+02  0.40000356487E+02 0.  0.
        -12    1    3    3    0    0  0.13478409081E+01 -0.27851341313E+02 -0.24046921595E+02  0.36820759447E+02  0.00000000000E+00 0.  1.
         11    1    4    4    0    0 -0.58808462902E+00  0.84436443030E+01 -0.75305780708E+01  0.11329191453E+02  0.51100000000E-03 0. -1.
        -11    1    4    4    0    0 -0.24335503402E+01  0.20078289950E+02  0.12290143191E+02  0.23666590682E+02  0.51100000000E-03 0.  1.
        -12    1    4    4    0    0  0.16737940611E+01 -0.67059294012E+00  0.19287356475E+02  0.19371458418E+02  0.00000000000E+00 0.  1.
</event>
<event>
 8    1  0.3007389E-007  0.9118800E+02  0.7816164E-02  0.1184000E+00
        -11   -1    0    0    0    0  0.00000000000E+00  0.00000000000E+00  0.45593999997E+02  0.45594000000E+02  0.51100000000E-03 0.  1.
         11   -1    0    0    0    0 -0.00000000000E+00 -0.00000000000E+00 -0.45593999997E+02  0.45594000000E+02  0.51100000000E-03 0. -1.
         23    2    1    2    0    0  0.00000000000E+00 -0.17763568394E-14  0.35527136788E-14  0.91188000000E+02  0.91188000000E+02 0.  0.
    9900012    2    3    3    0    0 -0.15798991538E+02 -0.90768798848E+01  0.31996581355E+02  0.54367094247E+02  0.40000022955E+02 0.  0.
         12    1    3    3    0    0  0.15798991538E+02  0.90768798848E+01 -0.31996581355E+02  0.36820905753E+02  0.00000000000E+00 0. -1.
         11    1    4    4    0    0 -0.14215724474E+02 -0.23672465820E+02  0.16518301160E+02  0.32176493498E+02  0.51100000000E-03 0. -1.
        -11    1    4    4    0    0 -0.12783345013E+01  0.75784967136E+01  0.38261622496E+01  0.85852937839E+01  0.51100000000E-03 0.  1.
        -12    1    4    4    0    0 -0.30493256248E+00  0.70170892219E+01  0.11652117946E+02  0.13605306966E+02  0.00000000000E+00 0.  1.
</event>
<event>
 8    1  0.3007389E-007  0.9118800E+02  0.7816164E-02  0.1184000E+00
        -11   -1    0    0    0    0  0.00000000000E+00  0.00000000000E+00  0.45593999997E+02  0.45594000000E+02  0.51100000000E-03 0. -1.
         11   -1    0    0    0    0 -0.00000000000E+00 -0.00000000000E+00 -0.45593999997E+02  0.45594000000E+02  0.51100000000E-03 0.  1.
         23    2    1    2    0    0  0.49960036108E-15  0.00000000000E+00  0.88817841970E-15  0.91188000000E+02  0.91188000000E+02 0.  0.
    9900012    2    3    3    0    0 -0.41368256046E+00  0.36383726930E+02  0.56420792232E+01  0.54367085067E+02  0.40000002027E+02 0.  0.
        -12    1    3    3    0    0  0.41368256046E+00 -0.36383726930E+02 -0.56420792232E+01  0.36820914933E+02  0.00000000000E+00 0.  1.
         11    1    4    4    0    0  0.91219070177E+01  0.12355364878E+02  0.14769961670E+02  0.21307651135E+02  0.51100000000E-03 0.  1.
        -11    1    4    4    0    0 -0.23366129876E+00 -0.29493927776E+01  0.37514337843E+00  0.29823226141E+01  0.51100000000E-03 0. -1.
         12    1    4    4    0    0 -0.93019282794E+01  0.26977754829E+02 -0.95030258254E+01  0.30077111317E+02  0.00000000000E+00 0. -1.
</event>
<event>
 8    1  0.3007389E-007  0.9118800E+02  0.7816164E-02  0.1184000E+00
        -11   -1    0    0    0    0  0.00000000000E+00  0.00000000000E+00  0.45593999997E+02  0.45594000000E+02  0.51100000000E-03 0. -1.
         11   -1    0    0    0    0 -0.00000000000E+00 -0.00000000000E+00 -0.45593999997E+02  0.45594000000E+02  0.51100000000E-03 0.  1.
         23    2    1    2    0    0  0.35527136788E-14  0.00000000000E+00 -0.35527136788E-14  0.91188000000E+02  0.91188000000E+02 0.  0.
    9900012    2    3    3    0    0  0.29913695078E+02 -0.42321310842E+01 -0.21048475318E+02  0.54367103760E+02  0.40000044641E+02 0.  0.
         12    1    3    3    0    0 -0.29913695078E+02  0.42321310842E+01  0.21048475318E+02  0.36820896240E+02  0.00000000000E+00 0. -1.
         11    1    4    4    0    0  0.10481017091E+02 -0.98873607059E+00  0.89749211881E+01  0.13833962876E+02  0.51100000000E-03 0. -1.
        -11    1    4    4    0    0  0.11467337784E+02  0.12742328734E+01 -0.29130736680E+02  0.31332464395E+02  0.51100000000E-03 0.  1.
        -12    1    4    4    0    0  0.79653402032E+01 -0.45176278869E+01 -0.89265982626E+00  0.92006764883E+01  0.00000000000E+00 0.  1.
</event>
<event>
 8    1  0.3007389E-007  0.9118800E+02  0.7816164E-02  0.1184000E+00
        -11   -1    0    0    0    0  0.00000000000E+00  0.00000000000E+00  0.45593999997E+02  0.45594000000E+02  0.51100000000E-03 0.  1.
         11   -1    0    0    0    0 -0.00000000000E+00 -0.00000000000E+00 -0.45593999997E+02  0.45594000000E+02  0.51100000000E-03 0. -1.
         23    2    1    2    0    0  0.00000000000E+00  0.00000000000E+00  0.17763568394E-14  0.91188000000E+02  0.91188000000E+02 0.  0.
    9900012    2    3    3    0    0 -0.13033337440E+02  0.31388522702E+02 -0.14165914670E+02  0.54367076863E+02  0.39999983324E+02 0.  0.
        -12    1    3    3    0    0  0.13033337440E+02 -0.31388522702E+02  0.14165914670E+02  0.36820923137E+02  0.00000000000E+00 0.  1.
         11    1    4    4    0    0 -0.17560457416E+01  0.10461832992E+01  0.44205273560E+01  0.48702421406E+01  0.51100000000E-03 0.  1.
        -11    1    4    4    0    0 -0.21408247949E+02  0.27864138469E+02 -0.16671012920E+02  0.38892749516E+02  0.51100000000E-03 0. -1.
         12    1    4    4    0    0  0.10130956250E+02  0.24782009341E+01 -0.19154291054E+01  0.10604085207E+02  0.00000000000E+00 0. -1.
</event>
<event>
 8    1  0.3007389E-007  0.9118800E+02  0.7816164E-02  0.1184000E+00
        -11   -1    0    0    0    0  0.00000000000E+00  0.00000000000E+00  0.45593999997E+02  0.45594000000E+02  0.51100000000E-03 0.  1.
         11   -1    0    0    0    0 -0.00000000000E+00 -0.00000000000E+00 -0.45593999997E+02  0.45594000000E+02  0.51100000000E-03 0. -1.
         23    2    1    2    0    0  0.00000000000E+00  0.35527136788E-14  0.00000000000E+00  0.91188000000E+02  0.91188000000E+02 0.  0.
    9900012    2    3    3    0    0  0.25269866889E+02  0.16724104454E+02 -0.20916998813E+02  0.54367045616E+02  0.39999912092E+02 0.  0.
        -12    1    3    3    0    0 -0.25269866889E+02 -0.16724104454E+02  0.20916998813E+02  0.36820954384E+02  0.00000000000E+00 0.  1.
         11    1    4    4    0    0 -0.27316687387E+01  0.13560322808E+02 -0.65523836794E+01  0.15306145854E+02  0.51100000000E-03 0. -1.
        -11    1    4    4    0    0  0.12894033864E+02  0.11505393115E+02 -0.11390147256E+01  0.17318416060E+02  0.51100000000E-03 0.  1.
         12    1    4    4    0    0  0.15107501764E+02 -0.83416114685E+01 -0.13225600408E+02  0.21742483703E+02  0.00000000000E+00 0. -1.
</event>
<event>
 8    1  0.3007389E-007  0.9118800E+02  0.7816164E-02  0.1184000E+00
        -11   -1    0    0    0    0  0.00000000000E+00  0.00000000000E+00  0.45593999997E+02  0.45594000000E+02  0.51100000000E-03 0. -1.
         11   -1    0    0    0    0 -0.00000000000E+00 -0.00000000000E+00 -0.45593999997E+02  0.45594000000E+02  0.51100000000E-03 0.  1.
         23    2    1    2    0    0  0.00000000000E+00  0.35527136788E-14  0.00000000000E+00  0.91188000000E+02  0.91188000000E+02 0.  0.
    9900012    2    3    3    0    0 -0.31393904128E+02 -0.90160378866E+01 -0.16997467979E+02  0.54367081037E+02  0.39999992840E+02 0.  0.
         12    1    3    3    0    0  0.31393904128E+02  0.90160378866E+01  0.16997467979E+02  0.36820918963E+02  0.00000000000E+00 0. -1.
         11    1    4    4    0    0  0.96220331200E-01  0.38597627501E+01 -0.85715796928E+01  0.94010108781E+01  0.51100000000E-03 0. -1.
        -11    1    4    4    0    0 -0.12511591486E+02  0.33921233053E+01 -0.14286941856E+02  0.19291530004E+02  0.51100000000E-03 0.  1.
        -12    1    4    4    0    0 -0.18978532974E+02 -0.16267923942E+02  0.58610535699E+01  0.25674540155E+02  0.00000000000E+00 0.  1.
</event>
<event>
 8    1  0.3007389E-007  0.9118800E+02  0.7816164E-02  0.1184000E+00
        -11   -1    0    0    0    0  0.00000000000E+00  0.00000000000E+00  0.45593999997E+02  0.45594000000E+02  0.51100000000E-03 0. -1.
         11   -1    0    0    0    0 -0.00000000000E+00 -0.00000000000E+00 -0.45593999997E+02  0.45594000000E+02  0.51100000000E-03 0.  1.
         23    2    1    2    0    0 -0.35527136788E-14 -0.35527136788E-14  0.88817841970E-15  0.91188000000E+02  0.91188000000E+02 0.  0.
    9900012    2    3    3    0    0  0.22135790137E+02 -0.28774759003E+02  0.61482370315E+01  0.54367071450E+02  0.39999970985E+02 0.  0.
         12    1    3    3    0    0 -0.22135790137E+02  0.28774759003E+02 -0.61482370315E+01  0.36820928550E+02  0.00000000000E+00 0. -1.
         11    1    4    4    0    0  0.18129907691E+01 -0.70575471930E+01  0.12046684987E+02  0.14079010169E+02  0.51100000000E-03 0. -1.
        -11    1    4    4    0    0  0.21834030930E+02 -0.25866510189E+02 -0.88364650362E+01  0.34984058807E+02  0.51100000000E-03 0.  1.
         12    1    4    4    0    0 -0.15112315625E+01  0.41492983789E+01  0.29380170808E+01  0.53040024736E+01  0.00000000000E+00 0. -1.
</event>
<event>
 8    1  0.3007389E-007  0.9118800E+02  0.7816164E-02  0.1184000E+00
        -11   -1    0    0    0    0  0.00000000000E+00  0.00000000000E+00  0.45593999997E+02  0.45594000000E+02  0.51100000000E-03 0.  1.
         11   -1    0    0    0    0 -0.00000000000E+00 -0.00000000000E+00 -0.45593999997E+02  0.45594000000E+02  0.51100000000E-03 0. -1.
         23    2    1    2    0    0  0.00000000000E+00 -0.88817841970E-15  0.35527136788E-14  0.91188000000E+02  0.91188000000E+02 0.  0.
    9900012    2    3    3    0    0 -0.20473171994E+02  0.44961361667E+01  0.30272300687E+02  0.54367106464E+02  0.40000050805E+02 0.  0.
         12    1    3    3    0    0  0.20473171994E+02 -0.44961361667E+01 -0.30272300687E+02  0.36820893536E+02  0.00000000000E+00 0. -1.
         11    1    4    4    0    0 -0.13939968156E+02 -0.36934726274E+01  0.53171593764E+01  0.15369991423E+02  0.51100000000E-03 0. -1.
        -11    1    4    4    0    0  0.45603790671E+01 -0.75358209602E+01  0.19821406151E+01  0.90285401068E+01  0.51100000000E-03 0.  1.
         12    1    4    4    0    0 -0.11093582904E+02  0.15725429754E+02  0.22973000696E+02  0.29968574934E+02  0.00000000000E+00 0. -1.
</event>
<event>
 8    1  0.3007389E-007  0.9118800E+02  0.7816164E-02  0.1184000E+00
        -11   -1    0    0    0    0  0.00000000000E+00  0.00000000000E+00  0.45593999997E+02  0.45594000000E+02  0.51100000000E-03 0.  1.
         11   -1    0    0    0    0 -0.00000000000E+00 -0.00000000000E+00 -0.45593999997E+02  0.45594000000E+02  0.51100000000E-03 0. -1.
         23    2    1    2    0    0  0.00000000000E+00  0.00000000000E+00  0.00000000000E+00  0.91188000000E+02  0.91188000000E+02 0.  0.
    9900012    2    3    3    0    0 -0.90351836511E+01  0.12241904198E+02  0.33530242066E+02  0.54367137774E+02  0.40000122184E+02 0.  0.
         12    1    3    3    0    0  0.90351836511E+01 -0.12241904198E+02 -0.33530242066E+02  0.36820862226E+02  0.00000000000E+00 0. -1.
         11    1    4    4    0    0 -0.58629086356E+01  0.51734774930E+01 -0.19046663604E+01  0.80477525586E+01  0.51100000000E-03 0. -1.
        -11    1    4    4    0    0 -0.80303141661E+01 -0.84744383224E+01  0.71749977746E+01  0.13703380744E+02  0.51100000000E-03 0.  1.
         12    1    4    4    0    0  0.48580391505E+01  0.15542865027E+02  0.28259910652E+02  0.32616004472E+02  0.00000000000E+00 0. -1.
</event>
<event>
 8    1  0.3007389E-007  0.9118800E+02  0.7816164E-02  0.1184000E+00
        -11   -1    0    0    0    0  0.00000000000E+00  0.00000000000E+00  0.45593999997E+02  0.45594000000E+02  0.51100000000E-03 0.  1.
         11   -1    0    0    0    0 -0.00000000000E+00 -0.00000000000E+00 -0.45593999997E+02  0.45594000000E+02  0.51100000000E-03 0. -1.
         23    2    1    2    0    0  0.00000000000E+00  0.00000000000E+00  0.00000000000E+00  0.91188000000E+02  0.91188000000E+02 0.  0.
    9900012    2    3    3    0    0  0.82274641019E+01  0.28247061569E+02 -0.22140294993E+02  0.54367077752E+02  0.39999985351E+02 0.  0.
        -12    1    3    3    0    0 -0.82274641019E+01 -0.28247061569E+02  0.22140294993E+02  0.36820922248E+02  0.00000000000E+00 0.  1.
         11    1    4    4    0    0  0.52507045595E+01  0.28489199521E+02 -0.21204929933E+02  0.35900605029E+02  0.51100000000E-03 0. -1.
        -11    1    4    4    0    0 -0.58918943192E+01 -0.55276139974E+01 -0.10114206091E+01  0.81419842227E+01  0.51100000000E-03 0.  1.
         12    1    4    4    0    0  0.88686538616E+01  0.52854760454E+01  0.76055549300E-01  0.10324488500E+02  0.00000000000E+00 0. -1.
</event>
<event>
 8    1  0.3007389E-007  0.9118800E+02  0.7816164E-02  0.1184000E+00
        -11   -1    0    0    0    0  0.00000000000E+00  0.00000000000E+00  0.45593999997E+02  0.45594000000E+02  0.51100000000E-03 0.  1.
         11   -1    0    0    0    0 -0.00000000000E+00 -0.00000000000E+00 -0.45593999997E+02  0.45594000000E+02  0.51100000000E-03 0. -1.
         23    2    1    2    0    0  0.88817841970E-15  0.00000000000E+00  0.13045120539E-14  0.91188000000E+02  0.91188000000E+02 0.  0.
    9900012    2    3    3    0    0  0.35777184601E+01  0.36645892597E+02  0.23955998185E+00  0.54367096934E+02  0.40000029081E+02 0.  0.
        -12    1    3    3    0    0 -0.35777184601E+01 -0.36645892597E+02 -0.23955998185E+00  0.36820903066E+02  0.00000000000E+00 0.  1.
         11    1    4    4    0    0  0.48526288679E+01  0.33449774728E+01 -0.92126923284E+00  0.59653682605E+01  0.51100000000E-03 0.  1.
        -11    1    4    4    0    0  0.43757958003E+01  0.17656421067E+02 -0.16199962682E+02  0.24358480760E+02  0.51100000000E-03 0. -1.
        -12    1    4    4    0    0 -0.56507062081E+01  0.15644494057E+02  0.17360791897E+02  0.24043247913E+02  0.00000000000E+00 0.  1.
</event>
<event>
 8    1  0.3007389E-007  0.9118800E+02  0.7816164E-02  0.1184000E+00
        -11   -1    0    0    0    0  0.00000000000E+00  0.00000000000E+00  0.45593999997E+02  0.45594000000E+02  0.51100000000E-03 0.  1.
         11   -1    0    0    0    0 -0.00000000000E+00 -0.00000000000E+00 -0.45593999997E+02  0.45594000000E+02  0.51100000000E-03 0. -1.
         23    2    1    2    0    0  0.35527136788E-14  0.35527136788E-14  0.35527136788E-14  0.91188000000E+02  0.91188000000E+02 0.  0.
    9900012    2    3    3    0    0  0.11940418953E+02  0.28637389750E+02  0.19826941630E+02  0.54367064231E+02  0.39999954528E+02 0.  0.
         12    1    3    3    0    0 -0.11940418953E+02 -0.28637389750E+02 -0.19826941630E+02  0.36820935769E+02  0.00000000000E+00 0. -1.
         11    1    4    4    0    0  0.79927595384E+01  0.32141116459E+02  0.12988293303E+02  0.35575712719E+02  0.51100000000E-03 0. -1.
        -11    1    4    4    0    0  0.26129223161E+01 -0.29917707242E+01 -0.52696057084E+01  0.65989999000E+01  0.51100000000E-03 0.  1.
        -12    1    4    4    0    0  0.13347370983E+01 -0.51195598452E+00  0.12108254036E+02  0.12192351613E+02  0.00000000000E+00 0.  1.
</event>
<event>
 8    1  0.3007389E-007  0.9118800E+02  0.7816164E-02  0.1184000E+00
        -11   -1    0    0    0    0  0.00000000000E+00  0.00000000000E+00  0.45593999997E+02  0.45594000000E+02  0.51100000000E-03 0.  1.
         11   -1    0    0    0    0 -0.00000000000E+00 -0.00000000000E+00 -0.45593999997E+02  0.45594000000E+02  0.51100000000E-03 0. -1.
         23    2    1    2    0    0  0.00000000000E+00 -0.35527136788E-14  0.00000000000E+00  0.91188000000E+02  0.91188000000E+02 0.  0.
    9900012    2    3    3    0    0  0.92149947721E+01 -0.30524125834E+02  0.18415799183E+02  0.54367081406E+02  0.39999993681E+02 0.  0.
         12    1    3    3    0    0 -0.92149947721E+01  0.30524125834E+02 -0.18415799183E+02  0.36820918594E+02  0.00000000000E+00 0. -1.
         11    1    4    4    0    0  0.59161272733E+01 -0.86953192679E+01  0.12911585848E+02  0.16652873279E+02  0.51100000000E-03 0. -1.
        -11    1    4    4    0    0  0.15445107238E+02 -0.19611741838E+02  0.36516082463E+01  0.25229070505E+02  0.51100000000E-03 0.  1.
         12    1    4    4    0    0 -0.12146239739E+02 -0.22170647278E+01  0.18526050887E+01  0.12485137621E+02  0.00000000000E+00 0. -1.
</event>
<event>
 8    1  0.3007389E-007  0.9118800E+02  0.7816164E-02  0.1184000E+00
        -11   -1    0    0    0    0  0.00000000000E+00  0.00000000000E+00  0.45593999997E+02  0.45594000000E+02  0.51100000000E-03 0. -1.
         11   -1    0    0    0    0 -0.00000000000E+00 -0.00000000000E+00 -0.45593999997E+02  0.45594000000E+02  0.51100000000E-03 0.  1.
         23    2    1    2    0    0 -0.71054273576E-14  0.00000000000E+00  0.88817841970E-15  0.91188000000E+02  0.91188000000E+02 0.  0.
    9900012    2    3    3    0    0 -0.35670510840E+02 -0.75738706470E+01 -0.51020525059E+01  0.54367084749E+02  0.40000001301E+02 0.  0.
         12    1    3    3    0    0  0.35670510840E+02  0.75738706470E+01  0.51020525059E+01  0.36820915251E+02  0.00000000000E+00 0. -1.
         11    1    4    4    0    0 -0.34540154671E+01  0.11975530168E+01 -0.65284294024E+01  0.74822955567E+01  0.51100000000E-03 0. -1.
        -11    1    4    4    0    0 -0.21614667617E+02 -0.39460594528E+01 -0.15103987570E+02  0.26662627068E+02  0.51100000000E-03 0.  1.
        -12    1    4    4    0    0 -0.10601827756E+02 -0.48253642110E+01  0.16530364467E+02  0.20222162124E+02  0.00000000000E+00 0.  1.
</event>
<event>
 8    1  0.3007389E-007  0.9118800E+02  0.7816164E-02  0.1184000E+00
        -11   -1    0    0    0    0  0.00000000000E+00  0.00000000000E+00  0.45593999997E+02  0.45594000000E+02  0.51100000000E-03 0.  1.
         11   -1    0    0    0    0 -0.00000000000E+00 -0.00000000000E+00 -0.45593999997E+02  0.45594000000E+02  0.51100000000E-03 0. -1.
         23    2    1    2    0    0 -0.17763568394E-14  0.00000000000E+00  0.35527136788E-14  0.91188000000E+02  0.91188000000E+02 0.  0.
    9900012    2    3    3    0    0  0.12602433299E+02 -0.22535155573E+02  0.26251194200E+02  0.54367085308E+02  0.40000002578E+02 0.  0.
        -12    1    3    3    0    0 -0.12602433299E+02  0.22535155573E+02 -0.26251194200E+02  0.36820914692E+02  0.00000000000E+00 0.  1.
         11    1    4    4    0    0  0.80351325159E+01 -0.27737241984E+01 -0.57762308462E+00  0.85200087539E+01  0.51100000000E-03 0. -1.
        -11    1    4    4    0    0  0.15258869651E+02 -0.55342728318E+01  0.22122891467E+02  0.27438724568E+02  0.51100000000E-03 0.  1.
        -12    1    4    4    0    0 -0.10691568868E+02 -0.14227158543E+02  0.47059258183E+01  0.18408351987E+02  0.00000000000E+00 0.  1.
</event>
<event>
 8    1  0.3007389E-007  0.9118800E+02  0.7816164E-02  0.1184000E+00
        -11   -1    0    0    0    0  0.00000000000E+00  0.00000000000E+00  0.45593999997E+02  0.45594000000E+02  0.51100000000E-03 0.  1.
         11   -1    0    0    0    0 -0.00000000000E+00 -0.00000000000E+00 -0.45593999997E+02  0.45594000000E+02  0.51100000000E-03 0. -1.
         23    2    1    2    0    0  0.17763568394E-14 -0.17763568394E-14  0.00000000000E+00  0.91188000000E+02  0.91188000000E+02 0.  0.
    9900012    2    3    3    0    0 -0.15721561438E+02 -0.74673937353E+01 -0.32447632287E+02  0.54367105059E+02  0.40000047604E+02 0.  0.
        -12    1    3    3    0    0  0.15721561438E+02  0.74673937353E+01  0.32447632287E+02  0.36820894941E+02  0.00000000000E+00 0.  1.
         11    1    4    4    0    0 -0.55918527457E+01  0.51743080999E+00 -0.23767970902E+02  0.24422387124E+02  0.51100000000E-03 0. -1.
        -11    1    4    4    0    0 -0.10817733948E+02 -0.94422523254E+01 -0.16550163508E+02  0.21910897041E+02  0.51100000000E-03 0.  1.
        -12    1    4    4    0    0  0.68802525575E+00  0.14574277801E+01  0.78705021234E+01  0.80338208943E+01  0.00000000000E+00 0.  1.
</event>
<event>
 8    1  0.3007389E-007  0.9118800E+02  0.7816164E-02  0.1184000E+00
        -11   -1    0    0    0    0  0.00000000000E+00  0.00000000000E+00  0.45593999997E+02  0.45594000000E+02  0.51100000000E-03 0. -1.
         11   -1    0    0    0    0 -0.00000000000E+00 -0.00000000000E+00 -0.45593999997E+02  0.45594000000E+02  0.51100000000E-03 0.  1.
         23    2    1    2    0    0 -0.35527136788E-14  0.00000000000E+00 -0.35527136788E-14  0.91188000000E+02  0.91188000000E+02 0.  0.
    9900012    2    3    3    0    0  0.24930790201E+02 -0.19270808861E+02  0.19048792943E+02  0.54367287259E+02  0.40000462961E+02 0.  0.
         12    1    3    3    0    0 -0.24930790201E+02  0.19270808861E+02 -0.19048792943E+02  0.36820712741E+02  0.00000000000E+00 0. -1.
         11    1    4    4    0    0  0.58217318055E+01  0.23222418099E+01  0.13827524274E+02  0.15181758661E+02  0.51100000000E-03 0. -1.
        -11    1    4    4    0    0 -0.51865568605E+01 -0.75842747087E+01  0.62655289710E+01  0.11121081264E+02  0.51100000000E-03 0.  1.
        -12    1    4    4    0    0  0.24295615256E+02 -0.14008775962E+02 -0.10442603014E+01  0.28064447334E+02  0.00000000000E+00 0.  1.
</event>
<event>
 8    1  0.3007389E-007  0.9118800E+02  0.7816164E-02  0.1184000E+00
        -11   -1    0    0    0    0  0.00000000000E+00  0.00000000000E+00  0.45593999997E+02  0.45594000000E+02  0.51100000000E-03 0.  1.
         11   -1    0    0    0    0 -0.00000000000E+00 -0.00000000000E+00 -0.45593999997E+02  0.45594000000E+02  0.51100000000E-03 0. -1.
         23    2    1    2    0    0  0.00000000000E+00 -0.17763568394E-14  0.00000000000E+00  0.91188000000E+02  0.91188000000E+02 0.  0.
    9900012    2    3    3    0    0 -0.25513332319E+02 -0.71727720985E+01 -0.25561697970E+02  0.54367093049E+02  0.40000020223E+02 0.  0.
        -12    1    3    3    0    0  0.25513332319E+02  0.71727720985E+01  0.25561697970E+02  0.36820906951E+02  0.00000000000E+00 0.  1.
         11    1    4    4    0    0 -0.65047613989E+01 -0.11853213120E+02 -0.11967008617E+02  0.18056020537E+02  0.51100000000E-03 0. -1.
        -11    1    4    4    0    0 -0.82504838428E+01 -0.10335865661E+02 -0.11848644565E+02  0.17756434915E+02  0.51100000000E-03 0.  1.
         12    1    4    4    0    0 -0.10758087078E+02  0.15016306683E+02 -0.17460447882E+01  0.18554637597E+02  0.00000000000E+00 0. -1.
</event>
<event>
 8    1  0.3007389E-007  0.9118800E+02  0.7816164E-02  0.1184000E+00
        -11   -1    0    0    0    0  0.00000000000E+00  0.00000000000E+00  0.45593999997E+02  0.45594000000E+02  0.51100000000E-03 0.  1.
         11   -1    0    0    0    0 -0.00000000000E+00 -0.00000000000E+00 -0.45593999997E+02  0.45594000000E+02  0.51100000000E-03 0. -1.
         23    2    1    2    0    0  0.44408920985E-15  0.17763568394E-14  0.00000000000E+00  0.91188000000E+02  0.91188000000E+02 0.  0.
    9900012    2    3    3    0    0  0.39998443234E+01 -0.13859931947E+02 -0.33877475474E+02  0.54367084576E+02  0.40000000908E+02 0.  0.
        -12    1    3    3    0    0 -0.39998443234E+01  0.13859931947E+02  0.33877475474E+02  0.36820915424E+02  0.00000000000E+00 0.  1.
         11    1    4    4    0    0  0.77486733905E+01 -0.98446580856E+01 -0.23857299160E+02  0.26946798615E+02  0.51100000000E-03 0.  1.
        -11    1    4    4    0    0  0.86171131783E+01  0.46973057234E+01 -0.68399569929E+01  0.11962622309E+02  0.51100000000E-03 0. -1.
        -12    1    4    4    0    0 -0.12365942245E+02 -0.87125795846E+01 -0.31802193210E+01  0.15457663652E+02  0.00000000000E+00 0.  1.
</event>
<event>
 8    1  0.3007389E-007  0.9118800E+02  0.7816164E-02  0.1184000E+00
        -11   -1    0    0    0    0  0.00000000000E+00  0.00000000000E+00  0.45593999997E+02  0.45594000000E+02  0.51100000000E-03 0.  1.
         11   -1    0    0    0    0 -0.00000000000E+00 -0.00000000000E+00 -0.45593999997E+02  0.45594000000E+02  0.51100000000E-03 0. -1.
         23    2    1    2    0    0  0.35527136788E-14 -0.35527136788E-14  0.35527136788E-14  0.91188000000E+02  0.91188000000E+02 0.  0.
    9900012    2    3    3    0    0 -0.18919829466E+02  0.16761363695E+02 -0.26774571211E+02  0.54367069492E+02  0.39999966520E+02 0.  0.
        -12    1    3    3    0    0  0.18919829466E+02 -0.16761363695E+02  0.26774571211E+02  0.36820930508E+02  0.00000000000E+00 0.  1.
         11    1    4    4    0    0  0.12910591801E+01  0.13280713487E+02 -0.87857078650E+01  0.15976008496E+02  0.51100000000E-03 0. -1.
        -11    1    4    4    0    0 -0.11142087312E+02  0.75561872553E+01 -0.23455767429E+02  0.27044687121E+02  0.51100000000E-03 0.  1.
        -12    1    4    4    0    0 -0.90688013339E+01 -0.40755370470E+01  0.54669040827E+01  0.11346373875E+02  0.00000000000E+00 0.  1.
</event>
<event>
 8    1  0.3007389E-007  0.9118800E+02  0.7816164E-02  0.1184000E+00
        -11   -1    0    0    0    0  0.00000000000E+00  0.00000000000E+00  0.45593999997E+02  0.45594000000E+02  0.51100000000E-03 0.  1.
         11   -1    0    0    0    0 -0.00000000000E+00 -0.00000000000E+00 -0.45593999997E+02  0.45594000000E+02  0.51100000000E-03 0. -1.
         23    2    1    2    0    0  0.00000000000E+00  0.00000000000E+00  0.00000000000E+00  0.91188000000E+02  0.91188000000E+02 0.  0.
    9900012    2    3    3    0    0  0.37968272272E+01  0.17253277619E+02 -0.32306137384E+02  0.54367109214E+02  0.40000057075E+02 0.  0.
        -12    1    3    3    0    0 -0.37968272272E+01 -0.17253277619E+02  0.32306137384E+02  0.36820890786E+02  0.00000000000E+00 0.  1.
         11    1    4    4    0    0  0.11266901127E+01  0.56399132544E+01  0.82039055761E+01  0.10019087737E+02  0.51100000000E-03 0. -1.
        -11    1    4    4    0    0  0.60551986222E+01  0.78566093676E+01 -0.12868743244E+02  0.16247962766E+02  0.51100000000E-03 0.  1.
         12    1    4    4    0    0 -0.33850615077E+01  0.37567549969E+01 -0.27641299717E+02  0.28100058711E+02  0.00000000000E+00 0. -1.
</event>
<event>
 8    1  0.3007389E-007  0.9118800E+02  0.7816164E-02  0.1184000E+00
        -11   -1    0    0    0    0  0.00000000000E+00  0.00000000000E+00  0.45593999997E+02  0.45594000000E+02  0.51100000000E-03 0.  1.
         11   -1    0    0    0    0 -0.00000000000E+00 -0.00000000000E+00 -0.45593999997E+02  0.45594000000E+02  0.51100000000E-03 0. -1.
         23    2    1    2    0    0  0.00000000000E+00 -0.17763568394E-14  0.00000000000E+00  0.91188000000E+02  0.91188000000E+02 0.  0.
    9900012    2    3    3    0    0 -0.25936387700E+02  0.12433294402E+02  0.22989061312E+02  0.54367082621E+02  0.39999996451E+02 0.  0.
         12    1    3    3    0    0  0.25936387700E+02 -0.12433294402E+02 -0.22989061312E+02  0.36820917379E+02  0.00000000000E+00 0. -1.
         11    1    4    4    0    0 -0.11868209958E+01  0.45436905929E+01  0.17948161448E+00  0.46995619148E+01  0.51100000000E-03 0. -1.
        -11    1    4    4    0    0 -0.11773050871E+02  0.21582047643E+02  0.17139651751E+02  0.29969270423E+02  0.51100000000E-03 0.  1.
        -12    1    4    4    0    0 -0.12976515833E+02 -0.13692443833E+02  0.56699279464E+01  0.19698250283E+02  0.00000000000E+00 0.  1.
</event>
<event>
 8    1  0.3007389E-007  0.9118800E+02  0.7816164E-02  0.1184000E+00
        -11   -1    0    0    0    0  0.00000000000E+00  0.00000000000E+00  0.45593999997E+02  0.45594000000E+02  0.51100000000E-03 0.  1.
         11   -1    0    0    0    0 -0.00000000000E+00 -0.00000000000E+00 -0.45593999997E+02  0.45594000000E+02  0.51100000000E-03 0. -1.
         23    2    1    2    0    0  0.00000000000E+00  0.00000000000E+00  0.35527136788E-14  0.91188000000E+02  0.91188000000E+02 0.  0.
    9900012    2    3    3    0    0  0.11004438639E+02  0.28622341644E+02  0.20382396617E+02  0.54367106437E+02  0.40000050745E+02 0.  0.
         12    1    3    3    0    0 -0.11004438639E+02 -0.28622341644E+02 -0.20382396617E+02  0.36820893563E+02  0.00000000000E+00 0. -1.
         11    1    4    4    0    0 -0.60011371577E+01  0.10455655692E+01  0.13671651155E+01  0.62430757851E+01  0.51100000000E-03 0.  1.
        -11    1    4    4    0    0 -0.14915494963E+01  0.24340648614E+02  0.55299467142E+01  0.25005443523E+02  0.51100000000E-03 0. -1.
         12    1    4    4    0    0  0.18497125293E+02  0.32361274601E+01  0.13485284787E+02  0.23118587129E+02  0.00000000000E+00 0. -1.
</event>
<event>
 8    1  0.3007389E-007  0.9118800E+02  0.7816164E-02  0.1184000E+00
        -11   -1    0    0    0    0  0.00000000000E+00  0.00000000000E+00  0.45593999997E+02  0.45594000000E+02  0.51100000000E-03 0.  1.
         11   -1    0    0    0    0 -0.00000000000E+00 -0.00000000000E+00 -0.45593999997E+02  0.45594000000E+02  0.51100000000E-03 0. -1.
         23    2    1    2    0    0  0.00000000000E+00  0.00000000000E+00  0.35527136788E-14  0.91188000000E+02  0.91188000000E+02 0.  0.
    9900012    2    3    3    0    0 -0.10310764335E+02 -0.18980211449E+02 -0.29819790535E+02  0.54367079379E+02  0.39999989059E+02 0.  0.
        -12    1    3    3    0    0  0.10310764335E+02  0.18980211449E+02  0.29819790535E+02  0.36820920621E+02  0.00000000000E+00 0.  1.
         11    1    4    4    0    0  0.43034967339E+01  0.54294678513E+01 -0.81748696592E+01  0.10715768731E+02  0.51100000000E-03 0. -1.
        -11    1    4    4    0    0  0.27689484915E+00 -0.37694804194E+00 -0.14477044056E+02  0.14484597524E+02  0.51100000000E-03 0.  1.
        -12    1    4    4    0    0 -0.14891155918E+02 -0.24032731259E+02 -0.71678768207E+01  0.29166713124E+02  0.00000000000E+00 0.  1.
</event>
<event>
 8    1  0.3007389E-007  0.9118800E+02  0.7816164E-02  0.1184000E+00
        -11   -1    0    0    0    0  0.00000000000E+00  0.00000000000E+00  0.45593999997E+02  0.45594000000E+02  0.51100000000E-03 0. -1.
         11   -1    0    0    0    0 -0.00000000000E+00 -0.00000000000E+00 -0.45593999997E+02  0.45594000000E+02  0.51100000000E-03 0.  1.
         23    2    1    2    0    0  0.00000000000E+00  0.00000000000E+00  0.00000000000E+00  0.91188000000E+02  0.91188000000E+02 0.  0.
    9900012    2    3    3    0    0  0.58763469582E+01  0.35281073796E+02 -0.87461455300E+01  0.54367072752E+02  0.39999973952E+02 0.  0.
         12    1    3    3    0    0 -0.58763469582E+01 -0.35281073796E+02  0.87461455300E+01  0.36820927248E+02  0.00000000000E+00 0. -1.
         11    1    4    4    0    0  0.71274699688E+01  0.32896702680E+01  0.48192154040E+01  0.92112754817E+01  0.51100000000E-03 0. -1.
        -11    1    4    4    0    0  0.29015697021E+01 -0.49711938002E+01 -0.69964166833E+00  0.57983940242E+01  0.51100000000E-03 0.  1.
         12    1    4    4    0    0 -0.41526927128E+01  0.36962597328E+02 -0.12865719266E+02  0.39357403246E+02  0.00000000000E+00 0. -1.
</event>
<event>
 8    1  0.3007389E-007  0.9118800E+02  0.7816164E-02  0.1184000E+00
        -11   -1    0    0    0    0  0.00000000000E+00  0.00000000000E+00  0.45593999997E+02  0.45594000000E+02  0.51100000000E-03 0. -1.
         11   -1    0    0    0    0 -0.00000000000E+00 -0.00000000000E+00 -0.45593999997E+02  0.45594000000E+02  0.51100000000E-03 0.  1.
         23    2    1    2    0    0  0.00000000000E+00  0.00000000000E+00  0.00000000000E+00  0.91188000000E+02  0.91188000000E+02 0.  0.
    9900012    2    3    3    0    0 -0.28493277478E+02 -0.18849298147E+02  0.13733801132E+02  0.54367079376E+02  0.39999989053E+02 0.  0.
        -12    1    3    3    0    0  0.28493277478E+02  0.18849298147E+02 -0.13733801132E+02  0.36820920624E+02  0.00000000000E+00 0.  1.
         11    1    4    4    0    0 -0.13147857903E+02 -0.94013151462E+01 -0.95515218750E+01  0.18774516353E+02  0.51100000000E-03 0. -1.
        -11    1    4    4    0    0 -0.57077855683E+01  0.61869970188E+01  0.90115639133E+01  0.12331505692E+02  0.51100000000E-03 0.  1.
         12    1    4    4    0    0 -0.96376340068E+01 -0.15634980020E+02  0.14273759094E+02  0.23261057331E+02  0.00000000000E+00 0. -1.
</event>
<event>
 8    1  0.3007389E-007  0.9118800E+02  0.7816164E-02  0.1184000E+00
        -11   -1    0    0    0    0  0.00000000000E+00  0.00000000000E+00  0.45593999997E+02  0.45594000000E+02  0.51100000000E-03 0.  1.
         11   -1    0    0    0    0 -0.00000000000E+00 -0.00000000000E+00 -0.45593999997E+02  0.45594000000E+02  0.51100000000E-03 0. -1.
         23    2    1    2    0    0 -0.17763568394E-14  0.17763568394E-14  0.00000000000E+00  0.91188000000E+02  0.91188000000E+02 0.  0.
    9900012    2    3    3    0    0 -0.10017025163E+02  0.15411715549E+02 -0.31904854771E+02  0.54367061293E+02  0.39999947829E+02 0.  0.
        -12    1    3    3    0    0  0.10017025163E+02 -0.15411715549E+02  0.31904854771E+02  0.36820938707E+02  0.00000000000E+00 0.  1.
         11    1    4    4    0    0 -0.48351502722E+01  0.21608686672E+01 -0.94255506720E+01  0.10811523356E+02  0.51100000000E-03 0. -1.
        -11    1    4    4    0    0 -0.16343602896E+02 -0.31000959618E+01 -0.14978533331E+02  0.22384825476E+02  0.51100000000E-03 0.  1.
        -12    1    4    4    0    0  0.11161728005E+02  0.16350942844E+02 -0.75007707686E+01  0.21170712460E+02  0.00000000000E+00 0.  1.
</event>
<event>
 8    1  0.3007389E-007  0.9118800E+02  0.7816164E-02  0.1184000E+00
        -11   -1    0    0    0    0  0.00000000000E+00  0.00000000000E+00  0.45593999997E+02  0.45594000000E+02  0.51100000000E-03 0. -1.
         11   -1    0    0    0    0 -0.00000000000E+00 -0.00000000000E+00 -0.45593999997E+02  0.45594000000E+02  0.51100000000E-03 0.  1.
         23    2    1    2    0    0  0.00000000000E+00  0.00000000000E+00  0.35527136788E-14  0.91188000000E+02  0.91188000000E+02 0.  0.
    9900012    2    3    3    0    0 -0.22673920680E+02  0.18256396002E+02 -0.22547237867E+02  0.54367073757E+02  0.39999976244E+02 0.  0.
         12    1    3    3    0    0  0.22673920680E+02 -0.18256396002E+02  0.22547237867E+02  0.36820926243E+02  0.00000000000E+00 0. -1.
         11    1    4    4    0    0 -0.28477526653E+02  0.20322719251E+00 -0.20870434106E+02  0.35307022611E+02  0.51100000000E-03 0.  1.
        -11    1    4    4    0    0  0.92766196429E+00  0.20551626011E+01 -0.35059343786E-01  0.22551007640E+01  0.51100000000E-03 0. -1.
        -12    1    4    4    0    0  0.48759440093E+01  0.15998006208E+02 -0.16417444171E+01  0.16804950382E+02  0.00000000000E+00 0.  1.
</event>
<event>
 8    1  0.3007389E-007  0.9118800E+02  0.7816164E-02  0.1184000E+00
        -11   -1    0    0    0    0  0.00000000000E+00  0.00000000000E+00  0.45593999997E+02  0.45594000000E+02  0.51100000000E-03 0. -1.
         11   -1    0    0    0    0 -0.00000000000E+00 -0.00000000000E+00 -0.45593999997E+02  0.45594000000E+02  0.51100000000E-03 0.  1.
         23    2    1    2    0    0  0.35527136788E-14 -0.17763568394E-14  0.00000000000E+00  0.91188000000E+02  0.91188000000E+02 0.  0.
    9900012    2    3    3    0    0 -0.30025681570E+02  0.67494994046E+01 -0.20215888031E+02  0.54367089842E+02  0.40000012914E+02 0.  0.
         12    1    3    3    0    0  0.30025681570E+02 -0.67494994046E+01  0.20215888031E+02  0.36820910158E+02  0.00000000000E+00 0. -1.
         11    1    4    4    0    0 -0.14458387256E+02 -0.15699621198E+02 -0.11732087600E+02  0.24354977880E+02  0.51100000000E-03 0.  1.
        -11    1    4    4    0    0 -0.50309269617E+01  0.21186007711E+01  0.34676920289E+00  0.54698212460E+01  0.51100000000E-03 0. -1.
        -12    1    4    4    0    0 -0.10536367352E+02  0.20330519831E+02 -0.88305696332E+01  0.24542290717E+02  0.00000000000E+00 0.  1.
</event>
<event>
 8    1  0.3007389E-007  0.9118800E+02  0.7816164E-02  0.1184000E+00
        -11   -1    0    0    0    0  0.00000000000E+00  0.00000000000E+00  0.45593999997E+02  0.45594000000E+02  0.51100000000E-03 0. -1.
         11   -1    0    0    0    0 -0.00000000000E+00 -0.00000000000E+00 -0.45593999997E+02  0.45594000000E+02  0.51100000000E-03 0.  1.
         23    2    1    2    0    0  0.00000000000E+00  0.00000000000E+00  0.35527136788E-14  0.91188000000E+02  0.91188000000E+02 0.  0.
    9900012    2    3    3    0    0 -0.21405129242E+02 -0.24281790031E+02 -0.17549818589E+02  0.54367068215E+02  0.39999963609E+02 0.  0.
         12    1    3    3    0    0  0.21405129242E+02  0.24281790031E+02  0.17549818589E+02  0.36820931785E+02  0.00000000000E+00 0. -1.
         11    1    4    4    0    0 -0.10964761586E+02 -0.15265938777E+02 -0.85588728413E+01  0.20652583082E+02  0.51100000000E-03 0.  1.
        -11    1    4    4    0    0  0.66771441253E+00  0.62092971463E+01  0.67231772649E+01  0.91761825605E+01  0.51100000000E-03 0. -1.
         12    1    4    4    0    0 -0.11108082069E+02 -0.15225148401E+02 -0.15714123013E+02  0.24538302572E+02  0.00000000000E+00 0. -1.
</event>
<event>
 8    1  0.3007389E-007  0.9118800E+02  0.7816164E-02  0.1184000E+00
        -11   -1    0    0    0    0  0.00000000000E+00  0.00000000000E+00  0.45593999997E+02  0.45594000000E+02  0.51100000000E-03 0. -1.
         11   -1    0    0    0    0 -0.00000000000E+00 -0.00000000000E+00 -0.45593999997E+02  0.45594000000E+02  0.51100000000E-03 0.  1.
         23    2    1    2    0    0 -0.35527136788E-14  0.44408920985E-15  0.00000000000E+00  0.91188000000E+02  0.91188000000E+02 0.  0.
    9900012    2    3    3    0    0 -0.15389299860E+02 -0.29410055822E+01 -0.33321151355E+02  0.54367093009E+02  0.40000020133E+02 0.  0.
         12    1    3    3    0    0  0.15389299860E+02  0.29410055822E+01  0.33321151355E+02  0.36820906991E+02  0.00000000000E+00 0. -1.
         11    1    4    4    0    0 -0.83868043990E+01  0.89704881017E+01 -0.79234548997E+00  0.12305931759E+02  0.51100000000E-03 0. -1.
        -11    1    4    4    0    0 -0.56876096908E+01 -0.17468782812E+01 -0.31157523204E+02  0.31720525535E+02  0.51100000000E-03 0.  1.
         12    1    4    4    0    0 -0.13148857701E+01 -0.10164615403E+02 -0.13712826611E+01  0.10340635716E+02  0.00000000000E+00 0. -1.
</event>
<event>
 8    1  0.3007389E-007  0.9118800E+02  0.7816164E-02  0.1184000E+00
        -11   -1    0    0    0    0  0.00000000000E+00  0.00000000000E+00  0.45593999997E+02  0.45594000000E+02  0.51100000000E-03 0.  1.
         11   -1    0    0    0    0 -0.00000000000E+00 -0.00000000000E+00 -0.45593999997E+02  0.45594000000E+02  0.51100000000E-03 0. -1.
         23    2    1    2    0    0 -0.88817841970E-15 -0.35527136788E-14  0.35527136788E-14  0.91188000000E+02  0.91188000000E+02 0.  0.
    9900012    2    3    3    0    0 -0.30819766790E+01 -0.29850339482E+02  0.21336368346E+02  0.54367055395E+02  0.39999934384E+02 0.  0.
         12    1    3    3    0    0  0.30819766790E+01  0.29850339482E+02 -0.21336368346E+02  0.36820944605E+02  0.00000000000E+00 0. -1.
         11    1    4    4    0    0  0.10625331099E+02 -0.83197919960E+01  0.38221838806E+01  0.14025893544E+02  0.51100000000E-03 0. -1.
        -11    1    4    4    0    0 -0.19335558251E+02 -0.70337997132E+01  0.12129233491E+02  0.23884230291E+02  0.51100000000E-03 0.  1.
        -12    1    4    4    0    0  0.56282504727E+01 -0.14496747772E+02  0.53849509746E+01  0.16456931560E+02  0.00000000000E+00 0.  1.
</event>
<event>
 8    1  0.3007389E-007  0.9118800E+02  0.7816164E-02  0.1184000E+00
        -11   -1    0    0    0    0  0.00000000000E+00  0.00000000000E+00  0.45593999997E+02  0.45594000000E+02  0.51100000000E-03 0.  1.
         11   -1    0    0    0    0 -0.00000000000E+00 -0.00000000000E+00 -0.45593999997E+02  0.45594000000E+02  0.51100000000E-03 0. -1.
         23    2    1    2    0    0  0.00000000000E+00  0.44408920985E-15  0.17763568394E-14  0.91188000000E+02  0.91188000000E+02 0.  0.
    9900012    2    3    3    0    0 -0.33829562571E+02  0.23738895770E+01 -0.14342419348E+02  0.54367086809E+02  0.40000005998E+02 0.  0.
        -12    1    3    3    0    0  0.33829562571E+02 -0.23738895770E+01  0.14342419348E+02  0.36820913191E+02  0.00000000000E+00 0.  1.
         11    1    4    4    0    0 -0.34350192842E+02 -0.96720414756E+01 -0.63122493039E+01  0.36239876188E+02  0.51100000000E-03 0. -1.
        -11    1    4    4    0    0  0.38450617922E+01  0.10153735500E+00 -0.16814554576E+01  0.41978688328E+01  0.51100000000E-03 0.  1.
         12    1    4    4    0    0 -0.33244315214E+01  0.11944393698E+02 -0.63487145867E+01  0.13929341788E+02  0.00000000000E+00 0. -1.
</event>
<event>
 8    1  0.3007389E-007  0.9118800E+02  0.7816164E-02  0.1184000E+00
        -11   -1    0    0    0    0  0.00000000000E+00  0.00000000000E+00  0.45593999997E+02  0.45594000000E+02  0.51100000000E-03 0. -1.
         11   -1    0    0    0    0 -0.00000000000E+00 -0.00000000000E+00 -0.45593999997E+02  0.45594000000E+02  0.51100000000E-03 0.  1.
         23    2    1    2    0    0  0.35527136788E-14  0.00000000000E+00 -0.35527136788E-14  0.91188000000E+02  0.91188000000E+02 0.  0.
    9900012    2    3    3    0    0 -0.20801559739E+02 -0.19512766865E+02 -0.23287906064E+02  0.54367088453E+02  0.40000009746E+02 0.  0.
         12    1    3    3    0    0  0.20801559739E+02  0.19512766865E+02  0.23287906064E+02  0.36820911547E+02  0.00000000000E+00 0. -1.
         11    1    4    4    0    0 -0.23017011292E+02 -0.11986469017E+02 -0.75471879514E+01  0.27026251951E+02  0.51100000000E-03 0. -1.
        -11    1    4    4    0    0 -0.68693553330E+00 -0.13286538224E+02 -0.39115115668E+01  0.13867368222E+02  0.51100000000E-03 0.  1.
         12    1    4    4    0    0  0.29023870861E+01  0.57602403758E+01 -0.11829206545E+02  0.13473468279E+02  0.00000000000E+00 0. -1.
</event>
<event>
 8    1  0.3007389E-007  0.9118800E+02  0.7816164E-02  0.1184000E+00
        -11   -1    0    0    0    0  0.00000000000E+00  0.00000000000E+00  0.45593999997E+02  0.45594000000E+02  0.51100000000E-03 0.  1.
         11   -1    0    0    0    0 -0.00000000000E+00 -0.00000000000E+00 -0.45593999997E+02  0.45594000000E+02  0.51100000000E-03 0. -1.
         23    2    1    2    0    0 -0.17763568394E-14  0.00000000000E+00 -0.88817841970E-15  0.91188000000E+02  0.91188000000E+02 0.  0.
    9900012    2    3    3    0    0  0.15143449155E+02 -0.33238168880E+02 -0.46562188605E+01  0.54367078000E+02  0.39999985918E+02 0.  0.
        -12    1    3    3    0    0 -0.15143449155E+02  0.33238168880E+02  0.46562188605E+01  0.36820922000E+02  0.00000000000E+00 0.  1.
         11    1    4    4    0    0 -0.48330057385E+01 -0.50608192981E+01  0.37978056820E+01  0.79619824602E+01  0.51100000000E-03 0. -1.
        -11    1    4    4    0    0  0.26399347106E+02 -0.13732387028E+02 -0.43611079495E+01  0.30075292915E+02  0.51100000000E-03 0.  1.
         12    1    4    4    0    0 -0.64228922120E+01 -0.14444962554E+02 -0.40929165930E+01  0.16329802626E+02  0.00000000000E+00 0. -1.
</event>
<event>
 8    1  0.3007389E-007  0.9118800E+02  0.7816164E-02  0.1184000E+00
        -11   -1    0    0    0    0  0.00000000000E+00  0.00000000000E+00  0.45593999997E+02  0.45594000000E+02  0.51100000000E-03 0.  1.
         11   -1    0    0    0    0 -0.00000000000E+00 -0.00000000000E+00 -0.45593999997E+02  0.45594000000E+02  0.51100000000E-03 0. -1.
         23    2    1    2    0    0  0.17763568394E-14 -0.35527136788E-14  0.00000000000E+00  0.91188000000E+02  0.91188000000E+02 0.  0.
    9900012    2    3    3    0    0  0.10478807385E+02 -0.28575282703E+02  0.20722643268E+02  0.54367080270E+02  0.39999991091E+02 0.  0.
         12    1    3    3    0    0 -0.10478807385E+02  0.28575282703E+02 -0.20722643268E+02  0.36820919730E+02  0.00000000000E+00 0. -1.
         11    1    4    4    0    0  0.30573192290E+01  0.40766255876E+01  0.38924610128E+01  0.64122796295E+01  0.51100000000E-03 0. -1.
        -11    1    4    4    0    0  0.11258040953E+02  0.35645058963E+00  0.15159763826E+01  0.11365242091E+02  0.51100000000E-03 0.  1.
         12    1    4    4    0    0 -0.38365527975E+01 -0.33008358880E+02  0.15314205873E+02  0.36589558549E+02  0.00000000000E+00 0. -1.
</event>
<event>
 8    1  0.3007389E-007  0.9118800E+02  0.7816164E-02  0.1184000E+00
        -11   -1    0    0    0    0  0.00000000000E+00  0.00000000000E+00  0.45593999997E+02  0.45594000000E+02  0.51100000000E-03 0.  1.
         11   -1    0    0    0    0 -0.00000000000E+00 -0.00000000000E+00 -0.45593999997E+02  0.45594000000E+02  0.51100000000E-03 0. -1.
         23    2    1    2    0    0  0.00000000000E+00  0.00000000000E+00  0.00000000000E+00  0.91188000000E+02  0.91188000000E+02 0.  0.
    9900012    2    3    3    0    0 -0.41141318947E+01  0.34411978084E+02  0.12436609475E+02  0.54367087843E+02  0.40000008355E+02 0.  0.
         12    1    3    3    0    0  0.41141318947E+01 -0.34411978084E+02 -0.12436609475E+02  0.36820912157E+02  0.00000000000E+00 0. -1.
         11    1    4    4    0    0 -0.54580240753E+01  0.56607979505E+01 -0.83787339304E+01  0.11490772071E+02  0.51100000000E-03 0. -1.
        -11    1    4    4    0    0  0.11964721132E+02  0.12129636040E+02  0.54994897947E+01  0.17903268151E+02  0.51100000000E-03 0.  1.
         12    1    4    4    0    0 -0.10620828951E+02  0.16621544093E+02  0.15315853611E+02  0.24973047621E+02  0.00000000000E+00 0. -1.
</event>
<event>
 8    1  0.3007389E-007  0.9118800E+02  0.7816164E-02  0.1184000E+00
        -11   -1    0    0    0    0  0.00000000000E+00  0.00000000000E+00  0.45593999997E+02  0.45594000000E+02  0.51100000000E-03 0.  1.
         11   -1    0    0    0    0 -0.00000000000E+00 -0.00000000000E+00 -0.45593999997E+02  0.45594000000E+02  0.51100000000E-03 0. -1.
         23    2    1    2    0    0  0.00000000000E+00  0.71054273576E-14 -0.35527136788E-14  0.91188000000E+02  0.91188000000E+02 0.  0.
    9900012    2    3    3    0    0 -0.12562013373E+02  0.33210783275E+02 -0.97477922535E+01  0.54367085297E+02  0.40000002553E+02 0.  0.
        -12    1    3    3    0    0  0.12562013373E+02 -0.33210783275E+02  0.97477922535E+01  0.36820914703E+02  0.00000000000E+00 0.  1.
         11    1    4    4    0    0 -0.11760341815E+02  0.19676293986E+02 -0.16888361725E+02  0.28472424319E+02  0.51100000000E-03 0. -1.
        -11    1    4    4    0    0  0.65079897245E+01  0.12509788391E+02 -0.18943014113E+01  0.14228039708E+02  0.51100000000E-03 0.  1.
        -12    1    4    4    0    0 -0.73096612821E+01  0.10247008983E+01  0.90348708825E+01  0.11666621270E+02  0.00000000000E+00 0.  1.
</event>
<event>
 8    1  0.3007389E-007  0.9118800E+02  0.7816164E-02  0.1184000E+00
        -11   -1    0    0    0    0  0.00000000000E+00  0.00000000000E+00  0.45593999997E+02  0.45594000000E+02  0.51100000000E-03 0.  1.
         11   -1    0    0    0    0 -0.00000000000E+00 -0.00000000000E+00 -0.45593999997E+02  0.45594000000E+02  0.51100000000E-03 0. -1.
         23    2    1    2    0    0  0.00000000000E+00  0.00000000000E+00  0.88817841970E-15  0.91188000000E+02  0.91188000000E+02 0.  0.
    9900012    2    3    3    0    0  0.40982972993E+01  0.36038606546E+02  0.63405652447E+01  0.54367082437E+02  0.39999996033E+02 0.  0.
        -12    1    3    3    0    0 -0.40982972993E+01 -0.36038606546E+02 -0.63405652447E+01  0.36820917563E+02  0.00000000000E+00 0.  1.
         11    1    4    4    0    0  0.35948533509E+01 -0.16966656097E+01  0.44651363963E+01  0.59782178034E+01  0.51100000000E-03 0. -1.
        -11    1    4    4    0    0 -0.30141261794E+01  0.20722028919E+02  0.15711843059E+02  0.26179179737E+02  0.51100000000E-03 0.  1.
         12    1    4    4    0    0  0.35175701278E+01  0.17013243236E+02 -0.13836414210E+02  0.22209684897E+02  0.00000000000E+00 0. -1.
</event>
<event>
 8    1  0.3007389E-007  0.9118800E+02  0.7816164E-02  0.1184000E+00
        -11   -1    0    0    0    0  0.00000000000E+00  0.00000000000E+00  0.45593999997E+02  0.45594000000E+02  0.51100000000E-03 0. -1.
         11   -1    0    0    0    0 -0.00000000000E+00 -0.00000000000E+00 -0.45593999997E+02  0.45594000000E+02  0.51100000000E-03 0.  1.
         23    2    1    2    0    0  0.00000000000E+00  0.00000000000E+00 -0.71054273576E-14  0.91188000000E+02  0.91188000000E+02 0.  0.
    9900012    2    3    3    0    0  0.88328467793E+01 -0.14991298007E+02 -0.32450296180E+02  0.54367083114E+02  0.39999997575E+02 0.  0.
        -12    1    3    3    0    0 -0.88328467793E+01  0.14991298007E+02  0.32450296180E+02  0.36820916886E+02  0.00000000000E+00 0.  1.
         11    1    4    4    0    0 -0.94411977677E+01 -0.70274752562E+01 -0.27734035056E+01  0.12091872933E+02  0.51100000000E-03 0. -1.
        -11    1    4    4    0    0 -0.30833018727E+01  0.17105864036E+01  0.99926584284E+00  0.36648859148E+01  0.51100000000E-03 0.  1.
        -12    1    4    4    0    0  0.21357346420E+02 -0.96744091541E+01 -0.30676158517E+02  0.38610324266E+02  0.00000000000E+00 0.  1.
</event>
<event>
 8    1  0.3007389E-007  0.9118800E+02  0.7816164E-02  0.1184000E+00
        -11   -1    0    0    0    0  0.00000000000E+00  0.00000000000E+00  0.45593999997E+02  0.45594000000E+02  0.51100000000E-03 0.  1.
         11   -1    0    0    0    0 -0.00000000000E+00 -0.00000000000E+00 -0.45593999997E+02  0.45594000000E+02  0.51100000000E-03 0. -1.
         23    2    1    2    0    0  0.00000000000E+00  0.00000000000E+00  0.00000000000E+00  0.91188000000E+02  0.91188000000E+02 0.  0.
    9900012    2    3    3    0    0  0.35449273216E+02  0.91692490336E+01  0.38799983697E+01  0.54367075423E+02  0.39999980041E+02 0.  0.
        -12    1    3    3    0    0 -0.35449273216E+02 -0.91692490336E+01 -0.38799983697E+01  0.36820924577E+02  0.00000000000E+00 0.  1.
         11    1    4    4    0    0 -0.79101808151E+00  0.74102617959E+01  0.14517519967E+02  0.16318580691E+02  0.51100000000E-03 0.  1.
        -11    1    4    4    0    0  0.94351931853E+01 -0.14003037531E+01 -0.26004762594E+01  0.98866676935E+01  0.51100000000E-03 0. -1.
        -12    1    4    4    0    0  0.26805098112E+02  0.31592909908E+01 -0.80370453383E+01  0.28161827038E+02  0.00000000000E+00 0.  1.
</event>
<event>
 8    1  0.3007389E-007  0.9118800E+02  0.7816164E-02  0.1184000E+00
        -11   -1    0    0    0    0  0.00000000000E+00  0.00000000000E+00  0.45593999997E+02  0.45594000000E+02  0.51100000000E-03 0. -1.
         11   -1    0    0    0    0 -0.00000000000E+00 -0.00000000000E+00 -0.45593999997E+02  0.45594000000E+02  0.51100000000E-03 0.  1.
         23    2    1    2    0    0  0.00000000000E+00 -0.17763568394E-14  0.00000000000E+00  0.91188000000E+02  0.91188000000E+02 0.  0.
    9900012    2    3    3    0    0 -0.26191210203E+02 -0.11706200293E+02  0.23081616761E+02  0.54367141109E+02  0.40000129785E+02 0.  0.
        -12    1    3    3    0    0  0.26191210203E+02  0.11706200293E+02 -0.23081616761E+02  0.36820858891E+02  0.00000000000E+00 0.  1.
         11    1    4    4    0    0 -0.62211933414E+01 -0.10183738610E+02 -0.17995018102E+01  0.12068553587E+02  0.51100000000E-03 0. -1.
        -11    1    4    4    0    0 -0.57645614177E+01 -0.55831911347E+01 -0.46520524943E+01  0.92759788840E+01  0.51100000000E-03 0.  1.
         12    1    4    4    0    0 -0.14205455444E+02  0.40607294512E+01  0.29533171065E+02  0.33022608637E+02  0.00000000000E+00 0. -1.
</event>
<event>
 8    1  0.3007389E-007  0.9118800E+02  0.7816164E-02  0.1184000E+00
        -11   -1    0    0    0    0  0.00000000000E+00  0.00000000000E+00  0.45593999997E+02  0.45594000000E+02  0.51100000000E-03 0.  1.
         11   -1    0    0    0    0 -0.00000000000E+00 -0.00000000000E+00 -0.45593999997E+02  0.45594000000E+02  0.51100000000E-03 0. -1.
         23    2    1    2    0    0  0.00000000000E+00  0.00000000000E+00 -0.35527136788E-14  0.91188000000E+02  0.91188000000E+02 0.  0.
    9900012    2    3    3    0    0 -0.20630034167E+02 -0.18871546741E+02  0.23959266781E+02  0.54367081342E+02  0.39999993536E+02 0.  0.
         12    1    3    3    0    0  0.20630034167E+02  0.18871546741E+02 -0.23959266781E+02  0.36820918658E+02  0.00000000000E+00 0. -1.
         11    1    4    4    0    0  0.11491764325E+02 -0.28903853485E+01  0.46722613124E+01  0.12737542965E+02  0.51100000000E-03 0. -1.
        -11    1    4    4    0    0 -0.14272166995E+02 -0.71811230824E+01  0.38264947460E+01  0.16428796114E+02  0.51100000000E-03 0.  1.
        -12    1    4    4    0    0 -0.17849631496E+02 -0.88000383099E+01  0.15460510723E+02  0.25200742263E+02  0.00000000000E+00 0.  1.
</event>
<event>
 8    1  0.3007389E-007  0.9118800E+02  0.7816164E-02  0.1184000E+00
        -11   -1    0    0    0    0  0.00000000000E+00  0.00000000000E+00  0.45593999997E+02  0.45594000000E+02  0.51100000000E-03 0.  1.
         11   -1    0    0    0    0 -0.00000000000E+00 -0.00000000000E+00 -0.45593999997E+02  0.45594000000E+02  0.51100000000E-03 0. -1.
         23    2    1    2    0    0  0.17763568394E-14  0.17763568394E-14  0.00000000000E+00  0.91188000000E+02  0.91188000000E+02 0.  0.
    9900012    2    3    3    0    0  0.12598040282E+02 -0.15457821983E+02 -0.30953601411E+02  0.54367077691E+02  0.39999985211E+02 0.  0.
        -12    1    3    3    0    0 -0.12598040282E+02  0.15457821983E+02  0.30953601411E+02  0.36820922309E+02  0.00000000000E+00 0.  1.
         11    1    4    4    0    0  0.44048481644E+01 -0.13398574357E+02 -0.15950869041E+02  0.21292127784E+02  0.51100000000E-03 0. -1.
        -11    1    4    4    0    0  0.16015018252E+02  0.57481976910E+01 -0.39979832208E+01  0.17478742987E+02  0.51100000000E-03 0.  1.
         12    1    4    4    0    0 -0.78218261341E+01 -0.78074453171E+01 -0.11004749149E+02  0.15596206920E+02  0.00000000000E+00 0. -1.
</event>
<event>
 8    1  0.3007389E-007  0.9118800E+02  0.7816164E-02  0.1184000E+00
        -11   -1    0    0    0    0  0.00000000000E+00  0.00000000000E+00  0.45593999997E+02  0.45594000000E+02  0.51100000000E-03 0.  1.
         11   -1    0    0    0    0 -0.00000000000E+00 -0.00000000000E+00 -0.45593999997E+02  0.45594000000E+02  0.51100000000E-03 0. -1.
         23    2    1    2    0    0  0.17763568394E-14  0.35527136788E-14 -0.35527136788E-14  0.91188000000E+02  0.91188000000E+02 0.  0.
    9900012    2    3    3    0    0 -0.91305272466E+01 -0.22367009232E+02  0.27787259351E+02  0.54367062858E+02  0.39999951397E+02 0.  0.
         12    1    3    3    0    0  0.91305272466E+01  0.22367009232E+02 -0.27787259351E+02  0.36820937142E+02  0.00000000000E+00 0. -1.
         11    1    4    4    0    0 -0.17202815858E+02 -0.26992025749E+02  0.23254314496E+02  0.39563486581E+02  0.51100000000E-03 0. -1.
        -11    1    4    4    0    0 -0.98599028922E+00 -0.22087859972E+01  0.20897941465E+01  0.31965844690E+01  0.51100000000E-03 0.  1.
         12    1    4    4    0    0  0.90582789009E+01  0.68338025142E+01  0.24431507089E+01  0.11606991808E+02  0.00000000000E+00 0. -1.
</event>
<event>
 8    1  0.3007389E-007  0.9118800E+02  0.7816164E-02  0.1184000E+00
        -11   -1    0    0    0    0  0.00000000000E+00  0.00000000000E+00  0.45593999997E+02  0.45594000000E+02  0.51100000000E-03 0.  1.
         11   -1    0    0    0    0 -0.00000000000E+00 -0.00000000000E+00 -0.45593999997E+02  0.45594000000E+02  0.51100000000E-03 0. -1.
         23    2    1    2    0    0 -0.22204460493E-14  0.00000000000E+00  0.00000000000E+00  0.91188000000E+02  0.91188000000E+02 0.  0.
    9900012    2    3    3    0    0 -0.21343778022E+01  0.34587832186E+01 -0.36595928613E+02  0.54367071969E+02  0.39999972169E+02 0.  0.
        -12    1    3    3    0    0  0.21343778022E+01 -0.34587832186E+01  0.36595928613E+02  0.36820928031E+02  0.00000000000E+00 0.  1.
         11    1    4    4    0    0 -0.51353651956E+01 -0.50784289704E+01 -0.21354023251E+02  0.22542331862E+02  0.51100000000E-03 0. -1.
        -11    1    4    4    0    0 -0.77908763303E+01 -0.59833271127E+01 -0.59750110101E+01  0.11497769965E+02  0.51100000000E-03 0.  1.
         12    1    4    4    0    0  0.10791863724E+02  0.14520539302E+02 -0.92668943519E+01  0.20326970142E+02  0.00000000000E+00 0. -1.
</event>
<event>
 8    1  0.3007389E-007  0.9118800E+02  0.7816164E-02  0.1184000E+00
        -11   -1    0    0    0    0  0.00000000000E+00  0.00000000000E+00  0.45593999997E+02  0.45594000000E+02  0.51100000000E-03 0.  1.
         11   -1    0    0    0    0 -0.00000000000E+00 -0.00000000000E+00 -0.45593999997E+02  0.45594000000E+02  0.51100000000E-03 0. -1.
         23    2    1    2    0    0  0.00000000000E+00 -0.17763568394E-14  0.35527136788E-14  0.91188000000E+02  0.91188000000E+02 0.  0.
    9900012    2    3    3    0    0 -0.32807891673E+02  0.95553405717E+01  0.13715597318E+02  0.54367083400E+02  0.39999998228E+02 0.  0.
         12    1    3    3    0    0  0.32807891673E+02 -0.95553405717E+01 -0.13715597318E+02  0.36820916600E+02  0.00000000000E+00 0. -1.
         11    1    4    4    0    0 -0.24035857894E+01  0.99041225806E+01  0.99089918935E+01  0.14214675140E+02  0.51100000000E-03 0. -1.
        -11    1    4    4    0    0 -0.16401690795E+02  0.58939854572E+01  0.13472369896E+02  0.22028601326E+02  0.51100000000E-03 0.  1.
         12    1    4    4    0    0 -0.14002615088E+02 -0.62427674661E+01 -0.96657644720E+01  0.18123806934E+02  0.00000000000E+00 0. -1.
</event>
<event>
 8    1  0.3007389E-007  0.9118800E+02  0.7816164E-02  0.1184000E+00
        -11   -1    0    0    0    0  0.00000000000E+00  0.00000000000E+00  0.45593999997E+02  0.45594000000E+02  0.51100000000E-03 0. -1.
         11   -1    0    0    0    0 -0.00000000000E+00 -0.00000000000E+00 -0.45593999997E+02  0.45594000000E+02  0.51100000000E-03 0.  1.
         23    2    1    2    0    0 -0.35527136788E-14  0.00000000000E+00  0.44408920985E-15  0.91188000000E+02  0.91188000000E+02 0.  0.
    9900012    2    3    3    0    0  0.22001304501E+02  0.29396813157E+02 -0.27474344235E+01  0.54367103495E+02  0.40000044037E+02 0.  0.
         12    1    3    3    0    0 -0.22001304501E+02 -0.29396813157E+02  0.27474344235E+01  0.36820896505E+02  0.00000000000E+00 0. -1.
         11    1    4    4    0    0  0.12044463209E+02  0.72561546280E+01  0.14688691255E+02  0.20334171363E+02  0.51100000000E-03 0. -1.
        -11    1    4    4    0    0 -0.41650290296E-01  0.15639119579E+02 -0.41528218229E+01  0.16181153398E+02  0.51100000000E-03 0.  1.
         12    1    4    4    0    0  0.99984915817E+01  0.65015389505E+01 -0.13283303855E+02  0.17851778733E+02  0.00000000000E+00 0. -1.
</event>
<event>
 8    1  0.3007389E-007  0.9118800E+02  0.7816164E-02  0.1184000E+00
        -11   -1    0    0    0    0  0.00000000000E+00  0.00000000000E+00  0.45593999997E+02  0.45594000000E+02  0.51100000000E-03 0. -1.
         11   -1    0    0    0    0 -0.00000000000E+00 -0.00000000000E+00 -0.45593999997E+02  0.45594000000E+02  0.51100000000E-03 0.  1.
         23    2    1    2    0    0  0.00000000000E+00  0.88817841970E-15  0.00000000000E+00  0.91188000000E+02  0.91188000000E+02 0.  0.
    9900012    2    3    3    0    0 -0.14932303910E+02  0.47494713662E+01  0.33320395349E+02  0.54367083057E+02  0.39999997446E+02 0.  0.
        -12    1    3    3    0    0  0.14932303910E+02 -0.47494713662E+01 -0.33320395349E+02  0.36820916943E+02  0.00000000000E+00 0.  1.
         11    1    4    4    0    0 -0.21900839516E+02 -0.98863726305E+01  0.15403510137E+02  0.28542166352E+02  0.51100000000E-03 0.  1.
        -11    1    4    4    0    0  0.41860020546E+01  0.11243679949E+02  0.17762540867E+02  0.21434803715E+02  0.51100000000E-03 0. -1.
        -12    1    4    4    0    0  0.27825335515E+01  0.33921640477E+01  0.15434434535E+00  0.43901129904E+01  0.00000000000E+00 0.  1.
</event>
<event>
 8    1  0.3007389E-007  0.9118800E+02  0.7816164E-02  0.1184000E+00
        -11   -1    0    0    0    0  0.00000000000E+00  0.00000000000E+00  0.45593999997E+02  0.45594000000E+02  0.51100000000E-03 0.  1.
         11   -1    0    0    0    0 -0.00000000000E+00 -0.00000000000E+00 -0.45593999997E+02  0.45594000000E+02  0.51100000000E-03 0. -1.
         23    2    1    2    0    0  0.00000000000E+00  0.00000000000E+00 -0.35527136788E-14  0.91188000000E+02  0.91188000000E+02 0.  0.
    9900012    2    3    3    0    0  0.31299414259E+02  0.36372558975E+00 -0.19390532759E+02  0.54367103896E+02  0.40000044951E+02 0.  0.
         12    1    3    3    0    0 -0.31299414259E+02 -0.36372558975E+00  0.19390532759E+02  0.36820896104E+02  0.00000000000E+00 0. -1.
         11    1    4    4    0    0 -0.28526369538E+00 -0.67846150660E+01 -0.64927490036E+01  0.93951139884E+01  0.51100000000E-03 0. -1.
        -11    1    4    4    0    0  0.27105936274E+02 -0.28406842341E+01  0.10094818602E+01  0.27273069540E+02  0.51100000000E-03 0.  1.
        -12    1    4    4    0    0  0.44787416795E+01  0.99890248899E+01 -0.13907265616E+02  0.17698920368E+02  0.00000000000E+00 0.  1.
</event>
<event>
 8    1  0.3007389E-007  0.9118800E+02  0.7816164E-02  0.1184000E+00
        -11   -1    0    0    0    0  0.00000000000E+00  0.00000000000E+00  0.45593999997E+02  0.45594000000E+02  0.51100000000E-03 0.  1.
         11   -1    0    0    0    0 -0.00000000000E+00 -0.00000000000E+00 -0.45593999997E+02  0.45594000000E+02  0.51100000000E-03 0. -1.
         23    2    1    2    0    0 -0.35527136788E-14 -0.35527136788E-14 -0.11102230246E-15  0.91188000000E+02  0.91188000000E+02 0.  0.
    9900012    2    3    3    0    0 -0.27715722662E+02 -0.24238513430E+02 -0.33377882266E+00  0.54367106145E+02  0.40000050079E+02 0.  0.
        -12    1    3    3    0    0  0.27715722662E+02  0.24238513430E+02  0.33377882266E+00  0.36820893855E+02  0.00000000000E+00 0.  1.
         11    1    4    4    0    0 -0.15428413792E+02 -0.42252647432E+00  0.96393441196E+01  0.18197017230E+02  0.51100000000E-03 0. -1.
        -11    1    4    4    0    0 -0.16997929778E+02 -0.23658171157E+02 -0.54484817907E+01  0.29636542196E+02  0.51100000000E-03 0.  1.
        -12    1    4    4    0    0  0.47106209090E+01 -0.15781579842E+00 -0.45246411516E+01  0.65335467187E+01  0.00000000000E+00 0.  1.
</event>
<event>
 8    1  0.3007389E-007  0.9118800E+02  0.7816164E-02  0.1184000E+00
        -11   -1    0    0    0    0  0.00000000000E+00  0.00000000000E+00  0.45593999997E+02  0.45594000000E+02  0.51100000000E-03 0. -1.
         11   -1    0    0    0    0 -0.00000000000E+00 -0.00000000000E+00 -0.45593999997E+02  0.45594000000E+02  0.51100000000E-03 0.  1.
         23    2    1    2    0    0  0.00000000000E+00 -0.13322676296E-14  0.00000000000E+00  0.91188000000E+02  0.91188000000E+02 0.  0.
    9900012    2    3    3    0    0 -0.21624063022E+02 -0.10992266280E+01 -0.29782062036E+02  0.54367087194E+02  0.40000006876E+02 0.  0.
         12    1    3    3    0    0  0.21624063022E+02  0.10992266280E+01  0.29782062036E+02  0.36820912806E+02  0.00000000000E+00 0. -1.
         11    1    4    4    0    0 -0.41154260915E+01 -0.87328581827E+01 -0.10940064348E+02  0.14590563805E+02  0.51100000000E-03 0. -1.
        -11    1    4    4    0    0 -0.13597819689E+02 -0.95846153901E+00  0.46946013535E+01  0.14417303179E+02  0.51100000000E-03 0.  1.
        -12    1    4    4    0    0 -0.39108172413E+01  0.85920930937E+01 -0.23536599042E+02  0.25359220210E+02  0.00000000000E+00 0.  1.
</event>
<event>
 8    1  0.3007389E-007  0.9118800E+02  0.7816164E-02  0.1184000E+00
        -11   -1    0    0    0    0  0.00000000000E+00  0.00000000000E+00  0.45593999997E+02  0.45594000000E+02  0.51100000000E-03 0. -1.
         11   -1    0    0    0    0 -0.00000000000E+00 -0.00000000000E+00 -0.45593999997E+02  0.45594000000E+02  0.51100000000E-03 0.  1.
         23    2    1    2    0    0  0.00000000000E+00  0.00000000000E+00  0.00000000000E+00  0.91188000000E+02  0.91188000000E+02 0.  0.
    9900012    2    3    3    0    0  0.20910177791E+02  0.25526916521E+02  0.16337712678E+02  0.54367083962E+02  0.39999999508E+02 0.  0.
        -12    1    3    3    0    0 -0.20910177791E+02 -0.25526916521E+02 -0.16337712678E+02  0.36820916038E+02  0.00000000000E+00 0.  1.
         11    1    4    4    0    0  0.10950345751E+02  0.11924595002E+02 -0.28261248646E+01  0.16434506991E+02  0.51100000000E-03 0. -1.
        -11    1    4    4    0    0  0.15661842387E+02  0.12038580348E+01  0.17452160468E+01  0.15804694253E+02  0.51100000000E-03 0.  1.
         12    1    4    4    0    0 -0.57020103470E+01  0.12398463484E+02  0.17418621496E+02  0.22127882718E+02  0.00000000000E+00 0. -1.
</event>
<event>
 8    1  0.3007389E-007  0.9118800E+02  0.7816164E-02  0.1184000E+00
        -11   -1    0    0    0    0  0.00000000000E+00  0.00000000000E+00  0.45593999997E+02  0.45594000000E+02  0.51100000000E-03 0. -1.
         11   -1    0    0    0    0 -0.00000000000E+00 -0.00000000000E+00 -0.45593999997E+02  0.45594000000E+02  0.51100000000E-03 0.  1.
         23    2    1    2    0    0 -0.35527136788E-14  0.35527136788E-14  0.17763568394E-14  0.91188000000E+02  0.91188000000E+02 0.  0.
    9900012    2    3    3    0    0  0.22606463022E+02 -0.27019972164E+02 -0.10707462003E+02  0.54367071051E+02  0.39999970075E+02 0.  0.
         12    1    3    3    0    0 -0.22606463022E+02  0.27019972164E+02  0.10707462003E+02  0.36820928949E+02  0.00000000000E+00 0. -1.
         11    1    4    4    0    0  0.11345310877E+02 -0.27310365210E+01 -0.63258840946E+01  0.13273712714E+02  0.51100000000E-03 0. -1.
        -11    1    4    4    0    0 -0.54941171945E+01 -0.10727666701E+02  0.95928261327E+01  0.15404235459E+02  0.51100000000E-03 0.  1.
        -12    1    4    4    0    0  0.16755269339E+02 -0.13561268942E+02 -0.13974404041E+02  0.25689122878E+02  0.00000000000E+00 0.  1.
</event>
<event>
 8    1  0.3007389E-007  0.9118800E+02  0.7816164E-02  0.1184000E+00
        -11   -1    0    0    0    0  0.00000000000E+00  0.00000000000E+00  0.45593999997E+02  0.45594000000E+02  0.51100000000E-03 0.  1.
         11   -1    0    0    0    0 -0.00000000000E+00 -0.00000000000E+00 -0.45593999997E+02  0.45594000000E+02  0.51100000000E-03 0. -1.
         23    2    1    2    0    0  0.35527136788E-14  0.00000000000E+00  0.00000000000E+00  0.91188000000E+02  0.91188000000E+02 0.  0.
    9900012    2    3    3    0    0  0.24451671060E+02  0.24854120093E+02 -0.11839285406E+02  0.54367079558E+02  0.39999989469E+02 0.  0.
        -12    1    3    3    0    0 -0.24451671060E+02 -0.24854120093E+02  0.11839285406E+02  0.36820920442E+02  0.00000000000E+00 0.  1.
         11    1    4    4    0    0  0.14948084559E+02 -0.42366569384E+01  0.47645016847E+01  0.16250999063E+02  0.51100000000E-03 0. -1.
        -11    1    4    4    0    0 -0.30783941010E+01  0.92375990771E+01 -0.75230868158E+00  0.97660491277E+01  0.51100000000E-03 0.  1.
        -12    1    4    4    0    0  0.12581980602E+02  0.19853177955E+02 -0.15851478410E+02  0.28350031368E+02  0.00000000000E+00 0.  1.
</event>
<event>
 8    1  0.3007389E-007  0.9118800E+02  0.7816164E-02  0.1184000E+00
        -11   -1    0    0    0    0  0.00000000000E+00  0.00000000000E+00  0.45593999997E+02  0.45594000000E+02  0.51100000000E-03 0.  1.
         11   -1    0    0    0    0 -0.00000000000E+00 -0.00000000000E+00 -0.45593999997E+02  0.45594000000E+02  0.51100000000E-03 0. -1.
         23    2    1    2    0    0  0.00000000000E+00 -0.88817841970E-15 -0.71054273576E-14  0.91188000000E+02  0.91188000000E+02 0.  0.
    9900012    2    3    3    0    0 -0.19575537898E+01  0.19726518157E+01 -0.36715891908E+02  0.54367080801E+02  0.39999992303E+02 0.  0.
        -12    1    3    3    0    0  0.19575537898E+01 -0.19726518157E+01  0.36715891908E+02  0.36820919199E+02  0.00000000000E+00 0.  1.
         11    1    4    4    0    0  0.67988929846E+01  0.11981554497E+02 -0.16659311565E+01  0.13876524092E+02  0.51100000000E-03 0. -1.
        -11    1    4    4    0    0  0.22859174919E+01 -0.76858410730E+01 -0.20944170625E+02  0.22426677311E+02  0.51100000000E-03 0.  1.
         12    1    4    4    0    0 -0.11042364266E+02 -0.23230616087E+01 -0.14105790127E+02  0.18063879398E+02  0.00000000000E+00 0. -1.
</event>
<event>
 8    1  0.3007389E-007  0.9118800E+02  0.7816164E-02  0.1184000E+00
        -11   -1    0    0    0    0  0.00000000000E+00  0.00000000000E+00  0.45593999997E+02  0.45594000000E+02  0.51100000000E-03 0.  1.
         11   -1    0    0    0    0 -0.00000000000E+00 -0.00000000000E+00 -0.45593999997E+02  0.45594000000E+02  0.51100000000E-03 0. -1.
         23    2    1    2    0    0  0.35527136788E-14  0.17763568394E-14  0.35527136788E-14  0.91188000000E+02  0.91188000000E+02 0.  0.
    9900012    2    3    3    0    0  0.29366237193E+02  0.10307625131E+02  0.19676195495E+02  0.54367140533E+02  0.40000128474E+02 0.  0.
         12    1    3    3    0    0 -0.29366237193E+02 -0.10307625131E+02 -0.19676195495E+02  0.36820859467E+02  0.00000000000E+00 0. -1.
         11    1    4    4    0    0  0.95171770258E+01  0.13295743759E+02  0.13781598694E+02  0.21384244748E+02  0.51100000000E-03 0. -1.
        -11    1    4    4    0    0  0.42207381855E+01 -0.63302476624E+01  0.13336008995E+02  0.15353690191E+02  0.51100000000E-03 0.  1.
         12    1    4    4    0    0  0.15628321982E+02  0.33421290338E+01 -0.74414121937E+01  0.17629205594E+02  0.00000000000E+00 0. -1.
</event>
<event>
 8    1  0.3007389E-007  0.9118800E+02  0.7816164E-02  0.1184000E+00
        -11   -1    0    0    0    0  0.00000000000E+00  0.00000000000E+00  0.45593999997E+02  0.45594000000E+02  0.51100000000E-03 0.  1.
         11   -1    0    0    0    0 -0.00000000000E+00 -0.00000000000E+00 -0.45593999997E+02  0.45594000000E+02  0.51100000000E-03 0. -1.
         23    2    1    2    0    0  0.00000000000E+00  0.88817841970E-15  0.00000000000E+00  0.91188000000E+02  0.91188000000E+02 0.  0.
    9900012    2    3    3    0    0  0.35978999320E+02 -0.76574139850E+01  0.16297847950E+01  0.54367074163E+02  0.39999977169E+02 0.  0.
        -12    1    3    3    0    0 -0.35978999320E+02  0.76574139850E+01 -0.16297847950E+01  0.36820925837E+02  0.00000000000E+00 0.  1.
         11    1    4    4    0    0  0.10236153301E+02 -0.14094981532E+01 -0.52522176100E+01  0.11591001231E+02  0.51100000000E-03 0. -1.
        -11    1    4    4    0    0  0.24266631600E+02 -0.18099917649E+02  0.51174881574E+01  0.30702851878E+02  0.51100000000E-03 0.  1.
        -12    1    4    4    0    0  0.14762144196E+01  0.11852001818E+02  0.17645142476E+01  0.12073221054E+02  0.00000000000E+00 0.  1.
</event>
<event>
 8    1  0.3007389E-007  0.9118800E+02  0.7816164E-02  0.1184000E+00
        -11   -1    0    0    0    0  0.00000000000E+00  0.00000000000E+00  0.45593999997E+02  0.45594000000E+02  0.51100000000E-03 0. -1.
         11   -1    0    0    0    0 -0.00000000000E+00 -0.00000000000E+00 -0.45593999997E+02  0.45594000000E+02  0.51100000000E-03 0.  1.
         23    2    1    2    0    0  0.00000000000E+00  0.00000000000E+00  0.00000000000E+00  0.91188000000E+02  0.91188000000E+02 0.  0.
    9900012    2    3    3    0    0 -0.88697414824E+01 -0.32475625763E+02  0.14914459382E+02  0.54367086359E+02  0.40000004974E+02 0.  0.
         12    1    3    3    0    0  0.88697414824E+01  0.32475625763E+02 -0.14914459382E+02  0.36820913641E+02  0.00000000000E+00 0. -1.
         11    1    4    4    0    0  0.13526795359E+02 -0.89565065136E+01  0.51999482844E+01  0.17036216248E+02  0.51100000000E-03 0. -1.
        -11    1    4    4    0    0 -0.11856119078E+02 -0.70005572985E+01  0.11101760783E+02  0.17686844118E+02  0.51100000000E-03 0.  1.
        -12    1    4    4    0    0 -0.10540417764E+02 -0.16518561951E+02 -0.13872496857E+01  0.19644025994E+02  0.00000000000E+00 0.  1.
</event>
<event>
 8    1  0.3007389E-007  0.9118800E+02  0.7816164E-02  0.1184000E+00
        -11   -1    0    0    0    0  0.00000000000E+00  0.00000000000E+00  0.45593999997E+02  0.45594000000E+02  0.51100000000E-03 0.  1.
         11   -1    0    0    0    0 -0.00000000000E+00 -0.00000000000E+00 -0.45593999997E+02  0.45594000000E+02  0.51100000000E-03 0. -1.
         23    2    1    2    0    0  0.00000000000E+00  0.00000000000E+00  0.00000000000E+00  0.91188000000E+02  0.91188000000E+02 0.  0.
    9900012    2    3    3    0    0  0.25632219850E+02 -0.22304759135E+02 -0.14186896896E+02  0.54367068208E+02  0.39999963593E+02 0.  0.
        -12    1    3    3    0    0 -0.25632219850E+02  0.22304759135E+02  0.14186896896E+02  0.36820931792E+02  0.00000000000E+00 0.  1.
         11    1    4    4    0    0  0.77846126154E+01 -0.10060601565E+02 -0.82079694674E+01  0.15138912130E+02  0.51100000000E-03 0. -1.
        -11    1    4    4    0    0 -0.70439377338E+00 -0.16561743825E+02 -0.10537513750E+02  0.19642472487E+02  0.51100000000E-03 0.  1.
        -12    1    4    4    0    0  0.18552001008E+02  0.43175862551E+01  0.45585863215E+01  0.19585683591E+02  0.00000000000E+00 0.  1.
</event>
<event>
 8    1  0.3007389E-007  0.9118800E+02  0.7816164E-02  0.1184000E+00
        -11   -1    0    0    0    0  0.00000000000E+00  0.00000000000E+00  0.45593999997E+02  0.45594000000E+02  0.51100000000E-03 0. -1.
         11   -1    0    0    0    0 -0.00000000000E+00 -0.00000000000E+00 -0.45593999997E+02  0.45594000000E+02  0.51100000000E-03 0.  1.
         23    2    1    2    0    0  0.00000000000E+00 -0.17763568394E-14 -0.71054273576E-14  0.91188000000E+02  0.91188000000E+02 0.  0.
    9900012    2    3    3    0    0  0.12902635808E+02  0.36510680831E+01  0.34292452897E+02  0.54367073414E+02  0.39999975463E+02 0.  0.
        -12    1    3    3    0    0 -0.12902635808E+02 -0.36510680831E+01 -0.34292452897E+02  0.36820926586E+02  0.00000000000E+00 0.  1.
         11    1    4    4    0    0  0.99258180314E+01  0.17501912060E+02  0.17034218444E+02  0.26362916902E+02  0.51100000000E-03 0. -1.
        -11    1    4    4    0    0 -0.12982012794E+01  0.11477821597E+01 -0.23689248324E+01  0.29350529077E+01  0.51100000000E-03 0.  1.
         12    1    4    4    0    0  0.42750190563E+01 -0.14998626137E+02  0.19627159285E+02  0.25069103604E+02  0.00000000000E+00 0. -1.
</event>
<event>
 8    1  0.3007389E-007  0.9118800E+02  0.7816164E-02  0.1184000E+00
        -11   -1    0    0    0    0  0.00000000000E+00  0.00000000000E+00  0.45593999997E+02  0.45594000000E+02  0.51100000000E-03 0.  1.
         11   -1    0    0    0    0 -0.00000000000E+00 -0.00000000000E+00 -0.45593999997E+02  0.45594000000E+02  0.51100000000E-03 0. -1.
         23    2    1    2    0    0  0.00000000000E+00  0.35527136788E-14 -0.71054273576E-14  0.91188000000E+02  0.91188000000E+02 0.  0.
    9900012    2    3    3    0    0  0.69456458711E+00  0.20774855028E+02  0.30392479082E+02  0.54367084665E+02  0.40000001110E+02 0.  0.
         12    1    3    3    0    0 -0.69456458711E+00 -0.20774855028E+02 -0.30392479082E+02  0.36820915335E+02  0.00000000000E+00 0. -1.
         11    1    4    4    0    0 -0.10888880710E+01  0.30805121851E+01  0.17597682231E+02  0.17898425985E+02  0.51100000000E-03 0. -1.
        -11    1    4    4    0    0  0.10846096461E+02 -0.22659022737E+01 -0.12530008306E-01  0.11080265287E+02  0.51100000000E-03 0.  1.
        -12    1    4    4    0    0 -0.90626438030E+01  0.19960245117E+02  0.12807326859E+02  0.25388393393E+02  0.00000000000E+00 0.  1.
</event>
<event>
 8    1  0.3007389E-007  0.9118800E+02  0.7816164E-02  0.1184000E+00
        -11   -1    0    0    0    0  0.00000000000E+00  0.00000000000E+00  0.45593999997E+02  0.45594000000E+02  0.51100000000E-03 0.  1.
         11   -1    0    0    0    0 -0.00000000000E+00 -0.00000000000E+00 -0.45593999997E+02  0.45594000000E+02  0.51100000000E-03 0. -1.
         23    2    1    2    0    0  0.00000000000E+00  0.00000000000E+00  0.00000000000E+00  0.91188000000E+02  0.91188000000E+02 0.  0.
    9900012    2    3    3    0    0 -0.11573185609E+02 -0.11649492585E+02  0.32956501843E+02  0.54367077736E+02  0.39999985315E+02 0.  0.
         12    1    3    3    0    0  0.11573185609E+02  0.11649492585E+02 -0.32956501843E+02  0.36820922264E+02  0.00000000000E+00 0. -1.
         11    1    4    4    0    0  0.50296085280E+01 -0.56434475027E+00  0.63558016067E+00  0.51009224013E+01  0.51100000000E-03 0. -1.
        -11    1    4    4    0    0 -0.10838641516E+02 -0.10285553411E+02 -0.14362622375E+01  0.15011049542E+02  0.51100000000E-03 0.  1.
        -12    1    4    4    0    0 -0.57641526203E+01 -0.79959442454E+00  0.33757183920E+02  0.34255105793E+02  0.00000000000E+00 0.  1.
</event>
<event>
 8    1  0.3007389E-007  0.9118800E+02  0.7816164E-02  0.1184000E+00
        -11   -1    0    0    0    0  0.00000000000E+00  0.00000000000E+00  0.45593999997E+02  0.45594000000E+02  0.51100000000E-03 0. -1.
         11   -1    0    0    0    0 -0.00000000000E+00 -0.00000000000E+00 -0.45593999997E+02  0.45594000000E+02  0.51100000000E-03 0.  1.
         23    2    1    2    0    0 -0.17763568394E-14  0.00000000000E+00  0.00000000000E+00  0.91188000000E+02  0.91188000000E+02 0.  0.
    9900012    2    3    3    0    0  0.11433515304E+02  0.53500863135E+01  0.34589473679E+02  0.54367076802E+02  0.39999983186E+02 0.  0.
        -12    1    3    3    0    0 -0.11433515304E+02 -0.53500863135E+01 -0.34589473679E+02  0.36820923198E+02  0.00000000000E+00 0.  1.
         11    1    4    4    0    0 -0.58985675657E+01 -0.25346105142E+00  0.10344441494E+02  0.11910701571E+02  0.51100000000E-03 0.  1.
        -11    1    4    4    0    0  0.10056868025E+02 -0.16629252394E+01  0.29282661541E+02  0.31006131362E+02  0.51100000000E-03 0. -1.
         12    1    4    4    0    0  0.72752148448E+01  0.72664726044E+01 -0.50376293558E+01  0.11450243870E+02  0.00000000000E+00 0. -1.
</event>
<event>
 8    1  0.3007389E-007  0.9118800E+02  0.7816164E-02  0.1184000E+00
        -11   -1    0    0    0    0  0.00000000000E+00  0.00000000000E+00  0.45593999997E+02  0.45594000000E+02  0.51100000000E-03 0.  1.
         11   -1    0    0    0    0 -0.00000000000E+00 -0.00000000000E+00 -0.45593999997E+02  0.45594000000E+02  0.51100000000E-03 0. -1.
         23    2    1    2    0    0  0.00000000000E+00  0.00000000000E+00  0.00000000000E+00  0.91188000000E+02  0.91188000000E+02 0.  0.
    9900012    2    3    3    0    0 -0.31178490697E+02 -0.14831415825E+02 -0.12794938399E+02  0.54367087109E+02  0.40000006683E+02 0.  0.
        -12    1    3    3    0    0  0.31178490697E+02  0.14831415825E+02  0.12794938399E+02  0.36820912891E+02  0.00000000000E+00 0.  1.
         11    1    4    4    0    0  0.11248793275E+01 -0.16544964362E+02 -0.12498809100E+02  0.20765871723E+02  0.51100000000E-03 0. -1.
        -11    1    4    4    0    0 -0.41055598545E+01  0.25297869096E+01  0.21616847511E+01  0.52847256079E+01  0.51100000000E-03 0.  1.
        -12    1    4    4    0    0 -0.28197810169E+02 -0.81623837207E+00 -0.24578140501E+01  0.28316489778E+02  0.00000000000E+00 0.  1.
</event>
<event>
 8    1  0.3007389E-007  0.9118800E+02  0.7816164E-02  0.1184000E+00
        -11   -1    0    0    0    0  0.00000000000E+00  0.00000000000E+00  0.45593999997E+02  0.45594000000E+02  0.51100000000E-03 0. -1.
         11   -1    0    0    0    0 -0.00000000000E+00 -0.00000000000E+00 -0.45593999997E+02  0.45594000000E+02  0.51100000000E-03 0.  1.
         23    2    1    2    0    0  0.00000000000E+00  0.00000000000E+00  0.00000000000E+00  0.91188000000E+02  0.91188000000E+02 0.  0.
    9900012    2    3    3    0    0 -0.35111619274E+02 -0.11001979084E+02  0.13819663514E+01  0.54367093129E+02  0.40000020407E+02 0.  0.
        -12    1    3    3    0    0  0.35111619274E+02  0.11001979084E+02 -0.13819663514E+01  0.36820906871E+02  0.00000000000E+00 0.  1.
         11    1    4    4    0    0 -0.18437448178E+02  0.13725695151E+01 -0.71564897018E+00  0.18502313264E+02  0.51100000000E-03 0. -1.
        -11    1    4    4    0    0  0.84142780451E+01 -0.42546584862E+01  0.81278359914E+00  0.94637630620E+01  0.51100000000E-03 0.  1.
        -12    1    4    4    0    0 -0.25088449140E+02 -0.81198901127E+01  0.12848317225E+01  0.26401016804E+02  0.00000000000E+00 0.  1.
</event>
<event>
 8    1  0.3007389E-007  0.9118800E+02  0.7816164E-02  0.1184000E+00
        -11   -1    0    0    0    0  0.00000000000E+00  0.00000000000E+00  0.45593999997E+02  0.45594000000E+02  0.51100000000E-03 0. -1.
         11   -1    0    0    0    0 -0.00000000000E+00 -0.00000000000E+00 -0.45593999997E+02  0.45594000000E+02  0.51100000000E-03 0.  1.
         23    2    1    2    0    0 -0.44408920985E-15  0.00000000000E+00  0.00000000000E+00  0.91188000000E+02  0.91188000000E+02 0.  0.
    9900012    2    3    3    0    0 -0.14242040358E+01  0.28909256673E+02 -0.22759801125E+02  0.54367054524E+02  0.39999932398E+02 0.  0.
        -12    1    3    3    0    0  0.14242040358E+01 -0.28909256673E+02  0.22759801125E+02  0.36820945476E+02  0.00000000000E+00 0.  1.
         11    1    4    4    0    0 -0.37591220266E+01  0.19037542136E+02  0.52967454785E+01  0.20115032238E+02  0.51100000000E-03 0. -1.
        -11    1    4    4    0    0  0.68045403133E+01  0.94086448342E+01 -0.90503700552E+01  0.14721873688E+02  0.51100000000E-03 0.  1.
        -12    1    4    4    0    0 -0.44696223226E+01  0.46306970233E+00 -0.19006176549E+02  0.19530148598E+02  0.00000000000E+00 0.  1.
</event>
<event>
 8    1  0.3007389E-007  0.9118800E+02  0.7816164E-02  0.1184000E+00
        -11   -1    0    0    0    0  0.00000000000E+00  0.00000000000E+00  0.45593999997E+02  0.45594000000E+02  0.51100000000E-03 0. -1.
         11   -1    0    0    0    0 -0.00000000000E+00 -0.00000000000E+00 -0.45593999997E+02  0.45594000000E+02  0.51100000000E-03 0.  1.
         23    2    1    2    0    0  0.00000000000E+00  0.00000000000E+00  0.00000000000E+00  0.91188000000E+02  0.91188000000E+02 0.  0.
    9900012    2    3    3    0    0  0.20086256465E+02  0.25167772929E+02  0.17857947552E+02  0.54367071389E+02  0.39999970846E+02 0.  0.
        -12    1    3    3    0    0 -0.20086256465E+02 -0.25167772929E+02 -0.17857947552E+02  0.36820928611E+02  0.00000000000E+00 0.  1.
         11    1    4    4    0    0 -0.67767806551E+01  0.51794343551E+01  0.10481623431E+02  0.13513538630E+02  0.51100000000E-03 0. -1.
        -11    1    4    4    0    0  0.17008263630E+02  0.17509462898E+02  0.14547315173E+02  0.28416310487E+02  0.51100000000E-03 0.  1.
        -12    1    4    4    0    0  0.98547734903E+01  0.24788756759E+01 -0.71709910529E+01  0.12437222272E+02  0.00000000000E+00 0.  1.
</event>
<event>
 8    1  0.3007389E-007  0.9118800E+02  0.7816164E-02  0.1184000E+00
        -11   -1    0    0    0    0  0.00000000000E+00  0.00000000000E+00  0.45593999997E+02  0.45594000000E+02  0.51100000000E-03 0.  1.
         11   -1    0    0    0    0 -0.00000000000E+00 -0.00000000000E+00 -0.45593999997E+02  0.45594000000E+02  0.51100000000E-03 0. -1.
         23    2    1    2    0    0  0.88817841970E-15  0.88817841970E-15  0.00000000000E+00  0.91188000000E+02  0.91188000000E+02 0.  0.
    9900012    2    3    3    0    0  0.56038483726E+01  0.51393764674E+01  0.36027261396E+02  0.54367083787E+02  0.39999999110E+02 0.  0.
         12    1    3    3    0    0 -0.56038483726E+01 -0.51393764674E+01 -0.36027261396E+02  0.36820916213E+02  0.00000000000E+00 0. -1.
         11    1    4    4    0    0 -0.66694616925E+01 -0.63631739629E+01  0.14316838217E+02  0.17027729119E+02  0.51100000000E-03 0. -1.
        -11    1    4    4    0    0  0.53222093236E+01  0.63766303606E+01 -0.47063493219E+01  0.95465727379E+01  0.51100000000E-03 0.  1.
         12    1    4    4    0    0  0.69511007415E+01  0.51259200698E+01  0.26416772501E+02  0.27792781931E+02  0.00000000000E+00 0. -1.
</event>
<event>
 8    1  0.3007389E-007  0.9118800E+02  0.7816164E-02  0.1184000E+00
        -11   -1    0    0    0    0  0.00000000000E+00  0.00000000000E+00  0.45593999997E+02  0.45594000000E+02  0.51100000000E-03 0. -1.
         11   -1    0    0    0    0 -0.00000000000E+00 -0.00000000000E+00 -0.45593999997E+02  0.45594000000E+02  0.51100000000E-03 0.  1.
         23    2    1    2    0    0 -0.17763568394E-14  0.00000000000E+00  0.00000000000E+00  0.91188000000E+02  0.91188000000E+02 0.  0.
    9900012    2    3    3    0    0 -0.12768720144E+02  0.32783957682E+02  0.10860522189E+02  0.54367095100E+02  0.40000024900E+02 0.  0.
        -12    1    3    3    0    0  0.12768720144E+02 -0.32783957682E+02 -0.10860522189E+02  0.36820904900E+02  0.00000000000E+00 0.  1.
         11    1    4    4    0    0  0.59738051239E+01  0.63294552605E+01  0.93708175529E+01  0.12789080242E+02  0.51100000000E-03 0. -1.
        -11    1    4    4    0    0  0.53945647223E+01  0.12622428978E+02  0.79356116676E+00  0.13749792051E+02  0.51100000000E-03 0.  1.
        -12    1    4    4    0    0 -0.24137089990E+02  0.13832073443E+02  0.69614346979E+00  0.27828222808E+02  0.00000000000E+00 0.  1.
</event>
<event>
 8    1  0.3007389E-007  0.9118800E+02  0.7816164E-02  0.1184000E+00
        -11   -1    0    0    0    0  0.00000000000E+00  0.00000000000E+00  0.45593999997E+02  0.45594000000E+02  0.51100000000E-03 0.  1.
         11   -1    0    0    0    0 -0.00000000000E+00 -0.00000000000E+00 -0.45593999997E+02  0.45594000000E+02  0.51100000000E-03 0. -1.
         23    2    1    2    0    0  0.00000000000E+00  0.00000000000E+00 -0.88817841970E-15  0.91188000000E+02  0.91188000000E+02 0.  0.
    9900012    2    3    3    0    0 -0.33448243076E+02  0.14839822790E+02  0.40955898618E+01  0.54367093417E+02  0.40000021063E+02 0.  0.
         12    1    3    3    0    0  0.33448243076E+02 -0.14839822790E+02 -0.40955898618E+01  0.36820906583E+02  0.00000000000E+00 0. -1.
         11    1    4    4    0    0 -0.25077986569E+02 -0.54840097000E+01  0.12142181647E+02  0.28397400377E+02  0.51100000000E-03 0. -1.
        -11    1    4    4    0    0 -0.10742154466E+02  0.15225259559E+02 -0.40434164067E+01  0.19067029860E+02  0.51100000000E-03 0.  1.
        -12    1    4    4    0    0  0.23718979591E+01  0.50985729309E+01 -0.40031753786E+01  0.69026631796E+01  0.00000000000E+00 0.  1.
</event>
<event>
 8    1  0.3007389E-007  0.9118800E+02  0.7816164E-02  0.1184000E+00
        -11   -1    0    0    0    0  0.00000000000E+00  0.00000000000E+00  0.45593999997E+02  0.45594000000E+02  0.51100000000E-03 0.  1.
         11   -1    0    0    0    0 -0.00000000000E+00 -0.00000000000E+00 -0.45593999997E+02  0.45594000000E+02  0.51100000000E-03 0. -1.
         23    2    1    2    0    0  0.35527136788E-14  0.00000000000E+00 -0.35527136788E-14  0.91188000000E+02  0.91188000000E+02 0.  0.
    9900012    2    3    3    0    0 -0.22058470527E+02  0.11016288511E+02  0.27346795075E+02  0.54367055751E+02  0.39999935195E+02 0.  0.
         12    1    3    3    0    0  0.22058470527E+02 -0.11016288511E+02 -0.27346795075E+02  0.36820944249E+02  0.00000000000E+00 0. -1.
         11    1    4    4    0    0 -0.94484647405E+01  0.11430404840E+02  0.18261880501E+02  0.23524963772E+02  0.51100000000E-03 0. -1.
        -11    1    4    4    0    0 -0.20605764324E+02 -0.19374885318E+01  0.35499622769E+01  0.20998895629E+02  0.51100000000E-03 0.  1.
         12    1    4    4    0    0  0.79957585379E+01  0.15233722030E+01  0.55349522968E+01  0.98431963504E+01  0.00000000000E+00 0. -1.
</event>
<event>
 8    1  0.3007389E-007  0.9118800E+02  0.7816164E-02  0.1184000E+00
        -11   -1    0    0    0    0  0.00000000000E+00  0.00000000000E+00  0.45593999997E+02  0.45594000000E+02  0.51100000000E-03 0.  1.
         11   -1    0    0    0    0 -0.00000000000E+00 -0.00000000000E+00 -0.45593999997E+02  0.45594000000E+02  0.51100000000E-03 0. -1.
         23    2    1    2    0    0  0.88817841970E-15  0.38857805862E-15  0.00000000000E+00  0.91188000000E+02  0.91188000000E+02 0.  0.
    9900012    2    3    3    0    0  0.62462373554E+01 -0.15076875491E+00  0.36286933008E+02  0.54367085842E+02  0.40000003794E+02 0.  0.
         12    1    3    3    0    0 -0.62462373554E+01  0.15076875491E+00 -0.36286933008E+02  0.36820914158E+02  0.00000000000E+00 0. -1.
         11    1    4    4    0    0 -0.15663433681E+02 -0.16992000822E+01  0.19523392903E+02  0.25087712257E+02  0.51100000000E-03 0. -1.
        -11    1    4    4    0    0  0.82785706782E+01 -0.56476904357E+00  0.10398611850E+01  0.83627153539E+01  0.51100000000E-03 0.  1.
         12    1    4    4    0    0  0.13631100358E+02  0.21132003709E+01  0.15723678920E+02  0.20916658231E+02  0.00000000000E+00 0. -1.
</event>
<event>
 8    1  0.3007389E-007  0.9118800E+02  0.7816164E-02  0.1184000E+00
        -11   -1    0    0    0    0  0.00000000000E+00  0.00000000000E+00  0.45593999997E+02  0.45594000000E+02  0.51100000000E-03 0. -1.
         11   -1    0    0    0    0 -0.00000000000E+00 -0.00000000000E+00 -0.45593999997E+02  0.45594000000E+02  0.51100000000E-03 0.  1.
         23    2    1    2    0    0  0.00000000000E+00  0.00000000000E+00  0.11102230246E-15  0.91188000000E+02  0.91188000000E+02 0.  0.
    9900012    2    3    3    0    0  0.43111531641E+01  0.36566040149E+02 -0.34423627850E+00  0.54367084308E+02  0.40000000298E+02 0.  0.
        -12    1    3    3    0    0 -0.43111531641E+01 -0.36566040149E+02  0.34423627850E+00  0.36820915692E+02  0.00000000000E+00 0.  1.
         11    1    4    4    0    0 -0.33465741885E+01 -0.42630557824E+01 -0.36762258906E+01  0.65488808558E+01  0.51100000000E-03 0.  1.
        -11    1    4    4    0    0  0.47365175205E+01  0.43426234909E+02  0.39453782201E+01  0.43861583261E+02  0.51100000000E-03 0. -1.
         12    1    4    4    0    0  0.29212098322E+01 -0.25971389780E+01 -0.61338860794E+00  0.39566201914E+01  0.00000000000E+00 0. -1.
</event>
<event>
 8    1  0.3007389E-007  0.9118800E+02  0.7816164E-02  0.1184000E+00
        -11   -1    0    0    0    0  0.00000000000E+00  0.00000000000E+00  0.45593999997E+02  0.45594000000E+02  0.51100000000E-03 0.  1.
         11   -1    0    0    0    0 -0.00000000000E+00 -0.00000000000E+00 -0.45593999997E+02  0.45594000000E+02  0.51100000000E-03 0. -1.
         23    2    1    2    0    0 -0.17763568394E-14  0.00000000000E+00  0.00000000000E+00  0.91188000000E+02  0.91188000000E+02 0.  0.
    9900012    2    3    3    0    0 -0.10098187411E+02  0.21456498193E+02 -0.28167809588E+02  0.54367079307E+02  0.39999988896E+02 0.  0.
        -12    1    3    3    0    0  0.10098187411E+02 -0.21456498193E+02  0.28167809588E+02  0.36820920693E+02  0.00000000000E+00 0.  1.
         11    1    4    4    0    0  0.64181078906E+01 -0.22008199027E+01 -0.27488499140E+01  0.73206484173E+01  0.51100000000E-03 0. -1.
        -11    1    4    4    0    0 -0.15284958802E+02  0.78585486440E+01 -0.26025262168E+02  0.31188155180E+02  0.51100000000E-03 0.  1.
         12    1    4    4    0    0 -0.12313364992E+01  0.15798769451E+02  0.60630249347E+00  0.15858275709E+02  0.00000000000E+00 0. -1.
</event>
<event>
 8    1  0.3007389E-007  0.9118800E+02  0.7816164E-02  0.1184000E+00
        -11   -1    0    0    0    0  0.00000000000E+00  0.00000000000E+00  0.45593999997E+02  0.45594000000E+02  0.51100000000E-03 0. -1.
         11   -1    0    0    0    0 -0.00000000000E+00 -0.00000000000E+00 -0.45593999997E+02  0.45594000000E+02  0.51100000000E-03 0.  1.
         23    2    1    2    0    0 -0.17763568394E-14  0.00000000000E+00 -0.71054273576E-14  0.91188000000E+02  0.91188000000E+02 0.  0.
    9900012    2    3    3    0    0 -0.14187599521E+02 -0.61028171332E+01 -0.33425254518E+02  0.54367082077E+02  0.39999995210E+02 0.  0.
         12    1    3    3    0    0  0.14187599521E+02  0.61028171332E+01  0.33425254518E+02  0.36820917923E+02  0.00000000000E+00 0. -1.
         11    1    4    4    0    0  0.57624842667E+01 -0.78871713583E+01 -0.72872447471E+01  0.12186781085E+02  0.51100000000E-03 0. -1.
        -11    1    4    4    0    0 -0.21887765779E+02 -0.37550012507E+01 -0.88198585669E+01  0.23894857827E+02  0.51100000000E-03 0.  1.
        -12    1    4    4    0    0  0.19376819908E+01  0.55393554759E+01 -0.17318151204E+02  0.18285443164E+02  0.00000000000E+00 0.  1.
</event>
<event>
 8    1  0.3007389E-007  0.9118800E+02  0.7816164E-02  0.1184000E+00
        -11   -1    0    0    0    0  0.00000000000E+00  0.00000000000E+00  0.45593999997E+02  0.45594000000E+02  0.51100000000E-03 0. -1.
         11   -1    0    0    0    0 -0.00000000000E+00 -0.00000000000E+00 -0.45593999997E+02  0.45594000000E+02  0.51100000000E-03 0.  1.
         23    2    1    2    0    0  0.00000000000E+00  0.35527136788E-14 -0.17763568394E-14  0.91188000000E+02  0.91188000000E+02 0.  0.
    9900012    2    3    3    0    0 -0.28297197549E+02  0.20639304632E+02  0.11360824793E+02  0.54367073548E+02  0.39999975768E+02 0.  0.
         12    1    3    3    0    0  0.28297197549E+02 -0.20639304632E+02 -0.11360824793E+02  0.36820926452E+02  0.00000000000E+00 0. -1.
         11    1    4    4    0    0 -0.94428889479E+01  0.17501952216E+02  0.90223560220E+01  0.21837797314E+02  0.51100000000E-03 0. -1.
        -11    1    4    4    0    0  0.63305675597E+01 -0.80332741363E+00 -0.19655108660E+01  0.66771740869E+01  0.51100000000E-03 0.  1.
         12    1    4    4    0    0 -0.25184876160E+02  0.39406798297E+01  0.43039796366E+01  0.25852102148E+02  0.00000000000E+00 0. -1.
</event>
<event>
 8    1  0.3007389E-007  0.9118800E+02  0.7816164E-02  0.1184000E+00
        -11   -1    0    0    0    0  0.00000000000E+00  0.00000000000E+00  0.45593999997E+02  0.45594000000E+02  0.51100000000E-03 0.  1.
         11   -1    0    0    0    0 -0.00000000000E+00 -0.00000000000E+00 -0.45593999997E+02  0.45594000000E+02  0.51100000000E-03 0. -1.
         23    2    1    2    0    0 -0.17763568394E-14  0.00000000000E+00  0.00000000000E+00  0.91188000000E+02  0.91188000000E+02 0.  0.
    9900012    2    3    3    0    0  0.14620324783E+02 -0.12921354011E+02 -0.31226014617E+02  0.54367091876E+02  0.40000017549E+02 0.  0.
        -12    1    3    3    0    0 -0.14620324783E+02  0.12921354011E+02  0.31226014617E+02  0.36820908124E+02  0.00000000000E+00 0.  1.
         11    1    4    4    0    0  0.46213898590E+01  0.63329140875E+01  0.14056686107E+01  0.79648571596E+01  0.51100000000E-03 0. -1.
        -11    1    4    4    0    0 -0.45365311305E+01 -0.91545312329E+01 -0.11439755214E+01  0.10280770256E+02  0.51100000000E-03 0.  1.
         12    1    4    4    0    0  0.14535466055E+02 -0.10099736865E+02 -0.31487707706E+02  0.36121464461E+02  0.00000000000E+00 0. -1.
</event>
<event>
 8    1  0.3007389E-007  0.9118800E+02  0.7816164E-02  0.1184000E+00
        -11   -1    0    0    0    0  0.00000000000E+00  0.00000000000E+00  0.45593999997E+02  0.45594000000E+02  0.51100000000E-03 0.  1.
         11   -1    0    0    0    0 -0.00000000000E+00 -0.00000000000E+00 -0.45593999997E+02  0.45594000000E+02  0.51100000000E-03 0. -1.
         23    2    1    2    0    0 -0.17763568394E-14  0.00000000000E+00 -0.35527136788E-14  0.91188000000E+02  0.91188000000E+02 0.  0.
    9900012    2    3    3    0    0  0.95148050972E+01  0.28057820402E+02  0.21863352422E+02  0.54367095871E+02  0.40000026657E+02 0.  0.
        -12    1    3    3    0    0 -0.95148050972E+01 -0.28057820402E+02 -0.21863352422E+02  0.36820904129E+02  0.00000000000E+00 0.  1.
         11    1    4    4    0    0  0.78065428916E+01  0.18649369394E+02  0.19072929806E+02  0.27794203395E+02  0.51100000000E-03 0. -1.
        -11    1    4    4    0    0 -0.11435765943E+02  0.38504896204E+01  0.23621730488E+01  0.12295644546E+02  0.51100000000E-03 0.  1.
        -12    1    4    4    0    0  0.13144028149E+02  0.55579613873E+01  0.42824956780E+00  0.14277247930E+02  0.00000000000E+00 0.  1.
</event>
<event>
 8    1  0.3007389E-007  0.9118800E+02  0.7816164E-02  0.1184000E+00
        -11   -1    0    0    0    0  0.00000000000E+00  0.00000000000E+00  0.45593999997E+02  0.45594000000E+02  0.51100000000E-03 0.  1.
         11   -1    0    0    0    0 -0.00000000000E+00 -0.00000000000E+00 -0.45593999997E+02  0.45594000000E+02  0.51100000000E-03 0. -1.
         23    2    1    2    0    0 -0.35527136788E-14 -0.35527136788E-14  0.00000000000E+00  0.91188000000E+02  0.91188000000E+02 0.  0.
    9900012    2    3    3    0    0 -0.18303168839E+02  0.31856933710E+02  0.24309974500E+01  0.54367082527E+02  0.39999996236E+02 0.  0.
        -12    1    3    3    0    0  0.18303168839E+02 -0.31856933710E+02 -0.24309974500E+01  0.36820917473E+02  0.00000000000E+00 0.  1.
         11    1    4    4    0    0 -0.22484297507E+02  0.12818693867E+02  0.70016645394E+01  0.26812046797E+02  0.51100000000E-03 0. -1.
        -11    1    4    4    0    0 -0.73475069295E+01  0.59238403124E+01  0.24694614588E+00  0.94413306682E+01  0.51100000000E-03 0.  1.
         12    1    4    4    0    0  0.11528635597E+02  0.13114399530E+02 -0.48176132353E+01  0.18113705062E+02  0.00000000000E+00 0. -1.
</event>
<event>
 8    1  0.3007389E-007  0.9118800E+02  0.7816164E-02  0.1184000E+00
        -11   -1    0    0    0    0  0.00000000000E+00  0.00000000000E+00  0.45593999997E+02  0.45594000000E+02  0.51100000000E-03 0.  1.
         11   -1    0    0    0    0 -0.00000000000E+00 -0.00000000000E+00 -0.45593999997E+02  0.45594000000E+02  0.51100000000E-03 0. -1.
         23    2    1    2    0    0 -0.35527136788E-14  0.35527136788E-14  0.00000000000E+00  0.91188000000E+02  0.91188000000E+02 0.  0.
    9900012    2    3    3    0    0 -0.18797508287E+02 -0.26406248672E+02  0.17468322446E+02  0.54367101372E+02  0.40000039197E+02 0.  0.
         12    1    3    3    0    0  0.18797508287E+02  0.26406248672E+02 -0.17468322446E+02  0.36820898628E+02  0.00000000000E+00 0. -1.
         11    1    4    4    0    0  0.24844726652E+01 -0.25684545081E+01 -0.73609949610E+01  0.81825307858E+01  0.51100000000E-03 0. -1.
        -11    1    4    4    0    0  0.33504545012E+01 -0.17594154865E+01 -0.13308575023E+01  0.40115171907E+01  0.51100000000E-03 0.  1.
        -12    1    4    4    0    0 -0.24632435454E+02 -0.22078378677E+02  0.26160174909E+02  0.42173053395E+02  0.00000000000E+00 0.  1.
</event>
<event>
 8    1  0.3007389E-007  0.9118800E+02  0.7816164E-02  0.1184000E+00
        -11   -1    0    0    0    0  0.00000000000E+00  0.00000000000E+00  0.45593999997E+02  0.45594000000E+02  0.51100000000E-03 0. -1.
         11   -1    0    0    0    0 -0.00000000000E+00 -0.00000000000E+00 -0.45593999997E+02  0.45594000000E+02  0.51100000000E-03 0.  1.
         23    2    1    2    0    0 -0.88817841970E-15  0.00000000000E+00 -0.88817841970E-15  0.91188000000E+02  0.91188000000E+02 0.  0.
    9900012    2    3    3    0    0  0.27523052353E+01 -0.36426483970E+02 -0.46165421096E+01  0.54367131194E+02  0.40000107183E+02 0.  0.
        -12    1    3    3    0    0 -0.27523052353E+01  0.36426483970E+02  0.46165421096E+01  0.36820868806E+02  0.00000000000E+00 0.  1.
         11    1    4    4    0    0  0.15659587080E+02 -0.90493560544E+01 -0.63351566749E+01  0.19163708484E+02  0.51100000000E-03 0. -1.
        -11    1    4    4    0    0 -0.66304809505E+00 -0.17466708746E+02  0.66433065710E+01  0.18699172967E+02  0.51100000000E-03 0.  1.
        -12    1    4    4    0    0 -0.12244233749E+02 -0.99104191698E+01 -0.49246920057E+01  0.16504249743E+02  0.00000000000E+00 0.  1.
</event>
<event>
 8    1  0.3007389E-007  0.9118800E+02  0.7816164E-02  0.1184000E+00
        -11   -1    0    0    0    0  0.00000000000E+00  0.00000000000E+00  0.45593999997E+02  0.45594000000E+02  0.51100000000E-03 0. -1.
         11   -1    0    0    0    0 -0.00000000000E+00 -0.00000000000E+00 -0.45593999997E+02  0.45594000000E+02  0.51100000000E-03 0.  1.
         23    2    1    2    0    0  0.00000000000E+00 -0.17763568394E-14  0.00000000000E+00  0.91188000000E+02  0.91188000000E+02 0.  0.
    9900012    2    3    3    0    0  0.30443776992E+02  0.61050262893E+01  0.19791056387E+02  0.54367070946E+02  0.39999969834E+02 0.  0.
        -12    1    3    3    0    0 -0.30443776992E+02 -0.61050262893E+01 -0.19791056387E+02  0.36820929054E+02  0.00000000000E+00 0.  1.
         11    1    4    4    0    0 -0.20611960825E+01  0.12692634424E+02  0.48235031454E+01  0.13733815229E+02  0.51100000000E-03 0.  1.
        -11    1    4    4    0    0  0.34538958210E+02 -0.44649904867E+01  0.14048570654E+02  0.37553137178E+02  0.51100000000E-03 0. -1.
         12    1    4    4    0    0 -0.20339851356E+01 -0.21226176476E+01  0.91898258775E+00  0.30801185377E+01  0.00000000000E+00 0. -1.
</event>
<event>
 8    1  0.3007389E-007  0.9118800E+02  0.7816164E-02  0.1184000E+00
        -11   -1    0    0    0    0  0.00000000000E+00  0.00000000000E+00  0.45593999997E+02  0.45594000000E+02  0.51100000000E-03 0. -1.
         11   -1    0    0    0    0 -0.00000000000E+00 -0.00000000000E+00 -0.45593999997E+02  0.45594000000E+02  0.51100000000E-03 0.  1.
         23    2    1    2    0    0  0.00000000000E+00  0.00000000000E+00  0.00000000000E+00  0.91188000000E+02  0.91188000000E+02 0.  0.
    9900012    2    3    3    0    0 -0.19592723415E+02 -0.30931025758E+02  0.38952100728E+01  0.54367138702E+02  0.40000124299E+02 0.  0.
         12    1    3    3    0    0  0.19592723415E+02  0.30931025758E+02 -0.38952100728E+01  0.36820861298E+02  0.00000000000E+00 0. -1.
         11    1    4    4    0    0 -0.10438214729E+02 -0.51265946743E+01 -0.91319960582E+00  0.11665000363E+02  0.51100000000E-03 0. -1.
        -11    1    4    4    0    0 -0.50612079664E+01  0.28149339348E+01  0.11634858659E+02  0.12996523205E+02  0.51100000000E-03 0.  1.
        -12    1    4    4    0    0 -0.40933007187E+01 -0.28619365018E+02 -0.68264489803E+01  0.29705615134E+02  0.00000000000E+00 0.  1.
</event>
<event>
 8    1  0.3007389E-007  0.9118800E+02  0.7816164E-02  0.1184000E+00
        -11   -1    0    0    0    0  0.00000000000E+00  0.00000000000E+00  0.45593999997E+02  0.45594000000E+02  0.51100000000E-03 0.  1.
         11   -1    0    0    0    0 -0.00000000000E+00 -0.00000000000E+00 -0.45593999997E+02  0.45594000000E+02  0.51100000000E-03 0. -1.
         23    2    1    2    0    0  0.35527136788E-14  0.88817841970E-15 -0.35527136788E-14  0.91188000000E+02  0.91188000000E+02 0.  0.
    9900012    2    3    3    0    0  0.28905048573E+02  0.26616753140E+01 -0.22653737060E+02  0.54367107136E+02  0.40000052338E+02 0.  0.
        -12    1    3    3    0    0 -0.28905048573E+02 -0.26616753140E+01  0.22653737060E+02  0.36820892864E+02  0.00000000000E+00 0.  1.
         11    1    4    4    0    0  0.28738036400E+02  0.32098043969E+01 -0.24171913317E+02  0.37688976824E+02  0.51100000000E-03 0. -1.
        -11    1    4    4    0    0  0.16263253569E+01  0.28002581332E+01  0.83363541065E+01  0.89432197686E+01  0.51100000000E-03 0.  1.
        -12    1    4    4    0    0 -0.14593131838E+01 -0.33483872161E+01 -0.68181778498E+01  0.77349105430E+01  0.00000000000E+00 0.  1.
</event>
<event>
 8    1  0.3007389E-007  0.9118800E+02  0.7816164E-02  0.1184000E+00
        -11   -1    0    0    0    0  0.00000000000E+00  0.00000000000E+00  0.45593999997E+02  0.45594000000E+02  0.51100000000E-03 0.  1.
         11   -1    0    0    0    0 -0.00000000000E+00 -0.00000000000E+00 -0.45593999997E+02  0.45594000000E+02  0.51100000000E-03 0. -1.
         23    2    1    2    0    0 -0.88817841970E-15  0.35527136788E-14  0.00000000000E+00  0.91188000000E+02  0.91188000000E+02 0.  0.
    9900012    2    3    3    0    0 -0.70199403116E+01  0.30687164906E+02  0.19099594598E+02  0.54367134098E+02  0.40000113803E+02 0.  0.
         12    1    3    3    0    0  0.70199403116E+01 -0.30687164906E+02 -0.19099594598E+02  0.36820865902E+02  0.00000000000E+00 0. -1.
         11    1    4    4    0    0 -0.79005587734E+00  0.32013392734E+02  0.22698517380E+02  0.39251804980E+02  0.51100000000E-03 0. -1.
        -11    1    4    4    0    0 -0.31523085721E+01  0.42493882182E+01  0.28853826791E+01  0.60265896682E+01  0.51100000000E-03 0.  1.
         12    1    4    4    0    0 -0.30775758621E+01 -0.55756160461E+01 -0.64843054609E+01  0.90887394500E+01  0.00000000000E+00 0. -1.
</event>
<event>
 8    1  0.3007389E-007  0.9118800E+02  0.7816164E-02  0.1184000E+00
        -11   -1    0    0    0    0  0.00000000000E+00  0.00000000000E+00  0.45593999997E+02  0.45594000000E+02  0.51100000000E-03 0.  1.
         11   -1    0    0    0    0 -0.00000000000E+00 -0.00000000000E+00 -0.45593999997E+02  0.45594000000E+02  0.51100000000E-03 0. -1.
         23    2    1    2    0    0  0.00000000000E+00 -0.35527136788E-14  0.35527136788E-14  0.91188000000E+02  0.91188000000E+02 0.  0.
    9900012    2    3    3    0    0  0.20323797182E+02 -0.26040632428E+02  0.16266815563E+02  0.54367074459E+02  0.39999977843E+02 0.  0.
         12    1    3    3    0    0 -0.20323797182E+02  0.26040632428E+02 -0.16266815563E+02  0.36820925541E+02  0.00000000000E+00 0. -1.
         11    1    4    4    0    0  0.14119706584E+02 -0.75559024291E+01  0.13382856063E+02  0.20870041021E+02  0.51100000000E-03 0. -1.
        -11    1    4    4    0    0 -0.77452108757E+01 -0.70930974229E+01  0.96457118803E+01  0.14259736340E+02  0.51100000000E-03 0.  1.
         12    1    4    4    0    0  0.13949301474E+02 -0.11391632576E+02 -0.67617523804E+01  0.19237297097E+02  0.00000000000E+00 0. -1.
</event>
<event>
 8    1  0.3007389E-007  0.9118800E+02  0.7816164E-02  0.1184000E+00
        -11   -1    0    0    0    0  0.00000000000E+00  0.00000000000E+00  0.45593999997E+02  0.45594000000E+02  0.51100000000E-03 0.  1.
         11   -1    0    0    0    0 -0.00000000000E+00 -0.00000000000E+00 -0.45593999997E+02  0.45594000000E+02  0.51100000000E-03 0. -1.
         23    2    1    2    0    0  0.00000000000E+00  0.00000000000E+00  0.00000000000E+00  0.91188000000E+02  0.91188000000E+02 0.  0.
    9900012    2    3    3    0    0 -0.28973308911E+02  0.11434981039E+02  0.19635881755E+02  0.54367091905E+02  0.40000017616E+02 0.  0.
        -12    1    3    3    0    0  0.28973308911E+02 -0.11434981039E+02 -0.19635881755E+02  0.36820908095E+02  0.00000000000E+00 0.  1.
         11    1    4    4    0    0 -0.30112167528E+02 -0.47951873836E+01  0.53042165696E+01  0.30949493840E+02  0.51100000000E-03 0. -1.
        -11    1    4    4    0    0 -0.37391484773E+01  0.62219247711E+01  0.43375206504E+01  0.84562204824E+01  0.51100000000E-03 0.  1.
        -12    1    4    4    0    0  0.48780070941E+01  0.10008243651E+02  0.99941445350E+01  0.14961377583E+02  0.00000000000E+00 0.  1.
</event>
<event>
 8    1  0.3007389E-007  0.9118800E+02  0.7816164E-02  0.1184000E+00
        -11   -1    0    0    0    0  0.00000000000E+00  0.00000000000E+00  0.45593999997E+02  0.45594000000E+02  0.51100000000E-03 0. -1.
         11   -1    0    0    0    0 -0.00000000000E+00 -0.00000000000E+00 -0.45593999997E+02  0.45594000000E+02  0.51100000000E-03 0.  1.
         23    2    1    2    0    0  0.00000000000E+00  0.00000000000E+00  0.00000000000E+00  0.91188000000E+02  0.91188000000E+02 0.  0.
    9900012    2    3    3    0    0  0.30652622512E+02 -0.10266816898E+02  0.17629165998E+02  0.54367105254E+02  0.40000048047E+02 0.  0.
        -12    1    3    3    0    0 -0.30652622512E+02  0.10266816898E+02 -0.17629165998E+02  0.36820894746E+02  0.00000000000E+00 0.  1.
         11    1    4    4    0    0  0.25199208894E+02 -0.57752290679E+01  0.13541861596E+02  0.29184506427E+02  0.51100000000E-03 0. -1.
        -11    1    4    4    0    0  0.22288780191E+00  0.37129144241E+01 -0.84969933502E+01  0.92754681148E+01  0.51100000000E-03 0.  1.
         12    1    4    4    0    0  0.52305258169E+01 -0.82045022541E+01  0.12584297753E+02  0.15907130712E+02  0.00000000000E+00 0. -1.
</event>
<event>
 8    1  0.3007389E-007  0.9118800E+02  0.7816164E-02  0.1184000E+00
        -11   -1    0    0    0    0  0.00000000000E+00  0.00000000000E+00  0.45593999997E+02  0.45594000000E+02  0.51100000000E-03 0. -1.
         11   -1    0    0    0    0 -0.00000000000E+00 -0.00000000000E+00 -0.45593999997E+02  0.45594000000E+02  0.51100000000E-03 0.  1.
         23    2    1    2    0    0  0.00000000000E+00 -0.17763568394E-14  0.00000000000E+00  0.91188000000E+02  0.91188000000E+02 0.  0.
    9900012    2    3    3    0    0  0.32025267032E+02 -0.44487756489E+01 -0.17617249988E+02  0.54367125073E+02  0.40000093229E+02 0.  0.
         12    1    3    3    0    0 -0.32025267032E+02  0.44487756489E+01  0.17617249988E+02  0.36820874927E+02  0.00000000000E+00 0. -1.
         11    1    4    4    0    0  0.24362167140E+02  0.15757091154E+02 -0.79307579395E+01  0.30078198602E+02  0.51100000000E-03 0. -1.
        -11    1    4    4    0    0  0.72138701678E+01 -0.16842088608E+02 -0.60027840330E+01  0.19280282360E+02  0.51100000000E-03 0.  1.
        -12    1    4    4    0    0  0.44922972432E+00 -0.33637781955E+01 -0.36837080152E+01  0.50086441114E+01  0.00000000000E+00 0.  1.
</event>
<event>
 8    1  0.3007389E-007  0.9118800E+02  0.7816164E-02  0.1184000E+00
        -11   -1    0    0    0    0  0.00000000000E+00  0.00000000000E+00  0.45593999997E+02  0.45594000000E+02  0.51100000000E-03 0.  1.
         11   -1    0    0    0    0 -0.00000000000E+00 -0.00000000000E+00 -0.45593999997E+02  0.45594000000E+02  0.51100000000E-03 0. -1.
         23    2    1    2    0    0  0.00000000000E+00 -0.88817841970E-15  0.00000000000E+00  0.91188000000E+02  0.91188000000E+02 0.  0.
    9900012    2    3    3    0    0 -0.35775760027E+02 -0.68789684895E+01  0.53435843896E+01  0.54367094157E+02  0.40000022749E+02 0.  0.
        -12    1    3    3    0    0  0.35775760027E+02  0.68789684895E+01 -0.53435843896E+01  0.36820905843E+02  0.00000000000E+00 0.  1.
         11    1    4    4    0    0 -0.19685049908E+02  0.58597540606E+01  0.13135169474E+02  0.24379716670E+02  0.51100000000E-03 0. -1.
        -11    1    4    4    0    0 -0.80799904287E+01 -0.56420194692E+01  0.67406533341E+01  0.11939641395E+02  0.51100000000E-03 0.  1.
        -12    1    4    4    0    0 -0.80107196906E+01 -0.70967030809E+01 -0.14532238419E+02  0.18047736092E+02  0.00000000000E+00 0.  1.
</event>
<event>
 8    1  0.3007389E-007  0.9118800E+02  0.7816164E-02  0.1184000E+00
        -11   -1    0    0    0    0  0.00000000000E+00  0.00000000000E+00  0.45593999997E+02  0.45594000000E+02  0.51100000000E-03 0.  1.
         11   -1    0    0    0    0 -0.00000000000E+00 -0.00000000000E+00 -0.45593999997E+02  0.45594000000E+02  0.51100000000E-03 0. -1.
         23    2    1    2    0    0  0.71054273576E-14  0.35527136788E-14  0.00000000000E+00  0.91188000000E+02  0.91188000000E+02 0.  0.
    9900012    2    3    3    0    0  0.25062156324E+02  0.26476926941E+02 -0.51626843638E+01  0.54366910259E+02  0.39999603516E+02 0.  0.
         12    1    3    3    0    0 -0.25062156324E+02 -0.26476926941E+02  0.51626843638E+01  0.36821089741E+02  0.00000000000E+00 0. -1.
         11    1    4    4    0    0  0.14348218062E+02  0.17699704697E+02  0.28999757802E+01  0.22968691032E+02  0.51100000000E-03 0. -1.
        -11    1    4    4    0    0  0.71912124572E+01  0.11685502642E+02  0.71798145021E+01  0.15485937012E+02  0.51100000000E-03 0.  1.
         12    1    4    4    0    0  0.35227258053E+01 -0.29082803986E+01 -0.15242474646E+02  0.15912282216E+02  0.00000000000E+00 0. -1.
</event>
<event>
 8    1  0.3007389E-007  0.9118800E+02  0.7816164E-02  0.1184000E+00
        -11   -1    0    0    0    0  0.00000000000E+00  0.00000000000E+00  0.45593999997E+02  0.45594000000E+02  0.51100000000E-03 0.  1.
         11   -1    0    0    0    0 -0.00000000000E+00 -0.00000000000E+00 -0.45593999997E+02  0.45594000000E+02  0.51100000000E-03 0. -1.
         23    2    1    2    0    0  0.00000000000E+00  0.35527136788E-14  0.00000000000E+00  0.91188000000E+02  0.91188000000E+02 0.  0.
    9900012    2    3    3    0    0 -0.25788800777E+02 -0.14543331202E+02  0.21890808756E+02  0.54367105986E+02  0.40000049717E+02 0.  0.
         12    1    3    3    0    0  0.25788800777E+02  0.14543331202E+02 -0.21890808756E+02  0.36820894014E+02  0.00000000000E+00 0. -1.
         11    1    4    4    0    0 -0.45050103894E+01  0.96562747220E+01  0.12263782910E+02  0.16246203607E+02  0.51100000000E-03 0. -1.
        -11    1    4    4    0    0  0.18141794253E+01 -0.72332082527E+01  0.52711957012E+01  0.91321439430E+01  0.51100000000E-03 0.  1.
         12    1    4    4    0    0 -0.23097969813E+02 -0.16966397672E+02  0.43558301456E+01  0.28988758436E+02  0.00000000000E+00 0. -1.
</event>
<event>
 8    1  0.3007389E-007  0.9118800E+02  0.7816164E-02  0.1184000E+00
        -11   -1    0    0    0    0  0.00000000000E+00  0.00000000000E+00  0.45593999997E+02  0.45594000000E+02  0.51100000000E-03 0.  1.
         11   -1    0    0    0    0 -0.00000000000E+00 -0.00000000000E+00 -0.45593999997E+02  0.45594000000E+02  0.51100000000E-03 0. -1.
         23    2    1    2    0    0  0.88817841970E-15  0.00000000000E+00 -0.35527136788E-14  0.91188000000E+02  0.91188000000E+02 0.  0.
    9900012    2    3    3    0    0  0.45835343365E+01  0.23411212776E+02 -0.28047917003E+02  0.54367091281E+02  0.40000016194E+02 0.  0.
        -12    1    3    3    0    0 -0.45835343365E+01 -0.23411212776E+02  0.28047917003E+02  0.36820908719E+02  0.00000000000E+00 0.  1.
         11    1    4    4    0    0  0.17341294434E+02  0.58363009813E+00 -0.12782272747E+02  0.21551046693E+02  0.51100000000E-03 0. -1.
        -11    1    4    4    0    0 -0.33876015174E+01  0.90917451083E+01 -0.12715161184E+02  0.15994092576E+02  0.51100000000E-03 0.  1.
        -12    1    4    4    0    0 -0.93701585803E+01  0.13735837570E+02 -0.25504830726E+01  0.16821952011E+02  0.00000000000E+00 0.  1.
</event>
<event>
 8    1  0.3007389E-007  0.9118800E+02  0.7816164E-02  0.1184000E+00
        -11   -1    0    0    0    0  0.00000000000E+00  0.00000000000E+00  0.45593999997E+02  0.45594000000E+02  0.51100000000E-03 0.  1.
         11   -1    0    0    0    0 -0.00000000000E+00 -0.00000000000E+00 -0.45593999997E+02  0.45594000000E+02  0.51100000000E-03 0. -1.
         23    2    1    2    0    0  0.00000000000E+00 -0.53290705182E-14  0.35527136788E-14  0.91188000000E+02  0.91188000000E+02 0.  0.
    9900012    2    3    3    0    0  0.20714930101E+02  0.12206440448E+02 -0.27886790219E+02  0.54367101230E+02  0.40000038874E+02 0.  0.
        -12    1    3    3    0    0 -0.20714930101E+02 -0.12206440448E+02  0.27886790219E+02  0.36820898770E+02  0.00000000000E+00 0.  1.
         11    1    4    4    0    0  0.11947565945E+02  0.11129022592E+02 -0.13832826455E+02  0.21399686069E+02  0.51100000000E-03 0. -1.
        -11    1    4    4    0    0  0.11773125890E+01  0.12990710733E+02 -0.37319369642E-02  0.13043950493E+02  0.51100000000E-03 0.  1.
         12    1    4    4    0    0  0.75900515672E+01 -0.11913292877E+02 -0.14050231827E+02  0.19923464668E+02  0.00000000000E+00 0. -1.
</event>
<event>
 8    1  0.3007389E-007  0.9118800E+02  0.7816164E-02  0.1184000E+00
        -11   -1    0    0    0    0  0.00000000000E+00  0.00000000000E+00  0.45593999997E+02  0.45594000000E+02  0.51100000000E-03 0. -1.
         11   -1    0    0    0    0 -0.00000000000E+00 -0.00000000000E+00 -0.45593999997E+02  0.45594000000E+02  0.51100000000E-03 0.  1.
         23    2    1    2    0    0  0.27755575616E-15  0.17763568394E-14  0.00000000000E+00  0.91188000000E+02  0.91188000000E+02 0.  0.
    9900012    2    3    3    0    0 -0.41392043145E+00 -0.47331876751E+01  0.36513094548E+02  0.54367075661E+02  0.39999980585E+02 0.  0.
        -12    1    3    3    0    0  0.41392043145E+00  0.47331876751E+01 -0.36513094548E+02  0.36820924339E+02  0.00000000000E+00 0.  1.
         11    1    4    4    0    0  0.31882836740E+01 -0.11145065803E+02  0.28399989424E+02  0.30674697131E+02  0.51100000000E-03 0. -1.
        -11    1    4    4    0    0 -0.61969379022E+00  0.13725915119E+02  0.24094087027E+01  0.13949552567E+02  0.51100000000E-03 0.  1.
        -12    1    4    4    0    0 -0.29825103152E+01 -0.73140369910E+01  0.57036964208E+01  0.97428259631E+01  0.00000000000E+00 0.  1.
</event>
<event>
 8    1  0.3007389E-007  0.9118800E+02  0.7816164E-02  0.1184000E+00
        -11   -1    0    0    0    0  0.00000000000E+00  0.00000000000E+00  0.45593999997E+02  0.45594000000E+02  0.51100000000E-03 0.  1.
         11   -1    0    0    0    0 -0.00000000000E+00 -0.00000000000E+00 -0.45593999997E+02  0.45594000000E+02  0.51100000000E-03 0. -1.
         23    2    1    2    0    0  0.00000000000E+00  0.35527136788E-14  0.00000000000E+00  0.91188000000E+02  0.91188000000E+02 0.  0.
    9900012    2    3    3    0    0  0.25025423145E+02 -0.22760279165E+02 -0.14542293083E+02  0.54367076609E+02  0.39999982745E+02 0.  0.
        -12    1    3    3    0    0 -0.25025423145E+02  0.22760279165E+02  0.14542293083E+02  0.36820923391E+02  0.00000000000E+00 0.  1.
         11    1    4    4    0    0  0.79502613510E+01 -0.11948285128E+02 -0.48108169145E+01  0.15136450466E+02  0.51100000000E-03 0. -1.
        -11    1    4    4    0    0  0.19431194429E+02 -0.16788151965E+02  0.21030973104E+01  0.25765022451E+02  0.51100000000E-03 0.  1.
        -12    1    4    4    0    0 -0.23560326352E+01  0.59761579275E+01 -0.11834573479E+02  0.13465603692E+02  0.00000000000E+00 0.  1.
</event>
<event>
 8    1  0.3007389E-007  0.9118800E+02  0.7816164E-02  0.1184000E+00
        -11   -1    0    0    0    0  0.00000000000E+00  0.00000000000E+00  0.45593999997E+02  0.45594000000E+02  0.51100000000E-03 0.  1.
         11   -1    0    0    0    0 -0.00000000000E+00 -0.00000000000E+00 -0.45593999997E+02  0.45594000000E+02  0.51100000000E-03 0. -1.
         23    2    1    2    0    0  0.00000000000E+00  0.00000000000E+00 -0.88817841970E-15  0.91188000000E+02  0.91188000000E+02 0.  0.
    9900012    2    3    3    0    0 -0.14581351869E+02 -0.33346013797E+02 -0.55863151099E+01  0.54367090519E+02  0.40000014457E+02 0.  0.
        -12    1    3    3    0    0  0.14581351869E+02  0.33346013797E+02  0.55863151099E+01  0.36820909481E+02  0.00000000000E+00 0.  1.
         11    1    4    4    0    0 -0.71219848968E+01 -0.38040172934E+02 -0.91932727592E+01  0.39778055382E+02  0.51100000000E-03 0. -1.
        -11    1    4    4    0    0 -0.27835888717E+01 -0.25017874019E+01  0.46223232201E+01  0.59475355756E+01  0.51100000000E-03 0.  1.
         12    1    4    4    0    0 -0.46757781002E+01  0.71959465386E+01 -0.10153655708E+01  0.86414995615E+01  0.00000000000E+00 0. -1.
</event>
<event>
 8    1  0.3007389E-007  0.9118800E+02  0.7816164E-02  0.1184000E+00
        -11   -1    0    0    0    0  0.00000000000E+00  0.00000000000E+00  0.45593999997E+02  0.45594000000E+02  0.51100000000E-03 0.  1.
         11   -1    0    0    0    0 -0.00000000000E+00 -0.00000000000E+00 -0.45593999997E+02  0.45594000000E+02  0.51100000000E-03 0. -1.
         23    2    1    2    0    0  0.00000000000E+00  0.00000000000E+00  0.00000000000E+00  0.91188000000E+02  0.91188000000E+02 0.  0.
    9900012    2    3    3    0    0  0.54790030820E+01  0.17018875920E+02 -0.32188673609E+02  0.54367186306E+02  0.40000232821E+02 0.  0.
        -12    1    3    3    0    0 -0.54790030820E+01 -0.17018875920E+02  0.32188673609E+02  0.36820813694E+02  0.00000000000E+00 0.  1.
         11    1    4    4    0    0 -0.96993701737E+01 -0.22190044362E+01 -0.21155023928E+02  0.23378126531E+02  0.51100000000E-03 0. -1.
        -11    1    4    4    0    0  0.11879675799E+02  0.32626639985E+01 -0.70626195604E+01  0.14200431993E+02  0.51100000000E-03 0.  1.
        -12    1    4    4    0    0  0.32986974565E+01  0.15975216358E+02 -0.39710301209E+01  0.16788627782E+02  0.00000000000E+00 0.  1.
</event>
<event>
 8    1  0.3007389E-007  0.9118800E+02  0.7816164E-02  0.1184000E+00
        -11   -1    0    0    0    0  0.00000000000E+00  0.00000000000E+00  0.45593999997E+02  0.45594000000E+02  0.51100000000E-03 0. -1.
         11   -1    0    0    0    0 -0.00000000000E+00 -0.00000000000E+00 -0.45593999997E+02  0.45594000000E+02  0.51100000000E-03 0.  1.
         23    2    1    2    0    0  0.00000000000E+00  0.00000000000E+00  0.00000000000E+00  0.91188000000E+02  0.91188000000E+02 0.  0.
    9900012    2    3    3    0    0  0.24849447218E+02 -0.88783361357E+01  0.25679949469E+02  0.54367086319E+02  0.40000004881E+02 0.  0.
        -12    1    3    3    0    0 -0.24849447218E+02  0.88783361357E+01 -0.25679949469E+02  0.36820913681E+02  0.00000000000E+00 0.  1.
         11    1    4    4    0    0  0.21783135177E+02  0.58039877896E+01  0.98111088107E+01  0.24585546745E+02  0.51100000000E-03 0. -1.
        -11    1    4    4    0    0  0.84624832832E+01 -0.38521542182E+01  0.15002969918E+02  0.17650547359E+02  0.51100000000E-03 0.  1.
        -12    1    4    4    0    0 -0.53961712426E+01 -0.10830169707E+02  0.86587074054E+00  0.12130992214E+02  0.00000000000E+00 0.  1.
</event>
<event>
 8    1  0.3007389E-007  0.9118800E+02  0.7816164E-02  0.1184000E+00
        -11   -1    0    0    0    0  0.00000000000E+00  0.00000000000E+00  0.45593999997E+02  0.45594000000E+02  0.51100000000E-03 0.  1.
         11   -1    0    0    0    0 -0.00000000000E+00 -0.00000000000E+00 -0.45593999997E+02  0.45594000000E+02  0.51100000000E-03 0. -1.
         23    2    1    2    0    0  0.71054273576E-14 -0.17763568394E-14 -0.62450045135E-15  0.91188000000E+02  0.91188000000E+02 0.  0.
    9900012    2    3    3    0    0  0.34217455976E+02 -0.13599269122E+02 -0.72357406044E-01  0.54367086789E+02  0.40000005953E+02 0.  0.
        -12    1    3    3    0    0 -0.34217455976E+02  0.13599269122E+02  0.72357406044E-01  0.36820913211E+02  0.00000000000E+00 0.  1.
         11    1    4    4    0    0  0.18039434709E+02 -0.54242388813E+01  0.10367938092E+01  0.18865802758E+02  0.51100000000E-03 0. -1.
        -11    1    4    4    0    0 -0.39946523925E+01 -0.10366272225E+02  0.75578995208E+01  0.13436468770E+02  0.51100000000E-03 0.  1.
         12    1    4    4    0    0  0.20172673660E+02  0.21912419851E+01 -0.86670507361E+01  0.22064815260E+02  0.00000000000E+00 0. -1.
</event>
<event>
 8    1  0.3007389E-007  0.9118800E+02  0.7816164E-02  0.1184000E+00
        -11   -1    0    0    0    0  0.00000000000E+00  0.00000000000E+00  0.45593999997E+02  0.45594000000E+02  0.51100000000E-03 0. -1.
         11   -1    0    0    0    0 -0.00000000000E+00 -0.00000000000E+00 -0.45593999997E+02  0.45594000000E+02  0.51100000000E-03 0.  1.
         23    2    1    2    0    0  0.88817841970E-15 -0.35527136788E-14  0.00000000000E+00  0.91188000000E+02  0.91188000000E+02 0.  0.
    9900012    2    3    3    0    0  0.18597374781E+01 -0.25985873407E+02 -0.26020242721E+02  0.54367119084E+02  0.40000079575E+02 0.  0.
        -12    1    3    3    0    0 -0.18597374781E+01  0.25985873407E+02  0.26020242721E+02  0.36820880916E+02  0.00000000000E+00 0.  1.
         11    1    4    4    0    0  0.35714053755E+01  0.29044192573E+01  0.35500244934E+01  0.58131972049E+01  0.51100000000E-03 0. -1.
        -11    1    4    4    0    0  0.10404750986E+02 -0.75248272248E+01 -0.15922255254E+02  0.20454830248E+02  0.51100000000E-03 0.  1.
         12    1    4    4    0    0 -0.12116418883E+02 -0.21365465440E+02 -0.13648011960E+02  0.28099091631E+02  0.00000000000E+00 0. -1.
</event>
<event>
 8    1  0.3007389E-007  0.9118800E+02  0.7816164E-02  0.1184000E+00
        -11   -1    0    0    0    0  0.00000000000E+00  0.00000000000E+00  0.45593999997E+02  0.45594000000E+02  0.51100000000E-03 0.  1.
         11   -1    0    0    0    0 -0.00000000000E+00 -0.00000000000E+00 -0.45593999997E+02  0.45594000000E+02  0.51100000000E-03 0. -1.
         23    2    1    2    0    0  0.17763568394E-14 -0.35527136788E-14  0.00000000000E+00  0.91188000000E+02  0.91188000000E+02 0.  0.
    9900012    2    3    3    0    0 -0.10697442903E+02  0.88600757788E+01  0.34100488928E+02  0.54367087836E+02  0.40000008339E+02 0.  0.
         12    1    3    3    0    0  0.10697442903E+02 -0.88600757788E+01 -0.34100488928E+02  0.36820912164E+02  0.00000000000E+00 0. -1.
         11    1    4    4    0    0 -0.11976292882E+02  0.71796283468E+01  0.23756158115E+01  0.14164116814E+02  0.51100000000E-03 0. -1.
        -11    1    4    4    0    0  0.54797652059E+01  0.92352755615E+01  0.45082291254E+01  0.11646556208E+02  0.51100000000E-03 0.  1.
         12    1    4    4    0    0 -0.42009152275E+01 -0.75548281295E+01  0.27216643991E+02  0.28556414813E+02  0.00000000000E+00 0. -1.
</event>
<event>
 8    1  0.3007389E-007  0.9118800E+02  0.7816164E-02  0.1184000E+00
        -11   -1    0    0    0    0  0.00000000000E+00  0.00000000000E+00  0.45593999997E+02  0.45594000000E+02  0.51100000000E-03 0. -1.
         11   -1    0    0    0    0 -0.00000000000E+00 -0.00000000000E+00 -0.45593999997E+02  0.45594000000E+02  0.51100000000E-03 0.  1.
         23    2    1    2    0    0  0.00000000000E+00  0.27755575616E-16  0.35527136788E-14  0.91188000000E+02  0.91188000000E+02 0.  0.
    9900012    2    3    3    0    0 -0.24370492607E+02  0.18785646361E+00  0.27601154460E+02  0.54367083017E+02  0.39999997353E+02 0.  0.
        -12    1    3    3    0    0  0.24370492607E+02 -0.18785646361E+00 -0.27601154460E+02  0.36820916983E+02  0.00000000000E+00 0.  1.
         11    1    4    4    0    0 -0.27702892643E+02  0.59833382260E+01  0.30258237011E+02  0.41458551643E+02  0.51100000000E-03 0. -1.
        -11    1    4    4    0    0  0.21064489219E+01 -0.73998136344E+01  0.18993511522E+01  0.79247652296E+01  0.51100000000E-03 0.  1.
         12    1    4    4    0    0  0.12259511147E+01  0.16043318720E+01 -0.45564337024E+01  0.49837661437E+01  0.00000000000E+00 0. -1.
</event>
<event>
 8    1  0.3007389E-007  0.9118800E+02  0.7816164E-02  0.1184000E+00
        -11   -1    0    0    0    0  0.00000000000E+00  0.00000000000E+00  0.45593999997E+02  0.45594000000E+02  0.51100000000E-03 0. -1.
         11   -1    0    0    0    0 -0.00000000000E+00 -0.00000000000E+00 -0.45593999997E+02  0.45594000000E+02  0.51100000000E-03 0.  1.
         23    2    1    2    0    0 -0.35527136788E-14  0.00000000000E+00  0.00000000000E+00  0.91188000000E+02  0.91188000000E+02 0.  0.
    9900012    2    3    3    0    0  0.21168312284E+02 -0.29142781270E+02 -0.76406372750E+01  0.54367102630E+02  0.40000042067E+02 0.  0.
         12    1    3    3    0    0 -0.21168312284E+02  0.29142781270E+02  0.76406372750E+01  0.36820897370E+02  0.00000000000E+00 0. -1.
         11    1    4    4    0    0  0.14903467323E+02 -0.37861881657E+02 -0.25017566904E+01  0.40766336697E+02  0.51100000000E-03 0.  1.
        -11    1    4    4    0    0  0.11375427841E+01  0.13110126002E+01  0.15915740362E+01  0.23549661988E+01  0.51100000000E-03 0. -1.
        -12    1    4    4    0    0  0.51273021776E+01  0.74080877868E+01 -0.67304546208E+01  0.11245799735E+02  0.00000000000E+00 0.  1.
</event>
<event>
 8    1  0.3007389E-007  0.9118800E+02  0.7816164E-02  0.1184000E+00
        -11   -1    0    0    0    0  0.00000000000E+00  0.00000000000E+00  0.45593999997E+02  0.45594000000E+02  0.51100000000E-03 0.  1.
         11   -1    0    0    0    0 -0.00000000000E+00 -0.00000000000E+00 -0.45593999997E+02  0.45594000000E+02  0.51100000000E-03 0. -1.
         23    2    1    2    0    0  0.00000000000E+00  0.00000000000E+00  0.00000000000E+00  0.91188000000E+02  0.91188000000E+02 0.  0.
    9900012    2    3    3    0    0 -0.20020112405E+02 -0.29156311487E+02  0.10241405852E+02  0.54367057670E+02  0.39999939570E+02 0.  0.
        -12    1    3    3    0    0  0.20020112405E+02  0.29156311487E+02 -0.10241405852E+02  0.36820942330E+02  0.00000000000E+00 0.  1.
         11    1    4    4    0    0  0.27937660064E+01 -0.26956901395E+02  0.78243046474E+01  0.28208144299E+02  0.51100000000E-03 0. -1.
        -11    1    4    4    0    0 -0.15108174934E+02 -0.24356725464E+01  0.73804635803E+01  0.16990017466E+02  0.51100000000E-03 0.  1.
         12    1    4    4    0    0 -0.77057034783E+01  0.23626245433E+00 -0.49633623762E+01  0.91688959052E+01  0.00000000000E+00 0. -1.
</event>
<event>
 8    1  0.3007389E-007  0.9118800E+02  0.7816164E-02  0.1184000E+00
        -11   -1    0    0    0    0  0.00000000000E+00  0.00000000000E+00  0.45593999997E+02  0.45594000000E+02  0.51100000000E-03 0.  1.
         11   -1    0    0    0    0 -0.00000000000E+00 -0.00000000000E+00 -0.45593999997E+02  0.45594000000E+02  0.51100000000E-03 0. -1.
         23    2    1    2    0    0  0.00000000000E+00  0.00000000000E+00  0.22204460493E-15  0.91188000000E+02  0.91188000000E+02 0.  0.
    9900012    2    3    3    0    0 -0.33849507425E+02 -0.14424597854E+02  0.13866945305E+01  0.54367067124E+02  0.39999961123E+02 0.  0.
        -12    1    3    3    0    0  0.33849507425E+02  0.14424597854E+02 -0.13866945305E+01  0.36820932876E+02  0.00000000000E+00 0.  1.
         11    1    4    4    0    0 -0.53206919007E+01 -0.13743092549E+02 -0.55241860435E+01  0.15738455668E+02  0.51100000000E-03 0. -1.
        -11    1    4    4    0    0 -0.64993558855E+01  0.11098878001E+02  0.66944681456E+00  0.12879242179E+02  0.51100000000E-03 0.  1.
         12    1    4    4    0    0 -0.22029459638E+02 -0.11780383305E+02  0.62414337595E+01  0.25749369277E+02  0.00000000000E+00 0. -1.
</event>
<event>
 8    1  0.3007389E-007  0.9118800E+02  0.7816164E-02  0.1184000E+00
        -11   -1    0    0    0    0  0.00000000000E+00  0.00000000000E+00  0.45593999997E+02  0.45594000000E+02  0.51100000000E-03 0. -1.
         11   -1    0    0    0    0 -0.00000000000E+00 -0.00000000000E+00 -0.45593999997E+02  0.45594000000E+02  0.51100000000E-03 0.  1.
         23    2    1    2    0    0 -0.17763568394E-14  0.00000000000E+00  0.00000000000E+00  0.91188000000E+02  0.91188000000E+02 0.  0.
    9900012    2    3    3    0    0  0.12461185547E+02 -0.16423530907E+02  0.30508470784E+02  0.54367077927E+02  0.39999985751E+02 0.  0.
        -12    1    3    3    0    0 -0.12461185547E+02  0.16423530907E+02 -0.30508470784E+02  0.36820922073E+02  0.00000000000E+00 0.  1.
         11    1    4    4    0    0 -0.88758827877E+01 -0.28940349290E+01  0.31391206547E+01  0.98494066916E+01  0.51100000000E-03 0. -1.
        -11    1    4    4    0    0 -0.41393321222E+01 -0.72365919459E+01  0.10130516838E+02  0.13119821076E+02  0.51100000000E-03 0.  1.
        -12    1    4    4    0    0  0.25476400457E+02 -0.62929040320E+01  0.17238833291E+02  0.31397850160E+02  0.00000000000E+00 0.  1.
</event>
<event>
 8    1  0.3007389E-007  0.9118800E+02  0.7816164E-02  0.1184000E+00
        -11   -1    0    0    0    0  0.00000000000E+00  0.00000000000E+00  0.45593999997E+02  0.45594000000E+02  0.51100000000E-03 0.  1.
         11   -1    0    0    0    0 -0.00000000000E+00 -0.00000000000E+00 -0.45593999997E+02  0.45594000000E+02  0.51100000000E-03 0. -1.
         23    2    1    2    0    0  0.22204460493E-15  0.00000000000E+00  0.71054273576E-14  0.91188000000E+02  0.91188000000E+02 0.  0.
    9900012    2    3    3    0    0 -0.16211425114E+01 -0.10423768166E+02 -0.35277378228E+02  0.54367130096E+02  0.40000104681E+02 0.  0.
        -12    1    3    3    0    0  0.16211425114E+01  0.10423768166E+02  0.35277378228E+02  0.36820869904E+02  0.00000000000E+00 0.  1.
         11    1    4    4    0    0  0.40032463174E+01  0.91061722488E+01  0.45274887537E+00  0.99575768090E+01  0.51100000000E-03 0.  1.
        -11    1    4    4    0    0 -0.47585262514E+01 -0.15901784291E+02 -0.36932106555E+02  0.40490626206E+02  0.51100000000E-03 0. -1.
         12    1    4    4    0    0 -0.86586257742E+00 -0.36281561245E+01  0.12019794517E+01  0.39189270814E+01  0.00000000000E+00 0. -1.
</event>
<event>
 8    1  0.3007389E-007  0.9118800E+02  0.7816164E-02  0.1184000E+00
        -11   -1    0    0    0    0  0.00000000000E+00  0.00000000000E+00  0.45593999997E+02  0.45594000000E+02  0.51100000000E-03 0.  1.
         11   -1    0    0    0    0 -0.00000000000E+00 -0.00000000000E+00 -0.45593999997E+02  0.45594000000E+02  0.51100000000E-03 0. -1.
         23    2    1    2    0    0 -0.13877787808E-14  0.00000000000E+00  0.00000000000E+00  0.91188000000E+02  0.91188000000E+02 0.  0.
    9900012    2    3    3    0    0  0.41702808781E+00  0.19468956873E+02  0.31250041669E+02  0.54367091559E+02  0.40000016826E+02 0.  0.
         12    1    3    3    0    0 -0.41702808781E+00 -0.19468956873E+02 -0.31250041669E+02  0.36820908441E+02  0.00000000000E+00 0. -1.
         11    1    4    4    0    0  0.15305671922E+02  0.31079510297E+01  0.88407756078E+01  0.17946650557E+02  0.51100000000E-03 0.  1.
        -11    1    4    4    0    0  0.12626576627E+01  0.55082074522E+01 -0.12493039584E+01  0.57875222981E+01  0.51100000000E-03 0. -1.
         12    1    4    4    0    0 -0.16151301497E+02  0.10852798391E+02  0.23658570019E+02  0.30632918704E+02  0.00000000000E+00 0. -1.
</event>
<event>
 8    1  0.3007389E-007  0.9118800E+02  0.7816164E-02  0.1184000E+00
        -11   -1    0    0    0    0  0.00000000000E+00  0.00000000000E+00  0.45593999997E+02  0.45594000000E+02  0.51100000000E-03 0. -1.
         11   -1    0    0    0    0 -0.00000000000E+00 -0.00000000000E+00 -0.45593999997E+02  0.45594000000E+02  0.51100000000E-03 0.  1.
         23    2    1    2    0    0  0.35527136788E-14  0.00000000000E+00  0.00000000000E+00  0.91188000000E+02  0.91188000000E+02 0.  0.
    9900012    2    3    3    0    0 -0.26453065623E+02  0.17997220069E+02 -0.18224028318E+02  0.54367084487E+02  0.40000000705E+02 0.  0.
         12    1    3    3    0    0  0.26453065623E+02 -0.17997220069E+02  0.18224028318E+02  0.36820915513E+02  0.00000000000E+00 0. -1.
         11    1    4    4    0    0 -0.80857262856E+00  0.25320214209E+01 -0.66642950663E+01  0.71747997298E+01  0.51100000000E-03 0. -1.
        -11    1    4    4    0    0 -0.59428810592E+01  0.16939537785E+01 -0.20603138733E+02  0.21509919586E+02  0.51100000000E-03 0.  1.
         12    1    4    4    0    0 -0.19701611935E+02  0.13771244870E+02  0.90434054806E+01  0.25682365171E+02  0.00000000000E+00 0. -1.
</event>
<event>
 8    1  0.3007389E-007  0.9118800E+02  0.7816164E-02  0.1184000E+00
        -11   -1    0    0    0    0  0.00000000000E+00  0.00000000000E+00  0.45593999997E+02  0.45594000000E+02  0.51100000000E-03 0.  1.
         11   -1    0    0    0    0 -0.00000000000E+00 -0.00000000000E+00 -0.45593999997E+02  0.45594000000E+02  0.51100000000E-03 0. -1.
         23    2    1    2    0    0  0.17763568394E-14 -0.35527136788E-14  0.00000000000E+00  0.91188000000E+02  0.91188000000E+02 0.  0.
    9900012    2    3    3    0    0  0.11136173069E+02 -0.31628138368E+02  0.15212658857E+02  0.54367102717E+02  0.40000042263E+02 0.  0.
         12    1    3    3    0    0 -0.11136173069E+02  0.31628138368E+02 -0.15212658857E+02  0.36820897283E+02  0.00000000000E+00 0. -1.
         11    1    4    4    0    0 -0.10860615763E+01 -0.26230976676E+02  0.19133745668E+02  0.32486056866E+02  0.51100000000E-03 0. -1.
        -11    1    4    4    0    0  0.16068714902E+02 -0.42642133214E+01 -0.55874568975E+01  0.17538722551E+02  0.51100000000E-03 0.  1.
         12    1    4    4    0    0 -0.38464802574E+01 -0.11329483707E+01  0.16663700859E+01  0.43423233003E+01  0.00000000000E+00 0. -1.
</event>
<event>
 8    1  0.3007389E-007  0.9118800E+02  0.7816164E-02  0.1184000E+00
        -11   -1    0    0    0    0  0.00000000000E+00  0.00000000000E+00  0.45593999997E+02  0.45594000000E+02  0.51100000000E-03 0. -1.
         11   -1    0    0    0    0 -0.00000000000E+00 -0.00000000000E+00 -0.45593999997E+02  0.45594000000E+02  0.51100000000E-03 0.  1.
         23    2    1    2    0    0  0.00000000000E+00  0.35527136788E-14  0.00000000000E+00  0.91188000000E+02  0.91188000000E+02 0.  0.
    9900012    2    3    3    0    0  0.17063329863E+02 -0.22538745934E+02  0.23592989799E+02  0.54367062180E+02  0.39999949851E+02 0.  0.
        -12    1    3    3    0    0 -0.17063329863E+02  0.22538745934E+02 -0.23592989799E+02  0.36820937820E+02  0.00000000000E+00 0.  1.
         11    1    4    4    0    0  0.25447235957E+02 -0.24736114542E+02  0.16176750133E+02  0.39001595168E+02  0.51100000000E-03 0. -1.
        -11    1    4    4    0    0 -0.98438091831E+01 -0.20490285546E-01  0.79547487754E+01  0.12656185343E+02  0.51100000000E-03 0.  1.
        -12    1    4    4    0    0  0.14599030897E+01  0.22178588937E+01 -0.53850910958E+00  0.27092816695E+01  0.00000000000E+00 0.  1.
</event>
<event>
 8    1  0.3007389E-007  0.9118800E+02  0.7816164E-02  0.1184000E+00
        -11   -1    0    0    0    0  0.00000000000E+00  0.00000000000E+00  0.45593999997E+02  0.45594000000E+02  0.51100000000E-03 0. -1.
         11   -1    0    0    0    0 -0.00000000000E+00 -0.00000000000E+00 -0.45593999997E+02  0.45594000000E+02  0.51100000000E-03 0.  1.
         23    2    1    2    0    0  0.00000000000E+00  0.39968028887E-14  0.35527136788E-14  0.91188000000E+02  0.91188000000E+02 0.  0.
    9900012    2    3    3    0    0  0.29779440496E+02  0.31683511629E+01  0.21422558181E+02  0.54367088491E+02  0.40000009832E+02 0.  0.
        -12    1    3    3    0    0 -0.29779440496E+02 -0.31683511629E+01 -0.21422558181E+02  0.36820911509E+02  0.00000000000E+00 0.  1.
         11    1    4    4    0    0  0.28776089273E+01  0.14582540583E+02  0.44594955042E+01  0.15518318962E+02  0.51100000000E-03 0. -1.
        -11    1    4    4    0    0 -0.23904959078E+01  0.65391665738E-01 -0.10319796144E+01  0.26045592604E+01  0.51100000000E-03 0.  1.
         12    1    4    4    0    0  0.29292327477E+02 -0.11479581086E+02  0.17995042291E+02  0.36244210268E+02  0.00000000000E+00 0. -1.
</event>
<event>
 8    1  0.3007389E-007  0.9118800E+02  0.7816164E-02  0.1184000E+00
        -11   -1    0    0    0    0  0.00000000000E+00  0.00000000000E+00  0.45593999997E+02  0.45594000000E+02  0.51100000000E-03 0.  1.
         11   -1    0    0    0    0 -0.00000000000E+00 -0.00000000000E+00 -0.45593999997E+02  0.45594000000E+02  0.51100000000E-03 0. -1.
         23    2    1    2    0    0 -0.71054273576E-14 -0.35527136788E-14  0.00000000000E+00  0.91188000000E+02  0.91188000000E+02 0.  0.
    9900012    2    3    3    0    0  0.19513966284E+02  0.21675784587E+02 -0.22475216144E+02  0.54367219749E+02  0.40000309061E+02 0.  0.
        -12    1    3    3    0    0 -0.19513966284E+02 -0.21675784587E+02  0.22475216144E+02  0.36820780251E+02  0.00000000000E+00 0.  1.
         11    1    4    4    0    0 -0.30083535266E+01  0.81930952981E+00 -0.15287019012E+01  0.34725190871E+01  0.51100000000E-03 0. -1.
        -11    1    4    4    0    0  0.18071884926E+02  0.17050969910E+02  0.40918095023E+01  0.25180776495E+02  0.51100000000E-03 0.  1.
         12    1    4    4    0    0  0.44504348845E+01  0.38055051473E+01 -0.25038323745E+02  0.25713924167E+02  0.00000000000E+00 0. -1.
</event>
<event>
 8    1  0.3007389E-007  0.9118800E+02  0.7816164E-02  0.1184000E+00
        -11   -1    0    0    0    0  0.00000000000E+00  0.00000000000E+00  0.45593999997E+02  0.45594000000E+02  0.51100000000E-03 0.  1.
         11   -1    0    0    0    0 -0.00000000000E+00 -0.00000000000E+00 -0.45593999997E+02  0.45594000000E+02  0.51100000000E-03 0. -1.
         23    2    1    2    0    0  0.00000000000E+00  0.00000000000E+00  0.35527136788E-14  0.91188000000E+02  0.91188000000E+02 0.  0.
    9900012    2    3    3    0    0  0.41759302178E+01 -0.18300586636E+02  0.31676896726E+02  0.54367141094E+02  0.40000129751E+02 0.  0.
         12    1    3    3    0    0 -0.41759302178E+01  0.18300586636E+02 -0.31676896726E+02  0.36820858906E+02  0.00000000000E+00 0. -1.
         11    1    4    4    0    0  0.19310423519E+01 -0.98716580319E+01  0.34216014828E+02  0.35663906514E+02  0.51100000000E-03 0. -1.
        -11    1    4    4    0    0  0.76005406245E+00  0.46086030725E+01  0.16108351971E+01  0.49408192389E+01  0.51100000000E-03 0.  1.
         12    1    4    4    0    0  0.14848338034E+01 -0.13037531676E+02 -0.41499532989E+01  0.13762415341E+02  0.00000000000E+00 0. -1.
</event>
<event>
 8    1  0.3007389E-007  0.9118800E+02  0.7816164E-02  0.1184000E+00
        -11   -1    0    0    0    0  0.00000000000E+00  0.00000000000E+00  0.45593999997E+02  0.45594000000E+02  0.51100000000E-03 0. -1.
         11   -1    0    0    0    0 -0.00000000000E+00 -0.00000000000E+00 -0.45593999997E+02  0.45594000000E+02  0.51100000000E-03 0.  1.
         23    2    1    2    0    0  0.71054273576E-14  0.00000000000E+00 -0.33306690739E-15  0.91188000000E+02  0.91188000000E+02 0.  0.
    9900012    2    3    3    0    0  0.33620560823E+02 -0.15003477588E+02 -0.57816852671E+00  0.54367072138E+02  0.39999972552E+02 0.  0.
        -12    1    3    3    0    0 -0.33620560823E+02  0.15003477588E+02  0.57816852671E+00  0.36820927862E+02  0.00000000000E+00 0.  1.
         11    1    4    4    0    0  0.91469285185E+01 -0.81494851996E+01  0.51520361187E+01  0.13289991978E+02  0.51100000000E-03 0. -1.
        -11    1    4    4    0    0  0.28910778789E+02 -0.11900578608E+02 -0.10338009466E+02  0.32929186771E+02  0.51100000000E-03 0.  1.
        -12    1    4    4    0    0 -0.44371464846E+01  0.50465862205E+01  0.46078048208E+01  0.81478933886E+01  0.00000000000E+00 0.  1.
</event>
<event>
 8    1  0.3007389E-007  0.9118800E+02  0.7816164E-02  0.1184000E+00
        -11   -1    0    0    0    0  0.00000000000E+00  0.00000000000E+00  0.45593999997E+02  0.45594000000E+02  0.51100000000E-03 0.  1.
         11   -1    0    0    0    0 -0.00000000000E+00 -0.00000000000E+00 -0.45593999997E+02  0.45594000000E+02  0.51100000000E-03 0. -1.
         23    2    1    2    0    0  0.00000000000E+00  0.00000000000E+00 -0.71054273576E-14  0.91188000000E+02  0.91188000000E+02 0.  0.
    9900012    2    3    3    0    0 -0.13390304654E+02 -0.11706250667E+02  0.32240382419E+02  0.54367098030E+02  0.40000031578E+02 0.  0.
         12    1    3    3    0    0  0.13390304654E+02  0.11706250667E+02 -0.32240382419E+02  0.36820901970E+02  0.00000000000E+00 0. -1.
         11    1    4    4    0    0 -0.42616452300E+01 -0.20041054723E+02  0.60859690339E+01  0.21373921349E+02  0.51100000000E-03 0. -1.
        -11    1    4    4    0    0 -0.35855081897E+01  0.24400583833E+01  0.24310200449E+02  0.24694039767E+02  0.51100000000E-03 0.  1.
        -12    1    4    4    0    0 -0.55431512343E+01  0.58947456732E+01  0.18442129359E+01  0.82991369136E+01  0.00000000000E+00 0.  1.
</event>
<event>
 8    1  0.3007389E-007  0.9118800E+02  0.7816164E-02  0.1184000E+00
        -11   -1    0    0    0    0  0.00000000000E+00  0.00000000000E+00  0.45593999997E+02  0.45594000000E+02  0.51100000000E-03 0.  1.
         11   -1    0    0    0    0 -0.00000000000E+00 -0.00000000000E+00 -0.45593999997E+02  0.45594000000E+02  0.51100000000E-03 0. -1.
         23    2    1    2    0    0  0.35527136788E-14  0.00000000000E+00 -0.35527136788E-14  0.91188000000E+02  0.91188000000E+02 0.  0.
    9900012    2    3    3    0    0 -0.21644050701E+02  0.15765627965E+02 -0.25273721091E+02  0.54367069353E+02  0.39999966205E+02 0.  0.
        -12    1    3    3    0    0  0.21644050701E+02 -0.15765627965E+02  0.25273721091E+02  0.36820930647E+02  0.00000000000E+00 0.  1.
         11    1    4    4    0    0 -0.87293811406E+01 -0.55757812456E+01 -0.25789850939E+02  0.27792226311E+02  0.51100000000E-03 0. -1.
        -11    1    4    4    0    0 -0.12060550115E+02  0.20173599005E+02  0.30058324414E+01  0.23695273681E+02  0.51100000000E-03 0.  1.
        -12    1    4    4    0    0 -0.85411944588E+00  0.11678102059E+01 -0.24897025940E+01  0.28795693621E+01  0.00000000000E+00 0.  1.
</event>
<event>
 8    1  0.3007389E-007  0.9118800E+02  0.7816164E-02  0.1184000E+00
        -11   -1    0    0    0    0  0.00000000000E+00  0.00000000000E+00  0.45593999997E+02  0.45594000000E+02  0.51100000000E-03 0. -1.
         11   -1    0    0    0    0 -0.00000000000E+00 -0.00000000000E+00 -0.45593999997E+02  0.45594000000E+02  0.51100000000E-03 0.  1.
         23    2    1    2    0    0 -0.35527136788E-14  0.44408920985E-15  0.00000000000E+00  0.91188000000E+02  0.91188000000E+02 0.  0.
    9900012    2    3    3    0    0  0.18776132519E+02 -0.26103884160E+01 -0.31566151441E+02  0.54367092938E+02  0.40000019971E+02 0.  0.
         12    1    3    3    0    0 -0.18776132519E+02  0.26103884160E+01  0.31566151441E+02  0.36820907062E+02  0.00000000000E+00 0. -1.
         11    1    4    4    0    0  0.48943995465E+01 -0.73477530614E+01 -0.23985198887E+01  0.91486348648E+01  0.51100000000E-03 0. -1.
        -11    1    4    4    0    0 -0.47565430280E+01  0.12594129273E+02 -0.16729490627E+02  0.21473533724E+02  0.51100000000E-03 0.  1.
         12    1    4    4    0    0  0.18638276000E+02 -0.78567646273E+01 -0.12438140926E+02  0.23744924349E+02  0.00000000000E+00 0. -1.
</event>
<event>
 8    1  0.3007389E-007  0.9118800E+02  0.7816164E-02  0.1184000E+00
        -11   -1    0    0    0    0  0.00000000000E+00  0.00000000000E+00  0.45593999997E+02  0.45594000000E+02  0.51100000000E-03 0. -1.
         11   -1    0    0    0    0 -0.00000000000E+00 -0.00000000000E+00 -0.45593999997E+02  0.45594000000E+02  0.51100000000E-03 0.  1.
         23    2    1    2    0    0  0.88817841970E-15  0.00000000000E+00  0.00000000000E+00  0.91188000000E+02  0.91188000000E+02 0.  0.
    9900012    2    3    3    0    0 -0.38961070119E+01  0.34478682422E+02  0.12321554309E+02  0.54367083498E+02  0.39999998451E+02 0.  0.
        -12    1    3    3    0    0  0.38961070119E+01 -0.34478682422E+02 -0.12321554309E+02  0.36820916502E+02  0.00000000000E+00 0.  1.
         11    1    4    4    0    0 -0.58171242917E+01 -0.74853493697E+01 -0.20370740219E+01  0.96963426633E+01  0.51100000000E-03 0.  1.
        -11    1    4    4    0    0  0.53493615266E+00  0.98665908947E+01  0.12023536349E+01  0.99539653955E+01  0.51100000000E-03 0. -1.
        -12    1    4    4    0    0  0.13860811272E+01  0.32097440897E+02  0.13156274696E+02  0.34716775440E+02  0.00000000000E+00 0.  1.
</event>
<event>
 8    1  0.3007389E-007  0.9118800E+02  0.7816164E-02  0.1184000E+00
        -11   -1    0    0    0    0  0.00000000000E+00  0.00000000000E+00  0.45593999997E+02  0.45594000000E+02  0.51100000000E-03 0.  1.
         11   -1    0    0    0    0 -0.00000000000E+00 -0.00000000000E+00 -0.45593999997E+02  0.45594000000E+02  0.51100000000E-03 0. -1.
         23    2    1    2    0    0  0.00000000000E+00  0.00000000000E+00  0.00000000000E+00  0.91188000000E+02  0.91188000000E+02 0.  0.
    9900012    2    3    3    0    0  0.17405670671E+02  0.13185474706E+02  0.29647430507E+02  0.54367024315E+02  0.39999863532E+02 0.  0.
         12    1    3    3    0    0 -0.17405670671E+02 -0.13185474706E+02 -0.29647430507E+02  0.36820975685E+02  0.00000000000E+00 0. -1.
         11    1    4    4    0    0  0.26692452583E+02  0.15286544971E+02  0.16687604888E+02  0.34994880185E+02  0.51100000000E-03 0.  1.
        -11    1    4    4    0    0 -0.63706091145E+01  0.20033427988E+01  0.14849784933E+01  0.68412867390E+01  0.51100000000E-03 0. -1.
        -12    1    4    4    0    0 -0.29161727978E+01 -0.41044130641E+01  0.11474847126E+02  0.12530857391E+02  0.00000000000E+00 0.  1.
</event>
<event>
 8    1  0.3007389E-007  0.9118800E+02  0.7816164E-02  0.1184000E+00
        -11   -1    0    0    0    0  0.00000000000E+00  0.00000000000E+00  0.45593999997E+02  0.45594000000E+02  0.51100000000E-03 0.  1.
         11   -1    0    0    0    0 -0.00000000000E+00 -0.00000000000E+00 -0.45593999997E+02  0.45594000000E+02  0.51100000000E-03 0. -1.
         23    2    1    2    0    0 -0.71054273576E-14  0.00000000000E+00  0.35527136788E-14  0.91188000000E+02  0.91188000000E+02 0.  0.
    9900012    2    3    3    0    0 -0.23825808293E+02 -0.12758452148E+02  0.25006635988E+02  0.54367094450E+02  0.40000023418E+02 0.  0.
         12    1    3    3    0    0  0.23825808293E+02  0.12758452148E+02 -0.25006635988E+02  0.36820905550E+02  0.00000000000E+00 0. -1.
         11    1    4    4    0    0 -0.34180661195E+02 -0.92637543560E+01  0.19277448117E+02  0.40320649184E+02  0.51100000000E-03 0. -1.
        -11    1    4    4    0    0  0.10021786476E+02 -0.20533544917E+01  0.25546267006E+01  0.10544125695E+02  0.51100000000E-03 0.  1.
        -12    1    4    4    0    0  0.33306642551E+00 -0.14413433002E+01  0.31745611704E+01  0.35023195710E+01  0.00000000000E+00 0.  1.
</event>
<event>
 8    1  0.3007389E-007  0.9118800E+02  0.7816164E-02  0.1184000E+00
        -11   -1    0    0    0    0  0.00000000000E+00  0.00000000000E+00  0.45593999997E+02  0.45594000000E+02  0.51100000000E-03 0. -1.
         11   -1    0    0    0    0 -0.00000000000E+00 -0.00000000000E+00 -0.45593999997E+02  0.45594000000E+02  0.51100000000E-03 0.  1.
         23    2    1    2    0    0  0.00000000000E+00  0.35527136788E-14  0.00000000000E+00  0.91188000000E+02  0.91188000000E+02 0.  0.
    9900012    2    3    3    0    0  0.61222430034E+01 -0.29831540721E+02 -0.20697348394E+02  0.54367042493E+02  0.39999904971E+02 0.  0.
         12    1    3    3    0    0 -0.61222430034E+01  0.29831540721E+02  0.20697348394E+02  0.36820957507E+02  0.00000000000E+00 0. -1.
         11    1    4    4    0    0  0.71169474105E+01 -0.10008143734E+02 -0.88705203375E+01  0.15149257829E+02  0.51100000000E-03 0. -1.
        -11    1    4    4    0    0 -0.25369290728E+01 -0.28448364361E+02 -0.10048684855E+02  0.30277409260E+02  0.51100000000E-03 0.  1.
         12    1    4    4    0    0  0.15422246656E+01  0.86249673738E+01 -0.17781432006E+01  0.89403754037E+01  0.00000000000E+00 0. -1.
</event>
<event>
 8    1  0.3007389E-007  0.9118800E+02  0.7816164E-02  0.1184000E+00
        -11   -1    0    0    0    0  0.00000000000E+00  0.00000000000E+00  0.45593999997E+02  0.45594000000E+02  0.51100000000E-03 0. -1.
         11   -1    0    0    0    0 -0.00000000000E+00 -0.00000000000E+00 -0.45593999997E+02  0.45594000000E+02  0.51100000000E-03 0.  1.
         23    2    1    2    0    0  0.00000000000E+00  0.00000000000E+00  0.00000000000E+00  0.91188000000E+02  0.91188000000E+02 0.  0.
    9900012    2    3    3    0    0  0.13584582739E+02 -0.10991881260E+02 -0.32410140514E+02  0.54367088144E+02  0.40000009041E+02 0.  0.
         12    1    3    3    0    0 -0.13584582739E+02  0.10991881260E+02  0.32410140514E+02  0.36820911856E+02  0.00000000000E+00 0. -1.
         11    1    4    4    0    0  0.17646195708E+02  0.13294420566E+01 -0.15867622005E+02  0.23768404816E+02  0.51100000000E-03 0. -1.
        -11    1    4    4    0    0  0.68530498110E+01 -0.40028832543E+01 -0.14762351093E+02  0.16760500473E+02  0.51100000000E-03 0.  1.
         12    1    4    4    0    0 -0.10914662780E+02 -0.83184400619E+01 -0.17801674159E+01  0.13838182854E+02  0.00000000000E+00 0. -1.
</event>
<event>
 8    1  0.3007389E-007  0.9118800E+02  0.7816164E-02  0.1184000E+00
        -11   -1    0    0    0    0  0.00000000000E+00  0.00000000000E+00  0.45593999997E+02  0.45594000000E+02  0.51100000000E-03 0.  1.
         11   -1    0    0    0    0 -0.00000000000E+00 -0.00000000000E+00 -0.45593999997E+02  0.45594000000E+02  0.51100000000E-03 0. -1.
         23    2    1    2    0    0  0.17763568394E-14  0.00000000000E+00  0.44408920985E-15  0.91188000000E+02  0.91188000000E+02 0.  0.
    9900012    2    3    3    0    0 -0.15377109194E+02 -0.33337498031E+02  0.28170482248E+01  0.54367081722E+02  0.39999994402E+02 0.  0.
        -12    1    3    3    0    0  0.15377109194E+02  0.33337498031E+02 -0.28170482248E+01  0.36820918278E+02  0.00000000000E+00 0.  1.
         11    1    4    4    0    0  0.20533219664E+01 -0.12420981155E+01 -0.69404890108E+01  0.73436589515E+01  0.51100000000E-03 0. -1.
        -11    1    4    4    0    0 -0.57739602715E+01 -0.29206079016E+02 -0.24839413467E+01  0.29874799306E+02  0.51100000000E-03 0.  1.
        -12    1    4    4    0    0 -0.11656470889E+02 -0.28893208994E+01  0.12241478582E+02  0.17148623464E+02  0.00000000000E+00 0.  1.
</event>
<event>
 8    1  0.3007389E-007  0.9118800E+02  0.7816164E-02  0.1184000E+00
        -11   -1    0    0    0    0  0.00000000000E+00  0.00000000000E+00  0.45593999997E+02  0.45594000000E+02  0.51100000000E-03 0. -1.
         11   -1    0    0    0    0 -0.00000000000E+00 -0.00000000000E+00 -0.45593999997E+02  0.45594000000E+02  0.51100000000E-03 0.  1.
         23    2    1    2    0    0  0.17763568394E-14  0.00000000000E+00  0.00000000000E+00  0.91188000000E+02  0.91188000000E+02 0.  0.
    9900012    2    3    3    0    0 -0.14391599074E+02  0.33530391629E+02  0.49373944753E+01  0.54367039246E+02  0.39999897568E+02 0.  0.
         12    1    3    3    0    0  0.14391599074E+02 -0.33530391629E+02 -0.49373944753E+01  0.36820960754E+02  0.00000000000E+00 0. -1.
         11    1    4    4    0    0 -0.16392291708E+02  0.75183190897E+01  0.10870778596E+02  0.21057211993E+02  0.51100000000E-03 0. -1.
        -11    1    4    4    0    0  0.24932381332E+01 -0.12941589634E+01 -0.52923110444E+01  0.59916308517E+01  0.51100000000E-03 0.  1.
        -12    1    4    4    0    0 -0.49254549918E+00  0.27306231502E+02 -0.64107307602E+00  0.27318196401E+02  0.00000000000E+00 0.  1.
</event>
<event>
 8    1  0.3007389E-007  0.9118800E+02  0.7816164E-02  0.1184000E+00
        -11   -1    0    0    0    0  0.00000000000E+00  0.00000000000E+00  0.45593999997E+02  0.45594000000E+02  0.51100000000E-03 0. -1.
         11   -1    0    0    0    0 -0.00000000000E+00 -0.00000000000E+00 -0.45593999997E+02  0.45594000000E+02  0.51100000000E-03 0.  1.
         23    2    1    2    0    0  0.00000000000E+00  0.00000000000E+00  0.00000000000E+00  0.91188000000E+02  0.91188000000E+02 0.  0.
    9900012    2    3    3    0    0  0.10266638612E+02 -0.33531753941E+02  0.11225343563E+02  0.54366936342E+02  0.39999662978E+02 0.  0.
        -12    1    3    3    0    0 -0.10266638612E+02  0.33531753941E+02 -0.11225343563E+02  0.36821063658E+02  0.00000000000E+00 0.  1.
         11    1    4    4    0    0 -0.60622730189E+01 -0.30393316927E+01  0.13081063870E+02  0.14734412900E+02  0.51100000000E-03 0.  1.
        -11    1    4    4    0    0  0.67149451551E+01 -0.19917601258E+02  0.77613944521E+01  0.22406261902E+02  0.51100000000E-03 0. -1.
        -12    1    4    4    0    0  0.96139664757E+01 -0.10574820991E+02 -0.96171147586E+01  0.17226261541E+02  0.00000000000E+00 0.  1.
</event>
<event>
 8    1  0.3007389E-007  0.9118800E+02  0.7816164E-02  0.1184000E+00
        -11   -1    0    0    0    0  0.00000000000E+00  0.00000000000E+00  0.45593999997E+02  0.45594000000E+02  0.51100000000E-03 0.  1.
         11   -1    0    0    0    0 -0.00000000000E+00 -0.00000000000E+00 -0.45593999997E+02  0.45594000000E+02  0.51100000000E-03 0. -1.
         23    2    1    2    0    0 -0.35527136788E-14  0.00000000000E+00 -0.35527136788E-14  0.91188000000E+02  0.91188000000E+02 0.  0.
    9900012    2    3    3    0    0  0.16357059069E+02 -0.16989818958E+02  0.28276705471E+02  0.54367090154E+02  0.40000013624E+02 0.  0.
         12    1    3    3    0    0 -0.16357059069E+02  0.16989818958E+02 -0.28276705471E+02  0.36820909846E+02  0.00000000000E+00 0. -1.
         11    1    4    4    0    0  0.61926142873E+01 -0.48936254080E+01 -0.21639913982E+01  0.81840638059E+01  0.51100000000E-03 0. -1.
        -11    1    4    4    0    0 -0.65824519031E+01 -0.13715135176E+02  0.23474474464E+02  0.27972925438E+02  0.51100000000E-03 0.  1.
         12    1    4    4    0    0  0.16746896684E+02  0.16189416263E+01  0.69662224056E+01  0.18210100910E+02  0.00000000000E+00 0. -1.
</event>
<event>
 8    1  0.3007389E-007  0.9118800E+02  0.7816164E-02  0.1184000E+00
        -11   -1    0    0    0    0  0.00000000000E+00  0.00000000000E+00  0.45593999997E+02  0.45594000000E+02  0.51100000000E-03 0. -1.
         11   -1    0    0    0    0 -0.00000000000E+00 -0.00000000000E+00 -0.45593999997E+02  0.45594000000E+02  0.51100000000E-03 0.  1.
         23    2    1    2    0    0  0.17763568394E-14  0.00000000000E+00  0.00000000000E+00  0.91188000000E+02  0.91188000000E+02 0.  0.
    9900012    2    3    3    0    0  0.84347247871E+01 -0.20722784229E+02 -0.29243835582E+02  0.54367078122E+02  0.39999986194E+02 0.  0.
         12    1    3    3    0    0 -0.84347247871E+01  0.20722784229E+02  0.29243835582E+02  0.36820921878E+02  0.00000000000E+00 0. -1.
         11    1    4    4    0    0 -0.64456515659E+01 -0.22709298609E+02 -0.73841869533E+01  0.24734285610E+02  0.51100000000E-03 0. -1.
        -11    1    4    4    0    0  0.44002480889E+01  0.50908865799E+01 -0.15712046022E+02  0.17092328685E+02  0.51100000000E-03 0.  1.
         12    1    4    4    0    0  0.10480128264E+02 -0.31043722006E+01 -0.61476026066E+01  0.12540463827E+02  0.00000000000E+00 0. -1.
</event>
<event>
 8    1  0.3007389E-007  0.9118800E+02  0.7816164E-02  0.1184000E+00
        -11   -1    0    0    0    0  0.00000000000E+00  0.00000000000E+00  0.45593999997E+02  0.45594000000E+02  0.51100000000E-03 0.  1.
         11   -1    0    0    0    0 -0.00000000000E+00 -0.00000000000E+00 -0.45593999997E+02  0.45594000000E+02  0.51100000000E-03 0. -1.
         23    2    1    2    0    0  0.00000000000E+00 -0.66613381478E-15  0.00000000000E+00  0.91188000000E+02  0.91188000000E+02 0.  0.
    9900012    2    3    3    0    0 -0.33856602297E+02  0.76473279279E+00 -0.14454260007E+02  0.54367082471E+02  0.39999996109E+02 0.  0.
        -12    1    3    3    0    0  0.33856602297E+02 -0.76473279279E+00  0.14454260007E+02  0.36820917529E+02  0.00000000000E+00 0.  1.
         11    1    4    4    0    0 -0.35693666563E+02  0.52768392534E+01 -0.12342024577E+02  0.38134084966E+02  0.51100000000E-03 0. -1.
        -11    1    4    4    0    0 -0.29041698443E+01 -0.65892486027E+01 -0.63054749935E+01  0.95713852074E+01  0.51100000000E-03 0.  1.
         12    1    4    4    0    0  0.47412341107E+01  0.20771421421E+01  0.41932395633E+01  0.66616122978E+01  0.00000000000E+00 0. -1.
</event>
<event>
 8    1  0.3007389E-007  0.9118800E+02  0.7816164E-02  0.1184000E+00
        -11   -1    0    0    0    0  0.00000000000E+00  0.00000000000E+00  0.45593999997E+02  0.45594000000E+02  0.51100000000E-03 0. -1.
         11   -1    0    0    0    0 -0.00000000000E+00 -0.00000000000E+00 -0.45593999997E+02  0.45594000000E+02  0.51100000000E-03 0.  1.
         23    2    1    2    0    0  0.00000000000E+00  0.35527136788E-14 -0.35527136788E-14  0.91188000000E+02  0.91188000000E+02 0.  0.
    9900012    2    3    3    0    0  0.18267932127E+02 -0.24496217879E+02 -0.20542657095E+02  0.54367044077E+02  0.39999908582E+02 0.  0.
         12    1    3    3    0    0 -0.18267932127E+02  0.24496217879E+02  0.20542657095E+02  0.36820955923E+02  0.00000000000E+00 0. -1.
         11    1    4    4    0    0 -0.61318993740E+01  0.82398818111E+00  0.31619328060E+01  0.69481627634E+01  0.51100000000E-03 0. -1.
        -11    1    4    4    0    0  0.13135313623E+02 -0.49765635996E+01 -0.19107142120E+02  0.23714669078E+02  0.51100000000E-03 0.  1.
        -12    1    4    4    0    0  0.11264517878E+02 -0.20343642461E+02 -0.45974477807E+01  0.23704212235E+02  0.00000000000E+00 0.  1.
</event>
<event>
 8    1  0.3007389E-007  0.9118800E+02  0.7816164E-02  0.1184000E+00
        -11   -1    0    0    0    0  0.00000000000E+00  0.00000000000E+00  0.45593999997E+02  0.45594000000E+02  0.51100000000E-03 0. -1.
         11   -1    0    0    0    0 -0.00000000000E+00 -0.00000000000E+00 -0.45593999997E+02  0.45594000000E+02  0.51100000000E-03 0.  1.
         23    2    1    2    0    0 -0.35527136788E-14  0.17763568394E-14  0.00000000000E+00  0.91188000000E+02  0.91188000000E+02 0.  0.
    9900012    2    3    3    0    0  0.28770398977E+02  0.90074832897E+01 -0.21140217222E+02  0.54367090225E+02  0.40000013785E+02 0.  0.
         12    1    3    3    0    0 -0.28770398977E+02 -0.90074832897E+01  0.21140217222E+02  0.36820909775E+02  0.00000000000E+00 0. -1.
         11    1    4    4    0    0 -0.82299744805E+00  0.10098002238E+02 -0.10438083183E+02  0.14546496307E+02  0.51100000000E-03 0. -1.
        -11    1    4    4    0    0  0.15447436033E+02  0.10930680687E+02 -0.11884810320E+01  0.18960895225E+02  0.51100000000E-03 0.  1.
        -12    1    4    4    0    0  0.14145960391E+02 -0.12021199635E+02 -0.95136530062E+01  0.20859698694E+02  0.00000000000E+00 0.  1.
</event>
<event>
 8    1  0.3007389E-007  0.9118800E+02  0.7816164E-02  0.1184000E+00
        -11   -1    0    0    0    0  0.00000000000E+00  0.00000000000E+00  0.45593999997E+02  0.45594000000E+02  0.51100000000E-03 0. -1.
         11   -1    0    0    0    0 -0.00000000000E+00 -0.00000000000E+00 -0.45593999997E+02  0.45594000000E+02  0.51100000000E-03 0.  1.
         23    2    1    2    0    0 -0.35527136788E-14  0.88817841970E-15  0.00000000000E+00  0.91188000000E+02  0.91188000000E+02 0.  0.
    9900012    2    3    3    0    0 -0.27340240536E+02  0.56850004689E+01 -0.23999432542E+02  0.54367071912E+02  0.39999972038E+02 0.  0.
         12    1    3    3    0    0  0.27340240536E+02 -0.56850004689E+01  0.23999432542E+02  0.36820928088E+02  0.00000000000E+00 0. -1.
         11    1    4    4    0    0 -0.30367364891E+01  0.83777942699E+01 -0.24298639406E+02  0.25881133719E+02  0.51100000000E-03 0. -1.
        -11    1    4    4    0    0 -0.21469063268E+02 -0.72223484064E+01 -0.18496477421E+01  0.22726728562E+02  0.51100000000E-03 0.  1.
        -12    1    4    4    0    0 -0.28344407793E+01  0.45295546053E+01  0.21488546065E+01  0.57592096310E+01  0.00000000000E+00 0.  1.
</event>
<event>
 8    1  0.3007389E-007  0.9118800E+02  0.7816164E-02  0.1184000E+00
        -11   -1    0    0    0    0  0.00000000000E+00  0.00000000000E+00  0.45593999997E+02  0.45594000000E+02  0.51100000000E-03 0.  1.
         11   -1    0    0    0    0 -0.00000000000E+00 -0.00000000000E+00 -0.45593999997E+02  0.45594000000E+02  0.51100000000E-03 0. -1.
         23    2    1    2    0    0  0.88817841970E-15 -0.17763568394E-14  0.00000000000E+00  0.91188000000E+02  0.91188000000E+02 0.  0.
    9900012    2    3    3    0    0  0.31370263116E+01  0.61689018263E+01  0.36164720817E+02  0.54367037009E+02  0.39999892469E+02 0.  0.
         12    1    3    3    0    0 -0.31370263116E+01 -0.61689018263E+01 -0.36164720817E+02  0.36820962991E+02  0.00000000000E+00 0. -1.
         11    1    4    4    0    0  0.93912916573E+01  0.41668803418E+01  0.81830820986E+01  0.13134766221E+02  0.51100000000E-03 0.  1.
        -11    1    4    4    0    0 -0.55189947684E+01  0.58051288785E+01 -0.40442345510E+01  0.89729960388E+01  0.51100000000E-03 0. -1.
         12    1    4    4    0    0 -0.73527057741E+00 -0.38031073940E+01  0.32025873270E+02  0.32259274749E+02  0.00000000000E+00 0. -1.
</event>
<event>
 8    1  0.3007389E-007  0.9118800E+02  0.7816164E-02  0.1184000E+00
        -11   -1    0    0    0    0  0.00000000000E+00  0.00000000000E+00  0.45593999997E+02  0.45594000000E+02  0.51100000000E-03 0.  1.
         11   -1    0    0    0    0 -0.00000000000E+00 -0.00000000000E+00 -0.45593999997E+02  0.45594000000E+02  0.51100000000E-03 0. -1.
         23    2    1    2    0    0 -0.88817841970E-15 -0.35527136788E-14 -0.35527136788E-14  0.91188000000E+02  0.91188000000E+02 0.  0.
    9900012    2    3    3    0    0 -0.61624519110E+01 -0.23148030539E+02 -0.27963764309E+02  0.54367092275E+02  0.40000018459E+02 0.  0.
        -12    1    3    3    0    0  0.61624519110E+01  0.23148030539E+02  0.27963764309E+02  0.36820907725E+02  0.00000000000E+00 0.  1.
         11    1    4    4    0    0 -0.13252926130E+02 -0.16669141819E+02 -0.21850921761E+02  0.30511688286E+02  0.51100000000E-03 0. -1.
        -11    1    4    4    0    0  0.20532197816E+01 -0.74556568798E+01  0.65869210636E+01  0.10158250850E+02  0.51100000000E-03 0.  1.
         12    1    4    4    0    0  0.50372544377E+01  0.97676815975E+00 -0.12699763612E+02  0.13697153138E+02  0.00000000000E+00 0. -1.
</event>
<event>
 8    1  0.3007389E-007  0.9118800E+02  0.7816164E-02  0.1184000E+00
        -11   -1    0    0    0    0  0.00000000000E+00  0.00000000000E+00  0.45593999997E+02  0.45594000000E+02  0.51100000000E-03 0. -1.
         11   -1    0    0    0    0 -0.00000000000E+00 -0.00000000000E+00 -0.45593999997E+02  0.45594000000E+02  0.51100000000E-03 0.  1.
         23    2    1    2    0    0 -0.88817841970E-15  0.00000000000E+00  0.17763568394E-14  0.91188000000E+02  0.91188000000E+02 0.  0.
    9900012    2    3    3    0    0  0.32225792082E+01  0.33668365192E+02 -0.14554566931E+02  0.54367092217E+02  0.40000018326E+02 0.  0.
         12    1    3    3    0    0 -0.32225792082E+01 -0.33668365192E+02  0.14554566931E+02  0.36820907783E+02  0.00000000000E+00 0. -1.
         11    1    4    4    0    0  0.82779488597E+01 -0.52613651955E+00 -0.16142137792E+02  0.18148550072E+02  0.51100000000E-03 0. -1.
        -11    1    4    4    0    0 -0.79735481763E+01  0.18742255247E+02  0.21647370799E+01  0.20482570375E+02  0.51100000000E-03 0.  1.
        -12    1    4    4    0    0  0.29181785249E+01  0.15452246464E+02 -0.57716621853E+00  0.15735971770E+02  0.00000000000E+00 0.  1.
</event>
<event>
 8    1  0.3007389E-007  0.9118800E+02  0.7816164E-02  0.1184000E+00
        -11   -1    0    0    0    0  0.00000000000E+00  0.00000000000E+00  0.45593999997E+02  0.45594000000E+02  0.51100000000E-03 0.  1.
         11   -1    0    0    0    0 -0.00000000000E+00 -0.00000000000E+00 -0.45593999997E+02  0.45594000000E+02  0.51100000000E-03 0. -1.
         23    2    1    2    0    0  0.00000000000E+00  0.00000000000E+00  0.00000000000E+00  0.91188000000E+02  0.91188000000E+02 0.  0.
    9900012    2    3    3    0    0 -0.13320873229E+02  0.19617011629E+02  0.28169256597E+02  0.54367084394E+02  0.40000000493E+02 0.  0.
         12    1    3    3    0    0  0.13320873229E+02 -0.19617011629E+02 -0.28169256597E+02  0.36820915606E+02  0.00000000000E+00 0. -1.
         11    1    4    4    0    0 -0.63511863738E+01 -0.58790423004E+01 -0.40499250047E+01  0.95552393758E+01  0.51100000000E-03 0. -1.
        -11    1    4    4    0    0 -0.41830496057E+01  0.17406928054E+02  0.31492528086E+02  0.36225383004E+02  0.51100000000E-03 0.  1.
        -12    1    4    4    0    0 -0.27866372496E+01  0.80891258753E+01  0.72665351519E+00  0.85864620140E+01  0.00000000000E+00 0.  1.
</event>
<event>
 8    1  0.3007389E-007  0.9118800E+02  0.7816164E-02  0.1184000E+00
        -11   -1    0    0    0    0  0.00000000000E+00  0.00000000000E+00  0.45593999997E+02  0.45594000000E+02  0.51100000000E-03 0. -1.
         11   -1    0    0    0    0 -0.00000000000E+00 -0.00000000000E+00 -0.45593999997E+02  0.45594000000E+02  0.51100000000E-03 0.  1.
         23    2    1    2    0    0  0.00000000000E+00  0.66613381478E-15  0.00000000000E+00  0.91188000000E+02  0.91188000000E+02 0.  0.
    9900012    2    3    3    0    0  0.25592746026E+02  0.18873431836E+01 -0.26405090402E+02  0.54367088651E+02  0.40000010199E+02 0.  0.
        -12    1    3    3    0    0 -0.25592746026E+02 -0.18873431836E+01  0.26405090402E+02  0.36820911349E+02  0.00000000000E+00 0.  1.
         11    1    4    4    0    0 -0.53198738061E+01 -0.46910019646E+01  0.22960229213E+01  0.74550840546E+01  0.51100000000E-03 0. -1.
        -11    1    4    4    0    0  0.27251396175E+02 -0.24453274293E+01 -0.21610880249E+02  0.34866149273E+02  0.51100000000E-03 0.  1.
         12    1    4    4    0    0  0.36612236571E+01  0.90236725774E+01 -0.70902330734E+01  0.12045855324E+02  0.00000000000E+00 0. -1.
</event>
<event>
 8    1  0.3007389E-007  0.9118800E+02  0.7816164E-02  0.1184000E+00
        -11   -1    0    0    0    0  0.00000000000E+00  0.00000000000E+00  0.45593999997E+02  0.45594000000E+02  0.51100000000E-03 0. -1.
         11   -1    0    0    0    0 -0.00000000000E+00 -0.00000000000E+00 -0.45593999997E+02  0.45594000000E+02  0.51100000000E-03 0.  1.
         23    2    1    2    0    0 -0.35527136788E-14  0.00000000000E+00  0.00000000000E+00  0.91188000000E+02  0.91188000000E+02 0.  0.
    9900012    2    3    3    0    0 -0.23848254614E+02 -0.20650978093E+02  0.18988866466E+02  0.54367092977E+02  0.40000020060E+02 0.  0.
        -12    1    3    3    0    0  0.23848254614E+02  0.20650978093E+02 -0.18988866466E+02  0.36820907023E+02  0.00000000000E+00 0.  1.
         11    1    4    4    0    0 -0.18708253168E+02 -0.17197239885E+02 -0.72972583158E+01  0.26438490416E+02  0.51100000000E-03 0. -1.
        -11    1    4    4    0    0  0.16666386977E+01 -0.67832420348E+00  0.84063322390E+01  0.85967569611E+01  0.51100000000E-03 0.  1.
         12    1    4    4    0    0 -0.68066401433E+01 -0.27754140039E+01  0.17879792543E+02  0.19331845600E+02  0.00000000000E+00 0. -1.
</event>
<event>
 8    1  0.3007389E-007  0.9118800E+02  0.7816164E-02  0.1184000E+00
        -11   -1    0    0    0    0  0.00000000000E+00  0.00000000000E+00  0.45593999997E+02  0.45594000000E+02  0.51100000000E-03 0.  1.
         11   -1    0    0    0    0 -0.00000000000E+00 -0.00000000000E+00 -0.45593999997E+02  0.45594000000E+02  0.51100000000E-03 0. -1.
         23    2    1    2    0    0  0.17763568394E-14  0.00000000000E+00 -0.35527136788E-14  0.91188000000E+02  0.91188000000E+02 0.  0.
    9900012    2    3    3    0    0 -0.15643393925E+02 -0.17505266966E+02  0.28366000448E+02  0.54367080315E+02  0.39999991194E+02 0.  0.
         12    1    3    3    0    0  0.15643393925E+02  0.17505266966E+02 -0.28366000448E+02  0.36820919685E+02  0.00000000000E+00 0. -1.
         11    1    4    4    0    0  0.77275435887E+01 -0.60613583800E+01  0.55814741551E+01  0.11296364430E+02  0.51100000000E-03 0. -1.
        -11    1    4    4    0    0 -0.30557821410E+01 -0.13279183116E+02  0.16960960672E+01  0.13731396537E+02  0.51100000000E-03 0.  1.
         12    1    4    4    0    0 -0.20315155372E+02  0.18352745302E+01  0.21088430226E+02  0.29339319348E+02  0.00000000000E+00 0. -1.
</event>
<event>
 8    1  0.3007389E-007  0.9118800E+02  0.7816164E-02  0.1184000E+00
        -11   -1    0    0    0    0  0.00000000000E+00  0.00000000000E+00  0.45593999997E+02  0.45594000000E+02  0.51100000000E-03 0. -1.
         11   -1    0    0    0    0 -0.00000000000E+00 -0.00000000000E+00 -0.45593999997E+02  0.45594000000E+02  0.51100000000E-03 0.  1.
         23    2    1    2    0    0  0.88817841970E-15 -0.88817841970E-15  0.00000000000E+00  0.91188000000E+02  0.91188000000E+02 0.  0.
    9900012    2    3    3    0    0  0.64511336341E+01 -0.65672276645E+01 -0.35651583541E+02  0.54367068272E+02  0.39999963739E+02 0.  0.
         12    1    3    3    0    0 -0.64511336341E+01  0.65672276645E+01  0.35651583541E+02  0.36820931728E+02  0.00000000000E+00 0. -1.
         11    1    4    4    0    0 -0.11409066211E+02 -0.77544330830E+01 -0.93672029768E+01  0.16674606925E+02  0.51100000000E-03 0. -1.
        -11    1    4    4    0    0  0.97680939977E+01 -0.46714954116E+01 -0.14504760811E+01  0.10924395217E+02  0.51100000000E-03 0.  1.
         12    1    4    4    0    0  0.80921058470E+01  0.58587008301E+01 -0.24833904483E+02  0.26768066130E+02  0.00000000000E+00 0. -1.
</event>
<event>
 8    1  0.3007389E-007  0.9118800E+02  0.7816164E-02  0.1184000E+00
        -11   -1    0    0    0    0  0.00000000000E+00  0.00000000000E+00  0.45593999997E+02  0.45594000000E+02  0.51100000000E-03 0. -1.
         11   -1    0    0    0    0 -0.00000000000E+00 -0.00000000000E+00 -0.45593999997E+02  0.45594000000E+02  0.51100000000E-03 0.  1.
         23    2    1    2    0    0  0.00000000000E+00  0.00000000000E+00 -0.17763568394E-14  0.91188000000E+02  0.91188000000E+02 0.  0.
    9900012    2    3    3    0    0  0.21736163085E+02  0.26170186703E+02 -0.14086926346E+02  0.54367069110E+02  0.39999965651E+02 0.  0.
         12    1    3    3    0    0 -0.21736163085E+02 -0.26170186703E+02  0.14086926346E+02  0.36820930890E+02  0.00000000000E+00 0. -1.
         11    1    4    4    0    0  0.11457775415E+02  0.18306877177E+02  0.11400170644E+00  0.21597114763E+02  0.51100000000E-03 0. -1.
        -11    1    4    4    0    0  0.11096917935E+02 -0.79801243009E+01 -0.66282104139E+01  0.15190692712E+02  0.51100000000E-03 0.  1.
        -12    1    4    4    0    0 -0.81853026521E+00  0.15843433826E+02 -0.75727176390E+01  0.17579261635E+02  0.00000000000E+00 0.  1.
</event>
<event>
 8    1  0.3007389E-007  0.9118800E+02  0.7816164E-02  0.1184000E+00
        -11   -1    0    0    0    0  0.00000000000E+00  0.00000000000E+00  0.45593999997E+02  0.45594000000E+02  0.51100000000E-03 0.  1.
         11   -1    0    0    0    0 -0.00000000000E+00 -0.00000000000E+00 -0.45593999997E+02  0.45594000000E+02  0.51100000000E-03 0. -1.
         23    2    1    2    0    0  0.17763568394E-14  0.71054273576E-14 -0.17763568394E-14  0.91188000000E+02  0.91188000000E+02 0.  0.
    9900012    2    3    3    0    0  0.78821845402E+01  0.33429393178E+02 -0.13271261062E+02  0.54367088393E+02  0.40000009610E+02 0.  0.
        -12    1    3    3    0    0 -0.78821845402E+01 -0.33429393178E+02  0.13271261062E+02  0.36820911607E+02  0.00000000000E+00 0.  1.
         11    1    4    4    0    0 -0.10766373981E+02  0.10699925109E+02 -0.14902379521E+02  0.21271674163E+02  0.51100000000E-03 0. -1.
        -11    1    4    4    0    0  0.18797830210E+02  0.11950208795E+02  0.10573614204E+01  0.22299863772E+02  0.51100000000E-03 0.  1.
         12    1    4    4    0    0 -0.14927168887E+00  0.10779259275E+02  0.57375703946E+00  0.10795550458E+02  0.00000000000E+00 0. -1.
</event>
<event>
 8    1  0.3007389E-007  0.9118800E+02  0.7816164E-02  0.1184000E+00
        -11   -1    0    0    0    0  0.00000000000E+00  0.00000000000E+00  0.45593999997E+02  0.45594000000E+02  0.51100000000E-03 0.  1.
         11   -1    0    0    0    0 -0.00000000000E+00 -0.00000000000E+00 -0.45593999997E+02  0.45594000000E+02  0.51100000000E-03 0. -1.
         23    2    1    2    0    0  0.00000000000E+00  0.88817841970E-15 -0.35527136788E-14  0.91188000000E+02  0.91188000000E+02 0.  0.
    9900012    2    3    3    0    0 -0.21048094226E+02  0.18021828412E+01  0.30158087248E+02  0.54367077143E+02  0.39999983964E+02 0.  0.
         12    1    3    3    0    0  0.21048094226E+02 -0.18021828412E+01 -0.30158087248E+02  0.36820922857E+02  0.00000000000E+00 0. -1.
         11    1    4    4    0    0  0.72701108962E+01 -0.94723393034E+01  0.51670807842E+01  0.13010705147E+02  0.51100000000E-03 0. -1.
        -11    1    4    4    0    0 -0.11045470447E+02  0.73572087770E+00  0.29921763662E+01  0.11467206385E+02  0.51100000000E-03 0.  1.
        -12    1    4    4    0    0 -0.17272734675E+02  0.10538801267E+02  0.21998830098E+02  0.29889165612E+02  0.00000000000E+00 0.  1.
</event>
<event>
 8    1  0.3007389E-007  0.9118800E+02  0.7816164E-02  0.1184000E+00
        -11   -1    0    0    0    0  0.00000000000E+00  0.00000000000E+00  0.45593999997E+02  0.45594000000E+02  0.51100000000E-03 0.  1.
         11   -1    0    0    0    0 -0.00000000000E+00 -0.00000000000E+00 -0.45593999997E+02  0.45594000000E+02  0.51100000000E-03 0. -1.
         23    2    1    2    0    0  0.27755575616E-15  0.00000000000E+00  0.00000000000E+00  0.91188000000E+02  0.91188000000E+02 0.  0.
    9900012    2    3    3    0    0 -0.24337203305E+00  0.25803586367E+02 -0.26265843159E+02  0.54367098107E+02  0.40000031754E+02 0.  0.
        -12    1    3    3    0    0  0.24337203305E+00 -0.25803586367E+02  0.26265843159E+02  0.36820901893E+02  0.00000000000E+00 0.  1.
         11    1    4    4    0    0  0.53849784422E+01  0.12189028689E+01 -0.73725303574E+01  0.92107503038E+01  0.51100000000E-03 0.  1.
        -11    1    4    4    0    0 -0.71043254014E+01  0.30110443933E+02 -0.66512465151E+01  0.31644104565E+02  0.51100000000E-03 0. -1.
         12    1    4    4    0    0  0.14759749261E+01 -0.55257604345E+01 -0.12242066287E+02  0.13512243238E+02  0.00000000000E+00 0. -1.
</event>
<event>
 8    1  0.3007389E-007  0.9118800E+02  0.7816164E-02  0.1184000E+00
        -11   -1    0    0    0    0  0.00000000000E+00  0.00000000000E+00  0.45593999997E+02  0.45594000000E+02  0.51100000000E-03 0.  1.
         11   -1    0    0    0    0 -0.00000000000E+00 -0.00000000000E+00 -0.45593999997E+02  0.45594000000E+02  0.51100000000E-03 0. -1.
         23    2    1    2    0    0 -0.17763568394E-14  0.00000000000E+00  0.00000000000E+00  0.91188000000E+02  0.91188000000E+02 0.  0.
    9900012    2    3    3    0    0  0.79452670295E+01 -0.25695986067E+02  0.25146911607E+02  0.54367107405E+02  0.40000052951E+02 0.  0.
         12    1    3    3    0    0 -0.79452670295E+01  0.25695986067E+02 -0.25146911607E+02  0.36820892595E+02  0.00000000000E+00 0. -1.
         11    1    4    4    0    0 -0.80157413325E+01 -0.18900255858E+02 -0.23892926487E+01  0.20668345367E+02  0.51100000000E-03 0. -1.
        -11    1    4    4    0    0  0.14364851008E+02 -0.27862932317E+01  0.24047457369E+02  0.28149468567E+02  0.51100000000E-03 0.  1.
        -12    1    4    4    0    0  0.15961573535E+01 -0.40094369778E+01  0.34887468868E+01  0.55492934700E+01  0.00000000000E+00 0.  1.
</event>
<event>
 8    1  0.3007389E-007  0.9118800E+02  0.7816164E-02  0.1184000E+00
        -11   -1    0    0    0    0  0.00000000000E+00  0.00000000000E+00  0.45593999997E+02  0.45594000000E+02  0.51100000000E-03 0. -1.
         11   -1    0    0    0    0 -0.00000000000E+00 -0.00000000000E+00 -0.45593999997E+02  0.45594000000E+02  0.51100000000E-03 0.  1.
         23    2    1    2    0    0  0.00000000000E+00 -0.35527136788E-14  0.00000000000E+00  0.91188000000E+02  0.91188000000E+02 0.  0.
    9900012    2    3    3    0    0  0.23976373145E+02 -0.26506819347E+02 -0.88486794613E+01  0.54367121829E+02  0.40000085834E+02 0.  0.
        -12    1    3    3    0    0 -0.23976373145E+02  0.26506819347E+02  0.88486794613E+01  0.36820878171E+02  0.00000000000E+00 0.  1.
         11    1    4    4    0    0 -0.14610749927E+00  0.29130010425E+00  0.19205686691E+01  0.19480214131E+01  0.51100000000E-03 0.  1.
        -11    1    4    4    0    0  0.13716241070E+02 -0.35079491600E+02 -0.10560587083E+02  0.39118179915E+02  0.51100000000E-03 0. -1.
         12    1    4    4    0    0  0.10406239574E+02  0.82813721494E+01 -0.20866104777E+00  0.13300920501E+02  0.00000000000E+00 0. -1.
</event>
<event>
 8    1  0.3007389E-007  0.9118800E+02  0.7816164E-02  0.1184000E+00
        -11   -1    0    0    0    0  0.00000000000E+00  0.00000000000E+00  0.45593999997E+02  0.45594000000E+02  0.51100000000E-03 0.  1.
         11   -1    0    0    0    0 -0.00000000000E+00 -0.00000000000E+00 -0.45593999997E+02  0.45594000000E+02  0.51100000000E-03 0. -1.
         23    2    1    2    0    0 -0.17763568394E-14  0.00000000000E+00  0.35527136788E-14  0.91188000000E+02  0.91188000000E+02 0.  0.
    9900012    2    3    3    0    0 -0.15377029943E+02  0.25008097213E+02  0.22224347729E+02  0.54367087354E+02  0.40000007241E+02 0.  0.
         12    1    3    3    0    0  0.15377029943E+02 -0.25008097213E+02 -0.22224347729E+02  0.36820912646E+02  0.00000000000E+00 0. -1.
         11    1    4    4    0    0  0.49235775649E+01 -0.16934312401E+00  0.58979811191E+01  0.76848210567E+01  0.51100000000E-03 0. -1.
        -11    1    4    4    0    0 -0.27311099502E+02  0.14664322324E+02  0.10157867268E+02  0.32620864074E+02  0.51100000000E-03 0.  1.
        -12    1    4    4    0    0  0.70104919945E+01  0.10513118013E+02  0.61684993416E+01  0.14061402224E+02  0.00000000000E+00 0.  1.
</event>
<event>
 8    1  0.3007389E-007  0.9118800E+02  0.7816164E-02  0.1184000E+00
        -11   -1    0    0    0    0  0.00000000000E+00  0.00000000000E+00  0.45593999997E+02  0.45594000000E+02  0.51100000000E-03 0.  1.
         11   -1    0    0    0    0 -0.00000000000E+00 -0.00000000000E+00 -0.45593999997E+02  0.45594000000E+02  0.51100000000E-03 0. -1.
         23    2    1    2    0    0  0.44408920985E-15  0.00000000000E+00  0.00000000000E+00  0.91188000000E+02  0.91188000000E+02 0.  0.
    9900012    2    3    3    0    0  0.53476978630E+00  0.10575086536E+01 -0.36801835116E+02  0.54367090571E+02  0.40000014574E+02 0.  0.
        -12    1    3    3    0    0 -0.53476978630E+00 -0.10575086536E+01  0.36801835116E+02  0.36820909429E+02  0.00000000000E+00 0.  1.
         11    1    4    4    0    0  0.10986281200E+02 -0.22053072504E+01 -0.21234247015E+01  0.11404853677E+02  0.51100000000E-03 0.  1.
        -11    1    4    4    0    0 -0.16383491283E+02  0.59722661170E+01 -0.18035222193E+02  0.25086968510E+02  0.51100000000E-03 0. -1.
         12    1    4    4    0    0  0.59319798694E+01 -0.27094502131E+01 -0.16643188222E+02  0.17875268384E+02  0.00000000000E+00 0. -1.
</event>
<event>
 8    1  0.3007389E-007  0.9118800E+02  0.7816164E-02  0.1184000E+00
        -11   -1    0    0    0    0  0.00000000000E+00  0.00000000000E+00  0.45593999997E+02  0.45594000000E+02  0.51100000000E-03 0. -1.
         11   -1    0    0    0    0 -0.00000000000E+00 -0.00000000000E+00 -0.45593999997E+02  0.45594000000E+02  0.51100000000E-03 0.  1.
         23    2    1    2    0    0  0.17763568394E-14  0.00000000000E+00  0.71054273576E-14  0.91188000000E+02  0.91188000000E+02 0.  0.
    9900012    2    3    3    0    0 -0.54000610978E+01 -0.14765328010E+02 -0.33295704000E+02  0.54367089149E+02  0.40000011332E+02 0.  0.
         12    1    3    3    0    0  0.54000610978E+01  0.14765328010E+02  0.33295704000E+02  0.36820910851E+02  0.00000000000E+00 0. -1.
         11    1    4    4    0    0 -0.31045179427E+01  0.70308509459E+01  0.35516123164E+01  0.84666904389E+01  0.51100000000E-03 0. -1.
        -11    1    4    4    0    0  0.40841751773E+01 -0.19065977753E+02 -0.31866239983E+02  0.37358389225E+02  0.51100000000E-03 0.  1.
         12    1    4    4    0    0 -0.63797183324E+01 -0.27302012029E+01 -0.49810763331E+01  0.85420094852E+01  0.00000000000E+00 0. -1.
</event>
<event>
 8    1  0.3007389E-007  0.9118800E+02  0.7816164E-02  0.1184000E+00
        -11   -1    0    0    0    0  0.00000000000E+00  0.00000000000E+00  0.45593999997E+02  0.45594000000E+02  0.51100000000E-03 0.  1.
         11   -1    0    0    0    0 -0.00000000000E+00 -0.00000000000E+00 -0.45593999997E+02  0.45594000000E+02  0.51100000000E-03 0. -1.
         23    2    1    2    0    0  0.00000000000E+00 -0.35527136788E-14  0.00000000000E+00  0.91188000000E+02  0.91188000000E+02 0.  0.
    9900012    2    3    3    0    0  0.32624207958E+02 -0.16074366981E+02 -0.57492695695E+01  0.54367104855E+02  0.40000047137E+02 0.  0.
         12    1    3    3    0    0 -0.32624207958E+02  0.16074366981E+02  0.57492695695E+01  0.36820895145E+02  0.00000000000E+00 0. -1.
         11    1    4    4    0    0  0.13473251375E+02 -0.21359436211E+02 -0.63818795663E+01  0.26047694810E+02  0.51100000000E-03 0. -1.
        -11    1    4    4    0    0 -0.46938782989E+00 -0.35898064744E+00  0.69292990876E+01  0.69544502405E+01  0.51100000000E-03 0.  1.
        -12    1    4    4    0    0  0.19620344413E+02  0.56440498778E+01 -0.62966890908E+01  0.21364959804E+02  0.00000000000E+00 0.  1.
</event>
<event>
 8    1  0.3007389E-007  0.9118800E+02  0.7816164E-02  0.1184000E+00
        -11   -1    0    0    0    0  0.00000000000E+00  0.00000000000E+00  0.45593999997E+02  0.45594000000E+02  0.51100000000E-03 0.  1.
         11   -1    0    0    0    0 -0.00000000000E+00 -0.00000000000E+00 -0.45593999997E+02  0.45594000000E+02  0.51100000000E-03 0. -1.
         23    2    1    2    0    0 -0.17763568394E-14 -0.22204460493E-15 -0.71054273576E-14  0.91188000000E+02  0.91188000000E+02 0.  0.
    9900012    2    3    3    0    0 -0.11676644506E+02 -0.14407049634E+01  0.34890700728E+02  0.54367073138E+02  0.39999974832E+02 0.  0.
         12    1    3    3    0    0  0.11676644506E+02  0.14407049634E+01 -0.34890700728E+02  0.36820926862E+02  0.00000000000E+00 0. -1.
         11    1    4    4    0    0 -0.20293682235E+01 -0.18122712643E+02  0.20017738701E+02  0.27078790813E+02  0.51100000000E-03 0.  1.
        -11    1    4    4    0    0 -0.89035775304E+00  0.10981376210E+02  0.28913532378E+01  0.11390490955E+02  0.51100000000E-03 0. -1.
        -12    1    4    4    0    0 -0.87569185292E+01  0.57006314698E+01  0.11981608789E+02  0.15897791370E+02  0.00000000000E+00 0.  1.
</event>
<event>
 8    1  0.3007389E-007  0.9118800E+02  0.7816164E-02  0.1184000E+00
        -11   -1    0    0    0    0  0.00000000000E+00  0.00000000000E+00  0.45593999997E+02  0.45594000000E+02  0.51100000000E-03 0. -1.
         11   -1    0    0    0    0 -0.00000000000E+00 -0.00000000000E+00 -0.45593999997E+02  0.45594000000E+02  0.51100000000E-03 0.  1.
         23    2    1    2    0    0  0.00000000000E+00  0.00000000000E+00  0.35527136788E-14  0.91188000000E+02  0.91188000000E+02 0.  0.
    9900012    2    3    3    0    0  0.17615236007E+02  0.11247944655E+02  0.30314444057E+02  0.54367104886E+02  0.40000047208E+02 0.  0.
        -12    1    3    3    0    0 -0.17615236007E+02 -0.11247944655E+02 -0.30314444057E+02  0.36820895114E+02  0.00000000000E+00 0.  1.
         11    1    4    4    0    0 -0.41709205928E-01  0.13341680280E+02  0.40276498989E+01  0.13936431979E+02  0.51100000000E-03 0. -1.
        -11    1    4    4    0    0  0.83615393702E+01 -0.45930450476E+01 -0.26777056919E+01  0.99086584098E+01  0.51100000000E-03 0.  1.
         12    1    4    4    0    0  0.92954058431E+01  0.24993094230E+01  0.28964499850E+02  0.30522014496E+02  0.00000000000E+00 0. -1.
</event>
<event>
 8    1  0.3007389E-007  0.9118800E+02  0.7816164E-02  0.1184000E+00
        -11   -1    0    0    0    0  0.00000000000E+00  0.00000000000E+00  0.45593999997E+02  0.45594000000E+02  0.51100000000E-03 0.  1.
         11   -1    0    0    0    0 -0.00000000000E+00 -0.00000000000E+00 -0.45593999997E+02  0.45594000000E+02  0.51100000000E-03 0. -1.
         23    2    1    2    0    0  0.35527136788E-14  0.00000000000E+00  0.35527136788E-14  0.91188000000E+02  0.91188000000E+02 0.  0.
    9900012    2    3    3    0    0  0.20666877411E+02  0.21502913288E+02  0.21593620473E+02  0.54367088185E+02  0.40000009135E+02 0.  0.
         12    1    3    3    0    0 -0.20666877411E+02 -0.21502913288E+02 -0.21593620473E+02  0.36820911815E+02  0.00000000000E+00 0. -1.
         11    1    4    4    0    0  0.31757516754E+01  0.13527510578E+02  0.11053063669E+02  0.17755257189E+02  0.51100000000E-03 0. -1.
        -11    1    4    4    0    0  0.18188572178E+02  0.16588337649E+02  0.12707152081E+02  0.27703227575E+02  0.51100000000E-03 0.  1.
         12    1    4    4    0    0 -0.69744644280E+00 -0.86129349388E+01 -0.21665952766E+01  0.89086034199E+01  0.00000000000E+00 0. -1.
</event>
<event>
 8    1  0.3007389E-007  0.9118800E+02  0.7816164E-02  0.1184000E+00
        -11   -1    0    0    0    0  0.00000000000E+00  0.00000000000E+00  0.45593999997E+02  0.45594000000E+02  0.51100000000E-03 0. -1.
         11   -1    0    0    0    0 -0.00000000000E+00 -0.00000000000E+00 -0.45593999997E+02  0.45594000000E+02  0.51100000000E-03 0.  1.
         23    2    1    2    0    0  0.00000000000E+00 -0.22204460493E-15  0.17763568394E-14  0.91188000000E+02  0.91188000000E+02 0.  0.
    9900012    2    3    3    0    0 -0.34856910326E+02  0.11178937716E+01 -0.11811978610E+02  0.54367126536E+02  0.40000096564E+02 0.  0.
        -12    1    3    3    0    0  0.34856910326E+02 -0.11178937716E+01  0.11811978610E+02  0.36820873464E+02  0.00000000000E+00 0.  1.
         11    1    4    4    0    0 -0.18398252741E+02 -0.37098219353E+01 -0.14575605521E+02  0.23763559482E+02  0.51100000000E-03 0. -1.
        -11    1    4    4    0    0  0.32297141800E+01  0.89520067431E+01 -0.24421855254E+01  0.98251589714E+01  0.51100000000E-03 0.  1.
         12    1    4    4    0    0 -0.19688371766E+02 -0.41242910361E+01  0.52058124364E+01  0.20778408083E+02  0.00000000000E+00 0. -1.
</event>
<event>
 8    1  0.3007389E-007  0.9118800E+02  0.7816164E-02  0.1184000E+00
        -11   -1    0    0    0    0  0.00000000000E+00  0.00000000000E+00  0.45593999997E+02  0.45594000000E+02  0.51100000000E-03 0.  1.
         11   -1    0    0    0    0 -0.00000000000E+00 -0.00000000000E+00 -0.45593999997E+02  0.45594000000E+02  0.51100000000E-03 0. -1.
         23    2    1    2    0    0  0.00000000000E+00 -0.35527136788E-14  0.00000000000E+00  0.91188000000E+02  0.91188000000E+02 0.  0.
    9900012    2    3    3    0    0 -0.19667556295E+02 -0.29116643949E+02 -0.11008543618E+02  0.54367085317E+02  0.40000002598E+02 0.  0.
         12    1    3    3    0    0  0.19667556295E+02  0.29116643949E+02  0.11008543618E+02  0.36820914683E+02  0.00000000000E+00 0. -1.
         11    1    4    4    0    0  0.10416180957E+02 -0.20944267795E+01 -0.62680286657E+01  0.12335786675E+02  0.51100000000E-03 0. -1.
        -11    1    4    4    0    0 -0.23165619320E+02 -0.15950877438E+02 -0.64742540404E+01  0.28861607287E+02  0.51100000000E-03 0.  1.
         12    1    4    4    0    0 -0.69181179325E+01 -0.11071339732E+02  0.17337390884E+01  0.13169691356E+02  0.00000000000E+00 0. -1.
</event>
<event>
 8    1  0.3007389E-007  0.9118800E+02  0.7816164E-02  0.1184000E+00
        -11   -1    0    0    0    0  0.00000000000E+00  0.00000000000E+00  0.45593999997E+02  0.45594000000E+02  0.51100000000E-03 0. -1.
         11   -1    0    0    0    0 -0.00000000000E+00 -0.00000000000E+00 -0.45593999997E+02  0.45594000000E+02  0.51100000000E-03 0.  1.
         23    2    1    2    0    0  0.88817841970E-15  0.00000000000E+00  0.88817841970E-15  0.91188000000E+02  0.91188000000E+02 0.  0.
    9900012    2    3    3    0    0  0.71629846463E+01  0.35841506810E+02  0.44562085135E+01  0.54367085376E+02  0.40000002731E+02 0.  0.
        -12    1    3    3    0    0 -0.71629846463E+01 -0.35841506810E+02 -0.44562085135E+01  0.36820914624E+02  0.00000000000E+00 0.  1.
         11    1    4    4    0    0  0.87138303233E+00  0.20883407387E+01  0.38155166149E+01  0.44360616238E+01  0.51100000000E-03 0. -1.
        -11    1    4    4    0    0 -0.14744912154E+01  0.22596497479E+02 -0.16526282984E+02  0.28033798390E+02  0.51100000000E-03 0.  1.
        -12    1    4    4    0    0  0.77660928293E+01  0.11156668592E+02  0.17166974883E+02  0.21897225362E+02  0.00000000000E+00 0.  1.
</event>
<event>
 8    1  0.3007389E-007  0.9118800E+02  0.7816164E-02  0.1184000E+00
        -11   -1    0    0    0    0  0.00000000000E+00  0.00000000000E+00  0.45593999997E+02  0.45594000000E+02  0.51100000000E-03 0.  1.
         11   -1    0    0    0    0 -0.00000000000E+00 -0.00000000000E+00 -0.45593999997E+02  0.45594000000E+02  0.51100000000E-03 0. -1.
         23    2    1    2    0    0  0.44408920985E-15 -0.35527136788E-14  0.71054273576E-14  0.91188000000E+02  0.91188000000E+02 0.  0.
    9900012    2    3    3    0    0  0.25833321507E+01 -0.25622701018E+02  0.26316984201E+02  0.54367081083E+02  0.39999992945E+02 0.  0.
         12    1    3    3    0    0 -0.25833321507E+01  0.25622701018E+02 -0.26316984201E+02  0.36820918917E+02  0.00000000000E+00 0. -1.
         11    1    4    4    0    0 -0.39121295430E+00 -0.30197570947E+02  0.30942876802E+02  0.43237807111E+02  0.51100000000E-03 0. -1.
        -11    1    4    4    0    0  0.12710396339E+01 -0.11507701609E+01  0.17098398835E+01  0.24214389116E+01  0.51100000000E-03 0.  1.
         12    1    4    4    0    0  0.17035054711E+01  0.57256400898E+01 -0.63357324850E+01  0.87078350610E+01  0.00000000000E+00 0. -1.
</event>
<event>
 8    1  0.3007389E-007  0.9118800E+02  0.7816164E-02  0.1184000E+00
        -11   -1    0    0    0    0  0.00000000000E+00  0.00000000000E+00  0.45593999997E+02  0.45594000000E+02  0.51100000000E-03 0.  1.
         11   -1    0    0    0    0 -0.00000000000E+00 -0.00000000000E+00 -0.45593999997E+02  0.45594000000E+02  0.51100000000E-03 0. -1.
         23    2    1    2    0    0  0.00000000000E+00 -0.35527136788E-14  0.15543122345E-14  0.91188000000E+02  0.91188000000E+02 0.  0.
    9900012    2    3    3    0    0  0.23343687304E+02 -0.28415251224E+02  0.18508443842E+01  0.54367083879E+02  0.39999999318E+02 0.  0.
         12    1    3    3    0    0 -0.23343687304E+02  0.28415251224E+02 -0.18508443842E+01  0.36820916121E+02  0.00000000000E+00 0. -1.
         11    1    4    4    0    0  0.83462466627E+01  0.59527123477E+00  0.20869401963E+01  0.86237753242E+01  0.51100000000E-03 0. -1.
        -11    1    4    4    0    0  0.65427254478E+01  0.29927400721E+01 -0.89799784133E+01  0.11506683362E+02  0.51100000000E-03 0.  1.
        -12    1    4    4    0    0  0.84547151936E+01 -0.32003262531E+02  0.87438826012E+01  0.34236625193E+02  0.00000000000E+00 0.  1.
</event>
<event>
 8    1  0.3007389E-007  0.9118800E+02  0.7816164E-02  0.1184000E+00
        -11   -1    0    0    0    0  0.00000000000E+00  0.00000000000E+00  0.45593999997E+02  0.45594000000E+02  0.51100000000E-03 0.  1.
         11   -1    0    0    0    0 -0.00000000000E+00 -0.00000000000E+00 -0.45593999997E+02  0.45594000000E+02  0.51100000000E-03 0. -1.
         23    2    1    2    0    0  0.35527136788E-14  0.00000000000E+00  0.00000000000E+00  0.91188000000E+02  0.91188000000E+02 0.  0.
    9900012    2    3    3    0    0  0.24307538736E+02 -0.19693246550E+02  0.19419108912E+02  0.54367052294E+02  0.39999927313E+02 0.  0.
         12    1    3    3    0    0 -0.24307538736E+02  0.19693246550E+02 -0.19419108912E+02  0.36820947706E+02  0.00000000000E+00 0. -1.
         11    1    4    4    0    0  0.14275913656E+01 -0.17482647207E+02  0.11839206597E+02  0.21162414408E+02  0.51100000000E-03 0. -1.
        -11    1    4    4    0    0  0.24203727749E+02  0.52360803437E+01  0.57044348678E+01  0.25412153622E+02  0.51100000000E-03 0.  1.
        -12    1    4    4    0    0 -0.13237803784E+01 -0.74466796870E+01  0.18754674471E+01  0.77924842635E+01  0.00000000000E+00 0.  1.
</event>
<event>
 8    1  0.3007389E-007  0.9118800E+02  0.7816164E-02  0.1184000E+00
        -11   -1    0    0    0    0  0.00000000000E+00  0.00000000000E+00  0.45593999997E+02  0.45594000000E+02  0.51100000000E-03 0.  1.
         11   -1    0    0    0    0 -0.00000000000E+00 -0.00000000000E+00 -0.45593999997E+02  0.45594000000E+02  0.51100000000E-03 0. -1.
         23    2    1    2    0    0  0.00000000000E+00  0.00000000000E+00  0.88817841970E-15  0.91188000000E+02  0.91188000000E+02 0.  0.
    9900012    2    3    3    0    0  0.33920925150E+02 -0.12473750224E+02  0.70396089976E+01  0.54367086072E+02  0.40000004318E+02 0.  0.
        -12    1    3    3    0    0 -0.33920925150E+02  0.12473750224E+02 -0.70396089976E+01  0.36820913928E+02  0.00000000000E+00 0.  1.
         11    1    4    4    0    0  0.67169260626E+01  0.25462080133E+01  0.14285436384E+02  0.15989808127E+02  0.51100000000E-03 0.  1.
        -11    1    4    4    0    0  0.26136235550E+02 -0.14193977360E+02 -0.13005897311E+02  0.32461133177E+02  0.51100000000E-03 0. -1.
         12    1    4    4    0    0  0.10677635376E+01 -0.82598087684E+00  0.57600699245E+01  0.59161447681E+01  0.00000000000E+00 0. -1.
</event>
<event>
 8    1  0.3007389E-007  0.9118800E+02  0.7816164E-02  0.1184000E+00
        -11   -1    0    0    0    0  0.00000000000E+00  0.00000000000E+00  0.45593999997E+02  0.45594000000E+02  0.51100000000E-03 0.  1.
         11   -1    0    0    0    0 -0.00000000000E+00 -0.00000000000E+00 -0.45593999997E+02  0.45594000000E+02  0.51100000000E-03 0. -1.
         23    2    1    2    0    0  0.71054273576E-14 -0.17763568394E-14  0.00000000000E+00  0.91188000000E+02  0.91188000000E+02 0.  0.
    9900012    2    3    3    0    0  0.30234369055E+02 -0.15069706101E+02 -0.14648120192E+02  0.54367074709E+02  0.39999978413E+02 0.  0.
        -12    1    3    3    0    0 -0.30234369055E+02  0.15069706101E+02  0.14648120192E+02  0.36820925291E+02  0.00000000000E+00 0.  1.
         11    1    4    4    0    0  0.22056676153E+02  0.17121037070E+01 -0.57048803484E+01  0.22846748611E+02  0.51100000000E-03 0. -1.
        -11    1    4    4    0    0  0.86808730899E+01 -0.33974811367E+01  0.62828038150E+01  0.11241621756E+02  0.51100000000E-03 0.  1.
         12    1    4    4    0    0 -0.50318018761E+00 -0.13384328671E+02 -0.15226043658E+02  0.20278704342E+02  0.00000000000E+00 0. -1.
</event>
<event>
 8    1  0.3007389E-007  0.9118800E+02  0.7816164E-02  0.1184000E+00
        -11   -1    0    0    0    0  0.00000000000E+00  0.00000000000E+00  0.45593999997E+02  0.45594000000E+02  0.51100000000E-03 0.  1.
         11   -1    0    0    0    0 -0.00000000000E+00 -0.00000000000E+00 -0.45593999997E+02  0.45594000000E+02  0.51100000000E-03 0. -1.
         23    2    1    2    0    0  0.00000000000E+00  0.00000000000E+00  0.71054273576E-14  0.91188000000E+02  0.91188000000E+02 0.  0.
    9900012    2    3    3    0    0  0.22055022033E+01  0.26526679487E+01  0.36658945464E+02  0.54367093306E+02  0.40000020810E+02 0.  0.
         12    1    3    3    0    0 -0.22055022033E+01 -0.26526679487E+01 -0.36658945464E+02  0.36820906694E+02  0.00000000000E+00 0. -1.
         11    1    4    4    0    0 -0.11564769586E+02 -0.50759522436E+00  0.96701399125E+01  0.15083539196E+02  0.51100000000E-03 0.  1.
        -11    1    4    4    0    0  0.42125765870E+00 -0.10732730383E+01 -0.45932929866E+01  0.47357907209E+01  0.51100000000E-03 0. -1.
         12    1    4    4    0    0  0.13349014131E+02  0.42335362113E+01  0.31582098538E+02  0.34547763389E+02  0.00000000000E+00 0. -1.
</event>
<event>
 8    1  0.3007389E-007  0.9118800E+02  0.7816164E-02  0.1184000E+00
        -11   -1    0    0    0    0  0.00000000000E+00  0.00000000000E+00  0.45593999997E+02  0.45594000000E+02  0.51100000000E-03 0. -1.
         11   -1    0    0    0    0 -0.00000000000E+00 -0.00000000000E+00 -0.45593999997E+02  0.45594000000E+02  0.51100000000E-03 0.  1.
         23    2    1    2    0    0  0.17763568394E-14  0.00000000000E+00 -0.71054273576E-14  0.91188000000E+02  0.91188000000E+02 0.  0.
    9900012    2    3    3    0    0  0.84324922441E+01  0.11778478903E+02  0.33851742636E+02  0.54367082437E+02  0.39999996032E+02 0.  0.
        -12    1    3    3    0    0 -0.84324922441E+01 -0.11778478903E+02 -0.33851742636E+02  0.36820917563E+02  0.00000000000E+00 0.  1.
         11    1    4    4    0    0  0.14326324289E+02  0.48676514753E+01  0.22719587940E+02  0.27296836355E+02  0.51100000000E-03 0. -1.
        -11    1    4    4    0    0  0.78540045067E+01  0.44180672156E+01 -0.30132381526E+00  0.90164017777E+01  0.51100000000E-03 0.  1.
        -12    1    4    4    0    0 -0.13747836552E+02  0.24927602117E+01  0.11433478510E+02  0.18053844305E+02  0.00000000000E+00 0.  1.
</event>
<event>
 8    1  0.3007389E-007  0.9118800E+02  0.7816164E-02  0.1184000E+00
        -11   -1    0    0    0    0  0.00000000000E+00  0.00000000000E+00  0.45593999997E+02  0.45594000000E+02  0.51100000000E-03 0. -1.
         11   -1    0    0    0    0 -0.00000000000E+00 -0.00000000000E+00 -0.45593999997E+02  0.45594000000E+02  0.51100000000E-03 0.  1.
         23    2    1    2    0    0  0.31086244690E-14 -0.35527136788E-14 -0.35527136788E-14  0.91188000000E+02  0.91188000000E+02 0.  0.
    9900012    2    3    3    0    0 -0.15913752724E+01 -0.27336802451E+02 -0.24615946138E+02  0.54367108542E+02  0.40000055544E+02 0.  0.
        -12    1    3    3    0    0  0.15913752724E+01  0.27336802451E+02  0.24615946138E+02  0.36820891458E+02  0.00000000000E+00 0.  1.
         11    1    4    4    0    0  0.51446980892E+01 -0.70674840614E+01  0.33463717129E+01  0.93603126705E+01  0.51100000000E-03 0. -1.
        -11    1    4    4    0    0  0.74194897579E+01 -0.16537505882E+02 -0.23548842204E+02  0.29716761238E+02  0.51100000000E-03 0.  1.
         12    1    4    4    0    0 -0.14155563119E+02 -0.37318125070E+01 -0.44134756470E+01  0.15290034634E+02  0.00000000000E+00 0. -1.
</event>
<event>
 8    1  0.3007389E-007  0.9118800E+02  0.7816164E-02  0.1184000E+00
        -11   -1    0    0    0    0  0.00000000000E+00  0.00000000000E+00  0.45593999997E+02  0.45594000000E+02  0.51100000000E-03 0. -1.
         11   -1    0    0    0    0 -0.00000000000E+00 -0.00000000000E+00 -0.45593999997E+02  0.45594000000E+02  0.51100000000E-03 0.  1.
         23    2    1    2    0    0 -0.88817841970E-15  0.35527136788E-14  0.71054273576E-14  0.91188000000E+02  0.91188000000E+02 0.  0.
    9900012    2    3    3    0    0 -0.61467074479E+01  0.21135509462E+02  0.29517571452E+02  0.54367098367E+02  0.40000032348E+02 0.  0.
        -12    1    3    3    0    0  0.61467074479E+01 -0.21135509462E+02 -0.29517571452E+02  0.36820901633E+02  0.00000000000E+00 0.  1.
         11    1    4    4    0    0 -0.16029683787E+02  0.13637709456E+02  0.25138984085E+02  0.32785765244E+02  0.51100000000E-03 0. -1.
        -11    1    4    4    0    0  0.81520445320E+01  0.12441881499E+02  0.19261794041E+00  0.14875931810E+02  0.51100000000E-03 0.  1.
        -12    1    4    4    0    0  0.17309318066E+01 -0.49440814940E+01  0.41859694260E+01  0.67054013134E+01  0.00000000000E+00 0.  1.
</event>
<event>
 8    1  0.3007389E-007  0.9118800E+02  0.7816164E-02  0.1184000E+00
        -11   -1    0    0    0    0  0.00000000000E+00  0.00000000000E+00  0.45593999997E+02  0.45594000000E+02  0.51100000000E-03 0.  1.
         11   -1    0    0    0    0 -0.00000000000E+00 -0.00000000000E+00 -0.45593999997E+02  0.45594000000E+02  0.51100000000E-03 0. -1.
         23    2    1    2    0    0  0.00000000000E+00  0.00000000000E+00 -0.35527136788E-14  0.91188000000E+02  0.91188000000E+02 0.  0.
    9900012    2    3    3    0    0  0.26023480287E+02 -0.16655222630E+02  0.20029046782E+02  0.54367072769E+02  0.39999973992E+02 0.  0.
         12    1    3    3    0    0 -0.26023480287E+02  0.16655222630E+02 -0.20029046782E+02  0.36820927231E+02  0.00000000000E+00 0. -1.
         11    1    4    4    0    0  0.28285304138E+02 -0.99605158664E+01  0.68892806470E-01  0.29987915115E+02  0.51100000000E-03 0.  1.
        -11    1    4    4    0    0 -0.42112444841E+01  0.22771301750E+01  0.61087837409E+01  0.77612589825E+01  0.51100000000E-03 0. -1.
        -12    1    4    4    0    0  0.19494206337E+01 -0.89718369386E+01  0.13851370235E+02  0.16617898671E+02  0.00000000000E+00 0.  1.
</event>
<event>
 8    1  0.3007389E-007  0.9118800E+02  0.7816164E-02  0.1184000E+00
        -11   -1    0    0    0    0  0.00000000000E+00  0.00000000000E+00  0.45593999997E+02  0.45594000000E+02  0.51100000000E-03 0.  1.
         11   -1    0    0    0    0 -0.00000000000E+00 -0.00000000000E+00 -0.45593999997E+02  0.45594000000E+02  0.51100000000E-03 0. -1.
         23    2    1    2    0    0  0.00000000000E+00  0.00000000000E+00  0.00000000000E+00  0.91188000000E+02  0.91188000000E+02 0.  0.
    9900012    2    3    3    0    0  0.96083803421E+01 -0.26864325981E+02  0.23276073860E+02  0.54366965284E+02  0.39999728957E+02 0.  0.
         12    1    3    3    0    0 -0.96083803421E+01  0.26864325981E+02 -0.23276073860E+02  0.36821034716E+02  0.00000000000E+00 0. -1.
         11    1    4    4    0    0 -0.16913367148E+01 -0.12679810143E+02 -0.33092308504E+01  0.13213221191E+02  0.51100000000E-03 0. -1.
        -11    1    4    4    0    0  0.72336342347E+01 -0.12557330885E+01  0.26606248642E+02  0.27600630372E+02  0.51100000000E-03 0.  1.
         12    1    4    4    0    0  0.40660828221E+01 -0.12928782749E+02 -0.20943931925E-01  0.13553113721E+02  0.00000000000E+00 0. -1.
</event>
<event>
 8    1  0.3007389E-007  0.9118800E+02  0.7816164E-02  0.1184000E+00
        -11   -1    0    0    0    0  0.00000000000E+00  0.00000000000E+00  0.45593999997E+02  0.45594000000E+02  0.51100000000E-03 0.  1.
         11   -1    0    0    0    0 -0.00000000000E+00 -0.00000000000E+00 -0.45593999997E+02  0.45594000000E+02  0.51100000000E-03 0. -1.
         23    2    1    2    0    0 -0.44408920985E-15  0.35527136788E-14  0.35527136788E-14  0.91188000000E+02  0.91188000000E+02 0.  0.
    9900012    2    3    3    0    0 -0.29852226433E+01  0.30874272298E+02 -0.19840558172E+02  0.54367082130E+02  0.39999995333E+02 0.  0.
        -12    1    3    3    0    0  0.29852226433E+01 -0.30874272298E+02  0.19840558172E+02  0.36820917870E+02  0.00000000000E+00 0.  1.
         11    1    4    4    0    0 -0.11123419688E+02 -0.21060030316E+01 -0.61941226747E+00  0.11337962169E+02  0.51100000000E-03 0.  1.
        -11    1    4    4    0    0  0.72855676637E+01  0.30876028932E+02 -0.22605290256E+02  0.38953919015E+02  0.51100000000E-03 0. -1.
        -12    1    4    4    0    0  0.85262938084E+00  0.21042463974E+01  0.33841443515E+01  0.40752009464E+01  0.00000000000E+00 0.  1.
</event>
<event>
 8    1  0.3007389E-007  0.9118800E+02  0.7816164E-02  0.1184000E+00
        -11   -1    0    0    0    0  0.00000000000E+00  0.00000000000E+00  0.45593999997E+02  0.45594000000E+02  0.51100000000E-03 0. -1.
         11   -1    0    0    0    0 -0.00000000000E+00 -0.00000000000E+00 -0.45593999997E+02  0.45594000000E+02  0.51100000000E-03 0.  1.
         23    2    1    2    0    0  0.00000000000E+00  0.00000000000E+00 -0.35527136788E-14  0.91188000000E+02  0.91188000000E+02 0.  0.
    9900012    2    3    3    0    0  0.22288142960E+02 -0.16398480773E+02  0.24292143096E+02  0.54367086045E+02  0.40000004257E+02 0.  0.
         12    1    3    3    0    0 -0.22288142960E+02  0.16398480773E+02 -0.24292143096E+02  0.36820913955E+02  0.00000000000E+00 0. -1.
         11    1    4    4    0    0  0.17245185113E+02 -0.17239036284E+02  0.19139723091E+02  0.30998544835E+02  0.51100000000E-03 0. -1.
        -11    1    4    4    0    0  0.12564910193E+02  0.54500657530E+01  0.48896201543E+01  0.14542646609E+02  0.51100000000E-03 0.  1.
        -12    1    4    4    0    0 -0.75219523458E+01 -0.46095102416E+01  0.26279985037E+00  0.88258946018E+01  0.00000000000E+00 0.  1.
</event>
<event>
 8    1  0.3007389E-007  0.9118800E+02  0.7816164E-02  0.1184000E+00
        -11   -1    0    0    0    0  0.00000000000E+00  0.00000000000E+00  0.45593999997E+02  0.45594000000E+02  0.51100000000E-03 0. -1.
         11   -1    0    0    0    0 -0.00000000000E+00 -0.00000000000E+00 -0.45593999997E+02  0.45594000000E+02  0.51100000000E-03 0.  1.
         23    2    1    2    0    0 -0.35527136788E-14  0.00000000000E+00  0.35527136788E-14  0.91188000000E+02  0.91188000000E+02 0.  0.
    9900012    2    3    3    0    0 -0.20389484419E+02  0.18655528400E+02  0.24331459015E+02  0.54367085936E+02  0.40000004007E+02 0.  0.
        -12    1    3    3    0    0  0.20389484419E+02 -0.18655528400E+02 -0.24331459015E+02  0.36820914064E+02  0.00000000000E+00 0.  1.
         11    1    4    4    0    0 -0.27670785276E+01  0.12951994982E+02 -0.90594923218E+01  0.16046348463E+02  0.51100000000E-03 0.  1.
        -11    1    4    4    0    0 -0.81806846879E+00  0.58243628538E+00  0.35846641445E+01  0.37226718008E+01  0.51100000000E-03 0. -1.
        -12    1    4    4    0    0 -0.16804337422E+02  0.51210971322E+01  0.29806287192E+02  0.34598065672E+02  0.00000000000E+00 0.  1.
</event>
<event>
 8    1  0.3007389E-007  0.9118800E+02  0.7816164E-02  0.1184000E+00
        -11   -1    0    0    0    0  0.00000000000E+00  0.00000000000E+00  0.45593999997E+02  0.45594000000E+02  0.51100000000E-03 0. -1.
         11   -1    0    0    0    0 -0.00000000000E+00 -0.00000000000E+00 -0.45593999997E+02  0.45594000000E+02  0.51100000000E-03 0.  1.
         23    2    1    2    0    0  0.71054273576E-14  0.00000000000E+00  0.00000000000E+00  0.91188000000E+02  0.91188000000E+02 0.  0.
    9900012    2    3    3    0    0 -0.30683697611E+02  0.11677084381E+01 -0.20320614551E+02  0.54367079075E+02  0.39999988367E+02 0.  0.
         12    1    3    3    0    0  0.30683697611E+02 -0.11677084381E+01  0.20320614551E+02  0.36820920925E+02  0.00000000000E+00 0. -1.
         11    1    4    4    0    0 -0.29304176787E+02  0.35601832619E+01 -0.16303447846E+02  0.33722575434E+02  0.51100000000E-03 0.  1.
        -11    1    4    4    0    0  0.74864678518E+01 -0.31180588912E+01  0.36568625787E+01  0.88961866171E+01  0.51100000000E-03 0. -1.
         12    1    4    4    0    0 -0.88659886755E+01  0.72558406730E+00 -0.76740292839E+01  0.11748317023E+02  0.00000000000E+00 0. -1.
</event>
<event>
 8    1  0.3007389E-007  0.9118800E+02  0.7816164E-02  0.1184000E+00
        -11   -1    0    0    0    0  0.00000000000E+00  0.00000000000E+00  0.45593999997E+02  0.45594000000E+02  0.51100000000E-03 0. -1.
         11   -1    0    0    0    0 -0.00000000000E+00 -0.00000000000E+00 -0.45593999997E+02  0.45594000000E+02  0.51100000000E-03 0.  1.
         23    2    1    2    0    0  0.00000000000E+00 -0.35527136788E-14 -0.35527136788E-14  0.91188000000E+02  0.91188000000E+02 0.  0.
    9900012    2    3    3    0    0 -0.54388575493E+01 -0.19752175128E+02 -0.30594927596E+02  0.54367093054E+02  0.40000020236E+02 0.  0.
         12    1    3    3    0    0  0.54388575493E+01  0.19752175128E+02  0.30594927596E+02  0.36820906946E+02  0.00000000000E+00 0. -1.
         11    1    4    4    0    0 -0.23473844252E+01 -0.49150736345E+01 -0.57436519496E+01  0.79156617191E+01  0.51100000000E-03 0.  1.
        -11    1    4    4    0    0  0.13052229050E+02  0.32705559918E+01 -0.29649420354E+01  0.13778537702E+02  0.51100000000E-03 0. -1.
         12    1    4    4    0    0 -0.16143702174E+02 -0.18107657485E+02 -0.21886333611E+02  0.32672893634E+02  0.00000000000E+00 0. -1.
</event>
<event>
 8    1  0.3007389E-007  0.9118800E+02  0.7816164E-02  0.1184000E+00
        -11   -1    0    0    0    0  0.00000000000E+00  0.00000000000E+00  0.45593999997E+02  0.45594000000E+02  0.51100000000E-03 0.  1.
         11   -1    0    0    0    0 -0.00000000000E+00 -0.00000000000E+00 -0.45593999997E+02  0.45594000000E+02  0.51100000000E-03 0. -1.
         23    2    1    2    0    0  0.00000000000E+00  0.00000000000E+00 -0.71054273576E-14  0.91188000000E+02  0.91188000000E+02 0.  0.
    9900012    2    3    3    0    0  0.10180170986E+02  0.84968845021E+01 -0.34350357080E+02  0.54367082588E+02  0.39999996375E+02 0.  0.
        -12    1    3    3    0    0 -0.10180170986E+02 -0.84968845021E+01  0.34350357080E+02  0.36820917412E+02  0.00000000000E+00 0.  1.
         11    1    4    4    0    0 -0.67635910257E+01  0.12797903745E+02 -0.61972001277E+01  0.15746040566E+02  0.51100000000E-03 0. -1.
        -11    1    4    4    0    0  0.28847624965E+01  0.29372949334E+01 -0.20761581374E+02  0.21165840820E+02  0.51100000000E-03 0.  1.
        -12    1    4    4    0    0  0.14058999515E+02 -0.72383141761E+01 -0.73915755784E+01  0.17455201202E+02  0.00000000000E+00 0.  1.
</event>
<event>
 8    1  0.3007389E-007  0.9118800E+02  0.7816164E-02  0.1184000E+00
        -11   -1    0    0    0    0  0.00000000000E+00  0.00000000000E+00  0.45593999997E+02  0.45594000000E+02  0.51100000000E-03 0.  1.
         11   -1    0    0    0    0 -0.00000000000E+00 -0.00000000000E+00 -0.45593999997E+02  0.45594000000E+02  0.51100000000E-03 0. -1.
         23    2    1    2    0    0  0.00000000000E+00 -0.17763568394E-14  0.00000000000E+00  0.91188000000E+02  0.91188000000E+02 0.  0.
    9900012    2    3    3    0    0  0.28352267164E+02 -0.10519802453E+02 -0.21006238963E+02  0.54367090555E+02  0.40000014537E+02 0.  0.
         12    1    3    3    0    0 -0.28352267164E+02  0.10519802453E+02  0.21006238963E+02  0.36820909445E+02  0.00000000000E+00 0. -1.
         11    1    4    4    0    0  0.85282992100E+01 -0.81017870726E+01 -0.27695136074E+02  0.30089722558E+02  0.51100000000E-03 0. -1.
        -11    1    4    4    0    0  0.13630629726E+02  0.19905473820E+01 -0.54153359762E+00  0.13785847980E+02  0.51100000000E-03 0.  1.
        -12    1    4    4    0    0  0.61933382277E+01 -0.44085627628E+01  0.72304307084E+01  0.10491520017E+02  0.00000000000E+00 0.  1.
</event>
<event>
 8    1  0.3007389E-007  0.9118800E+02  0.7816164E-02  0.1184000E+00
        -11   -1    0    0    0    0  0.00000000000E+00  0.00000000000E+00  0.45593999997E+02  0.45594000000E+02  0.51100000000E-03 0. -1.
         11   -1    0    0    0    0 -0.00000000000E+00 -0.00000000000E+00 -0.45593999997E+02  0.45594000000E+02  0.51100000000E-03 0.  1.
         23    2    1    2    0    0 -0.35527136788E-14  0.35527136788E-14  0.00000000000E+00  0.91188000000E+02  0.91188000000E+02 0.  0.
    9900012    2    3    3    0    0 -0.18641089889E+02  0.31749089461E+02  0.53371774059E+00  0.54367085176E+02  0.40000002276E+02 0.  0.
        -12    1    3    3    0    0  0.18641089889E+02 -0.31749089461E+02 -0.53371774059E+00  0.36820914824E+02  0.00000000000E+00 0.  1.
         11    1    4    4    0    0 -0.15565896360E+02  0.92954935390E+01  0.90993619107E+01  0.20285505097E+02  0.51100000000E-03 0. -1.
        -11    1    4    4    0    0 -0.12537474321E+02  0.18596655740E+02 -0.81229053818E+01  0.23853835314E+02  0.51100000000E-03 0.  1.
         12    1    4    4    0    0  0.94622807916E+01  0.38569401816E+01 -0.44273878828E+00  0.10227744765E+02  0.00000000000E+00 0. -1.
</event>
<event>
 8    1  0.3007389E-007  0.9118800E+02  0.7816164E-02  0.1184000E+00
        -11   -1    0    0    0    0  0.00000000000E+00  0.00000000000E+00  0.45593999997E+02  0.45594000000E+02  0.51100000000E-03 0. -1.
         11   -1    0    0    0    0 -0.00000000000E+00 -0.00000000000E+00 -0.45593999997E+02  0.45594000000E+02  0.51100000000E-03 0.  1.
         23    2    1    2    0    0  0.35527136788E-14  0.00000000000E+00  0.00000000000E+00  0.91188000000E+02  0.91188000000E+02 0.  0.
    9900012    2    3    3    0    0  0.25781200528E+02  0.12094944064E+02  0.23341420587E+02  0.54367083558E+02  0.39999998588E+02 0.  0.
        -12    1    3    3    0    0 -0.25781200528E+02 -0.12094944064E+02 -0.23341420587E+02  0.36820916442E+02  0.00000000000E+00 0.  1.
         11    1    4    4    0    0  0.10889652790E+02  0.14214634010E+02  0.44098306920E+01  0.18441446931E+02  0.51100000000E-03 0.  1.
        -11    1    4    4    0    0 -0.25188276494E+01 -0.10757113759E+02  0.78524353276E+01  0.13554362028E+02  0.51100000000E-03 0. -1.
         12    1    4    4    0    0  0.17410375388E+02  0.86374238126E+01  0.11079154568E+02  0.22371274599E+02  0.00000000000E+00 0. -1.
</event>
<event>
 8    1  0.3007389E-007  0.9118800E+02  0.7816164E-02  0.1184000E+00
        -11   -1    0    0    0    0  0.00000000000E+00  0.00000000000E+00  0.45593999997E+02  0.45594000000E+02  0.51100000000E-03 0. -1.
         11   -1    0    0    0    0 -0.00000000000E+00 -0.00000000000E+00 -0.45593999997E+02  0.45594000000E+02  0.51100000000E-03 0.  1.
         23    2    1    2    0    0  0.17763568394E-14 -0.35527136788E-14  0.71054273576E-14  0.91188000000E+02  0.91188000000E+02 0.  0.
    9900012    2    3    3    0    0  0.60073435758E+01 -0.18318798542E+02  0.31370593773E+02  0.54367072384E+02  0.39999973113E+02 0.  0.
        -12    1    3    3    0    0 -0.60073435758E+01  0.18318798542E+02 -0.31370593773E+02  0.36820927616E+02  0.00000000000E+00 0.  1.
         11    1    4    4    0    0  0.83645582276E+01 -0.17897281558E+02  0.12688306017E+02  0.23479174418E+02  0.51100000000E-03 0. -1.
        -11    1    4    4    0    0 -0.27321242163E+01  0.53138925610E+01 -0.41943261395E+01  0.73002964946E+01  0.51100000000E-03 0.  1.
         12    1    4    4    0    0  0.37490956449E+00 -0.57354095447E+01  0.22876613895E+02  0.23587601471E+02  0.00000000000E+00 0. -1.
</event>
<event>
 8    1  0.3007389E-007  0.9118800E+02  0.7816164E-02  0.1184000E+00
        -11   -1    0    0    0    0  0.00000000000E+00  0.00000000000E+00  0.45593999997E+02  0.45594000000E+02  0.51100000000E-03 0. -1.
         11   -1    0    0    0    0 -0.00000000000E+00 -0.00000000000E+00 -0.45593999997E+02  0.45594000000E+02  0.51100000000E-03 0.  1.
         23    2    1    2    0    0  0.00000000000E+00  0.44408920985E-15  0.00000000000E+00  0.91188000000E+02  0.91188000000E+02 0.  0.
    9900012    2    3    3    0    0  0.17911541429E+02 -0.11205587294E+01  0.32151218460E+02  0.54367084521E+02  0.40000000782E+02 0.  0.
        -12    1    3    3    0    0 -0.17911541429E+02  0.11205587294E+01 -0.32151218460E+02  0.36820915479E+02  0.00000000000E+00 0.  1.
         11    1    4    4    0    0  0.20188176760E+02 -0.45113586154E+01  0.17427990363E+02  0.27049023750E+02  0.51100000000E-03 0. -1.
        -11    1    4    4    0    0 -0.47101646086E+00  0.66561131402E+01  0.19870303218E+02  0.20960788365E+02  0.51100000000E-03 0.  1.
        -12    1    4    4    0    0 -0.18056188701E+01 -0.32653132543E+01 -0.51470751206E+01  0.63572724065E+01  0.00000000000E+00 0.  1.
</event>
<event>
 8    1  0.3007389E-007  0.9118800E+02  0.7816164E-02  0.1184000E+00
        -11   -1    0    0    0    0  0.00000000000E+00  0.00000000000E+00  0.45593999997E+02  0.45594000000E+02  0.51100000000E-03 0.  1.
         11   -1    0    0    0    0 -0.00000000000E+00 -0.00000000000E+00 -0.45593999997E+02  0.45594000000E+02  0.51100000000E-03 0. -1.
         23    2    1    2    0    0  0.00000000000E+00  0.35527136788E-14  0.00000000000E+00  0.91188000000E+02  0.91188000000E+02 0.  0.
    9900012    2    3    3    0    0 -0.19925128637E+02  0.29839265238E+02 -0.82695560569E+01  0.54367108396E+02  0.40000055210E+02 0.  0.
         12    1    3    3    0    0  0.19925128637E+02 -0.29839265238E+02  0.82695560569E+01  0.36820891604E+02  0.00000000000E+00 0. -1.
         11    1    4    4    0    0 -0.14422083394E+02 -0.10049046513E+00 -0.97790126139E+01  0.17425144927E+02  0.51100000000E-03 0. -1.
        -11    1    4    4    0    0  0.71925855178E+01  0.58765326414E+01  0.28105653175E+01  0.97039270391E+01  0.51100000000E-03 0.  1.
         12    1    4    4    0    0 -0.12695630760E+02  0.24063223062E+02 -0.13011087604E+01  0.27238036430E+02  0.00000000000E+00 0. -1.
</event>
<event>
 8    1  0.3007389E-007  0.9118800E+02  0.7816164E-02  0.1184000E+00
        -11   -1    0    0    0    0  0.00000000000E+00  0.00000000000E+00  0.45593999997E+02  0.45594000000E+02  0.51100000000E-03 0. -1.
         11   -1    0    0    0    0 -0.00000000000E+00 -0.00000000000E+00 -0.45593999997E+02  0.45594000000E+02  0.51100000000E-03 0.  1.
         23    2    1    2    0    0  0.00000000000E+00  0.00000000000E+00  0.00000000000E+00  0.91188000000E+02  0.91188000000E+02 0.  0.
    9900012    2    3    3    0    0 -0.55393669602E+01  0.80726704017E+01 -0.35495458540E+02  0.54367079714E+02  0.39999989824E+02 0.  0.
         12    1    3    3    0    0  0.55393669602E+01 -0.80726704017E+01  0.35495458540E+02  0.36820920286E+02  0.00000000000E+00 0. -1.
         11    1    4    4    0    0 -0.12973119458E+02  0.80232500717E+01 -0.96047448169E+01  0.18025689818E+02  0.51100000000E-03 0. -1.
        -11    1    4    4    0    0  0.88017760993E+01  0.11141908126E+02 -0.12675638363E+02  0.19033790672E+02  0.51100000000E-03 0.  1.
         12    1    4    4    0    0 -0.13680236019E+01 -0.11092487796E+02 -0.13215075361E+02  0.17307599223E+02  0.00000000000E+00 0. -1.
</event>
<event>
 8    1  0.3007389E-007  0.9118800E+02  0.7816164E-02  0.1184000E+00
        -11   -1    0    0    0    0  0.00000000000E+00  0.00000000000E+00  0.45593999997E+02  0.45594000000E+02  0.51100000000E-03 0.  1.
         11   -1    0    0    0    0 -0.00000000000E+00 -0.00000000000E+00 -0.45593999997E+02  0.45594000000E+02  0.51100000000E-03 0. -1.
         23    2    1    2    0    0  0.00000000000E+00  0.17763568394E-14  0.00000000000E+00  0.91188000000E+02  0.91188000000E+02 0.  0.
    9900012    2    3    3    0    0 -0.51281756253E+01  0.13156872668E+02 -0.34005572030E+02  0.54367076427E+02  0.39999982332E+02 0.  0.
        -12    1    3    3    0    0  0.51281756253E+01 -0.13156872668E+02  0.34005572030E+02  0.36820923573E+02  0.00000000000E+00 0.  1.
         11    1    4    4    0    0 -0.45391296141E+01  0.40084347865E+01  0.36855923291E+01  0.70890646893E+01  0.51100000000E-03 0.  1.
        -11    1    4    4    0    0 -0.61923087880E+01 -0.31401036938E+00 -0.35534672256E+02  0.36071543122E+02  0.51100000000E-03 0. -1.
         12    1    4    4    0    0  0.56032627768E+01  0.94624482508E+01 -0.21564921034E+01  0.11206468616E+02  0.00000000000E+00 0. -1.
</event>
<event>
 8    1  0.3007389E-007  0.9118800E+02  0.7816164E-02  0.1184000E+00
        -11   -1    0    0    0    0  0.00000000000E+00  0.00000000000E+00  0.45593999997E+02  0.45594000000E+02  0.51100000000E-03 0. -1.
         11   -1    0    0    0    0 -0.00000000000E+00 -0.00000000000E+00 -0.45593999997E+02  0.45594000000E+02  0.51100000000E-03 0.  1.
         23    2    1    2    0    0 -0.35527136788E-14  0.00000000000E+00  0.00000000000E+00  0.91188000000E+02  0.91188000000E+02 0.  0.
    9900012    2    3    3    0    0 -0.29469216750E+02  0.82818287165E+01 -0.20463515384E+02  0.54367097178E+02  0.40000029636E+02 0.  0.
         12    1    3    3    0    0  0.29469216750E+02 -0.82818287165E+01  0.20463515384E+02  0.36820902822E+02  0.00000000000E+00 0. -1.
         11    1    4    4    0    0  0.86929845751E+00  0.89593977999E+01  0.13561013675E+01  0.91030489357E+01  0.51100000000E-03 0. -1.
        -11    1    4    4    0    0 -0.24319017387E+02 -0.44693563035E+01 -0.26888164962E+02  0.36528936033E+02  0.51100000000E-03 0.  1.
        -12    1    4    4    0    0 -0.60194978210E+01  0.37917872201E+01  0.50685482106E+01  0.87351122089E+01  0.00000000000E+00 0.  1.
</event>
<event>
 8    1  0.3007389E-007  0.9118800E+02  0.7816164E-02  0.1184000E+00
        -11   -1    0    0    0    0  0.00000000000E+00  0.00000000000E+00  0.45593999997E+02  0.45594000000E+02  0.51100000000E-03 0. -1.
         11   -1    0    0    0    0 -0.00000000000E+00 -0.00000000000E+00 -0.45593999997E+02  0.45594000000E+02  0.51100000000E-03 0.  1.
         23    2    1    2    0    0  0.00000000000E+00 -0.35527136788E-14 -0.35527136788E-14  0.91188000000E+02  0.91188000000E+02 0.  0.
    9900012    2    3    3    0    0 -0.77203008405E+01  0.22467687580E+02  0.28131476390E+02  0.54367082111E+02  0.39999995290E+02 0.  0.
        -12    1    3    3    0    0  0.77203008405E+01 -0.22467687580E+02 -0.28131476390E+02  0.36820917889E+02  0.00000000000E+00 0.  1.
         11    1    4    4    0    0  0.36418631140E+01  0.24672696882E+02  0.21958965463E+02  0.33229524565E+02  0.51100000000E-03 0. -1.
        -11    1    4    4    0    0  0.10691404974E+01 -0.66207474417E+01  0.38786547648E+01  0.77473428435E+01  0.51100000000E-03 0.  1.
         12    1    4    4    0    0 -0.12431304452E+02  0.44157381394E+01  0.22938561629E+01  0.13390214703E+02  0.00000000000E+00 0. -1.
</event>
<event>
 8    1  0.3007389E-007  0.9118800E+02  0.7816164E-02  0.1184000E+00
        -11   -1    0    0    0    0  0.00000000000E+00  0.00000000000E+00  0.45593999997E+02  0.45594000000E+02  0.51100000000E-03 0.  1.
         11   -1    0    0    0    0 -0.00000000000E+00 -0.00000000000E+00 -0.45593999997E+02  0.45594000000E+02  0.51100000000E-03 0. -1.
         23    2    1    2    0    0  0.44408920985E-15  0.00000000000E+00  0.00000000000E+00  0.91188000000E+02  0.91188000000E+02 0.  0.
    9900012    2    3    3    0    0  0.58052726565E+00  0.33244087729E+02 -0.15819998310E+02  0.54367099314E+02  0.40000034506E+02 0.  0.
        -12    1    3    3    0    0 -0.58052726565E+00 -0.33244087729E+02  0.15819998310E+02  0.36820900686E+02  0.00000000000E+00 0.  1.
         11    1    4    4    0    0  0.39791503870E+01 -0.59583668727E+01  0.42032246502E+00  0.71772170671E+01  0.51100000000E-03 0. -1.
        -11    1    4    4    0    0 -0.73338497002E+01  0.14000188185E+02  0.18583710212E+01  0.15913647092E+02  0.51100000000E-03 0.  1.
         12    1    4    4    0    0  0.39352265789E+01  0.25202266416E+02 -0.18098691796E+02  0.31276235155E+02  0.00000000000E+00 0. -1.
</event>
<event>
 8    1  0.3007389E-007  0.9118800E+02  0.7816164E-02  0.1184000E+00
        -11   -1    0    0    0    0  0.00000000000E+00  0.00000000000E+00  0.45593999997E+02  0.45594000000E+02  0.51100000000E-03 0. -1.
         11   -1    0    0    0    0 -0.00000000000E+00 -0.00000000000E+00 -0.45593999997E+02  0.45594000000E+02  0.51100000000E-03 0.  1.
         23    2    1    2    0    0  0.35527136788E-14  0.00000000000E+00  0.00000000000E+00  0.91188000000E+02  0.91188000000E+02 0.  0.
    9900012    2    3    3    0    0 -0.13593902289E+02 -0.21437449920E+02 -0.26672484679E+02  0.54367083696E+02  0.39999998902E+02 0.  0.
         12    1    3    3    0    0  0.13593902289E+02  0.21437449920E+02  0.26672484679E+02  0.36820916304E+02  0.00000000000E+00 0. -1.
         11    1    4    4    0    0 -0.11283871206E+02 -0.16582456774E+02  0.26481690371E+01  0.20231569924E+02  0.51100000000E-03 0. -1.
        -11    1    4    4    0    0 -0.59785566490E+01  0.43001141480E+01 -0.97351200344E+01  0.12206829385E+02  0.51100000000E-03 0.  1.
        -12    1    4    4    0    0  0.36685255661E+01 -0.91551072939E+01 -0.19585533681E+02  0.21928684388E+02  0.00000000000E+00 0.  1.
</event>
<event>
 8    1  0.3007389E-007  0.9118800E+02  0.7816164E-02  0.1184000E+00
        -11   -1    0    0    0    0  0.00000000000E+00  0.00000000000E+00  0.45593999997E+02  0.45594000000E+02  0.51100000000E-03 0. -1.
         11   -1    0    0    0    0 -0.00000000000E+00 -0.00000000000E+00 -0.45593999997E+02  0.45594000000E+02  0.51100000000E-03 0.  1.
         23    2    1    2    0    0 -0.35527136788E-14  0.17763568394E-14 -0.35527136788E-14  0.91188000000E+02  0.91188000000E+02 0.  0.
    9900012    2    3    3    0    0 -0.16892708658E+02  0.76971520963E+01  0.31798949691E+02  0.54367041869E+02  0.39999903549E+02 0.  0.
        -12    1    3    3    0    0  0.16892708658E+02 -0.76971520963E+01 -0.31798949691E+02  0.36820958131E+02  0.00000000000E+00 0.  1.
         11    1    4    4    0    0 -0.14344869430E+02 -0.39416911620E+01  0.21445913858E+02  0.26100563780E+02  0.51100000000E-03 0. -1.
        -11    1    4    4    0    0 -0.12643904097E+02  0.98974075356E+01  0.62807657410E+01  0.17241664807E+02  0.51100000000E-03 0.  1.
        -12    1    4    4    0    0  0.10096064869E+02  0.17414357227E+01  0.40722700928E+01  0.11024813283E+02  0.00000000000E+00 0.  1.
</event>
<event>
 8    1  0.3007389E-007  0.9118800E+02  0.7816164E-02  0.1184000E+00
        -11   -1    0    0    0    0  0.00000000000E+00  0.00000000000E+00  0.45593999997E+02  0.45594000000E+02  0.51100000000E-03 0. -1.
         11   -1    0    0    0    0 -0.00000000000E+00 -0.00000000000E+00 -0.45593999997E+02  0.45594000000E+02  0.51100000000E-03 0.  1.
         23    2    1    2    0    0 -0.35527136788E-14  0.35527136788E-14 -0.35527136788E-14  0.91188000000E+02  0.91188000000E+02 0.  0.
    9900012    2    3    3    0    0  0.24809588605E+02  0.24735341213E+02 -0.11332545044E+02  0.54367090602E+02  0.40000014646E+02 0.  0.
         12    1    3    3    0    0 -0.24809588605E+02 -0.24735341213E+02  0.11332545044E+02  0.36820909398E+02  0.00000000000E+00 0. -1.
         11    1    4    4    0    0  0.57095888019E+01 -0.27924502588E+01 -0.17542101687E+02  0.18658041553E+02  0.51100000000E-03 0. -1.
        -11    1    4    4    0    0  0.16439428509E+02  0.27760743531E+02  0.68042487148E+01  0.32972890258E+02  0.51100000000E-03 0.  1.
         12    1    4    4    0    0  0.26605712940E+01 -0.23295205910E+00 -0.59469207126E+00  0.27361587915E+01  0.00000000000E+00 0. -1.
</event>
<event>
 8    1  0.3007389E-007  0.9118800E+02  0.7816164E-02  0.1184000E+00
        -11   -1    0    0    0    0  0.00000000000E+00  0.00000000000E+00  0.45593999997E+02  0.45594000000E+02  0.51100000000E-03 0.  1.
         11   -1    0    0    0    0 -0.00000000000E+00 -0.00000000000E+00 -0.45593999997E+02  0.45594000000E+02  0.51100000000E-03 0. -1.
         23    2    1    2    0    0  0.00000000000E+00 -0.53290705182E-14  0.00000000000E+00  0.91188000000E+02  0.91188000000E+02 0.  0.
    9900012    2    3    3    0    0  0.66422517024E+01  0.10065497006E+02 -0.34789980457E+02  0.54367129860E+02  0.40000104142E+02 0.  0.
        -12    1    3    3    0    0 -0.66422517024E+01 -0.10065497006E+02  0.34789980457E+02  0.36820870140E+02  0.00000000000E+00 0.  1.
         11    1    4    4    0    0  0.95130125278E+00  0.18838459005E+02 -0.24521441691E+02  0.30936929625E+02  0.51100000000E-03 0. -1.
        -11    1    4    4    0    0  0.54126903619E+01  0.49231869804E+01 -0.43065901858E+01  0.84900945983E+01  0.51100000000E-03 0.  1.
         12    1    4    4    0    0  0.27826008765E+00 -0.13696148980E+02 -0.59619485806E+01  0.14940105637E+02  0.00000000000E+00 0. -1.
</event>
<event>
 8    1  0.3007389E-007  0.9118800E+02  0.7816164E-02  0.1184000E+00
        -11   -1    0    0    0    0  0.00000000000E+00  0.00000000000E+00  0.45593999997E+02  0.45594000000E+02  0.51100000000E-03 0.  1.
         11   -1    0    0    0    0 -0.00000000000E+00 -0.00000000000E+00 -0.45593999997E+02  0.45594000000E+02  0.51100000000E-03 0. -1.
         23    2    1    2    0    0  0.17763568394E-14  0.00000000000E+00  0.35527136788E-14  0.91188000000E+02  0.91188000000E+02 0.  0.
    9900012    2    3    3    0    0 -0.13005535919E+02  0.16518659155E+02  0.30228626148E+02  0.54367083341E+02  0.39999998093E+02 0.  0.
         12    1    3    3    0    0  0.13005535919E+02 -0.16518659155E+02 -0.30228626148E+02  0.36820916659E+02  0.00000000000E+00 0. -1.
         11    1    4    4    0    0 -0.57441704674E+01  0.41300501479E+01 -0.36029498111E+01  0.79393989813E+01  0.51100000000E-03 0. -1.
        -11    1    4    4    0    0 -0.12382257451E+02  0.88605171145E+01  0.36584908224E+02  0.39626816339E+02  0.51100000000E-03 0.  1.
         12    1    4    4    0    0  0.51208919991E+01  0.35280918928E+01 -0.27533322658E+01  0.68008680208E+01  0.00000000000E+00 0. -1.
</event>
<event>
 8    1  0.3007389E-007  0.9118800E+02  0.7816164E-02  0.1184000E+00
        -11   -1    0    0    0    0  0.00000000000E+00  0.00000000000E+00  0.45593999997E+02  0.45594000000E+02  0.51100000000E-03 0.  1.
         11   -1    0    0    0    0 -0.00000000000E+00 -0.00000000000E+00 -0.45593999997E+02  0.45594000000E+02  0.51100000000E-03 0. -1.
         23    2    1    2    0    0  0.00000000000E+00  0.00000000000E+00 -0.35527136788E-14  0.91188000000E+02  0.91188000000E+02 0.  0.
    9900012    2    3    3    0    0  0.26716431928E+02  0.14119099216E+01  0.25298613129E+02  0.54367067762E+02  0.39999962577E+02 0.  0.
         12    1    3    3    0    0 -0.26716431928E+02 -0.14119099216E+01 -0.25298613129E+02  0.36820932238E+02  0.00000000000E+00 0. -1.
         11    1    4    4    0    0  0.30817105054E+02 -0.67931002621E+01  0.29653081423E+02  0.43302949245E+02  0.51100000000E-03 0.  1.
        -11    1    4    4    0    0 -0.40949616522E+01  0.75204496932E+01 -0.22537600772E+01  0.88546772537E+01  0.51100000000E-03 0. -1.
        -12    1    4    4    0    0 -0.57114742083E-02  0.68456049054E+00 -0.21007082169E+01  0.22094412639E+01  0.00000000000E+00 0.  1.
</event>
<event>
 8    1  0.3007389E-007  0.9118800E+02  0.7816164E-02  0.1184000E+00
        -11   -1    0    0    0    0  0.00000000000E+00  0.00000000000E+00  0.45593999997E+02  0.45594000000E+02  0.51100000000E-03 0. -1.
         11   -1    0    0    0    0 -0.00000000000E+00 -0.00000000000E+00 -0.45593999997E+02  0.45594000000E+02  0.51100000000E-03 0.  1.
         23    2    1    2    0    0  0.00000000000E+00  0.00000000000E+00  0.00000000000E+00  0.91188000000E+02  0.91188000000E+02 0.  0.
    9900012    2    3    3    0    0 -0.14179207112E+02 -0.33515913452E+02 -0.56044827019E+01  0.54367128267E+02  0.40000100511E+02 0.  0.
         12    1    3    3    0    0  0.14179207112E+02  0.33515913452E+02  0.56044827019E+01  0.36820871733E+02  0.00000000000E+00 0. -1.
         11    1    4    4    0    0  0.10082326506E+02 -0.96851589691E+01  0.26056497523E+01  0.14221287667E+02  0.51100000000E-03 0. -1.
        -11    1    4    4    0    0 -0.24203461564E+02 -0.23174651796E+02 -0.16469941918E+01  0.33549733646E+02  0.51100000000E-03 0.  1.
         12    1    4    4    0    0 -0.58072053186E-01 -0.65610268628E+00 -0.65631382623E+01  0.65961069540E+01  0.00000000000E+00 0. -1.
</event>
<event>
 8    1  0.3007389E-007  0.9118800E+02  0.7816164E-02  0.1184000E+00
        -11   -1    0    0    0    0  0.00000000000E+00  0.00000000000E+00  0.45593999997E+02  0.45594000000E+02  0.51100000000E-03 0.  1.
         11   -1    0    0    0    0 -0.00000000000E+00 -0.00000000000E+00 -0.45593999997E+02  0.45594000000E+02  0.51100000000E-03 0. -1.
         23    2    1    2    0    0  0.00000000000E+00  0.00000000000E+00  0.00000000000E+00  0.91188000000E+02  0.91188000000E+02 0.  0.
    9900012    2    3    3    0    0  0.23222071367E+02 -0.18157984283E+02  0.22063565345E+02  0.54367110446E+02  0.40000059883E+02 0.  0.
         12    1    3    3    0    0 -0.23222071367E+02  0.18157984283E+02 -0.22063565345E+02  0.36820889554E+02  0.00000000000E+00 0. -1.
         11    1    4    4    0    0  0.96546839378E+01  0.39194813412E+01  0.15832356444E+02  0.18953595088E+02  0.51100000000E-03 0. -1.
        -11    1    4    4    0    0 -0.59140436863E+01 -0.80078947899E+00  0.17497247136E+01  0.62192212815E+01  0.51100000000E-03 0.  1.
         12    1    4    4    0    0  0.19481431116E+02 -0.21276676145E+02  0.44814841879E+01  0.29194294077E+02  0.00000000000E+00 0. -1.
</event>
<event>
 8    1  0.3007389E-007  0.9118800E+02  0.7816164E-02  0.1184000E+00
        -11   -1    0    0    0    0  0.00000000000E+00  0.00000000000E+00  0.45593999997E+02  0.45594000000E+02  0.51100000000E-03 0. -1.
         11   -1    0    0    0    0 -0.00000000000E+00 -0.00000000000E+00 -0.45593999997E+02  0.45594000000E+02  0.51100000000E-03 0.  1.
         23    2    1    2    0    0  0.00000000000E+00  0.88817841970E-15  0.00000000000E+00  0.91188000000E+02  0.91188000000E+02 0.  0.
    9900012    2    3    3    0    0 -0.35691547326E+02  0.53389223545E+01  0.73068764853E+01  0.54367067280E+02  0.39999961478E+02 0.  0.
         12    1    3    3    0    0  0.35691547326E+02 -0.53389223545E+01 -0.73068764853E+01  0.36820932720E+02  0.00000000000E+00 0. -1.
         11    1    4    4    0    0 -0.35004860544E+02  0.39536649136E+01  0.58413492587E+01  0.35708445631E+02  0.51100000000E-03 0. -1.
        -11    1    4    4    0    0 -0.50149382164E+00 -0.17820097290E+01 -0.82411924628E+01  0.84465559963E+01  0.51100000000E-03 0.  1.
         12    1    4    4    0    0 -0.18519295972E+00  0.31672671699E+01  0.97067196895E+01  0.10212065652E+02  0.00000000000E+00 0. -1.
</event>
<event>
 8    1  0.3007389E-007  0.9118800E+02  0.7816164E-02  0.1184000E+00
        -11   -1    0    0    0    0  0.00000000000E+00  0.00000000000E+00  0.45593999997E+02  0.45594000000E+02  0.51100000000E-03 0. -1.
         11   -1    0    0    0    0 -0.00000000000E+00 -0.00000000000E+00 -0.45593999997E+02  0.45594000000E+02  0.51100000000E-03 0.  1.
         23    2    1    2    0    0  0.00000000000E+00  0.35527136788E-14 -0.35527136788E-14  0.91188000000E+02  0.91188000000E+02 0.  0.
    9900012    2    3    3    0    0  0.21303880907E+02 -0.21515440247E+02 -0.20952578906E+02  0.54367081034E+02  0.39999992832E+02 0.  0.
         12    1    3    3    0    0 -0.21303880907E+02  0.21515440247E+02  0.20952578906E+02  0.36820918966E+02  0.00000000000E+00 0. -1.
         11    1    4    4    0    0  0.56065354580E+01 -0.18487188596E+02 -0.24363826840E+02  0.31093495149E+02  0.51100000000E-03 0. -1.
        -11    1    4    4    0    0  0.43929572196E+01  0.16353628394E+01  0.87530545767E+01  0.99291716389E+01  0.51100000000E-03 0.  1.
        -12    1    4    4    0    0  0.11304388229E+02 -0.46636144905E+01 -0.53418066425E+01  0.13344414246E+02  0.00000000000E+00 0.  1.
</event>
<event>
 8    1  0.3007389E-007  0.9118800E+02  0.7816164E-02  0.1184000E+00
        -11   -1    0    0    0    0  0.00000000000E+00  0.00000000000E+00  0.45593999997E+02  0.45594000000E+02  0.51100000000E-03 0. -1.
         11   -1    0    0    0    0 -0.00000000000E+00 -0.00000000000E+00 -0.45593999997E+02  0.45594000000E+02  0.51100000000E-03 0.  1.
         23    2    1    2    0    0  0.35527136788E-14  0.26645352591E-14  0.00000000000E+00  0.91188000000E+02  0.91188000000E+02 0.  0.
    9900012    2    3    3    0    0  0.30348598071E+02 -0.52801728276E+01 -0.20170839010E+02  0.54367076922E+02  0.39999983458E+02 0.  0.
         12    1    3    3    0    0 -0.30348598071E+02  0.52801728276E+01  0.20170839010E+02  0.36820923078E+02  0.00000000000E+00 0. -1.
         11    1    4    4    0    0  0.99911269530E+01  0.11912173577E+02  0.45197407191E+01  0.16191064003E+02  0.51100000000E-03 0. -1.
        -11    1    4    4    0    0  0.17517917347E+02 -0.16490979941E+02 -0.15716722171E+02  0.28737522573E+02  0.51100000000E-03 0.  1.
        -12    1    4    4    0    0  0.28395537708E+01 -0.70136646365E+00 -0.89738575582E+01  0.94384903459E+01  0.00000000000E+00 0.  1.
</event>
<event>
 8    1  0.3007389E-007  0.9118800E+02  0.7816164E-02  0.1184000E+00
        -11   -1    0    0    0    0  0.00000000000E+00  0.00000000000E+00  0.45593999997E+02  0.45594000000E+02  0.51100000000E-03 0. -1.
         11   -1    0    0    0    0 -0.00000000000E+00 -0.00000000000E+00 -0.45593999997E+02  0.45594000000E+02  0.51100000000E-03 0.  1.
         23    2    1    2    0    0 -0.35527136788E-14  0.17763568394E-14  0.00000000000E+00  0.91188000000E+02  0.91188000000E+02 0.  0.
    9900012    2    3    3    0    0 -0.29117784107E+02 -0.13371708878E+02 -0.18141990776E+02  0.54367085034E+02  0.40000001952E+02 0.  0.
         12    1    3    3    0    0  0.29117784107E+02  0.13371708878E+02  0.18141990776E+02  0.36820914966E+02  0.00000000000E+00 0. -1.
         11    1    4    4    0    0 -0.22925979563E+02  0.31662739783E+01  0.15390455879E+01  0.23194708263E+02  0.51100000000E-03 0. -1.
        -11    1    4    4    0    0 -0.58462894553E+01  0.14716404956E+01 -0.64025342124E+01  0.87941611735E+01  0.51100000000E-03 0.  1.
         12    1    4    4    0    0 -0.34551508873E+00 -0.18009623352E+02 -0.13278502152E+02  0.22378215598E+02  0.00000000000E+00 0. -1.
</event>
<event>
 8    1  0.3007389E-007  0.9118800E+02  0.7816164E-02  0.1184000E+00
        -11   -1    0    0    0    0  0.00000000000E+00  0.00000000000E+00  0.45593999997E+02  0.45594000000E+02  0.51100000000E-03 0.  1.
         11   -1    0    0    0    0 -0.00000000000E+00 -0.00000000000E+00 -0.45593999997E+02  0.45594000000E+02  0.51100000000E-03 0. -1.
         23    2    1    2    0    0  0.17763568394E-14  0.35527136788E-14  0.00000000000E+00  0.91188000000E+02  0.91188000000E+02 0.  0.
    9900012    2    3    3    0    0  0.13511233115E+02  0.17982828783E+02  0.29152088056E+02  0.54367084892E+02  0.40000001629E+02 0.  0.
         12    1    3    3    0    0 -0.13511233115E+02 -0.17982828783E+02 -0.29152088056E+02  0.36820915108E+02  0.00000000000E+00 0. -1.
         11    1    4    4    0    0 -0.27280841951E+01  0.71534379964E+01  0.15334795356E+02  0.17139721918E+02  0.51100000000E-03 0. -1.
        -11    1    4    4    0    0 -0.32270676762E+01 -0.44320888481E+01  0.11052648944E+02  0.12337683182E+02  0.51100000000E-03 0.  1.
         12    1    4    4    0    0  0.19466384986E+02  0.15261479635E+02  0.27646437557E+01  0.24889679793E+02  0.00000000000E+00 0. -1.
</event>
<event>
 8    1  0.3007389E-007  0.9118800E+02  0.7816164E-02  0.1184000E+00
        -11   -1    0    0    0    0  0.00000000000E+00  0.00000000000E+00  0.45593999997E+02  0.45594000000E+02  0.51100000000E-03 0.  1.
         11   -1    0    0    0    0 -0.00000000000E+00 -0.00000000000E+00 -0.45593999997E+02  0.45594000000E+02  0.51100000000E-03 0. -1.
         23    2    1    2    0    0  0.00000000000E+00  0.00000000000E+00 -0.35527136788E-14  0.91188000000E+02  0.91188000000E+02 0.  0.
    9900012    2    3    3    0    0  0.27906394597E+02 -0.21784763097E+02 -0.10121179452E+02  0.54367067963E+02  0.39999963034E+02 0.  0.
        -12    1    3    3    0    0 -0.27906394597E+02  0.21784763097E+02  0.10121179452E+02  0.36820932037E+02  0.00000000000E+00 0.  1.
         11    1    4    4    0    0  0.25858619776E+02 -0.10384720270E+02 -0.74854068958E+01  0.28853803016E+02  0.51100000000E-03 0. -1.
        -11    1    4    4    0    0  0.11126674990E+01 -0.48635871673E+01 -0.12604506635E+02  0.13556035441E+02  0.51100000000E-03 0.  1.
         12    1    4    4    0    0  0.93510732194E+00 -0.65364556596E+01  0.99687340798E+01  0.11957229505E+02  0.00000000000E+00 0. -1.
</event>
<event>
 8    1  0.3007389E-007  0.9118800E+02  0.7816164E-02  0.1184000E+00
        -11   -1    0    0    0    0  0.00000000000E+00  0.00000000000E+00  0.45593999997E+02  0.45594000000E+02  0.51100000000E-03 0.  1.
         11   -1    0    0    0    0 -0.00000000000E+00 -0.00000000000E+00 -0.45593999997E+02  0.45594000000E+02  0.51100000000E-03 0. -1.
         23    2    1    2    0    0 -0.35527136788E-14  0.00000000000E+00  0.00000000000E+00  0.91188000000E+02  0.91188000000E+02 0.  0.
    9900012    2    3    3    0    0 -0.22561310489E+02 -0.23939482250E+02 -0.16542935401E+02  0.54367078596E+02  0.39999987275E+02 0.  0.
        -12    1    3    3    0    0  0.22561310489E+02  0.23939482250E+02  0.16542935401E+02  0.36820921404E+02  0.00000000000E+00 0.  1.
         11    1    4    4    0    0  0.36337985019E+01  0.29671864285E+01 -0.42474426454E+01  0.63284639638E+01  0.51100000000E-03 0. -1.
        -11    1    4    4    0    0 -0.14098122593E+02 -0.29339289918E+02 -0.31963498710E+01  0.32707302645E+02  0.51100000000E-03 0.  1.
        -12    1    4    4    0    0 -0.12096986398E+02  0.24326212400E+01 -0.90991428849E+01  0.15331311987E+02  0.00000000000E+00 0.  1.
</event>
<event>
 8    1  0.3007389E-007  0.9118800E+02  0.7816164E-02  0.1184000E+00
        -11   -1    0    0    0    0  0.00000000000E+00  0.00000000000E+00  0.45593999997E+02  0.45594000000E+02  0.51100000000E-03 0. -1.
         11   -1    0    0    0    0 -0.00000000000E+00 -0.00000000000E+00 -0.45593999997E+02  0.45594000000E+02  0.51100000000E-03 0.  1.
         23    2    1    2    0    0  0.17763568394E-14  0.00000000000E+00  0.17763568394E-14  0.91188000000E+02  0.91188000000E+02 0.  0.
    9900012    2    3    3    0    0 -0.93080163922E+01  0.33640802338E+02 -0.11723360632E+02  0.54367082907E+02  0.39999997103E+02 0.  0.
         12    1    3    3    0    0  0.93080163922E+01 -0.33640802338E+02  0.11723360632E+02  0.36820917093E+02  0.00000000000E+00 0. -1.
         11    1    4    4    0    0  0.11923019377E+00  0.28030008714E+02 -0.97317355779E+01  0.29671573635E+02  0.51100000000E-03 0.  1.
        -11    1    4    4    0    0 -0.15877685414E+02  0.12076539988E+01 -0.44041914966E+01  0.16521386905E+02  0.51100000000E-03 0. -1.
        -12    1    4    4    0    0  0.64504388277E+01  0.44031396249E+01  0.24125664427E+01  0.81741223668E+01  0.00000000000E+00 0.  1.
</event>
<event>
 8    1  0.3007389E-007  0.9118800E+02  0.7816164E-02  0.1184000E+00
        -11   -1    0    0    0    0  0.00000000000E+00  0.00000000000E+00  0.45593999997E+02  0.45594000000E+02  0.51100000000E-03 0. -1.
         11   -1    0    0    0    0 -0.00000000000E+00 -0.00000000000E+00 -0.45593999997E+02  0.45594000000E+02  0.51100000000E-03 0.  1.
         23    2    1    2    0    0  0.71054273576E-14 -0.88817841970E-15 -0.35527136788E-14  0.91188000000E+02  0.91188000000E+02 0.  0.
    9900012    2    3    3    0    0  0.26093291289E+02  0.45238205447E+01 -0.25582313968E+02  0.54367087591E+02  0.40000007782E+02 0.  0.
         12    1    3    3    0    0 -0.26093291289E+02 -0.45238205447E+01  0.25582313968E+02  0.36820912409E+02  0.00000000000E+00 0. -1.
         11    1    4    4    0    0  0.10342642633E+02  0.21051761185E+02 -0.13338694259E+02  0.26982729114E+02  0.51100000000E-03 0. -1.
        -11    1    4    4    0    0  0.11063640506E+02 -0.10709519501E+02 -0.33306365618E+01  0.15754081673E+02  0.51100000000E-03 0.  1.
         12    1    4    4    0    0  0.46870081498E+01 -0.58184211396E+01 -0.89129831480E+01  0.11630276805E+02  0.00000000000E+00 0. -1.
</event>
<event>
 8    1  0.3007389E-007  0.9118800E+02  0.7816164E-02  0.1184000E+00
        -11   -1    0    0    0    0  0.00000000000E+00  0.00000000000E+00  0.45593999997E+02  0.45594000000E+02  0.51100000000E-03 0.  1.
         11   -1    0    0    0    0 -0.00000000000E+00 -0.00000000000E+00 -0.45593999997E+02  0.45594000000E+02  0.51100000000E-03 0. -1.
         23    2    1    2    0    0  0.00000000000E+00  0.87430063189E-15 -0.71054273576E-14  0.91188000000E+02  0.91188000000E+02 0.  0.
    9900012    2    3    3    0    0  0.10714440722E+02 -0.11954108286E+00  0.35227348895E+02  0.54367086918E+02  0.40000006247E+02 0.  0.
         12    1    3    3    0    0 -0.10714440722E+02  0.11954108286E+00 -0.35227348895E+02  0.36820913082E+02  0.00000000000E+00 0. -1.
         11    1    4    4    0    0  0.62454785284E+01  0.35966955501E+01  0.35073406351E+02  0.35806229266E+02  0.51100000000E-03 0. -1.
        -11    1    4    4    0    0  0.41241750528E+00 -0.95169284012E+01  0.41966873403E+01  0.10409332317E+02  0.51100000000E-03 0.  1.
        -12    1    4    4    0    0  0.40565446879E+01  0.58006917682E+01 -0.40427447965E+01  0.81515253348E+01  0.00000000000E+00 0.  1.
</event>
<event>
 8    1  0.3007389E-007  0.9118800E+02  0.7816164E-02  0.1184000E+00
        -11   -1    0    0    0    0  0.00000000000E+00  0.00000000000E+00  0.45593999997E+02  0.45594000000E+02  0.51100000000E-03 0.  1.
         11   -1    0    0    0    0 -0.00000000000E+00 -0.00000000000E+00 -0.45593999997E+02  0.45594000000E+02  0.51100000000E-03 0. -1.
         23    2    1    2    0    0  0.71054273576E-14  0.88817841970E-15 -0.35527136788E-14  0.91188000000E+02  0.91188000000E+02 0.  0.
    9900012    2    3    3    0    0 -0.32579554125E+02 -0.14439473393E+01  0.17095820246E+02  0.54367090169E+02  0.40000013658E+02 0.  0.
         12    1    3    3    0    0  0.32579554125E+02  0.14439473393E+01 -0.17095820246E+02  0.36820909831E+02  0.00000000000E+00 0. -1.
         11    1    4    4    0    0 -0.20329833730E+02 -0.89018538632E+01 -0.24795777536E+00  0.22194743185E+02  0.51100000000E-03 0. -1.
        -11    1    4    4    0    0 -0.26972041762E+01 -0.82668946481E+01  0.57677842821E+01  0.10434739732E+02  0.51100000000E-03 0.  1.
         12    1    4    4    0    0 -0.95525162181E+01  0.15724801172E+02  0.11575993740E+02  0.21737607252E+02  0.00000000000E+00 0. -1.
</event>
<event>
 8    1  0.3007389E-007  0.9118800E+02  0.7816164E-02  0.1184000E+00
        -11   -1    0    0    0    0  0.00000000000E+00  0.00000000000E+00  0.45593999997E+02  0.45594000000E+02  0.51100000000E-03 0.  1.
         11   -1    0    0    0    0 -0.00000000000E+00 -0.00000000000E+00 -0.45593999997E+02  0.45594000000E+02  0.51100000000E-03 0. -1.
         23    2    1    2    0    0  0.00000000000E+00  0.88817841970E-15  0.00000000000E+00  0.91188000000E+02  0.91188000000E+02 0.  0.
    9900012    2    3    3    0    0 -0.34669116280E+02 -0.27003963107E+01 -0.12105193505E+02  0.54367143497E+02  0.40000135229E+02 0.  0.
        -12    1    3    3    0    0  0.34669116280E+02  0.27003963107E+01  0.12105193505E+02  0.36820856503E+02  0.00000000000E+00 0.  1.
         11    1    4    4    0    0  0.36685273465E+01  0.63719565703E+01 -0.11304121259E+02  0.13484920509E+02  0.51100000000E-03 0. -1.
        -11    1    4    4    0    0 -0.11024247707E+02  0.23405417648E+01 -0.42097261229E+00  0.11277827426E+02  0.51100000000E-03 0.  1.
         12    1    4    4    0    0 -0.27313395919E+02 -0.11412894646E+02 -0.38009963334E+00  0.29604395562E+02  0.00000000000E+00 0. -1.
</event>
<event>
 8    1  0.3007389E-007  0.9118800E+02  0.7816164E-02  0.1184000E+00
        -11   -1    0    0    0    0  0.00000000000E+00  0.00000000000E+00  0.45593999997E+02  0.45594000000E+02  0.51100000000E-03 0. -1.
         11   -1    0    0    0    0 -0.00000000000E+00 -0.00000000000E+00 -0.45593999997E+02  0.45594000000E+02  0.51100000000E-03 0.  1.
         23    2    1    2    0    0  0.22204460493E-14  0.35527136788E-14  0.10658141036E-13  0.91188000000E+02  0.91188000000E+02 0.  0.
    9900012    2    3    3    0    0 -0.32112254237E+01  0.20235934733E+02  0.30593681893E+02  0.54367103826E+02  0.40000044793E+02 0.  0.
        -12    1    3    3    0    0  0.32112254237E+01 -0.20235934733E+02 -0.30593681893E+02  0.36820896174E+02  0.00000000000E+00 0.  1.
         11    1    4    4    0    0  0.66342411490E+01  0.13101462165E+02  0.21023054250E+02  0.25644303007E+02  0.51100000000E-03 0. -1.
        -11    1    4    4    0    0  0.77863702076E+01  0.15457098218E+01  0.91321269068E-01  0.79388361678E+01  0.51100000000E-03 0.  1.
        -12    1    4    4    0    0 -0.17631836780E+02  0.55887627463E+01  0.94793063746E+01  0.20783964651E+02  0.00000000000E+00 0.  1.
</event>
<event>
 8    1  0.3007389E-007  0.9118800E+02  0.7816164E-02  0.1184000E+00
        -11   -1    0    0    0    0  0.00000000000E+00  0.00000000000E+00  0.45593999997E+02  0.45594000000E+02  0.51100000000E-03 0. -1.
         11   -1    0    0    0    0 -0.00000000000E+00 -0.00000000000E+00 -0.45593999997E+02  0.45594000000E+02  0.51100000000E-03 0.  1.
         23    2    1    2    0    0 -0.35527136788E-14 -0.35527136788E-14  0.35527136788E-14  0.91188000000E+02  0.91188000000E+02 0.  0.
    9900012    2    3    3    0    0  0.24872488975E+02  0.20129768974E+02  0.18218991220E+02  0.54367082740E+02  0.39999996723E+02 0.  0.
        -12    1    3    3    0    0 -0.24872488975E+02 -0.20129768974E+02 -0.18218991220E+02  0.36820917260E+02  0.00000000000E+00 0.  1.
         11    1    4    4    0    0  0.21758544841E+02 -0.91179440171E+00  0.16616906402E+02  0.27393196623E+02  0.51100000000E-03 0. -1.
        -11    1    4    4    0    0  0.34729966819E+00  0.14992162851E+02  0.86258816649E+01  0.17300040426E+02  0.51100000000E-03 0.  1.
        -12    1    4    4    0    0  0.27666444659E+01  0.60494005250E+01 -0.70237968461E+01  0.96738456907E+01  0.00000000000E+00 0.  1.
</event>
<event>
 8    1  0.3007389E-007  0.9118800E+02  0.7816164E-02  0.1184000E+00
        -11   -1    0    0    0    0  0.00000000000E+00  0.00000000000E+00  0.45593999997E+02  0.45594000000E+02  0.51100000000E-03 0. -1.
         11   -1    0    0    0    0 -0.00000000000E+00 -0.00000000000E+00 -0.45593999997E+02  0.45594000000E+02  0.51100000000E-03 0.  1.
         23    2    1    2    0    0  0.00000000000E+00  0.17763568394E-14  0.35527136788E-14  0.91188000000E+02  0.91188000000E+02 0.  0.
    9900012    2    3    3    0    0 -0.18472458973E+02  0.14516140343E+02  0.28351916179E+02  0.54367065438E+02  0.39999957280E+02 0.  0.
        -12    1    3    3    0    0  0.18472458973E+02 -0.14516140343E+02 -0.28351916179E+02  0.36820934562E+02  0.00000000000E+00 0.  1.
         11    1    4    4    0    0 -0.13981976341E+02  0.59036188517E+01  0.22304799272E+02  0.26978740682E+02  0.51100000000E-03 0. -1.
        -11    1    4    4    0    0 -0.12385577237E+01 -0.74117177562E+01 -0.36754452745E+01  0.83651947711E+01  0.51100000000E-03 0.  1.
        -12    1    4    4    0    0 -0.32519249084E+01  0.16024239248E+02  0.97225621811E+01  0.19023129985E+02  0.00000000000E+00 0.  1.
</event>
<event>
 8    1  0.3007389E-007  0.9118800E+02  0.7816164E-02  0.1184000E+00
        -11   -1    0    0    0    0  0.00000000000E+00  0.00000000000E+00  0.45593999997E+02  0.45594000000E+02  0.51100000000E-03 0.  1.
         11   -1    0    0    0    0 -0.00000000000E+00 -0.00000000000E+00 -0.45593999997E+02  0.45594000000E+02  0.51100000000E-03 0. -1.
         23    2    1    2    0    0 -0.35527136788E-14  0.00000000000E+00  0.35527136788E-14  0.91188000000E+02  0.91188000000E+02 0.  0.
    9900012    2    3    3    0    0  0.22052651458E+02 -0.19980749001E+02 -0.21684732465E+02  0.54367117487E+02  0.40000075934E+02 0.  0.
        -12    1    3    3    0    0 -0.22052651458E+02  0.19980749001E+02  0.21684732465E+02  0.36820882513E+02  0.00000000000E+00 0.  1.
         11    1    4    4    0    0  0.15681225925E+02 -0.65848432384E+01 -0.59369694720E+01  0.18014122619E+02  0.51100000000E-03 0. -1.
        -11    1    4    4    0    0  0.67156833031E+01 -0.16059342007E+02 -0.22870197540E+02  0.28741064763E+02  0.51100000000E-03 0.  1.
        -12    1    4    4    0    0 -0.34425776961E+00  0.26634362446E+01  0.71224345467E+01  0.76119301043E+01  0.00000000000E+00 0.  1.
</event>
<event>
 8    1  0.3007389E-007  0.9118800E+02  0.7816164E-02  0.1184000E+00
        -11   -1    0    0    0    0  0.00000000000E+00  0.00000000000E+00  0.45593999997E+02  0.45594000000E+02  0.51100000000E-03 0. -1.
         11   -1    0    0    0    0 -0.00000000000E+00 -0.00000000000E+00 -0.45593999997E+02  0.45594000000E+02  0.51100000000E-03 0.  1.
         23    2    1    2    0    0  0.00000000000E+00  0.44408920985E-15  0.00000000000E+00  0.91188000000E+02  0.91188000000E+02 0.  0.
    9900012    2    3    3    0    0 -0.17539640295E+02 -0.39660665545E+01 -0.32131172743E+02  0.54367069439E+02  0.39999966399E+02 0.  0.
         12    1    3    3    0    0  0.17539640295E+02  0.39660665545E+01  0.32131172743E+02  0.36820930561E+02  0.00000000000E+00 0. -1.
         11    1    4    4    0    0 -0.51865735090E+00  0.34133416453E+01 -0.24069961961E+02  0.24316310898E+02  0.51100000000E-03 0. -1.
        -11    1    4    4    0    0  0.12204744367E-01 -0.28326214234E+01 -0.11709818637E+02  0.12047561822E+02  0.51100000000E-03 0.  1.
         12    1    4    4    0    0 -0.17033187689E+02 -0.45467867764E+01  0.36486078546E+01  0.18003196719E+02  0.00000000000E+00 0. -1.
</event>
<event>
 8    1  0.3007389E-007  0.9118800E+02  0.7816164E-02  0.1184000E+00
        -11   -1    0    0    0    0  0.00000000000E+00  0.00000000000E+00  0.45593999997E+02  0.45594000000E+02  0.51100000000E-03 0.  1.
         11   -1    0    0    0    0 -0.00000000000E+00 -0.00000000000E+00 -0.45593999997E+02  0.45594000000E+02  0.51100000000E-03 0. -1.
         23    2    1    2    0    0  0.00000000000E+00  0.00000000000E+00  0.00000000000E+00  0.91188000000E+02  0.91188000000E+02 0.  0.
    9900012    2    3    3    0    0 -0.46129419814E+01  0.35191607408E+02 -0.98006342458E+01  0.54367069847E+02  0.39999967331E+02 0.  0.
        -12    1    3    3    0    0  0.46129419814E+01 -0.35191607408E+02  0.98006342458E+01  0.36820930153E+02  0.00000000000E+00 0.  1.
         11    1    4    4    0    0 -0.82922871245E+01 -0.11145041390E+01  0.93408500571E+00  0.84188277266E+01  0.51100000000E-03 0. -1.
        -11    1    4    4    0    0  0.88792792315E+01  0.61435305392E+01 -0.10896782105E+02  0.15340287731E+02  0.51100000000E-03 0.  1.
         12    1    4    4    0    0 -0.51999340883E+01  0.30162581008E+02  0.16206285346E+00  0.30607954390E+02  0.00000000000E+00 0. -1.
</event>
<event>
 8    1  0.3007389E-007  0.9118800E+02  0.7816164E-02  0.1184000E+00
        -11   -1    0    0    0    0  0.00000000000E+00  0.00000000000E+00  0.45593999997E+02  0.45594000000E+02  0.51100000000E-03 0. -1.
         11   -1    0    0    0    0 -0.00000000000E+00 -0.00000000000E+00 -0.45593999997E+02  0.45594000000E+02  0.51100000000E-03 0.  1.
         23    2    1    2    0    0  0.35527136788E-14  0.17763568394E-14 -0.35527136788E-14  0.91188000000E+02  0.91188000000E+02 0.  0.
    9900012    2    3    3    0    0 -0.21549463713E+02 -0.89702532311E+01  0.28476826530E+02  0.54367157009E+02  0.40000166033E+02 0.  0.
        -12    1    3    3    0    0  0.21549463713E+02  0.89702532311E+01 -0.28476826530E+02  0.36820842991E+02  0.00000000000E+00 0.  1.
         11    1    4    4    0    0  0.28087525060E+01  0.57346381886E+01  0.17971890162E+02  0.19072598199E+02  0.51100000000E-03 0. -1.
        -11    1    4    4    0    0 -0.13516293024E+01  0.22621496830E+01  0.57369604434E+01  0.63132351730E+01  0.51100000000E-03 0.  1.
         12    1    4    4    0    0 -0.23006586917E+02 -0.16967041103E+02  0.47679759245E+01  0.28981323637E+02  0.00000000000E+00 0. -1.
</event>
<event>
 8    1  0.3007389E-007  0.9118800E+02  0.7816164E-02  0.1184000E+00
        -11   -1    0    0    0    0  0.00000000000E+00  0.00000000000E+00  0.45593999997E+02  0.45594000000E+02  0.51100000000E-03 0. -1.
         11   -1    0    0    0    0 -0.00000000000E+00 -0.00000000000E+00 -0.45593999997E+02  0.45594000000E+02  0.51100000000E-03 0.  1.
         23    2    1    2    0    0  0.35527136788E-14 -0.35527136788E-14  0.00000000000E+00  0.91188000000E+02  0.91188000000E+02 0.  0.
    9900012    2    3    3    0    0 -0.25071542713E+02 -0.21527248668E+02 -0.16241168453E+02  0.54367078747E+02  0.39999987619E+02 0.  0.
        -12    1    3    3    0    0  0.25071542713E+02  0.21527248668E+02  0.16241168453E+02  0.36820921253E+02  0.00000000000E+00 0.  1.
         11    1    4    4    0    0 -0.22791100777E+02 -0.26575797701E+02  0.65804651976E+00  0.35016286547E+02  0.51100000000E-03 0. -1.
        -11    1    4    4    0    0 -0.16571722456E+00 -0.20259521013E+01 -0.32820565772E+01  0.38605491517E+01  0.51100000000E-03 0.  1.
         12    1    4    4    0    0 -0.21147247114E+01  0.70745011345E+01 -0.13617158396E+02  0.15490243048E+02  0.00000000000E+00 0. -1.
</event>
<event>
 8    1  0.3007389E-007  0.9118800E+02  0.7816164E-02  0.1184000E+00
        -11   -1    0    0    0    0  0.00000000000E+00  0.00000000000E+00  0.45593999997E+02  0.45594000000E+02  0.51100000000E-03 0. -1.
         11   -1    0    0    0    0 -0.00000000000E+00 -0.00000000000E+00 -0.45593999997E+02  0.45594000000E+02  0.51100000000E-03 0.  1.
         23    2    1    2    0    0  0.00000000000E+00  0.19984014443E-14  0.00000000000E+00  0.91188000000E+02  0.91188000000E+02 0.  0.
    9900012    2    3    3    0    0  0.76840914918E+01 -0.28386304736E+00  0.36009058102E+02  0.54367107756E+02  0.40000053750E+02 0.  0.
        -12    1    3    3    0    0 -0.76840914918E+01  0.28386304736E+00 -0.36009058102E+02  0.36820892244E+02  0.00000000000E+00 0.  1.
         11    1    4    4    0    0  0.45808606748E+01  0.18281995676E+02  0.11955784553E+02  0.22319418338E+02  0.51100000000E-03 0. -1.
        -11    1    4    4    0    0 -0.31403585917E+01 -0.39427067424E+01  0.38766036903E+01  0.63588399079E+01  0.51100000000E-03 0.  1.
         12    1    4    4    0    0  0.62435894088E+01 -0.14623151980E+02  0.20176669858E+02  0.25688849510E+02  0.00000000000E+00 0. -1.
</event>
<event>
 8    1  0.3007389E-007  0.9118800E+02  0.7816164E-02  0.1184000E+00
        -11   -1    0    0    0    0  0.00000000000E+00  0.00000000000E+00  0.45593999997E+02  0.45594000000E+02  0.51100000000E-03 0. -1.
         11   -1    0    0    0    0 -0.00000000000E+00 -0.00000000000E+00 -0.45593999997E+02  0.45594000000E+02  0.51100000000E-03 0.  1.
         23    2    1    2    0    0  0.00000000000E+00  0.00000000000E+00  0.35527136788E-14  0.91188000000E+02  0.91188000000E+02 0.  0.
    9900012    2    3    3    0    0 -0.10163329466E+02 -0.23626252657E+02 -0.26349344933E+02  0.54367067653E+02  0.39999962330E+02 0.  0.
         12    1    3    3    0    0  0.10163329466E+02  0.23626252657E+02  0.26349344933E+02  0.36820932347E+02  0.00000000000E+00 0. -1.
         11    1    4    4    0    0  0.23522527772E+01 -0.22909151832E+02 -0.10994786774E+02  0.25519554605E+02  0.51100000000E-03 0. -1.
        -11    1    4    4    0    0 -0.10779593212E+02 -0.10101132950E+02 -0.10623481232E+02  0.18195902573E+02  0.51100000000E-03 0.  1.
         12    1    4    4    0    0 -0.17359890311E+01  0.93840321245E+01 -0.47310769274E+01  0.10651610476E+02  0.00000000000E+00 0. -1.
</event>
<event>
 8    1  0.3007389E-007  0.9118800E+02  0.7816164E-02  0.1184000E+00
        -11   -1    0    0    0    0  0.00000000000E+00  0.00000000000E+00  0.45593999997E+02  0.45594000000E+02  0.51100000000E-03 0.  1.
         11   -1    0    0    0    0 -0.00000000000E+00 -0.00000000000E+00 -0.45593999997E+02  0.45594000000E+02  0.51100000000E-03 0. -1.
         23    2    1    2    0    0 -0.35527136788E-14  0.35527136788E-14  0.11102230246E-14  0.91188000000E+02  0.91188000000E+02 0.  0.
    9900012    2    3    3    0    0 -0.20177060609E+02  0.30765594047E+02  0.14645364348E+01  0.54367076344E+02  0.39999982143E+02 0.  0.
        -12    1    3    3    0    0  0.20177060609E+02 -0.30765594047E+02 -0.14645364348E+01  0.36820923656E+02  0.00000000000E+00 0.  1.
         11    1    4    4    0    0 -0.24380738304E+02  0.10321906771E+02  0.30014175324E+01  0.26645274761E+02  0.51100000000E-03 0.  1.
        -11    1    4    4    0    0  0.59747213451E+00  0.14492631574E+02 -0.93514948092E+01  0.17258151649E+02  0.51100000000E-03 0. -1.
        -12    1    4    4    0    0  0.36062055598E+01  0.59510557007E+01  0.78146137116E+01  0.10463649935E+02  0.00000000000E+00 0.  1.
</event>
<event>
 8    1  0.3007389E-007  0.9118800E+02  0.7816164E-02  0.1184000E+00
        -11   -1    0    0    0    0  0.00000000000E+00  0.00000000000E+00  0.45593999997E+02  0.45594000000E+02  0.51100000000E-03 0.  1.
         11   -1    0    0    0    0 -0.00000000000E+00 -0.00000000000E+00 -0.45593999997E+02  0.45594000000E+02  0.51100000000E-03 0. -1.
         23    2    1    2    0    0  0.35527136788E-14 -0.17763568394E-14  0.00000000000E+00  0.91188000000E+02  0.91188000000E+02 0.  0.
    9900012    2    3    3    0    0 -0.12921801136E+02  0.65655219848E+01  0.33848200814E+02  0.54367085809E+02  0.40000003719E+02 0.  0.
         12    1    3    3    0    0  0.12921801136E+02 -0.65655219848E+01 -0.33848200814E+02  0.36820914191E+02  0.00000000000E+00 0. -1.
         11    1    4    4    0    0  0.79298921354E+01  0.18339398649E+01  0.72134109463E+01  0.10875652737E+02  0.51100000000E-03 0. -1.
        -11    1    4    4    0    0  0.49531728684E+01 -0.34959978110E+01  0.10035902755E+02  0.11724984713E+02  0.51100000000E-03 0.  1.
        -12    1    4    4    0    0 -0.25804866139E+02  0.82275799310E+01  0.16598887112E+02  0.31766448359E+02  0.00000000000E+00 0.  1.
</event>
<event>
 8    1  0.3007389E-007  0.9118800E+02  0.7816164E-02  0.1184000E+00
        -11   -1    0    0    0    0  0.00000000000E+00  0.00000000000E+00  0.45593999997E+02  0.45594000000E+02  0.51100000000E-03 0. -1.
         11   -1    0    0    0    0 -0.00000000000E+00 -0.00000000000E+00 -0.45593999997E+02  0.45594000000E+02  0.51100000000E-03 0.  1.
         23    2    1    2    0    0 -0.17763568394E-14  0.13322676296E-14  0.71054273576E-14  0.91188000000E+02  0.91188000000E+02 0.  0.
    9900012    2    3    3    0    0 -0.10742158021E+02  0.23344784643E+01 -0.35141648821E+02  0.54367092481E+02  0.40000018930E+02 0.  0.
         12    1    3    3    0    0  0.10742158021E+02 -0.23344784643E+01  0.35141648821E+02  0.36820907519E+02  0.00000000000E+00 0. -1.
         11    1    4    4    0    0 -0.10954010554E+02 -0.47828870724E+01 -0.25476190484E+01  0.12221158662E+02  0.51100000000E-03 0. -1.
        -11    1    4    4    0    0  0.10075544089E+02  0.12021817104E+02 -0.19898044970E+02  0.25337183526E+02  0.51100000000E-03 0.  1.
        -12    1    4    4    0    0 -0.98636915558E+01 -0.49044515674E+01 -0.12695984803E+02  0.16808750293E+02  0.00000000000E+00 0.  1.
</event>
<event>
 8    1  0.3007389E-007  0.9118800E+02  0.7816164E-02  0.1184000E+00
        -11   -1    0    0    0    0  0.00000000000E+00  0.00000000000E+00  0.45593999997E+02  0.45594000000E+02  0.51100000000E-03 0. -1.
         11   -1    0    0    0    0 -0.00000000000E+00 -0.00000000000E+00 -0.45593999997E+02  0.45594000000E+02  0.51100000000E-03 0.  1.
         23    2    1    2    0    0  0.35527136788E-14  0.00000000000E+00  0.00000000000E+00  0.91188000000E+02  0.91188000000E+02 0.  0.
    9900012    2    3    3    0    0 -0.26522081890E+02 -0.10440987909E+02 -0.23309764275E+02  0.54367079766E+02  0.39999989943E+02 0.  0.
         12    1    3    3    0    0  0.26522081890E+02  0.10440987909E+02  0.23309764275E+02  0.36820920234E+02  0.00000000000E+00 0. -1.
         11    1    4    4    0    0 -0.16362552772E+02  0.11999415949E+01 -0.29198194747E+02  0.33491903048E+02  0.51100000000E-03 0.  1.
        -11    1    4    4    0    0 -0.99335527347E+00 -0.71542021905E+00  0.64868009657E+01  0.66013004642E+01  0.51100000000E-03 0. -1.
        -12    1    4    4    0    0 -0.91661738438E+01 -0.10925509285E+02 -0.59837049430E+00  0.14273876254E+02  0.00000000000E+00 0.  1.
</event>
<event>
 8    1  0.3007389E-007  0.9118800E+02  0.7816164E-02  0.1184000E+00
        -11   -1    0    0    0    0  0.00000000000E+00  0.00000000000E+00  0.45593999997E+02  0.45594000000E+02  0.51100000000E-03 0. -1.
         11   -1    0    0    0    0 -0.00000000000E+00 -0.00000000000E+00 -0.45593999997E+02  0.45594000000E+02  0.51100000000E-03 0.  1.
         23    2    1    2    0    0  0.00000000000E+00  0.00000000000E+00  0.00000000000E+00  0.91188000000E+02  0.91188000000E+02 0.  0.
    9900012    2    3    3    0    0  0.29043856402E+02  0.18955796688E+02  0.12365747334E+02  0.54367088416E+02  0.40000009661E+02 0.  0.
         12    1    3    3    0    0 -0.29043856402E+02 -0.18955796688E+02 -0.12365747334E+02  0.36820911584E+02  0.00000000000E+00 0. -1.
         11    1    4    4    0    0  0.22719941864E+02  0.38731040724E+01  0.20211670870E+02  0.30654662501E+02  0.51100000000E-03 0. -1.
        -11    1    4    4    0    0  0.25060332548E+01  0.14536147299E+02 -0.11263525827E+02  0.18559277877E+02  0.51100000000E-03 0.  1.
        -12    1    4    4    0    0  0.38178812833E+01  0.54654531649E+00  0.34176022915E+01  0.51531480378E+01  0.00000000000E+00 0.  1.
</event>
<event>
 8    1  0.3007389E-007  0.9118800E+02  0.7816164E-02  0.1184000E+00
        -11   -1    0    0    0    0  0.00000000000E+00  0.00000000000E+00  0.45593999997E+02  0.45594000000E+02  0.51100000000E-03 0. -1.
         11   -1    0    0    0    0 -0.00000000000E+00 -0.00000000000E+00 -0.45593999997E+02  0.45594000000E+02  0.51100000000E-03 0.  1.
         23    2    1    2    0    0  0.00000000000E+00 -0.17763568394E-14 -0.71054273576E-14  0.91188000000E+02  0.91188000000E+02 0.  0.
    9900012    2    3    3    0    0  0.13170040453E+02  0.11317134552E+02  0.32469193208E+02  0.54367136247E+02  0.40000118701E+02 0.  0.
        -12    1    3    3    0    0 -0.13170040453E+02 -0.11317134552E+02 -0.32469193208E+02  0.36820863753E+02  0.00000000000E+00 0.  1.
         11    1    4    4    0    0  0.16650310553E+01 -0.11293101740E+02  0.17622021334E+02  0.20996240413E+02  0.51100000000E-03 0. -1.
        -11    1    4    4    0    0  0.28025018537E+01  0.60219421542E+01 -0.31880030119E+01  0.73675754094E+01  0.51100000000E-03 0.  1.
         12    1    4    4    0    0  0.87025075436E+01  0.16588294137E+02  0.18035174885E+02  0.26003320424E+02  0.00000000000E+00 0. -1.
</event>
<event>
 8    1  0.3007389E-007  0.9118800E+02  0.7816164E-02  0.1184000E+00
        -11   -1    0    0    0    0  0.00000000000E+00  0.00000000000E+00  0.45593999997E+02  0.45594000000E+02  0.51100000000E-03 0.  1.
         11   -1    0    0    0    0 -0.00000000000E+00 -0.00000000000E+00 -0.45593999997E+02  0.45594000000E+02  0.51100000000E-03 0. -1.
         23    2    1    2    0    0  0.88817841970E-15  0.00000000000E+00  0.00000000000E+00  0.91188000000E+02  0.91188000000E+02 0.  0.
    9900012    2    3    3    0    0 -0.63359095948E+01 -0.32979975156E+02 -0.15098245723E+02  0.54367088339E+02  0.40000009486E+02 0.  0.
         12    1    3    3    0    0  0.63359095948E+01  0.32979975156E+02  0.15098245723E+02  0.36820911661E+02  0.00000000000E+00 0. -1.
         11    1    4    4    0    0 -0.24039312079E+01 -0.17151588601E+02 -0.19921415386E+02  0.26397323122E+02  0.51100000000E-03 0. -1.
        -11    1    4    4    0    0  0.54479953363E+01  0.96978551762E+00 -0.39755569117E+01  0.68136766987E+01  0.51100000000E-03 0.  1.
        -12    1    4    4    0    0 -0.93799737232E+01 -0.16798172072E+02  0.87987265751E+01  0.21156088518E+02  0.00000000000E+00 0.  1.
</event>
<event>
 8    1  0.3007389E-007  0.9118800E+02  0.7816164E-02  0.1184000E+00
        -11   -1    0    0    0    0  0.00000000000E+00  0.00000000000E+00  0.45593999997E+02  0.45594000000E+02  0.51100000000E-03 0. -1.
         11   -1    0    0    0    0 -0.00000000000E+00 -0.00000000000E+00 -0.45593999997E+02  0.45594000000E+02  0.51100000000E-03 0.  1.
         23    2    1    2    0    0  0.00000000000E+00  0.00000000000E+00  0.00000000000E+00  0.91188000000E+02  0.91188000000E+02 0.  0.
    9900012    2    3    3    0    0 -0.26409983350E+02 -0.23288101236E+02 -0.10768238038E+02  0.54367111497E+02  0.40000062279E+02 0.  0.
         12    1    3    3    0    0  0.26409983350E+02  0.23288101236E+02  0.10768238038E+02  0.36820888503E+02  0.00000000000E+00 0. -1.
         11    1    4    4    0    0 -0.76289485730E+01 -0.23011015017E+01 -0.35986036543E+01  0.87433330586E+01  0.51100000000E-03 0. -1.
        -11    1    4    4    0    0 -0.87191771102E+01  0.93164308217E+01 -0.47001344192E+01  0.13598205637E+02  0.51100000000E-03 0.  1.
         12    1    4    4    0    0 -0.10061857667E+02 -0.30303430556E+02 -0.24694999646E+01  0.32025572801E+02  0.00000000000E+00 0. -1.
</event>
<event>
 8    1  0.3007389E-007  0.9118800E+02  0.7816164E-02  0.1184000E+00
        -11   -1    0    0    0    0  0.00000000000E+00  0.00000000000E+00  0.45593999997E+02  0.45594000000E+02  0.51100000000E-03 0.  1.
         11   -1    0    0    0    0 -0.00000000000E+00 -0.00000000000E+00 -0.45593999997E+02  0.45594000000E+02  0.51100000000E-03 0. -1.
         23    2    1    2    0    0  0.35527136788E-14  0.00000000000E+00 -0.35527136788E-14  0.91188000000E+02  0.91188000000E+02 0.  0.
    9900012    2    3    3    0    0  0.16993607746E+02  0.17435832523E+02 -0.27622251403E+02  0.54367085663E+02  0.40000003387E+02 0.  0.
        -12    1    3    3    0    0 -0.16993607746E+02 -0.17435832523E+02  0.27622251403E+02  0.36820914337E+02  0.00000000000E+00 0.  1.
         11    1    4    4    0    0  0.31869766560E+01  0.23358638852E+02 -0.29704160160E+01  0.23761443576E+02  0.51100000000E-03 0.  1.
        -11    1    4    4    0    0  0.11698256194E+02 -0.11161864820E+01 -0.21448163305E+02  0.24456467031E+02  0.51100000000E-03 0. -1.
        -12    1    4    4    0    0  0.21083748966E+01 -0.48066198473E+01 -0.32036720822E+01  0.61491750562E+01  0.00000000000E+00 0.  1.
</event>
<event>
 8    1  0.3007389E-007  0.9118800E+02  0.7816164E-02  0.1184000E+00
        -11   -1    0    0    0    0  0.00000000000E+00  0.00000000000E+00  0.45593999997E+02  0.45594000000E+02  0.51100000000E-03 0.  1.
         11   -1    0    0    0    0 -0.00000000000E+00 -0.00000000000E+00 -0.45593999997E+02  0.45594000000E+02  0.51100000000E-03 0. -1.
         23    2    1    2    0    0  0.00000000000E+00  0.00000000000E+00 -0.88817841970E-15  0.91188000000E+02  0.91188000000E+02 0.  0.
    9900012    2    3    3    0    0  0.19799476656E+02  0.30637850011E+02  0.50082528316E+01  0.54367085759E+02  0.40000003604E+02 0.  0.
         12    1    3    3    0    0 -0.19799476656E+02 -0.30637850011E+02 -0.50082528316E+01  0.36820914241E+02  0.00000000000E+00 0. -1.
         11    1    4    4    0    0  0.19317923479E+01  0.11982264340E+02  0.10907315155E+02  0.16317965699E+02  0.51100000000E-03 0. -1.
        -11    1    4    4    0    0 -0.51690972354E+01  0.36654778802E+01 -0.83198237378E+01  0.10458238934E+02  0.51100000000E-03 0.  1.
         12    1    4    4    0    0  0.23036781544E+02  0.14990107790E+02  0.24207614142E+01  0.27590881126E+02  0.00000000000E+00 0. -1.
</event>
<event>
 8    1  0.3007389E-007  0.9118800E+02  0.7816164E-02  0.1184000E+00
        -11   -1    0    0    0    0  0.00000000000E+00  0.00000000000E+00  0.45593999997E+02  0.45594000000E+02  0.51100000000E-03 0. -1.
         11   -1    0    0    0    0 -0.00000000000E+00 -0.00000000000E+00 -0.45593999997E+02  0.45594000000E+02  0.51100000000E-03 0.  1.
         23    2    1    2    0    0  0.00000000000E+00  0.00000000000E+00  0.00000000000E+00  0.91188000000E+02  0.91188000000E+02 0.  0.
    9900012    2    3    3    0    0 -0.13155110406E+02  0.26739408638E+02 -0.21627014369E+02  0.54367073143E+02  0.39999974844E+02 0.  0.
         12    1    3    3    0    0  0.13155110406E+02 -0.26739408638E+02  0.21627014369E+02  0.36820926857E+02  0.00000000000E+00 0. -1.
         11    1    4    4    0    0  0.46721254582E+01  0.24401277824E+02 -0.10002381159E+02  0.26782433513E+02  0.51100000000E-03 0. -1.
        -11    1    4    4    0    0 -0.72046844873E+01  0.77578547378E+01  0.47239848390E+00  0.10597874753E+02  0.51100000000E-03 0.  1.
         12    1    4    4    0    0 -0.10622551377E+02 -0.54197239244E+01 -0.12097031694E+02  0.16986764877E+02  0.00000000000E+00 0. -1.
</event>
<event>
 8    1  0.3007389E-007  0.9118800E+02  0.7816164E-02  0.1184000E+00
        -11   -1    0    0    0    0  0.00000000000E+00  0.00000000000E+00  0.45593999997E+02  0.45594000000E+02  0.51100000000E-03 0.  1.
         11   -1    0    0    0    0 -0.00000000000E+00 -0.00000000000E+00 -0.45593999997E+02  0.45594000000E+02  0.51100000000E-03 0. -1.
         23    2    1    2    0    0  0.17763568394E-14  0.00000000000E+00  0.17763568394E-14  0.91188000000E+02  0.91188000000E+02 0.  0.
    9900012    2    3    3    0    0 -0.12689958268E+02 -0.32377816118E+02 -0.12100357062E+02  0.54367127407E+02  0.40000098551E+02 0.  0.
        -12    1    3    3    0    0  0.12689958268E+02  0.32377816118E+02  0.12100357062E+02  0.36820872593E+02  0.00000000000E+00 0.  1.
         11    1    4    4    0    0 -0.13604310138E+02 -0.20435911907E+02 -0.44450333883E+01  0.24949189804E+02  0.51100000000E-03 0.  1.
        -11    1    4    4    0    0 -0.36961241275E+01 -0.81204967496E+01 -0.16487686482E+02  0.18746935931E+02  0.51100000000E-03 0. -1.
        -12    1    4    4    0    0  0.46104759972E+01 -0.38214074622E+01  0.88323628083E+01  0.10671001672E+02  0.00000000000E+00 0.  1.
</event>
<event>
 8    1  0.3007389E-007  0.9118800E+02  0.7816164E-02  0.1184000E+00
        -11   -1    0    0    0    0  0.00000000000E+00  0.00000000000E+00  0.45593999997E+02  0.45594000000E+02  0.51100000000E-03 0. -1.
         11   -1    0    0    0    0 -0.00000000000E+00 -0.00000000000E+00 -0.45593999997E+02  0.45594000000E+02  0.51100000000E-03 0.  1.
         23    2    1    2    0    0  0.00000000000E+00 -0.35527136788E-14  0.35527136788E-14  0.91188000000E+02  0.91188000000E+02 0.  0.
    9900012    2    3    3    0    0  0.92441959917E+01  0.22810402757E+02 -0.27386318426E+02  0.54367081076E+02  0.39999992930E+02 0.  0.
         12    1    3    3    0    0 -0.92441959917E+01 -0.22810402757E+02  0.27386318426E+02  0.36820918924E+02  0.00000000000E+00 0. -1.
         11    1    4    4    0    0  0.13745409080E+01  0.10368833804E+02  0.21528517069E+01  0.10678803673E+02  0.51100000000E-03 0. -1.
        -11    1    4    4    0    0  0.13925512976E+02 -0.40110913663E+01 -0.11182129951E+02  0.18304338177E+02  0.51100000000E-03 0.  1.
         12    1    4    4    0    0 -0.60558578923E+01  0.16452660319E+02 -0.18357040183E+02  0.25383939227E+02  0.00000000000E+00 0. -1.
</event>
<event>
 8    1  0.3007389E-007  0.9118800E+02  0.7816164E-02  0.1184000E+00
        -11   -1    0    0    0    0  0.00000000000E+00  0.00000000000E+00  0.45593999997E+02  0.45594000000E+02  0.51100000000E-03 0. -1.
         11   -1    0    0    0    0 -0.00000000000E+00 -0.00000000000E+00 -0.45593999997E+02  0.45594000000E+02  0.51100000000E-03 0.  1.
         23    2    1    2    0    0  0.88817841970E-15  0.17763568394E-14  0.00000000000E+00  0.91188000000E+02  0.91188000000E+02 0.  0.
    9900012    2    3    3    0    0 -0.58276322007E+01  0.14027393903E+02  0.33541940846E+02  0.54366934392E+02  0.39999658532E+02 0.  0.
        -12    1    3    3    0    0  0.58276322007E+01 -0.14027393903E+02 -0.33541940846E+02  0.36821065608E+02  0.00000000000E+00 0.  1.
         11    1    4    4    0    0 -0.22038138784E+01  0.43834023094E+01 -0.94533386457E-01  0.49071323845E+01  0.51100000000E-03 0. -1.
        -11    1    4    4    0    0  0.36493213587E+01  0.16239484477E+02  0.25238370272E+01  0.16834730650E+02  0.51100000000E-03 0.  1.
         12    1    4    4    0    0 -0.72731396810E+01 -0.65954928830E+01  0.31112637205E+02  0.32625071357E+02  0.00000000000E+00 0. -1.
</event>
<event>
 8    1  0.3007389E-007  0.9118800E+02  0.7816164E-02  0.1184000E+00
        -11   -1    0    0    0    0  0.00000000000E+00  0.00000000000E+00  0.45593999997E+02  0.45594000000E+02  0.51100000000E-03 0. -1.
         11   -1    0    0    0    0 -0.00000000000E+00 -0.00000000000E+00 -0.45593999997E+02  0.45594000000E+02  0.51100000000E-03 0.  1.
         23    2    1    2    0    0  0.17763568394E-14  0.71054273576E-14  0.44408920985E-15  0.91188000000E+02  0.91188000000E+02 0.  0.
    9900012    2    3    3    0    0  0.15059068712E+02  0.33596240686E+02 -0.54587884134E+00  0.54367069506E+02  0.39999966554E+02 0.  0.
        -12    1    3    3    0    0 -0.15059068712E+02 -0.33596240686E+02  0.54587884134E+00  0.36820930494E+02  0.00000000000E+00 0.  1.
         11    1    4    4    0    0  0.15000953431E+02  0.31570128941E+02  0.13494105529E+02  0.37467219399E+02  0.51100000000E-03 0. -1.
        -11    1    4    4    0    0 -0.44504363793E+01  0.36677745885E+00 -0.82060829157E+01  0.93424143962E+01  0.51100000000E-03 0.  1.
        -12    1    4    4    0    0  0.45085516595E+01  0.16593342867E+01 -0.58339014551E+01  0.75574357112E+01  0.00000000000E+00 0.  1.
</event>
<event>
 8    1  0.3007389E-007  0.9118800E+02  0.7816164E-02  0.1184000E+00
        -11   -1    0    0    0    0  0.00000000000E+00  0.00000000000E+00  0.45593999997E+02  0.45594000000E+02  0.51100000000E-03 0. -1.
         11   -1    0    0    0    0 -0.00000000000E+00 -0.00000000000E+00 -0.45593999997E+02  0.45594000000E+02  0.51100000000E-03 0.  1.
         23    2    1    2    0    0  0.71054273576E-14  0.00000000000E+00  0.17763568394E-14  0.91188000000E+02  0.91188000000E+02 0.  0.
    9900012    2    3    3    0    0 -0.35944997217E+02 -0.62571798265E+01  0.49586155595E+01  0.54367041395E+02  0.39999902469E+02 0.  0.
        -12    1    3    3    0    0  0.35944997217E+02  0.62571798265E+01 -0.49586155595E+01  0.36820958605E+02  0.00000000000E+00 0.  1.
         11    1    4    4    0    0  0.22515077004E+01 -0.73772474394E+01  0.59285736822E+01  0.97283633193E+01  0.51100000000E-03 0.  1.
        -11    1    4    4    0    0 -0.18961944670E+02  0.65848168431E+01  0.93423428859E+01  0.22140337156E+02  0.51100000000E-03 0. -1.
        -12    1    4    4    0    0 -0.19234560248E+02 -0.54647492302E+01 -0.10312301009E+02  0.22498340920E+02  0.00000000000E+00 0.  1.
</event>
<event>
 8    1  0.3007389E-007  0.9118800E+02  0.7816164E-02  0.1184000E+00
        -11   -1    0    0    0    0  0.00000000000E+00  0.00000000000E+00  0.45593999997E+02  0.45594000000E+02  0.51100000000E-03 0.  1.
         11   -1    0    0    0    0 -0.00000000000E+00 -0.00000000000E+00 -0.45593999997E+02  0.45594000000E+02  0.51100000000E-03 0. -1.
         23    2    1    2    0    0 -0.35527136788E-14  0.17763568394E-14  0.00000000000E+00  0.91188000000E+02  0.91188000000E+02 0.  0.
    9900012    2    3    3    0    0  0.18876545286E+02  0.15044293625E+01  0.31578364490E+02  0.54367076960E+02  0.39999983546E+02 0.  0.
        -12    1    3    3    0    0 -0.18876545286E+02 -0.15044293625E+01 -0.31578364490E+02  0.36820923040E+02  0.00000000000E+00 0.  1.
         11    1    4    4    0    0  0.10956211602E+01 -0.33433764655E+01  0.57480571586E+01  0.67393407153E+01  0.51100000000E-03 0. -1.
        -11    1    4    4    0    0  0.69359418049E+01  0.17279192036E+02  0.24917261229E+02  0.31105428361E+02  0.51100000000E-03 0.  1.
         12    1    4    4    0    0  0.10844982321E+02 -0.12431386208E+02  0.91304610272E+00  0.16522307883E+02  0.00000000000E+00 0. -1.
</event>
<event>
 8    1  0.3007389E-007  0.9118800E+02  0.7816164E-02  0.1184000E+00
        -11   -1    0    0    0    0  0.00000000000E+00  0.00000000000E+00  0.45593999997E+02  0.45594000000E+02  0.51100000000E-03 0.  1.
         11   -1    0    0    0    0 -0.00000000000E+00 -0.00000000000E+00 -0.45593999997E+02  0.45594000000E+02  0.51100000000E-03 0. -1.
         23    2    1    2    0    0  0.00000000000E+00  0.00000000000E+00  0.35527136788E-14  0.91188000000E+02  0.91188000000E+02 0.  0.
    9900012    2    3    3    0    0 -0.11571289371E+02 -0.21928067294E+02  0.27222153309E+02  0.54367075192E+02  0.39999979515E+02 0.  0.
         12    1    3    3    0    0  0.11571289371E+02  0.21928067294E+02 -0.27222153309E+02  0.36820924808E+02  0.00000000000E+00 0. -1.
         11    1    4    4    0    0 -0.74803692891E+01 -0.57276276010E+01  0.25283069919E+02  0.26981387426E+02  0.51100000000E-03 0.  1.
        -11    1    4    4    0    0  0.86282023097E+01 -0.87055926191E+01 -0.11232635909E+01  0.12308328047E+02  0.51100000000E-03 0. -1.
         12    1    4    4    0    0 -0.12719122392E+02 -0.74948470738E+01  0.30623469806E+01  0.15077359719E+02  0.00000000000E+00 0. -1.
</event>
<event>
 8    1  0.3007389E-007  0.9118800E+02  0.7816164E-02  0.1184000E+00
        -11   -1    0    0    0    0  0.00000000000E+00  0.00000000000E+00  0.45593999997E+02  0.45594000000E+02  0.51100000000E-03 0.  1.
         11   -1    0    0    0    0 -0.00000000000E+00 -0.00000000000E+00 -0.45593999997E+02  0.45594000000E+02  0.51100000000E-03 0. -1.
         23    2    1    2    0    0  0.00000000000E+00 -0.17763568394E-14  0.00000000000E+00  0.91188000000E+02  0.91188000000E+02 0.  0.
    9900012    2    3    3    0    0 -0.19410445600E+02 -0.11827969718E+02  0.28967460567E+02  0.54367081519E+02  0.39999993940E+02 0.  0.
         12    1    3    3    0    0  0.19410445600E+02  0.11827969718E+02 -0.28967460567E+02  0.36820918481E+02  0.00000000000E+00 0. -1.
         11    1    4    4    0    0  0.71028116107E+00 -0.54781371535E+01 -0.18764798811E+01  0.58340091709E+01  0.51100000000E-03 0. -1.
        -11    1    4    4    0    0  0.63498437280E+01 -0.91375120793E+00  0.17000289623E+02  0.18170451403E+02  0.51100000000E-03 0.  1.
        -12    1    4    4    0    0 -0.26470570489E+02 -0.54360813562E+01  0.13843650825E+02  0.30362620946E+02  0.00000000000E+00 0.  1.
</event>
<event>
 8    1  0.3007389E-007  0.9118800E+02  0.7816164E-02  0.1184000E+00
        -11   -1    0    0    0    0  0.00000000000E+00  0.00000000000E+00  0.45593999997E+02  0.45594000000E+02  0.51100000000E-03 0.  1.
         11   -1    0    0    0    0 -0.00000000000E+00 -0.00000000000E+00 -0.45593999997E+02  0.45594000000E+02  0.51100000000E-03 0. -1.
         23    2    1    2    0    0  0.35527136788E-14 -0.88817841970E-15  0.35527136788E-14  0.91188000000E+02  0.91188000000E+02 0.  0.
    9900012    2    3    3    0    0 -0.28272614252E+02  0.58910767031E+01 -0.22841604983E+02  0.54367022018E+02  0.39999858294E+02 0.  0.
        -12    1    3    3    0    0  0.28272614252E+02 -0.58910767031E+01  0.22841604983E+02  0.36820977982E+02  0.00000000000E+00 0.  1.
         11    1    4    4    0    0 -0.75731187910E+00  0.16718907106E+02 -0.14790441333E+02  0.22335006855E+02  0.51100000000E-03 0. -1.
        -11    1    4    4    0    0 -0.13107948545E+02 -0.22901049654E+00 -0.37605894129E+01  0.13638650735E+02  0.51100000000E-03 0.  1.
        -12    1    4    4    0    0 -0.14407353827E+02 -0.10598819907E+02 -0.42905742377E+01  0.18393364429E+02  0.00000000000E+00 0.  1.
</event>
<event>
 8    1  0.3007389E-007  0.9118800E+02  0.7816164E-02  0.1184000E+00
        -11   -1    0    0    0    0  0.00000000000E+00  0.00000000000E+00  0.45593999997E+02  0.45594000000E+02  0.51100000000E-03 0. -1.
         11   -1    0    0    0    0 -0.00000000000E+00 -0.00000000000E+00 -0.45593999997E+02  0.45594000000E+02  0.51100000000E-03 0.  1.
         23    2    1    2    0    0  0.00000000000E+00  0.00000000000E+00 -0.35527136788E-14  0.91188000000E+02  0.91188000000E+02 0.  0.
    9900012    2    3    3    0    0 -0.31659971074E+02 -0.79804109812E+01  0.17021707813E+02  0.54367092017E+02  0.40000017870E+02 0.  0.
        -12    1    3    3    0    0  0.31659971074E+02  0.79804109812E+01 -0.17021707813E+02  0.36820907983E+02  0.00000000000E+00 0.  1.
         11    1    4    4    0    0 -0.49375783693E+01 -0.23309174022E+01  0.19006077225E+02  0.19774828137E+02  0.51100000000E-03 0. -1.
        -11    1    4    4    0    0 -0.26289487868E+01 -0.32466514452E+01  0.75024397152E+01  0.85871252041E+01  0.51100000000E-03 0.  1.
        -12    1    4    4    0    0 -0.24093443918E+02 -0.24028421337E+01 -0.94868091267E+01  0.26005138676E+02  0.00000000000E+00 0.  1.
</event>
<event>
 8    1  0.3007389E-007  0.9118800E+02  0.7816164E-02  0.1184000E+00
        -11   -1    0    0    0    0  0.00000000000E+00  0.00000000000E+00  0.45593999997E+02  0.45594000000E+02  0.51100000000E-03 0.  1.
         11   -1    0    0    0    0 -0.00000000000E+00 -0.00000000000E+00 -0.45593999997E+02  0.45594000000E+02  0.51100000000E-03 0. -1.
         23    2    1    2    0    0  0.17763568394E-14  0.35527136788E-14  0.00000000000E+00  0.91188000000E+02  0.91188000000E+02 0.  0.
    9900012    2    3    3    0    0  0.92285505312E+01 -0.17932399101E+02  0.30806443336E+02  0.54367163054E+02  0.40000179814E+02 0.  0.
         12    1    3    3    0    0 -0.92285505312E+01  0.17932399101E+02 -0.30806443336E+02  0.36820836946E+02  0.00000000000E+00 0. -1.
         11    1    4    4    0    0  0.29639180754E+01 -0.27719705320E+02  0.16668142727E+02  0.32480668953E+02  0.51100000000E-03 0. -1.
        -11    1    4    4    0    0  0.83460877179E+01  0.32876584903E+01  0.43907385498E+01  0.99872150181E+01  0.51100000000E-03 0.  1.
         12    1    4    4    0    0 -0.20814552621E+01  0.64996477289E+01  0.97475620587E+01  0.11899279083E+02  0.00000000000E+00 0. -1.
</event>
<event>
 8    1  0.3007389E-007  0.9118800E+02  0.7816164E-02  0.1184000E+00
        -11   -1    0    0    0    0  0.00000000000E+00  0.00000000000E+00  0.45593999997E+02  0.45594000000E+02  0.51100000000E-03 0.  1.
         11   -1    0    0    0    0 -0.00000000000E+00 -0.00000000000E+00 -0.45593999997E+02  0.45594000000E+02  0.51100000000E-03 0. -1.
         23    2    1    2    0    0 -0.88817841970E-15 -0.88817841970E-15  0.00000000000E+00  0.91188000000E+02  0.91188000000E+02 0.  0.
    9900012    2    3    3    0    0  0.54040319760E+01  0.55753079935E+01  0.35992957725E+02  0.54367073523E+02  0.39999975711E+02 0.  0.
         12    1    3    3    0    0 -0.54040319760E+01 -0.55753079935E+01 -0.35992957725E+02  0.36820926477E+02  0.00000000000E+00 0. -1.
         11    1    4    4    0    0  0.78249336623E+01  0.13751445122E+02  0.24756998244E+02  0.29380959687E+02  0.51100000000E-03 0. -1.
        -11    1    4    4    0    0 -0.93705876832E+01 -0.11313902487E+02  0.72597759284E+01  0.16386477651E+02  0.51100000000E-03 0.  1.
         12    1    4    4    0    0  0.69496859970E+01  0.31377653577E+01  0.39761835519E+01  0.85996361862E+01  0.00000000000E+00 0. -1.
</event>
<event>
 8    1  0.3007389E-007  0.9118800E+02  0.7816164E-02  0.1184000E+00
        -11   -1    0    0    0    0  0.00000000000E+00  0.00000000000E+00  0.45593999997E+02  0.45594000000E+02  0.51100000000E-03 0.  1.
         11   -1    0    0    0    0 -0.00000000000E+00 -0.00000000000E+00 -0.45593999997E+02  0.45594000000E+02  0.51100000000E-03 0. -1.
         23    2    1    2    0    0  0.00000000000E+00 -0.88817841970E-15  0.00000000000E+00  0.91188000000E+02  0.91188000000E+02 0.  0.
    9900012    2    3    3    0    0 -0.23048703513E+02 -0.71234369613E+01  0.27817159622E+02  0.54367075824E+02  0.39999980955E+02 0.  0.
         12    1    3    3    0    0  0.23048703513E+02  0.71234369613E+01 -0.27817159622E+02  0.36820924176E+02  0.00000000000E+00 0. -1.
         11    1    4    4    0    0  0.99983252326E+01 -0.40241014625E+01  0.79349367422E+01  0.13383688632E+02  0.51100000000E-03 0. -1.
        -11    1    4    4    0    0 -0.22655352364E+01 -0.99671776173E+00 -0.19800306712E+01  0.31696400307E+01  0.51100000000E-03 0.  1.
        -12    1    4    4    0    0 -0.30781493509E+02 -0.21026177371E+01  0.21862253551E+02  0.37813747161E+02  0.00000000000E+00 0.  1.
</event>
<event>
 8    1  0.3007389E-007  0.9118800E+02  0.7816164E-02  0.1184000E+00
        -11   -1    0    0    0    0  0.00000000000E+00  0.00000000000E+00  0.45593999997E+02  0.45594000000E+02  0.51100000000E-03 0. -1.
         11   -1    0    0    0    0 -0.00000000000E+00 -0.00000000000E+00 -0.45593999997E+02  0.45594000000E+02  0.51100000000E-03 0.  1.
         23    2    1    2    0    0  0.00000000000E+00  0.35527136788E-14  0.00000000000E+00  0.91188000000E+02  0.91188000000E+02 0.  0.
    9900012    2    3    3    0    0 -0.51408901233E+01 -0.30306142181E+02  0.20270383931E+02  0.54367089231E+02  0.40000011519E+02 0.  0.
        -12    1    3    3    0    0  0.51408901233E+01  0.30306142181E+02 -0.20270383931E+02  0.36820910769E+02  0.00000000000E+00 0.  1.
         11    1    4    4    0    0 -0.79846574894E+01 -0.18447287156E+02 -0.84304275683E+01  0.21797460124E+02  0.51100000000E-03 0. -1.
        -11    1    4    4    0    0  0.37666517287E+01 -0.51410036420E+00  0.97286251660E+01  0.10445004180E+02  0.51100000000E-03 0.  1.
        -12    1    4    4    0    0 -0.92288436256E+00 -0.11344754662E+02  0.18972186334E+02  0.22124624927E+02  0.00000000000E+00 0.  1.
</event>
<event>
 8    1  0.3007389E-007  0.9118800E+02  0.7816164E-02  0.1184000E+00
        -11   -1    0    0    0    0  0.00000000000E+00  0.00000000000E+00  0.45593999997E+02  0.45594000000E+02  0.51100000000E-03 0.  1.
         11   -1    0    0    0    0 -0.00000000000E+00 -0.00000000000E+00 -0.45593999997E+02  0.45594000000E+02  0.51100000000E-03 0. -1.
         23    2    1    2    0    0  0.00000000000E+00  0.00000000000E+00  0.00000000000E+00  0.91188000000E+02  0.91188000000E+02 0.  0.
    9900012    2    3    3    0    0  0.52024123440E+01 -0.15955204635E+02  0.32774213519E+02  0.54367045084E+02  0.39999910877E+02 0.  0.
         12    1    3    3    0    0 -0.52024123440E+01  0.15955204635E+02 -0.32774213519E+02  0.36820954916E+02  0.00000000000E+00 0. -1.
         11    1    4    4    0    0  0.12349933043E+02 -0.49925984294E+01  0.68637663828E+01  0.14985265245E+02  0.51100000000E-03 0. -1.
        -11    1    4    4    0    0  0.80970269032E+01 -0.58799978904E+01  0.19808712285E+02  0.22192820968E+02  0.51100000000E-03 0.  1.
         12    1    4    4    0    0 -0.15244547602E+02 -0.50826083149E+01  0.61017348515E+01  0.17188958871E+02  0.00000000000E+00 0. -1.
</event>
<event>
 8    1  0.3007389E-007  0.9118800E+02  0.7816164E-02  0.1184000E+00
        -11   -1    0    0    0    0  0.00000000000E+00  0.00000000000E+00  0.45593999997E+02  0.45594000000E+02  0.51100000000E-03 0. -1.
         11   -1    0    0    0    0 -0.00000000000E+00 -0.00000000000E+00 -0.45593999997E+02  0.45594000000E+02  0.51100000000E-03 0.  1.
         23    2    1    2    0    0 -0.17763568394E-14  0.17763568394E-14  0.00000000000E+00  0.91188000000E+02  0.91188000000E+02 0.  0.
    9900012    2    3    3    0    0 -0.15701392530E+02  0.15319516972E+02 -0.29572948107E+02  0.54367074056E+02  0.39999976925E+02 0.  0.
         12    1    3    3    0    0  0.15701392530E+02 -0.15319516972E+02  0.29572948107E+02  0.36820925944E+02  0.00000000000E+00 0. -1.
         11    1    4    4    0    0 -0.20799431000E+02  0.12602148108E+02 -0.12026082052E+02  0.27130372586E+02  0.51100000000E-03 0. -1.
        -11    1    4    4    0    0  0.64624192294E+01  0.10193762219E+02 -0.14931028707E+02  0.19199251782E+02  0.51100000000E-03 0.  1.
         12    1    4    4    0    0 -0.13643807585E+01 -0.74763933548E+01 -0.26158373480E+01  0.80374496876E+01  0.00000000000E+00 0. -1.
</event>
<event>
 8    1  0.3007389E-007  0.9118800E+02  0.7816164E-02  0.1184000E+00
        -11   -1    0    0    0    0  0.00000000000E+00  0.00000000000E+00  0.45593999997E+02  0.45594000000E+02  0.51100000000E-03 0. -1.
         11   -1    0    0    0    0 -0.00000000000E+00 -0.00000000000E+00 -0.45593999997E+02  0.45594000000E+02  0.51100000000E-03 0.  1.
         23    2    1    2    0    0  0.22204460493E-15  0.00000000000E+00  0.00000000000E+00  0.91188000000E+02  0.91188000000E+02 0.  0.
    9900012    2    3    3    0    0 -0.12976420282E+01  0.21893459463E+02 -0.29576500939E+02  0.54367124808E+02  0.40000092626E+02 0.  0.
         12    1    3    3    0    0  0.12976420282E+01 -0.21893459463E+02  0.29576500939E+02  0.36820875192E+02  0.00000000000E+00 0. -1.
         11    1    4    4    0    0  0.12759821458E+01  0.75498451638E+01  0.11818856805E+01  0.77475897192E+01  0.51100000000E-03 0. -1.
        -11    1    4    4    0    0  0.68268697447E+01  0.12429962406E+02  0.22690112517E+00  0.14183144937E+02  0.51100000000E-03 0.  1.
        -12    1    4    4    0    0 -0.94004939186E+01  0.19136518929E+01 -0.30985287745E+02  0.32436390152E+02  0.00000000000E+00 0.  1.
</event>
<event>
 8    1  0.3007389E-007  0.9118800E+02  0.7816164E-02  0.1184000E+00
        -11   -1    0    0    0    0  0.00000000000E+00  0.00000000000E+00  0.45593999997E+02  0.45594000000E+02  0.51100000000E-03 0.  1.
         11   -1    0    0    0    0 -0.00000000000E+00 -0.00000000000E+00 -0.45593999997E+02  0.45594000000E+02  0.51100000000E-03 0. -1.
         23    2    1    2    0    0  0.35527136788E-14 -0.35527136788E-14 -0.80491169285E-15  0.91188000000E+02  0.91188000000E+02 0.  0.
    9900012    2    3    3    0    0 -0.25800451093E+02  0.26269120483E+02 -0.22261529441E+00  0.54367088481E+02  0.40000009811E+02 0.  0.
        -12    1    3    3    0    0  0.25800451093E+02 -0.26269120483E+02  0.22261529441E+00  0.36820911519E+02  0.00000000000E+00 0.  1.
         11    1    4    4    0    0 -0.12449147904E+02  0.14664137634E+02 -0.10749091262E+02  0.22035452783E+02  0.51100000000E-03 0. -1.
        -11    1    4    4    0    0 -0.13274556864E+02  0.59764294663E+01 -0.53321114863E+01  0.15503644161E+02  0.51100000000E-03 0.  1.
         12    1    4    4    0    0 -0.76746324452E-01  0.56285533819E+01  0.15858587454E+02  0.16827991538E+02  0.00000000000E+00 0. -1.
</event>
<event>
 8    1  0.3007389E-007  0.9118800E+02  0.7816164E-02  0.1184000E+00
        -11   -1    0    0    0    0  0.00000000000E+00  0.00000000000E+00  0.45593999997E+02  0.45594000000E+02  0.51100000000E-03 0. -1.
         11   -1    0    0    0    0 -0.00000000000E+00 -0.00000000000E+00 -0.45593999997E+02  0.45594000000E+02  0.51100000000E-03 0.  1.
         23    2    1    2    0    0  0.00000000000E+00  0.35527136788E-14  0.00000000000E+00  0.91188000000E+02  0.91188000000E+02 0.  0.
    9900012    2    3    3    0    0 -0.22550129777E+02 -0.21694006117E+02  0.19407225974E+02  0.54367100034E+02  0.40000036147E+02 0.  0.
         12    1    3    3    0    0  0.22550129777E+02  0.21694006117E+02 -0.19407225974E+02  0.36820899966E+02  0.00000000000E+00 0. -1.
         11    1    4    4    0    0 -0.88483221561E+01 -0.42142739990E+01 -0.12250731614E+02  0.15688637151E+02  0.51100000000E-03 0.  1.
        -11    1    4    4    0    0 -0.99703483272E+01 -0.12420580138E+02  0.23157317964E+02  0.28105871847E+02  0.51100000000E-03 0. -1.
        -12    1    4    4    0    0 -0.37314592933E+01 -0.50591519795E+01  0.85006396234E+01  0.10572591036E+02  0.00000000000E+00 0.  1.
</event>
<event>
 8    1  0.3007389E-007  0.9118800E+02  0.7816164E-02  0.1184000E+00
        -11   -1    0    0    0    0  0.00000000000E+00  0.00000000000E+00  0.45593999997E+02  0.45594000000E+02  0.51100000000E-03 0. -1.
         11   -1    0    0    0    0 -0.00000000000E+00 -0.00000000000E+00 -0.45593999997E+02  0.45594000000E+02  0.51100000000E-03 0.  1.
         23    2    1    2    0    0 -0.35527136788E-14 -0.35527136788E-14  0.35527136788E-14  0.91188000000E+02  0.91188000000E+02 0.  0.
    9900012    2    3    3    0    0 -0.26458941586E+02 -0.15684253128E+02  0.20241255060E+02  0.54367084850E+02  0.40000001534E+02 0.  0.
        -12    1    3    3    0    0  0.26458941586E+02  0.15684253128E+02 -0.20241255060E+02  0.36820915150E+02  0.00000000000E+00 0.  1.
         11    1    4    4    0    0 -0.14118450215E+02  0.39966381026E+01  0.27125072257E+01  0.14921844668E+02  0.51100000000E-03 0. -1.
        -11    1    4    4    0    0  0.98470474060E-01  0.26000127634E+01  0.13333167699E+02  0.13584665029E+02  0.51100000000E-03 0.  1.
         12    1    4    4    0    0 -0.12438961845E+02 -0.22280903994E+02  0.41955801361E+01  0.25860575153E+02  0.00000000000E+00 0. -1.
</event>
<event>
 8    1  0.3007389E-007  0.9118800E+02  0.7816164E-02  0.1184000E+00
        -11   -1    0    0    0    0  0.00000000000E+00  0.00000000000E+00  0.45593999997E+02  0.45594000000E+02  0.51100000000E-03 0. -1.
         11   -1    0    0    0    0 -0.00000000000E+00 -0.00000000000E+00 -0.45593999997E+02  0.45594000000E+02  0.51100000000E-03 0.  1.
         23    2    1    2    0    0  0.00000000000E+00  0.17763568394E-14  0.00000000000E+00  0.91188000000E+02  0.91188000000E+02 0.  0.
    9900012    2    3    3    0    0 -0.32800750571E+02  0.95244132037E+01 -0.13754060983E+02  0.54367110842E+02  0.40000060787E+02 0.  0.
        -12    1    3    3    0    0  0.32800750571E+02 -0.95244132037E+01  0.13754060983E+02  0.36820889158E+02  0.00000000000E+00 0.  1.
         11    1    4    4    0    0 -0.18189423778E+02  0.21329777574E+02  0.59656268082E+00  0.28038730999E+02  0.51100000000E-03 0. -1.
        -11    1    4    4    0    0 -0.54694320271E+01 -0.11092671816E+02 -0.53362549640E+01  0.13469880178E+02  0.51100000000E-03 0.  1.
        -12    1    4    4    0    0 -0.91418947659E+01 -0.71269255483E+00 -0.90143686993E+01  0.12858499665E+02  0.00000000000E+00 0.  1.
</event>
<event>
 8    1  0.3007389E-007  0.9118800E+02  0.7816164E-02  0.1184000E+00
        -11   -1    0    0    0    0  0.00000000000E+00  0.00000000000E+00  0.45593999997E+02  0.45594000000E+02  0.51100000000E-03 0.  1.
         11   -1    0    0    0    0 -0.00000000000E+00 -0.00000000000E+00 -0.45593999997E+02  0.45594000000E+02  0.51100000000E-03 0. -1.
         23    2    1    2    0    0  0.00000000000E+00  0.00000000000E+00  0.17763568394E-14  0.91188000000E+02  0.91188000000E+02 0.  0.
    9900012    2    3    3    0    0 -0.27605778299E+02 -0.18726503881E+02  0.15589061767E+02  0.54367084886E+02  0.40000001614E+02 0.  0.
         12    1    3    3    0    0  0.27605778299E+02  0.18726503881E+02 -0.15589061767E+02  0.36820915114E+02  0.00000000000E+00 0. -1.
         11    1    4    4    0    0 -0.62243733781E+01  0.64734702281E+01 -0.16856512993E+01  0.91372896040E+01  0.51100000000E-03 0. -1.
        -11    1    4    4    0    0  0.24511679429E+01 -0.15229337395E+02  0.10028197662E+02  0.18398524136E+02  0.51100000000E-03 0.  1.
         12    1    4    4    0    0 -0.23832572864E+02 -0.99706367148E+01  0.72465154040E+01  0.26831271146E+02  0.00000000000E+00 0. -1.
</event>
<event>
 8    1  0.3007389E-007  0.9118800E+02  0.7816164E-02  0.1184000E+00
        -11   -1    0    0    0    0  0.00000000000E+00  0.00000000000E+00  0.45593999997E+02  0.45594000000E+02  0.51100000000E-03 0.  1.
         11   -1    0    0    0    0 -0.00000000000E+00 -0.00000000000E+00 -0.45593999997E+02  0.45594000000E+02  0.51100000000E-03 0. -1.
         23    2    1    2    0    0  0.38857805862E-15  0.37747582837E-14  0.00000000000E+00  0.91188000000E+02  0.91188000000E+02 0.  0.
    9900012    2    3    3    0    0 -0.45390891320E+00  0.18398637869E+01  0.36772164225E+02  0.54367038662E+02  0.39999896238E+02 0.  0.
         12    1    3    3    0    0  0.45390891320E+00 -0.18398637869E+01 -0.36772164225E+02  0.36820961338E+02  0.00000000000E+00 0. -1.
         11    1    4    4    0    0 -0.45779663548E+01  0.18130503468E+02  0.17260957614E+02  0.25448253181E+02  0.51100000000E-03 0. -1.
        -11    1    4    4    0    0 -0.47766087271E+01 -0.54151213105E+01  0.55283126446E+01  0.90940513907E+01  0.51100000000E-03 0.  1.
        -12    1    4    4    0    0  0.89006661687E+01 -0.10875518371E+02  0.13982893966E+02  0.19824734090E+02  0.00000000000E+00 0.  1.
</event>
<event>
 8    1  0.3007389E-007  0.9118800E+02  0.7816164E-02  0.1184000E+00
        -11   -1    0    0    0    0  0.00000000000E+00  0.00000000000E+00  0.45593999997E+02  0.45594000000E+02  0.51100000000E-03 0.  1.
         11   -1    0    0    0    0 -0.00000000000E+00 -0.00000000000E+00 -0.45593999997E+02  0.45594000000E+02  0.51100000000E-03 0. -1.
         23    2    1    2    0    0  0.00000000000E+00 -0.35527136788E-14  0.35527136788E-14  0.91188000000E+02  0.91188000000E+02 0.  0.
    9900012    2    3    3    0    0  0.16095184542E+02 -0.22122967903E+02  0.24643414812E+02  0.54367101480E+02  0.40000039444E+02 0.  0.
         12    1    3    3    0    0 -0.16095184542E+02  0.22122967903E+02 -0.24643414812E+02  0.36820898520E+02  0.00000000000E+00 0. -1.
         11    1    4    4    0    0  0.14408932011E+02 -0.15805113647E+02  0.17726869782E+02  0.27778784200E+02  0.51100000000E-03 0. -1.
        -11    1    4    4    0    0  0.37435927847E+01 -0.12659347825E+02 -0.40026388902E+01  0.13794734236E+02  0.51100000000E-03 0.  1.
         12    1    4    4    0    0 -0.20573402543E+01  0.63414935701E+01  0.10919183920E+02  0.12793583044E+02  0.00000000000E+00 0. -1.
</event>
<event>
 8    1  0.3007389E-007  0.9118800E+02  0.7816164E-02  0.1184000E+00
        -11   -1    0    0    0    0  0.00000000000E+00  0.00000000000E+00  0.45593999997E+02  0.45594000000E+02  0.51100000000E-03 0.  1.
         11   -1    0    0    0    0 -0.00000000000E+00 -0.00000000000E+00 -0.45593999997E+02  0.45594000000E+02  0.51100000000E-03 0. -1.
         23    2    1    2    0    0  0.71054273576E-14  0.00000000000E+00  0.35527136788E-14  0.91188000000E+02  0.91188000000E+02 0.  0.
    9900012    2    3    3    0    0 -0.33817948426E+02  0.50874425689E+01 -0.13647118675E+02  0.54367088064E+02  0.40000008860E+02 0.  0.
         12    1    3    3    0    0  0.33817948426E+02 -0.50874425689E+01  0.13647118675E+02  0.36820911936E+02  0.00000000000E+00 0. -1.
         11    1    4    4    0    0 -0.20156343319E+01 -0.36993019005E+01 -0.12757238857E+02  0.13434833822E+02  0.51100000000E-03 0. -1.
        -11    1    4    4    0    0 -0.21331283364E+02  0.10079939792E+02 -0.11256727466E+02  0.26140825344E+02  0.51100000000E-03 0.  1.
         12    1    4    4    0    0 -0.10471030731E+02 -0.12931953224E+01  0.10366847648E+02  0.14791428898E+02  0.00000000000E+00 0. -1.
</event>
<event>
 8    1  0.3007389E-007  0.9118800E+02  0.7816164E-02  0.1184000E+00
        -11   -1    0    0    0    0  0.00000000000E+00  0.00000000000E+00  0.45593999997E+02  0.45594000000E+02  0.51100000000E-03 0. -1.
         11   -1    0    0    0    0 -0.00000000000E+00 -0.00000000000E+00 -0.45593999997E+02  0.45594000000E+02  0.51100000000E-03 0.  1.
         23    2    1    2    0    0  0.00000000000E+00  0.00000000000E+00  0.35527136788E-14  0.91188000000E+02  0.91188000000E+02 0.  0.
    9900012    2    3    3    0    0 -0.20601064388E+02 -0.22755502534E+02 -0.20336247374E+02  0.54367086014E+02  0.40000004186E+02 0.  0.
         12    1    3    3    0    0  0.20601064388E+02  0.22755502534E+02  0.20336247374E+02  0.36820913986E+02  0.00000000000E+00 0. -1.
         11    1    4    4    0    0 -0.48778105023E-01 -0.17245864687E+02  0.72133723911E+01  0.18693714709E+02  0.51100000000E-03 0. -1.
        -11    1    4    4    0    0 -0.15974677106E+02 -0.51667587269E+01 -0.25755859705E+02  0.30744918503E+02  0.51100000000E-03 0.  1.
         12    1    4    4    0    0 -0.45776091762E+01 -0.34287912010E+00 -0.17937600606E+01  0.49284528015E+01  0.00000000000E+00 0. -1.
</event>
<event>
 8    1  0.3007389E-007  0.9118800E+02  0.7816164E-02  0.1184000E+00
        -11   -1    0    0    0    0  0.00000000000E+00  0.00000000000E+00  0.45593999997E+02  0.45594000000E+02  0.51100000000E-03 0.  1.
         11   -1    0    0    0    0 -0.00000000000E+00 -0.00000000000E+00 -0.45593999997E+02  0.45594000000E+02  0.51100000000E-03 0. -1.
         23    2    1    2    0    0  0.00000000000E+00  0.00000000000E+00 -0.17763568394E-14  0.91188000000E+02  0.91188000000E+02 0.  0.
    9900012    2    3    3    0    0  0.31313511556E+02  0.17527508923E+02  0.82480535164E+01  0.54367082551E+02  0.39999996291E+02 0.  0.
         12    1    3    3    0    0 -0.31313511556E+02 -0.17527508923E+02 -0.82480535164E+01  0.36820917449E+02  0.00000000000E+00 0. -1.
         11    1    4    4    0    0  0.39375398465E+01  0.18780531264E+01 -0.73053336961E+01  0.85087721947E+01  0.51100000000E-03 0. -1.
        -11    1    4    4    0    0  0.30301246447E+02  0.11004412011E+02  0.20718234557E+02  0.38321115111E+02  0.51100000000E-03 0.  1.
        -12    1    4    4    0    0 -0.29252747382E+01  0.46450437859E+01 -0.51648473441E+01  0.75371952445E+01  0.00000000000E+00 0.  1.
</event>
<event>
 8    1  0.3007389E-007  0.9118800E+02  0.7816164E-02  0.1184000E+00
        -11   -1    0    0    0    0  0.00000000000E+00  0.00000000000E+00  0.45593999997E+02  0.45594000000E+02  0.51100000000E-03 0.  1.
         11   -1    0    0    0    0 -0.00000000000E+00 -0.00000000000E+00 -0.45593999997E+02  0.45594000000E+02  0.51100000000E-03 0. -1.
         23    2    1    2    0    0  0.00000000000E+00  0.35527136788E-14 -0.35527136788E-14  0.91188000000E+02  0.91188000000E+02 0.  0.
    9900012    2    3    3    0    0  0.20868435027E+02  0.23472441438E+02 -0.19218002857E+02  0.54367099395E+02  0.40000034692E+02 0.  0.
        -12    1    3    3    0    0 -0.20868435027E+02 -0.23472441438E+02  0.19218002857E+02  0.36820900605E+02  0.00000000000E+00 0.  1.
         11    1    4    4    0    0  0.81377787055E+00 -0.41847969270E+01 -0.17458910614E+00  0.42667600542E+01  0.51100000000E-03 0. -1.
        -11    1    4    4    0    0  0.92176443796E+01  0.29472297787E+02 -0.35178161318E+01  0.31079838084E+02  0.51100000000E-03 0.  1.
         12    1    4    4    0    0  0.10837012777E+02 -0.18150594220E+01 -0.15525597619E+02  0.19020501257E+02  0.00000000000E+00 0. -1.
</event>
<event>
 8    1  0.3007389E-007  0.9118800E+02  0.7816164E-02  0.1184000E+00
        -11   -1    0    0    0    0  0.00000000000E+00  0.00000000000E+00  0.45593999997E+02  0.45594000000E+02  0.51100000000E-03 0.  1.
         11   -1    0    0    0    0 -0.00000000000E+00 -0.00000000000E+00 -0.45593999997E+02  0.45594000000E+02  0.51100000000E-03 0. -1.
         23    2    1    2    0    0  0.00000000000E+00  0.71054273576E-14  0.44408920985E-15  0.91188000000E+02  0.91188000000E+02 0.  0.
    9900012    2    3    3    0    0 -0.14842019826E+02 -0.33616504810E+02  0.23290978275E+01  0.54367086855E+02  0.40000006103E+02 0.  0.
        -12    1    3    3    0    0  0.14842019826E+02  0.33616504810E+02 -0.23290978275E+01  0.36820913145E+02  0.00000000000E+00 0.  1.
         11    1    4    4    0    0  0.34989700346E+00 -0.18406541212E+02  0.29058234517E+01  0.18637784136E+02  0.51100000000E-03 0. -1.
        -11    1    4    4    0    0 -0.20764649406E+02 -0.15252192699E+02  0.66448871108E+01  0.26607415735E+02  0.51100000000E-03 0.  1.
        -12    1    4    4    0    0  0.55727325766E+01  0.42229101143E-01 -0.72216127351E+01  0.91218869848E+01  0.00000000000E+00 0.  1.
</event>
<event>
 8    1  0.3007389E-007  0.9118800E+02  0.7816164E-02  0.1184000E+00
        -11   -1    0    0    0    0  0.00000000000E+00  0.00000000000E+00  0.45593999997E+02  0.45594000000E+02  0.51100000000E-03 0.  1.
         11   -1    0    0    0    0 -0.00000000000E+00 -0.00000000000E+00 -0.45593999997E+02  0.45594000000E+02  0.51100000000E-03 0. -1.
         23    2    1    2    0    0  0.88817841970E-15  0.17763568394E-14 -0.71054273576E-14  0.91188000000E+02  0.91188000000E+02 0.  0.
    9900012    2    3    3    0    0 -0.40118985495E+01 -0.84926827602E+01  0.35602800695E+02  0.54367076495E+02  0.39999982486E+02 0.  0.
        -12    1    3    3    0    0  0.40118985495E+01  0.84926827602E+01 -0.35602800695E+02  0.36820923505E+02  0.00000000000E+00 0.  1.
         11    1    4    4    0    0 -0.83486068047E+01 -0.39497906250E+01 -0.50934086578E+01  0.10547174673E+02  0.51100000000E-03 0. -1.
        -11    1    4    4    0    0 -0.19049888093E+01  0.20770183172E+01  0.28316111473E+02  0.28456021448E+02  0.51100000000E-03 0.  1.
        -12    1    4    4    0    0  0.62416970645E+01 -0.66199104525E+01  0.12380097880E+02  0.15363880374E+02  0.00000000000E+00 0.  1.
</event>
<event>
 8    1  0.3007389E-007  0.9118800E+02  0.7816164E-02  0.1184000E+00
        -11   -1    0    0    0    0  0.00000000000E+00  0.00000000000E+00  0.45593999997E+02  0.45594000000E+02  0.51100000000E-03 0. -1.
         11   -1    0    0    0    0 -0.00000000000E+00 -0.00000000000E+00 -0.45593999997E+02  0.45594000000E+02  0.51100000000E-03 0.  1.
         23    2    1    2    0    0  0.00000000000E+00  0.00000000000E+00  0.00000000000E+00  0.91188000000E+02  0.91188000000E+02 0.  0.
    9900012    2    3    3    0    0  0.31323787036E+02 -0.16491498040E+02 -0.10130794691E+02  0.54367052932E+02  0.39999928770E+02 0.  0.
        -12    1    3    3    0    0 -0.31323787036E+02  0.16491498040E+02  0.10130794691E+02  0.36820947068E+02  0.00000000000E+00 0.  1.
         11    1    4    4    0    0  0.71868915161E+01 -0.61156556253E+01  0.13394496630E+02  0.16384907495E+02  0.51100000000E-03 0. -1.
        -11    1    4    4    0    0  0.11985502598E+02 -0.12266516399E+02 -0.16603364767E+02  0.23870304124E+02  0.51100000000E-03 0.  1.
         12    1    4    4    0    0  0.12151392921E+02  0.18906739842E+01 -0.69219265545E+01  0.14111841314E+02  0.00000000000E+00 0. -1.
</event>
<event>
 8    1  0.3007389E-007  0.9118800E+02  0.7816164E-02  0.1184000E+00
        -11   -1    0    0    0    0  0.00000000000E+00  0.00000000000E+00  0.45593999997E+02  0.45594000000E+02  0.51100000000E-03 0. -1.
         11   -1    0    0    0    0 -0.00000000000E+00 -0.00000000000E+00 -0.45593999997E+02  0.45594000000E+02  0.51100000000E-03 0.  1.
         23    2    1    2    0    0  0.00000000000E+00 -0.17763568394E-14  0.35527136788E-14  0.91188000000E+02  0.91188000000E+02 0.  0.
    9900012    2    3    3    0    0 -0.15299678691E+02 -0.14016211090E+02 -0.30417828697E+02  0.54367100445E+02  0.40000037085E+02 0.  0.
         12    1    3    3    0    0  0.15299678691E+02  0.14016211090E+02  0.30417828697E+02  0.36820899555E+02  0.00000000000E+00 0. -1.
         11    1    4    4    0    0 -0.88531035373E+01  0.67846528639E+01  0.22959924465E+01  0.11387736312E+02  0.51100000000E-03 0. -1.
        -11    1    4    4    0    0  0.29125741118E+01 -0.51263253758E+01 -0.45563097314E+00  0.59135352929E+01  0.51100000000E-03 0.  1.
        -12    1    4    4    0    0 -0.93591492656E+01 -0.15674538578E+02 -0.32258190170E+02  0.37065828841E+02  0.00000000000E+00 0.  1.
</event>
<event>
 8    1  0.3007389E-007  0.9118800E+02  0.7816164E-02  0.1184000E+00
        -11   -1    0    0    0    0  0.00000000000E+00  0.00000000000E+00  0.45593999997E+02  0.45594000000E+02  0.51100000000E-03 0.  1.
         11   -1    0    0    0    0 -0.00000000000E+00 -0.00000000000E+00 -0.45593999997E+02  0.45594000000E+02  0.51100000000E-03 0. -1.
         23    2    1    2    0    0  0.00000000000E+00  0.00000000000E+00 -0.71054273576E-14  0.91188000000E+02  0.91188000000E+02 0.  0.
    9900012    2    3    3    0    0 -0.97654175423E+01 -0.20756108004E+02 -0.28802797948E+02  0.54367074307E+02  0.39999977498E+02 0.  0.
        -12    1    3    3    0    0  0.97654175423E+01  0.20756108004E+02  0.28802797948E+02  0.36820925693E+02  0.00000000000E+00 0.  1.
         11    1    4    4    0    0  0.33102165925E+01 -0.25407665553E+02 -0.23876044590E+02  0.35022457199E+02  0.51100000000E-03 0. -1.
        -11    1    4    4    0    0 -0.60180183074E+01  0.11095312865E+01 -0.86649063506E+01  0.10607931294E+02  0.51100000000E-03 0.  1.
        -12    1    4    4    0    0 -0.70576158274E+01  0.35420262627E+01  0.37381529924E+01  0.87366858137E+01  0.00000000000E+00 0.  1.
</event>
<event>
 8    1  0.3007389E-007  0.9118800E+02  0.7816164E-02  0.1184000E+00
        -11   -1    0    0    0    0  0.00000000000E+00  0.00000000000E+00  0.45593999997E+02  0.45594000000E+02  0.51100000000E-03 0. -1.
         11   -1    0    0    0    0 -0.00000000000E+00 -0.00000000000E+00 -0.45593999997E+02  0.45594000000E+02  0.51100000000E-03 0.  1.
         23    2    1    2    0    0  0.35527136788E-14  0.00000000000E+00  0.35527136788E-14  0.91188000000E+02  0.91188000000E+02 0.  0.
    9900012    2    3    3    0    0 -0.11527313098E+02 -0.22271752412E+02  0.26960529560E+02  0.54367081259E+02  0.39999993346E+02 0.  0.
        -12    1    3    3    0    0  0.11527313098E+02  0.22271752412E+02 -0.26960529560E+02  0.36820918741E+02  0.00000000000E+00 0.  1.
         11    1    4    4    0    0 -0.11788733238E+02  0.42337153304E+00  0.13236843522E+01  0.11870367110E+02  0.51100000000E-03 0. -1.
        -11    1    4    4    0    0 -0.90143837038E+01 -0.22603043075E+02  0.20917752933E+02  0.32089080041E+02  0.51100000000E-03 0.  1.
         12    1    4    4    0    0  0.92758038432E+01 -0.92080869600E-01  0.47190922748E+01  0.10407634108E+02  0.00000000000E+00 0. -1.
</event>
<event>
 8    1  0.3007389E-007  0.9118800E+02  0.7816164E-02  0.1184000E+00
        -11   -1    0    0    0    0  0.00000000000E+00  0.00000000000E+00  0.45593999997E+02  0.45594000000E+02  0.51100000000E-03 0.  1.
         11   -1    0    0    0    0 -0.00000000000E+00 -0.00000000000E+00 -0.45593999997E+02  0.45594000000E+02  0.51100000000E-03 0. -1.
         23    2    1    2    0    0 -0.17763568394E-14  0.00000000000E+00  0.17763568394E-14  0.91188000000E+02  0.91188000000E+02 0.  0.
    9900012    2    3    3    0    0 -0.11090252937E+02 -0.33859029163E+02  0.92926472497E+01  0.54367070368E+02  0.39999968517E+02 0.  0.
         12    1    3    3    0    0  0.11090252937E+02  0.33859029163E+02 -0.92926472497E+01  0.36820929632E+02  0.00000000000E+00 0. -1.
         11    1    4    4    0    0  0.26317766173E+01 -0.66036560654E+01  0.50621844378E+01  0.87269830490E+01  0.51100000000E-03 0. -1.
        -11    1    4    4    0    0 -0.11433344509E+02  0.26055616628E+01  0.96727906660E+01  0.15201091992E+02  0.51100000000E-03 0.  1.
        -12    1    4    4    0    0 -0.22886850455E+01 -0.29860934760E+02 -0.54423278541E+01  0.30438995326E+02  0.00000000000E+00 0.  1.
</event>
<event>
 8    1  0.3007389E-007  0.9118800E+02  0.7816164E-02  0.1184000E+00
        -11   -1    0    0    0    0  0.00000000000E+00  0.00000000000E+00  0.45593999997E+02  0.45594000000E+02  0.51100000000E-03 0.  1.
         11   -1    0    0    0    0 -0.00000000000E+00 -0.00000000000E+00 -0.45593999997E+02  0.45594000000E+02  0.51100000000E-03 0. -1.
         23    2    1    2    0    0  0.17763568394E-14  0.00000000000E+00  0.00000000000E+00  0.91188000000E+02  0.91188000000E+02 0.  0.
    9900012    2    3    3    0    0  0.15641530929E+02 -0.65531009375E+01  0.32682997417E+02  0.54367096401E+02  0.40000027865E+02 0.  0.
         12    1    3    3    0    0 -0.15641530929E+02  0.65531009375E+01 -0.32682997417E+02  0.36820903599E+02  0.00000000000E+00 0. -1.
         11    1    4    4    0    0  0.10173457556E+02  0.86797690361E+01  0.11316435506E+01  0.13420813930E+02  0.51100000000E-03 0. -1.
        -11    1    4    4    0    0  0.19282268925E+01  0.12540822435E+01  0.20845812653E+02  0.20972331455E+02  0.51100000000E-03 0.  1.
         12    1    4    4    0    0  0.35398464800E+01 -0.16486952217E+02  0.10705541214E+02  0.19973951016E+02  0.00000000000E+00 0. -1.
</event>
<event>
 8    1  0.3007389E-007  0.9118800E+02  0.7816164E-02  0.1184000E+00
        -11   -1    0    0    0    0  0.00000000000E+00  0.00000000000E+00  0.45593999997E+02  0.45594000000E+02  0.51100000000E-03 0. -1.
         11   -1    0    0    0    0 -0.00000000000E+00 -0.00000000000E+00 -0.45593999997E+02  0.45594000000E+02  0.51100000000E-03 0.  1.
         23    2    1    2    0    0  0.00000000000E+00  0.00000000000E+00  0.53290705182E-14  0.91188000000E+02  0.91188000000E+02 0.  0.
    9900012    2    3    3    0    0  0.33092705487E+02 -0.11775364592E+02  0.11045061785E+02  0.54367085324E+02  0.40000002613E+02 0.  0.
        -12    1    3    3    0    0 -0.33092705487E+02  0.11775364592E+02 -0.11045061785E+02  0.36820914676E+02  0.00000000000E+00 0.  1.
         11    1    4    4    0    0  0.13104130694E+02 -0.99444391210E+01  0.14912606744E+02  0.22203512128E+02  0.51100000000E-03 0. -1.
        -11    1    4    4    0    0  0.70254321417E+01  0.61203474011E+01  0.84615497770E+01  0.12586229538E+02  0.51100000000E-03 0.  1.
        -12    1    4    4    0    0  0.12963142652E+02 -0.79512728720E+01 -0.12329094736E+02  0.19577343658E+02  0.00000000000E+00 0.  1.
</event>
<event>
 8    1  0.3007389E-007  0.9118800E+02  0.7816164E-02  0.1184000E+00
        -11   -1    0    0    0    0  0.00000000000E+00  0.00000000000E+00  0.45593999997E+02  0.45594000000E+02  0.51100000000E-03 0. -1.
         11   -1    0    0    0    0 -0.00000000000E+00 -0.00000000000E+00 -0.45593999997E+02  0.45594000000E+02  0.51100000000E-03 0.  1.
         23    2    1    2    0    0  0.35527136788E-14  0.00000000000E+00  0.00000000000E+00  0.91188000000E+02  0.91188000000E+02 0.  0.
    9900012    2    3    3    0    0 -0.31262180715E+02 -0.18813145080E+02  0.49517046015E+01  0.54367112595E+02  0.40000064782E+02 0.  0.
        -12    1    3    3    0    0  0.31262180715E+02  0.18813145080E+02 -0.49517046015E+01  0.36820887405E+02  0.00000000000E+00 0.  1.
         11    1    4    4    0    0 -0.57639426118E+01  0.12724348262E+00  0.15712617641E+01  0.59756245806E+01  0.51100000000E-03 0. -1.
        -11    1    4    4    0    0 -0.13097290119E+01 -0.23587950014E+02  0.23161842808E+01  0.23737554336E+02  0.51100000000E-03 0.  1.
         12    1    4    4    0    0 -0.24188509092E+02  0.46475614520E+01  0.10642585567E+01  0.24653933678E+02  0.00000000000E+00 0. -1.
</event>
<event>
 8    1  0.3007389E-007  0.9118800E+02  0.7816164E-02  0.1184000E+00
        -11   -1    0    0    0    0  0.00000000000E+00  0.00000000000E+00  0.45593999997E+02  0.45594000000E+02  0.51100000000E-03 0.  1.
         11   -1    0    0    0    0 -0.00000000000E+00 -0.00000000000E+00 -0.45593999997E+02  0.45594000000E+02  0.51100000000E-03 0. -1.
         23    2    1    2    0    0  0.49960036108E-15  0.00000000000E+00  0.00000000000E+00  0.91188000000E+02  0.91188000000E+02 0.  0.
    9900012    2    3    3    0    0  0.35254468811E+00  0.17671984543E+02 -0.32301036433E+02  0.54367078229E+02  0.39999986438E+02 0.  0.
        -12    1    3    3    0    0 -0.35254468811E+00 -0.17671984543E+02  0.32301036433E+02  0.36820921771E+02  0.00000000000E+00 0.  1.
         11    1    4    4    0    0  0.32447277355E+01 -0.89615781723E+00 -0.14403350194E+02  0.14791479101E+02  0.51100000000E-03 0. -1.
        -11    1    4    4    0    0 -0.14266563090E+02  0.36698847723E+01 -0.14219285333E+02  0.20474153274E+02  0.51100000000E-03 0.  1.
        -12    1    4    4    0    0  0.11374380043E+02  0.14898257588E+02 -0.36784009062E+01  0.19101445854E+02  0.00000000000E+00 0.  1.
</event>
