<event>
 8    1  0.3146747E-007  0.9118800E+02  0.7816164E-02  0.1184000E+00
        -11   -1    0    0    0    0  0.00000000000E+00  0.00000000000E+00  0.45593999997E+02  0.45594000000E+02  0.51100000000E-03 0. -1.
         11   -1    0    0    0    0 -0.00000000000E+00 -0.00000000000E+00 -0.45593999997E+02  0.45594000000E+02  0.51100000000E-03 0.  1.
         23    2    1    2    0    0 -0.35527136788E-14 -0.17763568394E-14 -0.35527136788E-14  0.91188000000E+02  0.91188000000E+02 0.  0.
    9900012    2    3    3    0    0 -0.28677357374E+02 -0.14399771967E+02 -0.18056539573E+02  0.54367042924E+02  0.39999905954E+02 0.  0.
         12    1    3    3    0    0  0.28677357374E+02  0.14399771967E+02  0.18056539573E+02  0.36820957076E+02  0.00000000000E+00 0. -1.
         11    1    4    4    0    0  0.82611466063E+00 -0.30366880847E+01  0.92358782593E+00  0.32797796709E+01  0.51100000000E-03 0. -1.
        -11    1    4    4    0    0  0.52417429978E+01  0.62903871341E+01 -0.12959756853E+01  0.82900176833E+01  0.51100000000E-03 0.  1.
        -12    1    4    4    0    0 -0.34745215032E+02 -0.17653471016E+02 -0.17684151714E+02  0.42797245570E+02  0.00000000000E+00 0.  1.
</event>
<event>
 8    1  0.3146747E-007  0.9118800E+02  0.7816164E-02  0.1184000E+00
        -11   -1    0    0    0    0  0.00000000000E+00  0.00000000000E+00  0.45593999997E+02  0.45594000000E+02  0.51100000000E-03 0.  1.
         11   -1    0    0    0    0 -0.00000000000E+00 -0.00000000000E+00 -0.45593999997E+02  0.45594000000E+02  0.51100000000E-03 0. -1.
         23    2    1    2    0    0  0.88817841970E-15  0.00000000000E+00 -0.22204460493E-15  0.91188000000E+02  0.91188000000E+02 0.  0.
    9900012    2    3    3    0    0 -0.42579425938E+01 -0.36568151990E+02  0.64842629987E+00  0.54367078342E+02  0.39999986697E+02 0.  0.
        -12    1    3    3    0    0  0.42579425938E+01  0.36568151990E+02 -0.64842629987E+00  0.36820921658E+02  0.00000000000E+00 0.  1.
         11    1    4    4    0    0  0.49300141284E+01 -0.26413633193E+02 -0.29123596823E+01  0.27027151106E+02  0.51100000000E-03 0. -1.
        -11    1    4    4    0    0 -0.79612439670E+01 -0.10973801226E+02 -0.79623555418E+01  0.15722748643E+02  0.51100000000E-03 0.  1.
        -12    1    4    4    0    0 -0.12267127553E+01  0.81928242920E+00  0.11523141524E+02  0.11617178593E+02  0.00000000000E+00 0.  1.
</event>
<event>
 8    1  0.3146747E-007  0.9118800E+02  0.7816164E-02  0.1184000E+00
        -11   -1    0    0    0    0  0.00000000000E+00  0.00000000000E+00  0.45593999997E+02  0.45594000000E+02  0.51100000000E-03 0.  1.
         11   -1    0    0    0    0 -0.00000000000E+00 -0.00000000000E+00 -0.45593999997E+02  0.45594000000E+02  0.51100000000E-03 0. -1.
         23    2    1    2    0    0  0.69388939039E-15  0.35527136788E-14  0.00000000000E+00  0.91188000000E+02  0.91188000000E+02 0.  0.
    9900012    2    3    3    0    0 -0.19039189881E+00 -0.16453818126E+02 -0.32939574304E+02  0.54367082910E+02  0.39999997110E+02 0.  0.
        -12    1    3    3    0    0  0.19039189881E+00  0.16453818126E+02  0.32939574304E+02  0.36820917090E+02  0.00000000000E+00 0.  1.
         11    1    4    4    0    0 -0.48917997949E+00  0.12997570975E+01  0.39201013847E+01  0.41588292453E+01  0.51100000000E-03 0.  1.
        -11    1    4    4    0    0 -0.57157853212E+01  0.67078810569E+01 -0.11186419144E+02  0.14240851226E+02  0.51100000000E-03 0. -1.
        -12    1    4    4    0    0  0.60145734019E+01 -0.24461456281E+02 -0.25673256545E+02  0.35967402439E+02  0.00000000000E+00 0.  1.
</event>
<event>
 8    1  0.3146747E-007  0.9118800E+02  0.7816164E-02  0.1184000E+00
        -11   -1    0    0    0    0  0.00000000000E+00  0.00000000000E+00  0.45593999997E+02  0.45594000000E+02  0.51100000000E-03 0. -1.
         11   -1    0    0    0    0 -0.00000000000E+00 -0.00000000000E+00 -0.45593999997E+02  0.45594000000E+02  0.51100000000E-03 0.  1.
         23    2    1    2    0    0 -0.35527136788E-14  0.00000000000E+00  0.35527136788E-14  0.91188000000E+02  0.91188000000E+02 0.  0.
    9900012    2    3    3    0    0 -0.23029282623E+02  0.11178053761E+02  0.26466683373E+02  0.54367053885E+02  0.39999930942E+02 0.  0.
        -12    1    3    3    0    0  0.23029282623E+02 -0.11178053761E+02 -0.26466683373E+02  0.36820946115E+02  0.00000000000E+00 0.  1.
         11    1    4    4    0    0 -0.19555434241E+02  0.96644403151E-01  0.17876640031E+02  0.26495256322E+02  0.51100000000E-03 0. -1.
        -11    1    4    4    0    0  0.80995835816E+01  0.76251851126E+00  0.92922132849E+01  0.12350300266E+02  0.51100000000E-03 0.  1.
        -12    1    4    4    0    0 -0.11573431963E+02  0.10318890846E+02 -0.70216994222E+00  0.15521497297E+02  0.00000000000E+00 0.  1.
</event>
<event>
 8    1  0.3146747E-007  0.9118800E+02  0.7816164E-02  0.1184000E+00
        -11   -1    0    0    0    0  0.00000000000E+00  0.00000000000E+00  0.45593999997E+02  0.45594000000E+02  0.51100000000E-03 0.  1.
         11   -1    0    0    0    0 -0.00000000000E+00 -0.00000000000E+00 -0.45593999997E+02  0.45594000000E+02  0.51100000000E-03 0. -1.
         23    2    1    2    0    0  0.00000000000E+00  0.00000000000E+00  0.00000000000E+00  0.91188000000E+02  0.91188000000E+02 0.  0.
    9900012    2    3    3    0    0 -0.17815222912E+02 -0.27567833484E+02 -0.16685718645E+02  0.54367070937E+02  0.39999969814E+02 0.  0.
        -12    1    3    3    0    0  0.17815222912E+02  0.27567833484E+02  0.16685718645E+02  0.36820929063E+02  0.00000000000E+00 0.  1.
         11    1    4    4    0    0  0.64605056550E+01 -0.35391289060E+00 -0.34994699210E+00  0.64796489728E+01  0.51100000000E-03 0. -1.
        -11    1    4    4    0    0 -0.32360913908E+01 -0.22567123975E+02 -0.12506669127E+02  0.26003156441E+02  0.51100000000E-03 0.  1.
        -12    1    4    4    0    0 -0.21039637176E+02 -0.46467966176E+01 -0.38291025264E+01  0.21884265522E+02  0.00000000000E+00 0.  1.
</event>
<event>
 8    1  0.3146747E-007  0.9118800E+02  0.7816164E-02  0.1184000E+00
        -11   -1    0    0    0    0  0.00000000000E+00  0.00000000000E+00  0.45593999997E+02  0.45594000000E+02  0.51100000000E-03 0.  1.
         11   -1    0    0    0    0 -0.00000000000E+00 -0.00000000000E+00 -0.45593999997E+02  0.45594000000E+02  0.51100000000E-03 0. -1.
         23    2    1    2    0    0  0.00000000000E+00  0.88817841970E-15  0.00000000000E+00  0.91188000000E+02  0.91188000000E+02 0.  0.
    9900012    2    3    3    0    0  0.29188535324E+02 -0.66189504807E+01 -0.21447510133E+02  0.54367125612E+02  0.40000094458E+02 0.  0.
        -12    1    3    3    0    0 -0.29188535324E+02  0.66189504807E+01  0.21447510133E+02  0.36820874388E+02  0.00000000000E+00 0.  1.
         11    1    4    4    0    0 -0.32557001653E+01  0.39731011484E+00  0.72418893739E+01  0.79499937647E+01  0.51100000000E-03 0. -1.
        -11    1    4    4    0    0  0.20516995404E+02  0.23623154551E+01 -0.12102760293E+02  0.23937511184E+02  0.51100000000E-03 0.  1.
         12    1    4    4    0    0  0.11927240085E+02 -0.93785760506E+01 -0.16586639213E+02  0.22479620664E+02  0.00000000000E+00 0. -1.
</event>
<event>
 8    1  0.3146747E-007  0.9118800E+02  0.7816164E-02  0.1184000E+00
        -11   -1    0    0    0    0  0.00000000000E+00  0.00000000000E+00  0.45593999997E+02  0.45594000000E+02  0.51100000000E-03 0. -1.
         11   -1    0    0    0    0 -0.00000000000E+00 -0.00000000000E+00 -0.45593999997E+02  0.45594000000E+02  0.51100000000E-03 0.  1.
         23    2    1    2    0    0  0.00000000000E+00 -0.17763568394E-14 -0.35527136788E-14  0.91188000000E+02  0.91188000000E+02 0.  0.
    9900012    2    3    3    0    0  0.32260140371E+02 -0.20166488287E+01  0.17635096145E+02  0.54367080059E+02  0.39999990610E+02 0.  0.
        -12    1    3    3    0    0 -0.32260140371E+02  0.20166488287E+01 -0.17635096145E+02  0.36820919941E+02  0.00000000000E+00 0.  1.
         11    1    4    4    0    0  0.29649711414E+01 -0.50547920759E+01 -0.23948480236E+01  0.63306614281E+01  0.51100000000E-03 0. -1.
        -11    1    4    4    0    0  0.25941088021E+02 -0.72410721792E+01  0.19924381915E+01  0.27006350813E+02  0.51100000000E-03 0.  1.
        -12    1    4    4    0    0  0.33540812084E+01  0.10279215426E+02  0.18037505978E+02  0.21030067818E+02  0.00000000000E+00 0.  1.
</event>
<event>
 8    1  0.3146747E-007  0.9118800E+02  0.7816164E-02  0.1184000E+00
        -11   -1    0    0    0    0  0.00000000000E+00  0.00000000000E+00  0.45593999997E+02  0.45594000000E+02  0.51100000000E-03 0.  1.
         11   -1    0    0    0    0 -0.00000000000E+00 -0.00000000000E+00 -0.45593999997E+02  0.45594000000E+02  0.51100000000E-03 0. -1.
         23    2    1    2    0    0  0.35527136788E-14  0.00000000000E+00 -0.44408920985E-15  0.91188000000E+02  0.91188000000E+02 0.  0.
    9900012    2    3    3    0    0  0.24440508801E+02 -0.27393267154E+02 -0.28373202354E+01  0.54367082820E+02  0.39999996905E+02 0.  0.
         12    1    3    3    0    0 -0.24440508801E+02  0.27393267154E+02  0.28373202354E+01  0.36820917180E+02  0.00000000000E+00 0. -1.
         11    1    4    4    0    0 -0.54074371517E+01 -0.10030807341E+02 -0.20783022241E+01  0.11583471537E+02  0.51100000000E-03 0. -1.
        -11    1    4    4    0    0  0.20350306710E+02 -0.52678897681E+01  0.10717179824E+02  0.23595414585E+02  0.51100000000E-03 0.  1.
        -12    1    4    4    0    0  0.94976392433E+01 -0.12094570046E+02 -0.11476197835E+02  0.19188196698E+02  0.00000000000E+00 0.  1.
</event>
<event>
 8    1  0.3146747E-007  0.9118800E+02  0.7816164E-02  0.1184000E+00
        -11   -1    0    0    0    0  0.00000000000E+00  0.00000000000E+00  0.45593999997E+02  0.45594000000E+02  0.51100000000E-03 0.  1.
         11   -1    0    0    0    0 -0.00000000000E+00 -0.00000000000E+00 -0.45593999997E+02  0.45594000000E+02  0.51100000000E-03 0. -1.
         23    2    1    2    0    0 -0.17763568394E-14  0.00000000000E+00  0.00000000000E+00  0.91188000000E+02  0.91188000000E+02 0.  0.
    9900012    2    3    3    0    0 -0.92211916960E+01  0.28302918514E+02 -0.21672425824E+02  0.54367087276E+02  0.40000007064E+02 0.  0.
         12    1    3    3    0    0  0.92211916960E+01 -0.28302918514E+02  0.21672425824E+02  0.36820912724E+02  0.00000000000E+00 0. -1.
         11    1    4    4    0    0  0.40826197481E+01  0.28939449917E+02 -0.10434533766E+02  0.31032870326E+02  0.51100000000E-03 0.  1.
        -11    1    4    4    0    0 -0.59619549725E+01  0.48743872089E+00  0.34282362740E+01  0.68945853981E+01  0.51100000000E-03 0. -1.
        -12    1    4    4    0    0 -0.73418564716E+01 -0.11239701246E+01 -0.14666128333E+02  0.16439631552E+02  0.00000000000E+00 0.  1.
</event>
<event>
 8    1  0.3146747E-007  0.9118800E+02  0.7816164E-02  0.1184000E+00
        -11   -1    0    0    0    0  0.00000000000E+00  0.00000000000E+00  0.45593999997E+02  0.45594000000E+02  0.51100000000E-03 0. -1.
         11   -1    0    0    0    0 -0.00000000000E+00 -0.00000000000E+00 -0.45593999997E+02  0.45594000000E+02  0.51100000000E-03 0.  1.
         23    2    1    2    0    0  0.00000000000E+00  0.00000000000E+00  0.00000000000E+00  0.91188000000E+02  0.91188000000E+02 0.  0.
    9900012    2    3    3    0    0  0.18975481915E+02 -0.20782561744E+02 -0.23744403270E+02  0.54367075607E+02  0.39999980461E+02 0.  0.
         12    1    3    3    0    0 -0.18975481915E+02  0.20782561744E+02  0.23744403270E+02  0.36820924393E+02  0.00000000000E+00 0. -1.
         11    1    4    4    0    0 -0.74374797664E+01 -0.22903119888E+01 -0.45576610100E+01  0.90185313895E+01  0.51100000000E-03 0. -1.
        -11    1    4    4    0    0  0.21674159820E+02 -0.21213464755E+02 -0.57838545772E+01  0.30874475944E+02  0.51100000000E-03 0.  1.
         12    1    4    4    0    0  0.47388018613E+01  0.27212149999E+01 -0.13402887683E+02  0.14474068274E+02  0.00000000000E+00 0. -1.
</event>
<event>
 8    1  0.3146747E-007  0.9118800E+02  0.7816164E-02  0.1184000E+00
        -11   -1    0    0    0    0  0.00000000000E+00  0.00000000000E+00  0.45593999997E+02  0.45594000000E+02  0.51100000000E-03 0.  1.
         11   -1    0    0    0    0 -0.00000000000E+00 -0.00000000000E+00 -0.45593999997E+02  0.45594000000E+02  0.51100000000E-03 0. -1.
         23    2    1    2    0    0  0.00000000000E+00  0.00000000000E+00  0.00000000000E+00  0.91188000000E+02  0.91188000000E+02 0.  0.
    9900012    2    3    3    0    0 -0.60862199151E+01 -0.34328537597E+02 -0.11844346417E+02  0.54367094139E+02  0.40000022708E+02 0.  0.
        -12    1    3    3    0    0  0.60862199151E+01  0.34328537597E+02  0.11844346417E+02  0.36820905861E+02  0.00000000000E+00 0.  1.
         11    1    4    4    0    0 -0.11111737743E+02 -0.37220890839E+01 -0.13777032612E+02  0.18086771152E+02  0.51100000000E-03 0. -1.
        -11    1    4    4    0    0 -0.28569628361E+00 -0.47721564720E+01  0.79048088394E+01  0.92380248326E+01  0.51100000000E-03 0.  1.
        -12    1    4    4    0    0  0.53112141119E+01 -0.25834292041E+02 -0.59721226442E+01  0.27042298155E+02  0.00000000000E+00 0.  1.
</event>
<event>
 8    1  0.3146747E-007  0.9118800E+02  0.7816164E-02  0.1184000E+00
        -11   -1    0    0    0    0  0.00000000000E+00  0.00000000000E+00  0.45593999997E+02  0.45594000000E+02  0.51100000000E-03 0. -1.
         11   -1    0    0    0    0 -0.00000000000E+00 -0.00000000000E+00 -0.45593999997E+02  0.45594000000E+02  0.51100000000E-03 0.  1.
         23    2    1    2    0    0  0.00000000000E+00  0.00000000000E+00  0.83266726847E-15  0.91188000000E+02  0.91188000000E+02 0.  0.
    9900012    2    3    3    0    0  0.16334357824E+02 -0.32997111917E+02 -0.39907314908E+00  0.54367083393E+02  0.39999998211E+02 0.  0.
        -12    1    3    3    0    0 -0.16334357824E+02  0.32997111917E+02  0.39907314908E+00  0.36820916607E+02  0.00000000000E+00 0.  1.
         11    1    4    4    0    0  0.12131211135E+02 -0.19073043820E+02  0.76282448011E+01  0.23856600830E+02  0.51100000000E-03 0. -1.
        -11    1    4    4    0    0 -0.88750348354E+01 -0.12497296250E+02 -0.81376311591E+01  0.17354241500E+02  0.51100000000E-03 0.  1.
        -12    1    4    4    0    0  0.13078181524E+02 -0.14267718466E+01  0.11031320890E+00  0.13156241062E+02  0.00000000000E+00 0.  1.
</event>
<event>
 8    1  0.3146747E-007  0.9118800E+02  0.7816164E-02  0.1184000E+00
        -11   -1    0    0    0    0  0.00000000000E+00  0.00000000000E+00  0.45593999997E+02  0.45594000000E+02  0.51100000000E-03 0. -1.
         11   -1    0    0    0    0 -0.00000000000E+00 -0.00000000000E+00 -0.45593999997E+02  0.45594000000E+02  0.51100000000E-03 0.  1.
         23    2    1    2    0    0 -0.35527136788E-14  0.35527136788E-14  0.21094237468E-14  0.91188000000E+02  0.91188000000E+02 0.  0.
    9900012    2    3    3    0    0  0.31507447510E+02 -0.19031054696E+02 -0.93790907157E+00  0.54367082509E+02  0.39999996196E+02 0.  0.
         12    1    3    3    0    0 -0.31507447510E+02  0.19031054696E+02  0.93790907157E+00  0.36820917491E+02  0.00000000000E+00 0. -1.
         11    1    4    4    0    0  0.19872231158E+02 -0.12016733336E+02 -0.15690040957E+02  0.28026502399E+02  0.51100000000E-03 0. -1.
        -11    1    4    4    0    0  0.12717318424E+02 -0.11344567414E+02  0.97393800591E+01  0.19628676010E+02  0.51100000000E-03 0.  1.
         12    1    4    4    0    0 -0.10821020724E+01  0.43302460531E+01  0.50127518259E+01  0.67119040997E+01  0.00000000000E+00 0. -1.
</event>
<event>
 8    1  0.3146747E-007  0.9118800E+02  0.7816164E-02  0.1184000E+00
        -11   -1    0    0    0    0  0.00000000000E+00  0.00000000000E+00  0.45593999997E+02  0.45594000000E+02  0.51100000000E-03 0. -1.
         11   -1    0    0    0    0 -0.00000000000E+00 -0.00000000000E+00 -0.45593999997E+02  0.45594000000E+02  0.51100000000E-03 0.  1.
         23    2    1    2    0    0  0.00000000000E+00  0.77715611724E-15 -0.17763568394E-14  0.91188000000E+02  0.91188000000E+02 0.  0.
    9900012    2    3    3    0    0 -0.33659786902E+02 -0.82703178959E+00  0.14903504108E+02  0.54367086505E+02  0.40000005305E+02 0.  0.
        -12    1    3    3    0    0  0.33659786902E+02  0.82703178959E+00 -0.14903504108E+02  0.36820913495E+02  0.00000000000E+00 0.  1.
         11    1    4    4    0    0 -0.25218650192E+02  0.71332269217E+01  0.12637442615E+02  0.29095845063E+02  0.51100000000E-03 0. -1.
        -11    1    4    4    0    0 -0.15935731913E+02 -0.41082898413E+01  0.32909259804E+01  0.16782603823E+02  0.51100000000E-03 0.  1.
         12    1    4    4    0    0  0.74945952019E+01 -0.38519688700E+01 -0.10248644865E+01  0.84886376193E+01  0.00000000000E+00 0. -1.
</event>
<event>
 8    1  0.3146747E-007  0.9118800E+02  0.7816164E-02  0.1184000E+00
        -11   -1    0    0    0    0  0.00000000000E+00  0.00000000000E+00  0.45593999997E+02  0.45594000000E+02  0.51100000000E-03 0.  1.
         11   -1    0    0    0    0 -0.00000000000E+00 -0.00000000000E+00 -0.45593999997E+02  0.45594000000E+02  0.51100000000E-03 0. -1.
         23    2    1    2    0    0  0.00000000000E+00 -0.88817841970E-15 -0.35527136788E-14  0.91188000000E+02  0.91188000000E+02 0.  0.
    9900012    2    3    3    0    0 -0.24212900100E+02  0.76085304001E+01 -0.26676316906E+02  0.54367079998E+02  0.39999990472E+02 0.  0.
        -12    1    3    3    0    0  0.24212900100E+02 -0.76085304001E+01  0.26676316906E+02  0.36820920002E+02  0.00000000000E+00 0.  1.
         11    1    4    4    0    0 -0.14685913406E+02 -0.13149789118E+02 -0.12767674493E+02  0.23486304917E+02  0.51100000000E-03 0.  1.
        -11    1    4    4    0    0 -0.10472342213E+02  0.98725347307E+01 -0.13820703390E+02  0.19953664724E+02  0.51100000000E-03 0. -1.
        -12    1    4    4    0    0  0.94535551889E+00  0.10885784788E+02 -0.87939022420E-01  0.10927110358E+02  0.00000000000E+00 0.  1.
</event>
<event>
 8    1  0.3146747E-007  0.9118800E+02  0.7816164E-02  0.1184000E+00
        -11   -1    0    0    0    0  0.00000000000E+00  0.00000000000E+00  0.45593999997E+02  0.45594000000E+02  0.51100000000E-03 0.  1.
         11   -1    0    0    0    0 -0.00000000000E+00 -0.00000000000E+00 -0.45593999997E+02  0.45594000000E+02  0.51100000000E-03 0. -1.
         23    2    1    2    0    0  0.17763568394E-14  0.00000000000E+00  0.00000000000E+00  0.91188000000E+02  0.91188000000E+02 0.  0.
    9900012    2    3    3    0    0  0.10143434390E+02  0.81331052075E+01 -0.34449122096E+02  0.54367100028E+02  0.40000036134E+02 0.  0.
        -12    1    3    3    0    0 -0.10143434390E+02 -0.81331052075E+01  0.34449122096E+02  0.36820899972E+02  0.00000000000E+00 0.  1.
         11    1    4    4    0    0  0.22829890221E+02  0.62921914197E+01 -0.15853694543E+02  0.28497985741E+02  0.51100000000E-03 0. -1.
        -11    1    4    4    0    0 -0.69276517325E+01 -0.38942785238E+01 -0.34149248887E+01  0.86498252008E+01  0.51100000000E-03 0.  1.
         12    1    4    4    0    0 -0.57588040983E+01  0.57351923116E+01 -0.15180502665E+02  0.17219289087E+02  0.00000000000E+00 0. -1.
</event>
<event>
 8    1  0.3146747E-007  0.9118800E+02  0.7816164E-02  0.1184000E+00
        -11   -1    0    0    0    0  0.00000000000E+00  0.00000000000E+00  0.45593999997E+02  0.45594000000E+02  0.51100000000E-03 0.  1.
         11   -1    0    0    0    0 -0.00000000000E+00 -0.00000000000E+00 -0.45593999997E+02  0.45594000000E+02  0.51100000000E-03 0. -1.
         23    2    1    2    0    0  0.17763568394E-14  0.00000000000E+00  0.00000000000E+00  0.91188000000E+02  0.91188000000E+02 0.  0.
    9900012    2    3    3    0    0  0.10387050325E+02  0.21882835547E+02  0.27731430923E+02  0.54367060752E+02  0.39999946597E+02 0.  0.
         12    1    3    3    0    0 -0.10387050325E+02 -0.21882835547E+02 -0.27731430923E+02  0.36820939248E+02  0.00000000000E+00 0. -1.
         11    1    4    4    0    0 -0.52817992564E+01 -0.13289098917E+01 -0.30656581793E-01  0.54464984138E+01  0.51100000000E-03 0. -1.
        -11    1    4    4    0    0  0.11598019207E+02 -0.40566799034E+01  0.54001513584E+01  0.13421338842E+02  0.51100000000E-03 0.  1.
        -12    1    4    4    0    0  0.40708303743E+01  0.27268425342E+02  0.22361936147E+02  0.35499223496E+02  0.00000000000E+00 0.  1.
</event>
<event>
 8    1  0.3146747E-007  0.9118800E+02  0.7816164E-02  0.1184000E+00
        -11   -1    0    0    0    0  0.00000000000E+00  0.00000000000E+00  0.45593999997E+02  0.45594000000E+02  0.51100000000E-03 0.  1.
         11   -1    0    0    0    0 -0.00000000000E+00 -0.00000000000E+00 -0.45593999997E+02  0.45594000000E+02  0.51100000000E-03 0. -1.
         23    2    1    2    0    0  0.53290705182E-14 -0.71054273576E-14 -0.17763568394E-14  0.91188000000E+02  0.91188000000E+02 0.  0.
    9900012    2    3    3    0    0  0.11839435621E+02 -0.33721155213E+02 -0.88594543397E+01  0.54367102728E+02  0.40000042288E+02 0.  0.
        -12    1    3    3    0    0 -0.11839435621E+02  0.33721155213E+02  0.88594543397E+01  0.36820897272E+02  0.00000000000E+00 0.  1.
         11    1    4    4    0    0  0.19122417696E+02 -0.25529030963E+01  0.51627043765E+00  0.19298982050E+02  0.51100000000E-03 0. -1.
        -11    1    4    4    0    0 -0.49185672167E+01 -0.25373379538E+02 -0.28111579869E+01  0.25998140359E+02  0.51100000000E-03 0.  1.
         12    1    4    4    0    0 -0.23644148578E+01 -0.57948725792E+01 -0.65645667905E+01  0.90699803184E+01  0.00000000000E+00 0. -1.
</event>
<event>
 8    1  0.3146747E-007  0.9118800E+02  0.7816164E-02  0.1184000E+00
        -11   -1    0    0    0    0  0.00000000000E+00  0.00000000000E+00  0.45593999997E+02  0.45594000000E+02  0.51100000000E-03 0.  1.
         11   -1    0    0    0    0 -0.00000000000E+00 -0.00000000000E+00 -0.45593999997E+02  0.45594000000E+02  0.51100000000E-03 0. -1.
         23    2    1    2    0    0  0.00000000000E+00  0.00000000000E+00  0.00000000000E+00  0.91188000000E+02  0.91188000000E+02 0.  0.
    9900012    2    3    3    0    0 -0.10913263978E+02 -0.33915252698E+02 -0.92970068404E+01  0.54367108751E+02  0.40000056019E+02 0.  0.
        -12    1    3    3    0    0  0.10913263978E+02  0.33915252698E+02  0.92970068404E+01  0.36820891249E+02  0.00000000000E+00 0.  1.
         11    1    4    4    0    0 -0.84224598113E+01 -0.52458986279E+01 -0.76858009799E+01  0.12551048508E+02  0.51100000000E-03 0. -1.
        -11    1    4    4    0    0  0.11285976000E+02 -0.44501729816E+01 -0.61237734914E+01  0.13589624567E+02  0.51100000000E-03 0.  1.
         12    1    4    4    0    0 -0.13776780166E+02 -0.24219181088E+02  0.45125676310E+01  0.28226435676E+02  0.00000000000E+00 0. -1.
</event>
<event>
 8    1  0.3146747E-007  0.9118800E+02  0.7816164E-02  0.1184000E+00
        -11   -1    0    0    0    0  0.00000000000E+00  0.00000000000E+00  0.45593999997E+02  0.45594000000E+02  0.51100000000E-03 0.  1.
         11   -1    0    0    0    0 -0.00000000000E+00 -0.00000000000E+00 -0.45593999997E+02  0.45594000000E+02  0.51100000000E-03 0. -1.
         23    2    1    2    0    0  0.00000000000E+00  0.00000000000E+00  0.00000000000E+00  0.91188000000E+02  0.91188000000E+02 0.  0.
    9900012    2    3    3    0    0  0.10860012785E+02 -0.33879461361E+02 -0.94880356398E+01  0.54367073883E+02  0.39999976531E+02 0.  0.
        -12    1    3    3    0    0 -0.10860012785E+02  0.33879461361E+02  0.94880356398E+01  0.36820926117E+02  0.00000000000E+00 0.  1.
         11    1    4    4    0    0  0.72320628931E+01 -0.29882624727E+02 -0.13394021142E+02  0.33536156561E+02  0.51100000000E-03 0. -1.
        -11    1    4    4    0    0  0.11727073760E+02 -0.38190582750E+01  0.28806550539E+01  0.12665213732E+02  0.51100000000E-03 0.  1.
         12    1    4    4    0    0 -0.80991238687E+01 -0.17777835902E+00  0.10253304483E+01  0.81657035897E+01  0.00000000000E+00 0. -1.
</event>
<event>
 8    1  0.3146747E-007  0.9118800E+02  0.7816164E-02  0.1184000E+00
        -11   -1    0    0    0    0  0.00000000000E+00  0.00000000000E+00  0.45593999997E+02  0.45594000000E+02  0.51100000000E-03 0. -1.
         11   -1    0    0    0    0 -0.00000000000E+00 -0.00000000000E+00 -0.45593999997E+02  0.45594000000E+02  0.51100000000E-03 0.  1.
         23    2    1    2    0    0  0.00000000000E+00  0.00000000000E+00  0.00000000000E+00  0.91188000000E+02  0.91188000000E+02 0.  0.
    9900012    2    3    3    0    0 -0.22197296207E+02  0.15586115957E+02 -0.24902453785E+02  0.54367093248E+02  0.40000020677E+02 0.  0.
         12    1    3    3    0    0  0.22197296207E+02 -0.15586115957E+02  0.24902453785E+02  0.36820906752E+02  0.00000000000E+00 0. -1.
         11    1    4    4    0    0  0.89674302101E+01  0.29430358824E+01  0.36489175322E+01  0.10118837097E+02  0.51100000000E-03 0. -1.
        -11    1    4    4    0    0 -0.19487499011E+02  0.62918008445E+01 -0.16344712387E+02  0.26201125908E+02  0.51100000000E-03 0.  1.
         12    1    4    4    0    0 -0.11677227406E+02  0.63512792304E+01 -0.12206658931E+02  0.18047130243E+02  0.00000000000E+00 0. -1.
</event>
<event>
 8    1  0.3146747E-007  0.9118800E+02  0.7816164E-02  0.1184000E+00
        -11   -1    0    0    0    0  0.00000000000E+00  0.00000000000E+00  0.45593999997E+02  0.45594000000E+02  0.51100000000E-03 0.  1.
         11   -1    0    0    0    0 -0.00000000000E+00 -0.00000000000E+00 -0.45593999997E+02  0.45594000000E+02  0.51100000000E-03 0. -1.
         23    2    1    2    0    0  0.71054273576E-14 -0.35527136788E-14  0.00000000000E+00  0.91188000000E+02  0.91188000000E+02 0.  0.
    9900012    2    3    3    0    0 -0.26617242509E+02  0.14515985719E+02  0.20894648657E+02  0.54367112142E+02  0.40000063749E+02 0.  0.
         12    1    3    3    0    0  0.26617242509E+02 -0.14515985719E+02 -0.20894648657E+02  0.36820887858E+02  0.00000000000E+00 0. -1.
         11    1    4    4    0    0 -0.33152798695E+01  0.13739150945E+02  0.26172101591E+02  0.29744482703E+02  0.51100000000E-03 0.  1.
        -11    1    4    4    0    0 -0.13151524280E+02 -0.97853184475E+00 -0.55735260044E+01  0.14317273059E+02  0.51100000000E-03 0. -1.
        -12    1    4    4    0    0 -0.10150438359E+02  0.17553666186E+01  0.29607307008E+00  0.10305356380E+02  0.00000000000E+00 0.  1.
</event>
<event>
 8    1  0.3146747E-007  0.9118800E+02  0.7816164E-02  0.1184000E+00
        -11   -1    0    0    0    0  0.00000000000E+00  0.00000000000E+00  0.45593999997E+02  0.45594000000E+02  0.51100000000E-03 0.  1.
         11   -1    0    0    0    0 -0.00000000000E+00 -0.00000000000E+00 -0.45593999997E+02  0.45594000000E+02  0.51100000000E-03 0. -1.
         23    2    1    2    0    0  0.00000000000E+00 -0.35527136788E-14 -0.71054273576E-14  0.91188000000E+02  0.91188000000E+02 0.  0.
    9900012    2    3    3    0    0 -0.16059122272E+02 -0.25422521857E+02 -0.21250404366E+02  0.54367085950E+02  0.40000004041E+02 0.  0.
        -12    1    3    3    0    0  0.16059122272E+02  0.25422521857E+02  0.21250404366E+02  0.36820914050E+02  0.00000000000E+00 0.  1.
         11    1    4    4    0    0 -0.10384630415E+02 -0.20346686762E+02 -0.21112037157E+02  0.31105406672E+02  0.51100000000E-03 0. -1.
        -11    1    4    4    0    0 -0.12828803926E+01  0.49902649454E+01  0.80534225679E+01  0.95606559213E+01  0.51100000000E-03 0.  1.
        -12    1    4    4    0    0 -0.43916114644E+01 -0.10066100040E+02 -0.81917897770E+01  0.13701023357E+02  0.00000000000E+00 0.  1.
</event>
<event>
 8    1  0.3146747E-007  0.9118800E+02  0.7816164E-02  0.1184000E+00
        -11   -1    0    0    0    0  0.00000000000E+00  0.00000000000E+00  0.45593999997E+02  0.45594000000E+02  0.51100000000E-03 0.  1.
         11   -1    0    0    0    0 -0.00000000000E+00 -0.00000000000E+00 -0.45593999997E+02  0.45594000000E+02  0.51100000000E-03 0. -1.
         23    2    1    2    0    0  0.17763568394E-14  0.00000000000E+00  0.00000000000E+00  0.91188000000E+02  0.91188000000E+02 0.  0.
    9900012    2    3    3    0    0  0.11039687604E+02  0.18887316123E+02  0.29617124078E+02  0.54367089482E+02  0.40000012091E+02 0.  0.
         12    1    3    3    0    0 -0.11039687604E+02 -0.18887316123E+02 -0.29617124078E+02  0.36820910518E+02  0.00000000000E+00 0. -1.
         11    1    4    4    0    0 -0.11961728914E+02 -0.10401091145E+01  0.10784957465E+02  0.16139395694E+02  0.51100000000E-03 0. -1.
        -11    1    4    4    0    0  0.66574543320E+01 -0.27543834716E+00  0.70331817398E+01  0.96883027467E+01  0.51100000000E-03 0.  1.
         12    1    4    4    0    0  0.16343962186E+02  0.20202863584E+02  0.11798984874E+02  0.28539391041E+02  0.00000000000E+00 0. -1.
</event>
<event>
 8    1  0.3146747E-007  0.9118800E+02  0.7816164E-02  0.1184000E+00
        -11   -1    0    0    0    0  0.00000000000E+00  0.00000000000E+00  0.45593999997E+02  0.45594000000E+02  0.51100000000E-03 0.  1.
         11   -1    0    0    0    0 -0.00000000000E+00 -0.00000000000E+00 -0.45593999997E+02  0.45594000000E+02  0.51100000000E-03 0. -1.
         23    2    1    2    0    0  0.00000000000E+00  0.35527136788E-14 -0.35527136788E-14  0.91188000000E+02  0.91188000000E+02 0.  0.
    9900012    2    3    3    0    0  0.20205451537E+02  0.24465245237E+02 -0.18680773509E+02  0.54367084813E+02  0.40000001448E+02 0.  0.
        -12    1    3    3    0    0 -0.20205451537E+02 -0.24465245237E+02  0.18680773509E+02  0.36820915187E+02  0.00000000000E+00 0.  1.
         11    1    4    4    0    0  0.43007523878E+01 -0.47021676752E+01  0.21563718063E+01  0.67273168184E+01  0.51100000000E-03 0. -1.
        -11    1    4    4    0    0  0.22601630329E+02  0.26080857191E+02 -0.20742201763E+02  0.40265167820E+02  0.51100000000E-03 0.  1.
        -12    1    4    4    0    0 -0.66969311800E+01  0.30865557213E+01 -0.94943552301E-01  0.73746001741E+01  0.00000000000E+00 0.  1.
</event>
<event>
 8    1  0.3146747E-007  0.9118800E+02  0.7816164E-02  0.1184000E+00
        -11   -1    0    0    0    0  0.00000000000E+00  0.00000000000E+00  0.45593999997E+02  0.45594000000E+02  0.51100000000E-03 0. -1.
         11   -1    0    0    0    0 -0.00000000000E+00 -0.00000000000E+00 -0.45593999997E+02  0.45594000000E+02  0.51100000000E-03 0.  1.
         23    2    1    2    0    0  0.00000000000E+00  0.00000000000E+00 -0.35527136788E-14  0.91188000000E+02  0.91188000000E+02 0.  0.
    9900012    2    3    3    0    0  0.26204752881E+02 -0.18958646969E+01 -0.25797215568E+02  0.54367086003E+02  0.40000004161E+02 0.  0.
         12    1    3    3    0    0 -0.26204752881E+02  0.18958646969E+01  0.25797215568E+02  0.36820913997E+02  0.00000000000E+00 0. -1.
         11    1    4    4    0    0 -0.25148190025E+00 -0.16454166689E+02 -0.49243973178E+01  0.17177093287E+02  0.51100000000E-03 0. -1.
        -11    1    4    4    0    0  0.14358735248E+02  0.10434210653E+02 -0.97754033760E+01  0.20263379316E+02  0.51100000000E-03 0.  1.
         12    1    4    4    0    0  0.12097499533E+02  0.41240913392E+01 -0.11097414875E+02  0.16926613401E+02  0.00000000000E+00 0. -1.
</event>
<event>
 8    1  0.3146747E-007  0.9118800E+02  0.7816164E-02  0.1184000E+00
        -11   -1    0    0    0    0  0.00000000000E+00  0.00000000000E+00  0.45593999997E+02  0.45594000000E+02  0.51100000000E-03 0. -1.
         11   -1    0    0    0    0 -0.00000000000E+00 -0.00000000000E+00 -0.45593999997E+02  0.45594000000E+02  0.51100000000E-03 0.  1.
         23    2    1    2    0    0  0.00000000000E+00 -0.17763568394E-14  0.00000000000E+00  0.91188000000E+02  0.91188000000E+02 0.  0.
    9900012    2    3    3    0    0  0.34714897480E+02  0.93997215167E+01 -0.78931418061E+01  0.54367074439E+02  0.39999977798E+02 0.  0.
         12    1    3    3    0    0 -0.34714897480E+02 -0.93997215167E+01  0.78931418061E+01  0.36820925561E+02  0.00000000000E+00 0. -1.
         11    1    4    4    0    0 -0.39025821142E+01 -0.20023645506E+01  0.48838058712E+01  0.65643865669E+01  0.51100000000E-03 0. -1.
        -11    1    4    4    0    0  0.12637651304E+02  0.10552383093E+02 -0.14239924350E+02  0.21767830971E+02  0.51100000000E-03 0.  1.
        -12    1    4    4    0    0  0.25979828290E+02  0.84970297460E+00  0.14629766726E+01  0.26034856901E+02  0.00000000000E+00 0.  1.
</event>
<event>
 8    1  0.3146747E-007  0.9118800E+02  0.7816164E-02  0.1184000E+00
        -11   -1    0    0    0    0  0.00000000000E+00  0.00000000000E+00  0.45593999997E+02  0.45594000000E+02  0.51100000000E-03 0. -1.
         11   -1    0    0    0    0 -0.00000000000E+00 -0.00000000000E+00 -0.45593999997E+02  0.45594000000E+02  0.51100000000E-03 0.  1.
         23    2    1    2    0    0  0.33306690739E-15  0.00000000000E+00  0.00000000000E+00  0.91188000000E+02  0.91188000000E+02 0.  0.
    9900012    2    3    3    0    0 -0.76258769070E+00  0.12060040209E+02  0.34781500606E+02  0.54367097048E+02  0.40000029340E+02 0.  0.
        -12    1    3    3    0    0  0.76258769070E+00 -0.12060040209E+02 -0.34781500606E+02  0.36820902952E+02  0.00000000000E+00 0.  1.
         11    1    4    4    0    0 -0.72300685007E+01  0.14087980815E+02  0.15612681447E+02  0.22237376558E+02  0.51100000000E-03 0. -1.
        -11    1    4    4    0    0 -0.36741322228E+01 -0.20295146540E+01  0.21347910745E+02  0.21756641992E+02  0.51100000000E-03 0.  1.
        -12    1    4    4    0    0  0.10141613033E+02  0.15740483464E-02 -0.21790915862E+01  0.10373078498E+02  0.00000000000E+00 0.  1.
</event>
<event>
 8    1  0.3146747E-007  0.9118800E+02  0.7816164E-02  0.1184000E+00
        -11   -1    0    0    0    0  0.00000000000E+00  0.00000000000E+00  0.45593999997E+02  0.45594000000E+02  0.51100000000E-03 0.  1.
         11   -1    0    0    0    0 -0.00000000000E+00 -0.00000000000E+00 -0.45593999997E+02  0.45594000000E+02  0.51100000000E-03 0. -1.
         23    2    1    2    0    0 -0.35527136788E-14 -0.17763568394E-14  0.71054273576E-14  0.91188000000E+02  0.91188000000E+02 0.  0.
    9900012    2    3    3    0    0 -0.14572132628E+02 -0.13407661848E+02  0.31043004124E+02  0.54367074556E+02  0.39999978065E+02 0.  0.
         12    1    3    3    0    0  0.14572132628E+02  0.13407661848E+02 -0.31043004124E+02  0.36820925444E+02  0.00000000000E+00 0. -1.
         11    1    4    4    0    0 -0.10773963572E+02 -0.25358441918E+02  0.22488132815E+02  0.35564659219E+02  0.51100000000E-03 0. -1.
        -11    1    4    4    0    0 -0.62152935939E+01  0.10686551734E+02  0.98271080064E+01  0.15792539835E+02  0.51100000000E-03 0.  1.
         12    1    4    4    0    0  0.24171245382E+01  0.12642283368E+01 -0.12722366977E+01  0.30098755017E+01  0.00000000000E+00 0. -1.
</event>
<event>
 8    1  0.3146747E-007  0.9118800E+02  0.7816164E-02  0.1184000E+00
        -11   -1    0    0    0    0  0.00000000000E+00  0.00000000000E+00  0.45593999997E+02  0.45594000000E+02  0.51100000000E-03 0. -1.
         11   -1    0    0    0    0 -0.00000000000E+00 -0.00000000000E+00 -0.45593999997E+02  0.45594000000E+02  0.51100000000E-03 0.  1.
         23    2    1    2    0    0  0.00000000000E+00  0.00000000000E+00  0.00000000000E+00  0.91188000000E+02  0.91188000000E+02 0.  0.
    9900012    2    3    3    0    0 -0.32414170657E+02 -0.12554114519E+02  0.12144786496E+02  0.54367080813E+02  0.39999992329E+02 0.  0.
        -12    1    3    3    0    0  0.32414170657E+02  0.12554114519E+02 -0.12144786496E+02  0.36820919187E+02  0.00000000000E+00 0.  1.
         11    1    4    4    0    0 -0.12231731875E+02 -0.90771567400E+01  0.16626714223E+02  0.22549005860E+02  0.51100000000E-03 0. -1.
        -11    1    4    4    0    0  0.11270320211E+01 -0.20160024914E+01  0.71380430694E+01  0.75024080364E+01  0.51100000000E-03 0.  1.
        -12    1    4    4    0    0 -0.21309470803E+02 -0.14609552877E+01 -0.11619970797E+02  0.24315666916E+02  0.00000000000E+00 0.  1.
</event>
<event>
 8    1  0.3146747E-007  0.9118800E+02  0.7816164E-02  0.1184000E+00
        -11   -1    0    0    0    0  0.00000000000E+00  0.00000000000E+00  0.45593999997E+02  0.45594000000E+02  0.51100000000E-03 0. -1.
         11   -1    0    0    0    0 -0.00000000000E+00 -0.00000000000E+00 -0.45593999997E+02  0.45594000000E+02  0.51100000000E-03 0.  1.
         23    2    1    2    0    0  0.00000000000E+00 -0.35527136788E-14  0.00000000000E+00  0.91188000000E+02  0.91188000000E+02 0.  0.
    9900012    2    3    3    0    0  0.32454420466E+02 -0.17358408449E+02 -0.10846124150E+01  0.54367080188E+02  0.39999990905E+02 0.  0.
         12    1    3    3    0    0 -0.32454420466E+02  0.17358408449E+02  0.10846124150E+01  0.36820919812E+02  0.00000000000E+00 0. -1.
         11    1    4    4    0    0  0.73035543771E+01  0.28775607437E+01 -0.36282024438E+01  0.86478966001E+01  0.51100000000E-03 0. -1.
        -11    1    4    4    0    0  0.25139655113E+02 -0.20586400945E+02 -0.93569122779E+01  0.33813517574E+02  0.51100000000E-03 0.  1.
         12    1    4    4    0    0  0.11210975769E-01  0.35043175165E+00  0.11900502307E+02  0.11905666015E+02  0.00000000000E+00 0. -1.
</event>
<event>
 8    1  0.3146747E-007  0.9118800E+02  0.7816164E-02  0.1184000E+00
        -11   -1    0    0    0    0  0.00000000000E+00  0.00000000000E+00  0.45593999997E+02  0.45594000000E+02  0.51100000000E-03 0. -1.
         11   -1    0    0    0    0 -0.00000000000E+00 -0.00000000000E+00 -0.45593999997E+02  0.45594000000E+02  0.51100000000E-03 0.  1.
         23    2    1    2    0    0  0.00000000000E+00  0.17763568394E-14  0.88817841970E-15  0.91188000000E+02  0.91188000000E+02 0.  0.
    9900012    2    3    3    0    0 -0.35720035471E+02 -0.64694080410E+01  0.61648784895E+01  0.54367083373E+02  0.39999998166E+02 0.  0.
        -12    1    3    3    0    0  0.35720035471E+02  0.64694080410E+01 -0.61648784895E+01  0.36820916627E+02  0.00000000000E+00 0.  1.
         11    1    4    4    0    0 -0.36881820988E+01 -0.77935192092E+01  0.16431578404E+02  0.18556357346E+02  0.51100000000E-03 0. -1.
        -11    1    4    4    0    0 -0.16894998815E+02  0.45715685704E+01 -0.10341105734E+02  0.20329257051E+02  0.51100000000E-03 0.  1.
         12    1    4    4    0    0 -0.15136854557E+02 -0.32474574022E+01  0.74405819658E-01  0.15481468977E+02  0.00000000000E+00 0. -1.
</event>
<event>
 8    1  0.3146747E-007  0.9118800E+02  0.7816164E-02  0.1184000E+00
        -11   -1    0    0    0    0  0.00000000000E+00  0.00000000000E+00  0.45593999997E+02  0.45594000000E+02  0.51100000000E-03 0.  1.
         11   -1    0    0    0    0 -0.00000000000E+00 -0.00000000000E+00 -0.45593999997E+02  0.45594000000E+02  0.51100000000E-03 0. -1.
         23    2    1    2    0    0 -0.35527136788E-14  0.00000000000E+00  0.35527136788E-14  0.91188000000E+02  0.91188000000E+02 0.  0.
    9900012    2    3    3    0    0  0.17184696112E+02 -0.99764125004E+01 -0.30999045141E+02  0.54367036046E+02  0.39999890274E+02 0.  0.
        -12    1    3    3    0    0 -0.17184696112E+02  0.99764125004E+01  0.30999045141E+02  0.36820963954E+02  0.00000000000E+00 0.  1.
         11    1    4    4    0    0 -0.38027303158E+01 -0.21320536237E+01  0.32766672413E+01  0.54537105699E+01  0.51100000000E-03 0. -1.
        -11    1    4    4    0    0  0.19072301143E+02  0.64912117204E+01 -0.22988363749E+02  0.30567194321E+02  0.51100000000E-03 0.  1.
         12    1    4    4    0    0  0.19151252843E+01 -0.14335570597E+02 -0.11287348633E+02  0.18346131155E+02  0.00000000000E+00 0. -1.
</event>
<event>
 8    1  0.3146747E-007  0.9118800E+02  0.7816164E-02  0.1184000E+00
        -11   -1    0    0    0    0  0.00000000000E+00  0.00000000000E+00  0.45593999997E+02  0.45594000000E+02  0.51100000000E-03 0. -1.
         11   -1    0    0    0    0 -0.00000000000E+00 -0.00000000000E+00 -0.45593999997E+02  0.45594000000E+02  0.51100000000E-03 0.  1.
         23    2    1    2    0    0  0.00000000000E+00  0.00000000000E+00  0.00000000000E+00  0.91188000000E+02  0.91188000000E+02 0.  0.
    9900012    2    3    3    0    0 -0.23361948927E+02 -0.84267524708E+01 -0.27184537753E+02  0.54366947493E+02  0.39999688400E+02 0.  0.
         12    1    3    3    0    0  0.23361948927E+02  0.84267524708E+01  0.27184537753E+02  0.36821052507E+02  0.00000000000E+00 0. -1.
         11    1    4    4    0    0 -0.38470814347E+01 -0.15542676097E+02 -0.70333606577E+01  0.17488366940E+02  0.51100000000E-03 0. -1.
        -11    1    4    4    0    0 -0.31824689838E+01 -0.79610390355E+01 -0.68610697491E+01  0.10980916616E+02  0.51100000000E-03 0.  1.
        -12    1    4    4    0    0 -0.16332398509E+02  0.15076962662E+02 -0.13290107346E+02  0.25897663937E+02  0.00000000000E+00 0.  1.
</event>
<event>
 8    1  0.3146747E-007  0.9118800E+02  0.7816164E-02  0.1184000E+00
        -11   -1    0    0    0    0  0.00000000000E+00  0.00000000000E+00  0.45593999997E+02  0.45594000000E+02  0.51100000000E-03 0.  1.
         11   -1    0    0    0    0 -0.00000000000E+00 -0.00000000000E+00 -0.45593999997E+02  0.45594000000E+02  0.51100000000E-03 0. -1.
         23    2    1    2    0    0 -0.44408920985E-15  0.00000000000E+00  0.00000000000E+00  0.91188000000E+02  0.91188000000E+02 0.  0.
    9900012    2    3    3    0    0  0.33582928855E+01  0.36526183234E+02 -0.32155472690E+01  0.54367082888E+02  0.39999997059E+02 0.  0.
         12    1    3    3    0    0 -0.33582928855E+01 -0.36526183234E+02  0.32155472690E+01  0.36820917112E+02  0.00000000000E+00 0. -1.
         11    1    4    4    0    0  0.87317843246E+01 -0.13560018115E+01 -0.65334371115E+01  0.10989476746E+02  0.51100000000E-03 0. -1.
        -11    1    4    4    0    0 -0.57517125649E+01  0.90301649036E+00 -0.16814597883E+01  0.60601108482E+01  0.51100000000E-03 0.  1.
        -12    1    4    4    0    0  0.37822112592E+00  0.36979168555E+02  0.49993496308E+01  0.37317495293E+02  0.00000000000E+00 0.  1.
</event>
<event>
 8    1  0.3146747E-007  0.9118800E+02  0.7816164E-02  0.1184000E+00
        -11   -1    0    0    0    0  0.00000000000E+00  0.00000000000E+00  0.45593999997E+02  0.45594000000E+02  0.51100000000E-03 0. -1.
         11   -1    0    0    0    0 -0.00000000000E+00 -0.00000000000E+00 -0.45593999997E+02  0.45594000000E+02  0.51100000000E-03 0.  1.
         23    2    1    2    0    0  0.00000000000E+00  0.00000000000E+00 -0.35527136788E-14  0.91188000000E+02  0.91188000000E+02 0.  0.
    9900012    2    3    3    0    0 -0.17870221836E+02 -0.17367004400E+02 -0.27107600246E+02  0.54367086630E+02  0.40000005590E+02 0.  0.
         12    1    3    3    0    0  0.17870221836E+02  0.17367004400E+02  0.27107600246E+02  0.36820913370E+02  0.00000000000E+00 0. -1.
         11    1    4    4    0    0 -0.14262804753E+00 -0.59857752786E+01 -0.35181931860E+00  0.59978017257E+01  0.51100000000E-03 0. -1.
        -11    1    4    4    0    0 -0.27169121247E+02 -0.87788900635E+01 -0.25881457284E+02  0.38536734312E+02  0.51100000000E-03 0.  1.
        -12    1    4    4    0    0  0.94415274578E+01 -0.26023390579E+01 -0.87432364379E+00  0.98325505920E+01  0.00000000000E+00 0.  1.
</event>
<event>
 8    1  0.3146747E-007  0.9118800E+02  0.7816164E-02  0.1184000E+00
        -11   -1    0    0    0    0  0.00000000000E+00  0.00000000000E+00  0.45593999997E+02  0.45594000000E+02  0.51100000000E-03 0. -1.
         11   -1    0    0    0    0 -0.00000000000E+00 -0.00000000000E+00 -0.45593999997E+02  0.45594000000E+02  0.51100000000E-03 0.  1.
         23    2    1    2    0    0  0.00000000000E+00  0.00000000000E+00  0.00000000000E+00  0.91188000000E+02  0.91188000000E+02 0.  0.
    9900012    2    3    3    0    0 -0.10289988034E+02 -0.34706199232E+02 -0.67361460847E+01  0.54367084980E+02  0.40000001828E+02 0.  0.
         12    1    3    3    0    0  0.10289988034E+02  0.34706199232E+02  0.67361460847E+01  0.36820915020E+02  0.00000000000E+00 0. -1.
         11    1    4    4    0    0  0.37612116587E+01 -0.90606897267E+01 -0.14797910500E+02  0.17754463295E+02  0.51100000000E-03 0. -1.
        -11    1    4    4    0    0 -0.57620870467E+01 -0.22364689105E+02 -0.19858745004E+01  0.23180264530E+02  0.51100000000E-03 0.  1.
         12    1    4    4    0    0 -0.82891126460E+01 -0.32808204004E+01  0.10047638915E+02  0.13432357155E+02  0.00000000000E+00 0. -1.
</event>
<event>
 8    1  0.3146747E-007  0.9118800E+02  0.7816164E-02  0.1184000E+00
        -11   -1    0    0    0    0  0.00000000000E+00  0.00000000000E+00  0.45593999997E+02  0.45594000000E+02  0.51100000000E-03 0. -1.
         11   -1    0    0    0    0 -0.00000000000E+00 -0.00000000000E+00 -0.45593999997E+02  0.45594000000E+02  0.51100000000E-03 0.  1.
         23    2    1    2    0    0  0.00000000000E+00 -0.35527136788E-14  0.17763568394E-14  0.91188000000E+02  0.91188000000E+02 0.  0.
    9900012    2    3    3    0    0 -0.17445433197E+02  0.30586513655E+02  0.10765714370E+02  0.54367101547E+02  0.40000039596E+02 0.  0.
        -12    1    3    3    0    0  0.17445433197E+02 -0.30586513655E+02 -0.10765714370E+02  0.36820898453E+02  0.00000000000E+00 0.  1.
         11    1    4    4    0    0 -0.55027628713E+01 -0.38707539758E+01  0.72831327107E+01  0.99149966163E+01  0.51100000000E-03 0. -1.
        -11    1    4    4    0    0 -0.17306312672E+02  0.21889804828E+02  0.95606461674E+01  0.29497084078E+02  0.51100000000E-03 0.  1.
        -12    1    4    4    0    0  0.53636423465E+01  0.12567462803E+02 -0.60780645079E+01  0.14955020852E+02  0.00000000000E+00 0.  1.
</event>
<event>
 8    1  0.3146747E-007  0.9118800E+02  0.7816164E-02  0.1184000E+00
        -11   -1    0    0    0    0  0.00000000000E+00  0.00000000000E+00  0.45593999997E+02  0.45594000000E+02  0.51100000000E-03 0.  1.
         11   -1    0    0    0    0 -0.00000000000E+00 -0.00000000000E+00 -0.45593999997E+02  0.45594000000E+02  0.51100000000E-03 0. -1.
         23    2    1    2    0    0  0.17763568394E-14  0.00000000000E+00  0.00000000000E+00  0.91188000000E+02  0.91188000000E+02 0.  0.
    9900012    2    3    3    0    0  0.13777940449E+02 -0.53719591633E+01  0.33720782925E+02  0.54367071314E+02  0.39999970674E+02 0.  0.
         12    1    3    3    0    0 -0.13777940449E+02  0.53719591633E+01 -0.33720782925E+02  0.36820928686E+02  0.00000000000E+00 0. -1.
         11    1    4    4    0    0 -0.29664996666E+01 -0.26638240935E+01  0.18338739998E+02  0.18767137876E+02  0.51100000000E-03 0. -1.
        -11    1    4    4    0    0  0.88030033037E+01 -0.56424935912E+00  0.22847723288E+02  0.24491421033E+02  0.51100000000E-03 0.  1.
         12    1    4    4    0    0  0.79414368115E+01 -0.21438857107E+01 -0.74656803617E+01  0.11108512404E+02  0.00000000000E+00 0. -1.
</event>
<event>
 8    1  0.3146747E-007  0.9118800E+02  0.7816164E-02  0.1184000E+00
        -11   -1    0    0    0    0  0.00000000000E+00  0.00000000000E+00  0.45593999997E+02  0.45594000000E+02  0.51100000000E-03 0. -1.
         11   -1    0    0    0    0 -0.00000000000E+00 -0.00000000000E+00 -0.45593999997E+02  0.45594000000E+02  0.51100000000E-03 0.  1.
         23    2    1    2    0    0  0.00000000000E+00  0.00000000000E+00  0.00000000000E+00  0.91188000000E+02  0.91188000000E+02 0.  0.
    9900012    2    3    3    0    0  0.25722596395E+02 -0.26004998398E+02 -0.42270522233E+01  0.54367083695E+02  0.39999998900E+02 0.  0.
         12    1    3    3    0    0 -0.25722596395E+02  0.26004998398E+02  0.42270522233E+01  0.36820916305E+02  0.00000000000E+00 0. -1.
         11    1    4    4    0    0 -0.44515780445E+01 -0.77572316411E+01 -0.13060001567E+02  0.15828923874E+02  0.51100000000E-03 0. -1.
        -11    1    4    4    0    0 -0.78705277260E-01 -0.28044539233E+01 -0.13002596521E+01  0.30922211682E+01  0.51100000000E-03 0.  1.
        -12    1    4    4    0    0  0.30252879717E+02 -0.15443312834E+02  0.10133208996E+02  0.35445938653E+02  0.00000000000E+00 0.  1.
</event>
<event>
 8    1  0.3146747E-007  0.9118800E+02  0.7816164E-02  0.1184000E+00
        -11   -1    0    0    0    0  0.00000000000E+00  0.00000000000E+00  0.45593999997E+02  0.45594000000E+02  0.51100000000E-03 0. -1.
         11   -1    0    0    0    0 -0.00000000000E+00 -0.00000000000E+00 -0.45593999997E+02  0.45594000000E+02  0.51100000000E-03 0.  1.
         23    2    1    2    0    0 -0.35527136788E-14  0.35527136788E-14 -0.13322676296E-14  0.91188000000E+02  0.91188000000E+02 0.  0.
    9900012    2    3    3    0    0 -0.20077923176E+02  0.30842564799E+02 -0.11801047343E+01  0.54367089506E+02  0.40000012147E+02 0.  0.
        -12    1    3    3    0    0  0.20077923176E+02 -0.30842564799E+02  0.11801047343E+01  0.36820910494E+02  0.00000000000E+00 0.  1.
         11    1    4    4    0    0 -0.94800931726E+01 -0.18124638502E+01 -0.53908851784E+00  0.96668406659E+01  0.51100000000E-03 0. -1.
        -11    1    4    4    0    0 -0.80809038295E+00  0.97502087324E+01 -0.13496286589E+02  0.16669413077E+02  0.51100000000E-03 0.  1.
         12    1    4    4    0    0 -0.97897396203E+01  0.22904819917E+02  0.12855270372E+02  0.28030835763E+02  0.00000000000E+00 0. -1.
</event>
<event>
 8    1  0.3146747E-007  0.9118800E+02  0.7816164E-02  0.1184000E+00
        -11   -1    0    0    0    0  0.00000000000E+00  0.00000000000E+00  0.45593999997E+02  0.45594000000E+02  0.51100000000E-03 0.  1.
         11   -1    0    0    0    0 -0.00000000000E+00 -0.00000000000E+00 -0.45593999997E+02  0.45594000000E+02  0.51100000000E-03 0. -1.
         23    2    1    2    0    0  0.00000000000E+00  0.35527136788E-14  0.00000000000E+00  0.91188000000E+02  0.91188000000E+02 0.  0.
    9900012    2    3    3    0    0  0.28545437599E+02 -0.22551575545E+02  0.56892345744E+01  0.54367041874E+02  0.39999903560E+02 0.  0.
        -12    1    3    3    0    0 -0.28545437599E+02  0.22551575545E+02 -0.56892345744E+01  0.36820958126E+02  0.00000000000E+00 0.  1.
         11    1    4    4    0    0 -0.45917831284E+01 -0.10897301653E+02  0.10839099889E+01  0.11874784914E+02  0.51100000000E-03 0. -1.
        -11    1    4    4    0    0  0.23112477085E+02  0.35065640592E+01  0.63756797761E+01  0.24230804390E+02  0.51100000000E-03 0.  1.
         12    1    4    4    0    0  0.10024743642E+02 -0.15160837951E+02 -0.17703551906E+01  0.18261452570E+02  0.00000000000E+00 0. -1.
</event>
<event>
 8    1  0.3146747E-007  0.9118800E+02  0.7816164E-02  0.1184000E+00
        -11   -1    0    0    0    0  0.00000000000E+00  0.00000000000E+00  0.45593999997E+02  0.45594000000E+02  0.51100000000E-03 0. -1.
         11   -1    0    0    0    0 -0.00000000000E+00 -0.00000000000E+00 -0.45593999997E+02  0.45594000000E+02  0.51100000000E-03 0.  1.
         23    2    1    2    0    0  0.00000000000E+00  0.00000000000E+00  0.00000000000E+00  0.91188000000E+02  0.91188000000E+02 0.  0.
    9900012    2    3    3    0    0 -0.26842247378E+02 -0.19404004962E+02 -0.16085968180E+02  0.54367081691E+02  0.39999994330E+02 0.  0.
        -12    1    3    3    0    0  0.26842247378E+02  0.19404004962E+02  0.16085968180E+02  0.36820918309E+02  0.00000000000E+00 0.  1.
         11    1    4    4    0    0 -0.12746227842E+02 -0.17334062273E+02 -0.11415929575E+02  0.24356918676E+02  0.51100000000E-03 0. -1.
        -11    1    4    4    0    0 -0.99867346928E+00 -0.56467197333E+01  0.90462814423E+01  0.10710648936E+02  0.51100000000E-03 0.  1.
        -12    1    4    4    0    0 -0.13097346067E+02  0.35767770443E+01 -0.13716320047E+02  0.19299514078E+02  0.00000000000E+00 0.  1.
</event>
<event>
 8    1  0.3146747E-007  0.9118800E+02  0.7816164E-02  0.1184000E+00
        -11   -1    0    0    0    0  0.00000000000E+00  0.00000000000E+00  0.45593999997E+02  0.45594000000E+02  0.51100000000E-03 0. -1.
         11   -1    0    0    0    0 -0.00000000000E+00 -0.00000000000E+00 -0.45593999997E+02  0.45594000000E+02  0.51100000000E-03 0.  1.
         23    2    1    2    0    0 -0.71054273576E-14  0.44408920985E-15  0.00000000000E+00  0.91188000000E+02  0.91188000000E+02 0.  0.
    9900012    2    3    3    0    0 -0.32117412843E+02 -0.19318907942E+01  0.17902926331E+02  0.54367147470E+02  0.40000144288E+02 0.  0.
        -12    1    3    3    0    0  0.32117412843E+02  0.19318907942E+01 -0.17902926331E+02  0.36820852530E+02  0.00000000000E+00 0.  1.
         11    1    4    4    0    0 -0.26864911719E+02  0.73212816772E+01  0.18064021419E+02  0.33190864965E+02  0.51100000000E-03 0. -1.
        -11    1    4    4    0    0  0.49613773165E+01 -0.69427171784E+01 -0.47238018528E+01  0.97535065951E+01  0.51100000000E-03 0.  1.
        -12    1    4    4    0    0 -0.10213878441E+02 -0.23104552930E+01  0.45627067647E+01  0.11422775910E+02  0.00000000000E+00 0.  1.
</event>
<event>
 8    1  0.3146747E-007  0.9118800E+02  0.7816164E-02  0.1184000E+00
        -11   -1    0    0    0    0  0.00000000000E+00  0.00000000000E+00  0.45593999997E+02  0.45594000000E+02  0.51100000000E-03 0.  1.
         11   -1    0    0    0    0 -0.00000000000E+00 -0.00000000000E+00 -0.45593999997E+02  0.45594000000E+02  0.51100000000E-03 0. -1.
         23    2    1    2    0    0  0.00000000000E+00 -0.17763568394E-14  0.00000000000E+00  0.91188000000E+02  0.91188000000E+02 0.  0.
    9900012    2    3    3    0    0  0.22820262500E+02 -0.88331045580E+01 -0.27513486714E+02  0.54367081111E+02  0.39999993008E+02 0.  0.
        -12    1    3    3    0    0 -0.22820262500E+02  0.88331045580E+01  0.27513486714E+02  0.36820918889E+02  0.00000000000E+00 0.  1.
         11    1    4    4    0    0  0.12726896188E+02  0.65605092299E+01  0.29813067389E+01  0.14625401125E+02  0.51100000000E-03 0.  1.
        -11    1    4    4    0    0  0.13939157413E+02 -0.16305060146E+02 -0.24531841166E+02  0.32587824828E+02  0.51100000000E-03 0. -1.
        -12    1    4    4    0    0 -0.38457911002E+01  0.91144635783E+00 -0.59629522867E+01  0.71538551581E+01  0.00000000000E+00 0.  1.
</event>
<event>
 8    1  0.3146747E-007  0.9118800E+02  0.7816164E-02  0.1184000E+00
        -11   -1    0    0    0    0  0.00000000000E+00  0.00000000000E+00  0.45593999997E+02  0.45594000000E+02  0.51100000000E-03 0. -1.
         11   -1    0    0    0    0 -0.00000000000E+00 -0.00000000000E+00 -0.45593999997E+02  0.45594000000E+02  0.51100000000E-03 0.  1.
         23    2    1    2    0    0 -0.17763568394E-14  0.00000000000E+00  0.88817841970E-15  0.91188000000E+02  0.91188000000E+02 0.  0.
    9900012    2    3    3    0    0 -0.13785418944E+02  0.34009442745E+02 -0.30168026910E+01  0.54367067506E+02  0.39999961994E+02 0.  0.
         12    1    3    3    0    0  0.13785418944E+02 -0.34009442745E+02  0.30168026910E+01  0.36820932494E+02  0.00000000000E+00 0. -1.
         11    1    4    4    0    0 -0.12106932174E+02  0.11629152711E+00 -0.87775180753E+01  0.14954469373E+02  0.51100000000E-03 0. -1.
        -11    1    4    4    0    0  0.64864833830E+01  0.34615065024E+01  0.23592438673E+01  0.77215623957E+01  0.51100000000E-03 0.  1.
        -12    1    4    4    0    0 -0.81649701523E+01  0.30431644715E+02  0.34014715170E+01  0.31691035738E+02  0.00000000000E+00 0.  1.
</event>
<event>
 8    1  0.3146747E-007  0.9118800E+02  0.7816164E-02  0.1184000E+00
        -11   -1    0    0    0    0  0.00000000000E+00  0.00000000000E+00  0.45593999997E+02  0.45594000000E+02  0.51100000000E-03 0. -1.
         11   -1    0    0    0    0 -0.00000000000E+00 -0.00000000000E+00 -0.45593999997E+02  0.45594000000E+02  0.51100000000E-03 0.  1.
         23    2    1    2    0    0  0.00000000000E+00  0.88817841970E-15  0.00000000000E+00  0.91188000000E+02  0.91188000000E+02 0.  0.
    9900012    2    3    3    0    0  0.44438804631E+01  0.30036689745E+01 -0.36428144321E+02  0.54367084754E+02  0.40000001313E+02 0.  0.
         12    1    3    3    0    0 -0.44438804631E+01 -0.30036689745E+01  0.36428144321E+02  0.36820915246E+02  0.00000000000E+00 0. -1.
         11    1    4    4    0    0  0.32771437094E+01  0.75453111184E+01 -0.53736295366E+01  0.98258478221E+01  0.51100000000E-03 0. -1.
        -11    1    4    4    0    0  0.85809592307E+01 -0.10631812353E+02 -0.18333194443E+01  0.13785113553E+02  0.51100000000E-03 0.  1.
         12    1    4    4    0    0 -0.74142224770E+01  0.60901702093E+01 -0.29221195341E+02  0.30756123378E+02  0.00000000000E+00 0. -1.
</event>
<event>
 8    1  0.3146747E-007  0.9118800E+02  0.7816164E-02  0.1184000E+00
        -11   -1    0    0    0    0  0.00000000000E+00  0.00000000000E+00  0.45593999997E+02  0.45594000000E+02  0.51100000000E-03 0. -1.
         11   -1    0    0    0    0 -0.00000000000E+00 -0.00000000000E+00 -0.45593999997E+02  0.45594000000E+02  0.51100000000E-03 0.  1.
         23    2    1    2    0    0  0.00000000000E+00 -0.17763568394E-14  0.71054273576E-14  0.91188000000E+02  0.91188000000E+02 0.  0.
    9900012    2    3    3    0    0  0.87257085894E+01 -0.98267872634E+01 -0.34395881448E+02  0.54367076615E+02  0.39999982760E+02 0.  0.
         12    1    3    3    0    0 -0.87257085894E+01  0.98267872634E+01  0.34395881448E+02  0.36820923385E+02  0.00000000000E+00 0. -1.
         11    1    4    4    0    0  0.71187100434E+01  0.56988435689E+00 -0.30950741252E+02  0.31763960477E+02  0.51100000000E-03 0. -1.
        -11    1    4    4    0    0 -0.30608071846E+01  0.50010408672E+01 -0.28073842805E+01  0.65007966540E+01  0.51100000000E-03 0.  1.
         12    1    4    4    0    0  0.46678057307E+01 -0.15397712488E+02 -0.63775591569E+00  0.16102319485E+02  0.00000000000E+00 0. -1.
</event>
<event>
 8    1  0.3146747E-007  0.9118800E+02  0.7816164E-02  0.1184000E+00
        -11   -1    0    0    0    0  0.00000000000E+00  0.00000000000E+00  0.45593999997E+02  0.45594000000E+02  0.51100000000E-03 0. -1.
         11   -1    0    0    0    0 -0.00000000000E+00 -0.00000000000E+00 -0.45593999997E+02  0.45594000000E+02  0.51100000000E-03 0.  1.
         23    2    1    2    0    0  0.00000000000E+00  0.00000000000E+00  0.00000000000E+00  0.91188000000E+02  0.91188000000E+02 0.  0.
    9900012    2    3    3    0    0  0.15089992622E+02  0.31955097137E+02 -0.10341583125E+02  0.54367021579E+02  0.39999857292E+02 0.  0.
        -12    1    3    3    0    0 -0.15089992622E+02 -0.31955097137E+02  0.10341583125E+02  0.36820978421E+02  0.00000000000E+00 0.  1.
         11    1    4    4    0    0 -0.94684935646E-02 -0.66752170652E+00  0.18009190108E+01  0.19206729096E+01  0.51100000000E-03 0. -1.
        -11    1    4    4    0    0 -0.11975117351E+02  0.78461158881E+01 -0.30943669064E+01  0.14647186655E+02  0.51100000000E-03 0.  1.
        -12    1    4    4    0    0  0.27074578466E+02  0.24776502956E+02 -0.90481352299E+01  0.37799162014E+02  0.00000000000E+00 0.  1.
</event>
<event>
 8    1  0.3146747E-007  0.9118800E+02  0.7816164E-02  0.1184000E+00
        -11   -1    0    0    0    0  0.00000000000E+00  0.00000000000E+00  0.45593999997E+02  0.45594000000E+02  0.51100000000E-03 0.  1.
         11   -1    0    0    0    0 -0.00000000000E+00 -0.00000000000E+00 -0.45593999997E+02  0.45594000000E+02  0.51100000000E-03 0. -1.
         23    2    1    2    0    0  0.00000000000E+00 -0.71054273576E-14 -0.71054273576E-14  0.91188000000E+02  0.91188000000E+02 0.  0.
    9900012    2    3    3    0    0 -0.17782236243E+01  0.28695196858E+02  0.23004411897E+02  0.54367090604E+02  0.40000014651E+02 0.  0.
         12    1    3    3    0    0  0.17782236243E+01 -0.28695196858E+02 -0.23004411897E+02  0.36820909396E+02  0.00000000000E+00 0. -1.
         11    1    4    4    0    0 -0.17085098530E+02  0.19005795927E+02  0.14029708504E+02  0.29153963566E+02  0.51100000000E-03 0. -1.
        -11    1    4    4    0    0  0.15368497632E+02  0.97154903003E+01  0.12258695108E+02  0.21928453599E+02  0.51100000000E-03 0.  1.
         12    1    4    4    0    0 -0.61622726267E-01 -0.26089369606E-01 -0.32839917155E+01  0.32846734393E+01  0.00000000000E+00 0. -1.
</event>
<event>
 8    1  0.3146747E-007  0.9118800E+02  0.7816164E-02  0.1184000E+00
        -11   -1    0    0    0    0  0.00000000000E+00  0.00000000000E+00  0.45593999997E+02  0.45594000000E+02  0.51100000000E-03 0.  1.
         11   -1    0    0    0    0 -0.00000000000E+00 -0.00000000000E+00 -0.45593999997E+02  0.45594000000E+02  0.51100000000E-03 0. -1.
         23    2    1    2    0    0  0.00000000000E+00  0.00000000000E+00  0.00000000000E+00  0.91188000000E+02  0.91188000000E+02 0.  0.
    9900012    2    3    3    0    0  0.39582730655E+01 -0.13916238774E+02 -0.33859375861E+02  0.54366987507E+02  0.39999779619E+02 0.  0.
        -12    1    3    3    0    0 -0.39582730655E+01  0.13916238774E+02  0.33859375861E+02  0.36821012493E+02  0.00000000000E+00 0.  1.
         11    1    4    4    0    0 -0.71739984172E+01  0.89738995488E+00  0.17242604498E+01  0.74326735689E+01  0.51100000000E-03 0. -1.
        -11    1    4    4    0    0  0.15335790062E+02 -0.22988516506E+01 -0.27156295924E+02  0.31271961632E+02  0.51100000000E-03 0.  1.
        -12    1    4    4    0    0 -0.42035185791E+01 -0.12514777078E+02 -0.84273403874E+01  0.15662352307E+02  0.00000000000E+00 0.  1.
</event>
<event>
 8    1  0.3146747E-007  0.9118800E+02  0.7816164E-02  0.1184000E+00
        -11   -1    0    0    0    0  0.00000000000E+00  0.00000000000E+00  0.45593999997E+02  0.45594000000E+02  0.51100000000E-03 0. -1.
         11   -1    0    0    0    0 -0.00000000000E+00 -0.00000000000E+00 -0.45593999997E+02  0.45594000000E+02  0.51100000000E-03 0.  1.
         23    2    1    2    0    0 -0.35527136788E-14  0.35527136788E-14  0.00000000000E+00  0.91188000000E+02  0.91188000000E+02 0.  0.
    9900012    2    3    3    0    0 -0.25569114800E+02  0.19926439583E+02  0.17462461010E+02  0.54367079715E+02  0.39999989826E+02 0.  0.
         12    1    3    3    0    0  0.25569114800E+02 -0.19926439583E+02 -0.17462461010E+02  0.36820920285E+02  0.00000000000E+00 0. -1.
         11    1    4    4    0    0 -0.21257750097E+02  0.43433287226E+01  0.80687174321E+01  0.23148663997E+02  0.51100000000E-03 0. -1.
        -11    1    4    4    0    0 -0.14563991280E+02  0.80748735246E+01  0.27487775845E+01  0.16878068697E+02  0.51100000000E-03 0.  1.
        -12    1    4    4    0    0  0.10252626578E+02  0.75082373354E+01  0.66449659938E+01  0.14340347021E+02  0.00000000000E+00 0.  1.
</event>
<event>
 8    1  0.3146747E-007  0.9118800E+02  0.7816164E-02  0.1184000E+00
        -11   -1    0    0    0    0  0.00000000000E+00  0.00000000000E+00  0.45593999997E+02  0.45594000000E+02  0.51100000000E-03 0. -1.
         11   -1    0    0    0    0 -0.00000000000E+00 -0.00000000000E+00 -0.45593999997E+02  0.45594000000E+02  0.51100000000E-03 0.  1.
         23    2    1    2    0    0  0.00000000000E+00  0.00000000000E+00 -0.44408920985E-15  0.91188000000E+02  0.91188000000E+02 0.  0.
    9900012    2    3    3    0    0 -0.17622820018E+02 -0.32172434374E+02 -0.31860213768E+01  0.54367081338E+02  0.39999993526E+02 0.  0.
        -12    1    3    3    0    0  0.17622820018E+02  0.32172434374E+02  0.31860213768E+01  0.36820918662E+02  0.00000000000E+00 0.  1.
         11    1    4    4    0    0 -0.12416359106E+01  0.30355701009E+01  0.10143162149E+02  0.10660210327E+02  0.51100000000E-03 0. -1.
        -11    1    4    4    0    0 -0.15442000799E+02 -0.36006182302E+02 -0.10408644156E+02  0.40536902029E+02  0.51100000000E-03 0.  1.
        -12    1    4    4    0    0 -0.93918330798E+00  0.79817782793E+00 -0.29205393703E+01  0.31699689817E+01  0.00000000000E+00 0.  1.
</event>
<event>
 8    1  0.3146747E-007  0.9118800E+02  0.7816164E-02  0.1184000E+00
        -11   -1    0    0    0    0  0.00000000000E+00  0.00000000000E+00  0.45593999997E+02  0.45594000000E+02  0.51100000000E-03 0. -1.
         11   -1    0    0    0    0 -0.00000000000E+00 -0.00000000000E+00 -0.45593999997E+02  0.45594000000E+02  0.51100000000E-03 0.  1.
         23    2    1    2    0    0  0.35527136788E-14  0.00000000000E+00 -0.35527136788E-14  0.91188000000E+02  0.91188000000E+02 0.  0.
    9900012    2    3    3    0    0 -0.31456603176E+02 -0.88418760506E+01  0.16972632887E+02  0.54367259614E+02  0.40000399939E+02 0.  0.
        -12    1    3    3    0    0  0.31456603176E+02  0.88418760506E+01 -0.16972632887E+02  0.36820740386E+02  0.00000000000E+00 0.  1.
         11    1    4    4    0    0  0.20019297534E+00 -0.65079173516E+01  0.95959275003E+00  0.65813284366E+01  0.51100000000E-03 0.  1.
        -11    1    4    4    0    0 -0.19729243656E+02 -0.19723364256E+01 -0.76756107583E+01  0.21261424387E+02  0.51100000000E-03 0. -1.
         12    1    4    4    0    0 -0.11927552496E+02 -0.36162227338E+00  0.23688650895E+02  0.26524506790E+02  0.00000000000E+00 0. -1.
</event>
<event>
 8    1  0.3146747E-007  0.9118800E+02  0.7816164E-02  0.1184000E+00
        -11   -1    0    0    0    0  0.00000000000E+00  0.00000000000E+00  0.45593999997E+02  0.45594000000E+02  0.51100000000E-03 0. -1.
         11   -1    0    0    0    0 -0.00000000000E+00 -0.00000000000E+00 -0.45593999997E+02  0.45594000000E+02  0.51100000000E-03 0.  1.
         23    2    1    2    0    0  0.00000000000E+00 -0.17763568394E-14  0.00000000000E+00  0.91188000000E+02  0.91188000000E+02 0.  0.
    9900012    2    3    3    0    0  0.26533084242E+02 -0.40992617250E+01  0.25198619717E+02  0.54367096402E+02  0.40000027869E+02 0.  0.
        -12    1    3    3    0    0 -0.26533084242E+02  0.40992617250E+01 -0.25198619717E+02  0.36820903598E+02  0.00000000000E+00 0.  1.
         11    1    4    4    0    0  0.33088423449E+01  0.10997235340E+02  0.35365235982E+01  0.12016431343E+02  0.51100000000E-03 0. -1.
        -11    1    4    4    0    0  0.20486101891E+02 -0.18974868754E+02  0.98327748732E+01  0.29604213836E+02  0.51100000000E-03 0.  1.
         12    1    4    4    0    0  0.27381400065E+01  0.38783716882E+01  0.11829321246E+02  0.12746451223E+02  0.00000000000E+00 0. -1.
</event>
<event>
 8    1  0.3146747E-007  0.9118800E+02  0.7816164E-02  0.1184000E+00
        -11   -1    0    0    0    0  0.00000000000E+00  0.00000000000E+00  0.45593999997E+02  0.45594000000E+02  0.51100000000E-03 0. -1.
         11   -1    0    0    0    0 -0.00000000000E+00 -0.00000000000E+00 -0.45593999997E+02  0.45594000000E+02  0.51100000000E-03 0.  1.
         23    2    1    2    0    0  0.17763568394E-14  0.00000000000E+00  0.00000000000E+00  0.91188000000E+02  0.91188000000E+02 0.  0.
    9900012    2    3    3    0    0 -0.10239865773E+02  0.33141885259E+02 -0.12350734275E+02  0.54367081398E+02  0.39999993664E+02 0.  0.
        -12    1    3    3    0    0  0.10239865773E+02 -0.33141885259E+02  0.12350734275E+02  0.36820918602E+02  0.00000000000E+00 0.  1.
         11    1    4    4    0    0 -0.86003274256E+01 -0.49600302113E+01 -0.70307596388E+01  0.12165488600E+02  0.51100000000E-03 0. -1.
        -11    1    4    4    0    0  0.34058920627E+01  0.16323727895E+02 -0.98853881932E+01  0.19385177149E+02  0.51100000000E-03 0.  1.
         12    1    4    4    0    0 -0.50454304100E+01  0.21778187575E+02  0.45654135575E+01  0.22816415649E+02  0.00000000000E+00 0. -1.
</event>
<event>
 8    1  0.3146747E-007  0.9118800E+02  0.7816164E-02  0.1184000E+00
        -11   -1    0    0    0    0  0.00000000000E+00  0.00000000000E+00  0.45593999997E+02  0.45594000000E+02  0.51100000000E-03 0. -1.
         11   -1    0    0    0    0 -0.00000000000E+00 -0.00000000000E+00 -0.45593999997E+02  0.45594000000E+02  0.51100000000E-03 0.  1.
         23    2    1    2    0    0  0.00000000000E+00  0.00000000000E+00  0.17763568394E-14  0.91188000000E+02  0.91188000000E+02 0.  0.
    9900012    2    3    3    0    0  0.26628784868E+02 -0.20574530620E+02 -0.14945753627E+02  0.54367094996E+02  0.40000024663E+02 0.  0.
         12    1    3    3    0    0 -0.26628784868E+02  0.20574530620E+02  0.14945753627E+02  0.36820905004E+02  0.00000000000E+00 0. -1.
         11    1    4    4    0    0  0.14344089671E+02 -0.49884455517E+01 -0.94564010302E+00  0.15216166829E+02  0.51100000000E-03 0. -1.
        -11    1    4    4    0    0  0.66672804840E+01  0.56146030632E+01  0.50731042275E+01  0.10085275573E+02  0.51100000000E-03 0.  1.
        -12    1    4    4    0    0  0.56174147131E+01 -0.21200688132E+02 -0.19073217752E+02  0.29065652594E+02  0.00000000000E+00 0.  1.
</event>
<event>
 8    1  0.3146747E-007  0.9118800E+02  0.7816164E-02  0.1184000E+00
        -11   -1    0    0    0    0  0.00000000000E+00  0.00000000000E+00  0.45593999997E+02  0.45594000000E+02  0.51100000000E-03 0.  1.
         11   -1    0    0    0    0 -0.00000000000E+00 -0.00000000000E+00 -0.45593999997E+02  0.45594000000E+02  0.51100000000E-03 0. -1.
         23    2    1    2    0    0  0.00000000000E+00  0.00000000000E+00 -0.35527136788E-14  0.91188000000E+02  0.91188000000E+02 0.  0.
    9900012    2    3    3    0    0  0.66362018283E+01  0.29374598164E+02 -0.21186734772E+02  0.54367028771E+02  0.39999873688E+02 0.  0.
        -12    1    3    3    0    0 -0.66362018283E+01 -0.29374598164E+02  0.21186734772E+02  0.36820971229E+02  0.00000000000E+00 0.  1.
         11    1    4    4    0    0  0.60474000297E+01  0.10000765405E+02 -0.13661335840E+02  0.17978277254E+02  0.51100000000E-03 0. -1.
        -11    1    4    4    0    0  0.20613782191E+01 -0.62890977975E+00  0.97084437809E+01  0.99447819775E+01  0.51100000000E-03 0.  1.
        -12    1    4    4    0    0 -0.14725764205E+01  0.20002742538E+02 -0.17233842712E+02  0.26443969539E+02  0.00000000000E+00 0.  1.
</event>
<event>
 8    1  0.3146747E-007  0.9118800E+02  0.7816164E-02  0.1184000E+00
        -11   -1    0    0    0    0  0.00000000000E+00  0.00000000000E+00  0.45593999997E+02  0.45594000000E+02  0.51100000000E-03 0. -1.
         11   -1    0    0    0    0 -0.00000000000E+00 -0.00000000000E+00 -0.45593999997E+02  0.45594000000E+02  0.51100000000E-03 0.  1.
         23    2    1    2    0    0 -0.17763568394E-14  0.00000000000E+00  0.00000000000E+00  0.91188000000E+02  0.91188000000E+02 0.  0.
    9900012    2    3    3    0    0 -0.14087493310E+02 -0.32015849887E+02 -0.11502432667E+02  0.54367108253E+02  0.40000054885E+02 0.  0.
         12    1    3    3    0    0  0.14087493310E+02  0.32015849887E+02  0.11502432667E+02  0.36820891747E+02  0.00000000000E+00 0. -1.
         11    1    4    4    0    0 -0.19537410783E+02 -0.67975259365E+01  0.12744600976E+01  0.20725371595E+02  0.51100000000E-03 0. -1.
        -11    1    4    4    0    0  0.37868365508E+01 -0.95166891339E+01 -0.14506324501E+02  0.17757842040E+02  0.51100000000E-03 0.  1.
         12    1    4    4    0    0  0.16630809227E+01 -0.15701634817E+02  0.17294317365E+01  0.15883894617E+02  0.00000000000E+00 0. -1.
</event>
<event>
 8    1  0.3146747E-007  0.9118800E+02  0.7816164E-02  0.1184000E+00
        -11   -1    0    0    0    0  0.00000000000E+00  0.00000000000E+00  0.45593999997E+02  0.45594000000E+02  0.51100000000E-03 0.  1.
         11   -1    0    0    0    0 -0.00000000000E+00 -0.00000000000E+00 -0.45593999997E+02  0.45594000000E+02  0.51100000000E-03 0. -1.
         23    2    1    2    0    0  0.00000000000E+00  0.00000000000E+00  0.17763568394E-14  0.91188000000E+02  0.91188000000E+02 0.  0.
    9900012    2    3    3    0    0  0.81001481337E+01 -0.32223116629E+02  0.15869439375E+02  0.54367071832E+02  0.39999971856E+02 0.  0.
         12    1    3    3    0    0 -0.81001481337E+01  0.32223116629E+02 -0.15869439375E+02  0.36820928168E+02  0.00000000000E+00 0. -1.
         11    1    4    4    0    0  0.14281762225E+02 -0.33296649939E+02  0.14800033961E+02  0.39136640567E+02  0.51100000000E-03 0. -1.
        -11    1    4    4    0    0  0.33028698536E+01  0.11521840364E+01  0.39898718946E+01  0.53061808601E+01  0.51100000000E-03 0.  1.
         12    1    4    4    0    0 -0.94844839446E+01 -0.78650726437E-01 -0.29204664809E+01  0.99242504049E+01  0.00000000000E+00 0. -1.
</event>
<event>
 8    1  0.3146747E-007  0.9118800E+02  0.7816164E-02  0.1184000E+00
        -11   -1    0    0    0    0  0.00000000000E+00  0.00000000000E+00  0.45593999997E+02  0.45594000000E+02  0.51100000000E-03 0.  1.
         11   -1    0    0    0    0 -0.00000000000E+00 -0.00000000000E+00 -0.45593999997E+02  0.45594000000E+02  0.51100000000E-03 0. -1.
         23    2    1    2    0    0  0.88817841970E-15  0.00000000000E+00 -0.35527136788E-14  0.91188000000E+02  0.91188000000E+02 0.  0.
    9900012    2    3    3    0    0  0.74713016457E+01  0.19004603408E+02  0.30639537278E+02  0.54367128967E+02  0.40000102107E+02 0.  0.
         12    1    3    3    0    0 -0.74713016457E+01 -0.19004603408E+02 -0.30639537278E+02  0.36820871033E+02  0.00000000000E+00 0. -1.
         11    1    4    4    0    0  0.11513636794E+01  0.22565896070E+01 -0.72437865541E+00  0.26348737492E+01  0.51100000000E-03 0. -1.
        -11    1    4    4    0    0  0.15123407089E+02 -0.61047098038E+01  0.93296684522E+01  0.18789029711E+02  0.51100000000E-03 0.  1.
         12    1    4    4    0    0 -0.88034691231E+01  0.22852723605E+02  0.22034247482E+02  0.32943225507E+02  0.00000000000E+00 0. -1.
</event>
<event>
 8    1  0.3146747E-007  0.9118800E+02  0.7816164E-02  0.1184000E+00
        -11   -1    0    0    0    0  0.00000000000E+00  0.00000000000E+00  0.45593999997E+02  0.45594000000E+02  0.51100000000E-03 0.  1.
         11   -1    0    0    0    0 -0.00000000000E+00 -0.00000000000E+00 -0.45593999997E+02  0.45594000000E+02  0.51100000000E-03 0. -1.
         23    2    1    2    0    0  0.00000000000E+00  0.00000000000E+00  0.00000000000E+00  0.91188000000E+02  0.91188000000E+02 0.  0.
    9900012    2    3    3    0    0  0.32568936086E+02 -0.16685135187E+02 -0.40804968278E+01  0.54367084906E+02  0.40000001661E+02 0.  0.
        -12    1    3    3    0    0 -0.32568936086E+02  0.16685135187E+02  0.40804968278E+01  0.36820915094E+02  0.00000000000E+00 0.  1.
         11    1    4    4    0    0  0.14987905940E+02 -0.78893532072E+01 -0.11996460598E+01  0.16979940207E+02  0.51100000000E-03 0. -1.
        -11    1    4    4    0    0  0.23567572042E+02 -0.64597724858E+01  0.71615925264E+01  0.25464632734E+02  0.51100000000E-03 0.  1.
        -12    1    4    4    0    0 -0.59865418966E+01 -0.23360094943E+01 -0.10042443294E+02  0.11922511965E+02  0.00000000000E+00 0.  1.
</event>
<event>
 8    1  0.3146747E-007  0.9118800E+02  0.7816164E-02  0.1184000E+00
        -11   -1    0    0    0    0  0.00000000000E+00  0.00000000000E+00  0.45593999997E+02  0.45594000000E+02  0.51100000000E-03 0. -1.
         11   -1    0    0    0    0 -0.00000000000E+00 -0.00000000000E+00 -0.45593999997E+02  0.45594000000E+02  0.51100000000E-03 0.  1.
         23    2    1    2    0    0 -0.71054273576E-14  0.17763568394E-14 -0.88817841970E-15  0.91188000000E+02  0.91188000000E+02 0.  0.
    9900012    2    3    3    0    0  0.33212489652E+02 -0.14620508265E+02 -0.62412572306E+01  0.54367054566E+02  0.39999932495E+02 0.  0.
        -12    1    3    3    0    0 -0.33212489652E+02  0.14620508265E+02  0.62412572306E+01  0.36820945434E+02  0.00000000000E+00 0.  1.
         11    1    4    4    0    0  0.26305234645E+02 -0.24628014993E+02 -0.10502268430E+02  0.37534013037E+02  0.51100000000E-03 0. -1.
        -11    1    4    4    0    0  0.72026158417E+01  0.56299873599E+01 -0.18330631321E+01  0.93238700840E+01  0.51100000000E-03 0.  1.
         12    1    4    4    0    0 -0.29536083438E+00  0.43775193681E+01  0.60940743315E+01  0.75091714455E+01  0.00000000000E+00 0. -1.
</event>
<event>
 8    1  0.3146747E-007  0.9118800E+02  0.7816164E-02  0.1184000E+00
        -11   -1    0    0    0    0  0.00000000000E+00  0.00000000000E+00  0.45593999997E+02  0.45594000000E+02  0.51100000000E-03 0. -1.
         11   -1    0    0    0    0 -0.00000000000E+00 -0.00000000000E+00 -0.45593999997E+02  0.45594000000E+02  0.51100000000E-03 0.  1.
         23    2    1    2    0    0  0.00000000000E+00 -0.35527136788E-14 -0.26645352591E-14  0.91188000000E+02  0.91188000000E+02 0.  0.
    9900012    2    3    3    0    0  0.26916907015E+02 -0.24767330895E+02 -0.42236520070E+01  0.54367084759E+02  0.40000001326E+02 0.  0.
         12    1    3    3    0    0 -0.26916907015E+02  0.24767330895E+02  0.42236520070E+01  0.36820915241E+02  0.00000000000E+00 0. -1.
         11    1    4    4    0    0 -0.24627894502E+01 -0.47479339500E+00 -0.97318059729E+00  0.26903236571E+01  0.51100000000E-03 0. -1.
        -11    1    4    4    0    0  0.18172784610E+02 -0.13141727187E+02 -0.18976409458E+02  0.29377869394E+02  0.51100000000E-03 0.  1.
        -12    1    4    4    0    0  0.11206911854E+02 -0.11150810312E+02  0.15725938048E+02  0.22298891708E+02  0.00000000000E+00 0.  1.
</event>
<event>
 8    1  0.3146747E-007  0.9118800E+02  0.7816164E-02  0.1184000E+00
        -11   -1    0    0    0    0  0.00000000000E+00  0.00000000000E+00  0.45593999997E+02  0.45594000000E+02  0.51100000000E-03 0. -1.
         11   -1    0    0    0    0 -0.00000000000E+00 -0.00000000000E+00 -0.45593999997E+02  0.45594000000E+02  0.51100000000E-03 0.  1.
         23    2    1    2    0    0  0.26645352591E-14  0.00000000000E+00  0.17763568394E-14  0.91188000000E+02  0.91188000000E+02 0.  0.
    9900012    2    3    3    0    0  0.72263370442E+01  0.34507420475E+02  0.10620636274E+02  0.54367082985E+02  0.39999997282E+02 0.  0.
        -12    1    3    3    0    0 -0.72263370442E+01 -0.34507420475E+02 -0.10620636274E+02  0.36820917015E+02  0.00000000000E+00 0.  1.
         11    1    4    4    0    0  0.36102151614E+01  0.21583011495E+02 -0.45280525320E+01  0.22346438166E+02  0.51100000000E-03 0. -1.
        -11    1    4    4    0    0 -0.76238223261E+01 -0.34273562900E+01  0.48722462473E+01  0.96751341982E+01  0.51100000000E-03 0.  1.
        -12    1    4    4    0    0  0.11239944209E+02  0.16351765271E+02  0.10276442558E+02  0.22345510622E+02  0.00000000000E+00 0.  1.
</event>
<event>
 8    1  0.3146747E-007  0.9118800E+02  0.7816164E-02  0.1184000E+00
        -11   -1    0    0    0    0  0.00000000000E+00  0.00000000000E+00  0.45593999997E+02  0.45594000000E+02  0.51100000000E-03 0. -1.
         11   -1    0    0    0    0 -0.00000000000E+00 -0.00000000000E+00 -0.45593999997E+02  0.45594000000E+02  0.51100000000E-03 0.  1.
         23    2    1    2    0    0  0.00000000000E+00  0.00000000000E+00  0.35527136788E-14  0.91188000000E+02  0.91188000000E+02 0.  0.
    9900012    2    3    3    0    0  0.24253661003E+02 -0.27293022065E+02  0.47571477964E+01  0.54367087726E+02  0.40000008090E+02 0.  0.
        -12    1    3    3    0    0 -0.24253661003E+02  0.27293022065E+02 -0.47571477964E+01  0.36820912274E+02  0.00000000000E+00 0.  1.
         11    1    4    4    0    0  0.15080957664E+02 -0.28596021298E+01  0.80793845452E+01  0.17346154135E+02  0.51100000000E-03 0. -1.
        -11    1    4    4    0    0  0.27800595678E+01  0.19366188862E+01  0.71691671967E+01  0.79294503256E+01  0.51100000000E-03 0.  1.
        -12    1    4    4    0    0  0.63926437719E+01 -0.26370038822E+02 -0.10491403946E+02  0.29091483266E+02  0.00000000000E+00 0.  1.
</event>
<event>
 8    1  0.3146747E-007  0.9118800E+02  0.7816164E-02  0.1184000E+00
        -11   -1    0    0    0    0  0.00000000000E+00  0.00000000000E+00  0.45593999997E+02  0.45594000000E+02  0.51100000000E-03 0.  1.
         11   -1    0    0    0    0 -0.00000000000E+00 -0.00000000000E+00 -0.45593999997E+02  0.45594000000E+02  0.51100000000E-03 0. -1.
         23    2    1    2    0    0  0.00000000000E+00 -0.35527136788E-14  0.00000000000E+00  0.91188000000E+02  0.91188000000E+02 0.  0.
    9900012    2    3    3    0    0  0.57690400741E+01 -0.20493837070E+02 -0.30041631021E+02  0.54367098658E+02  0.40000033011E+02 0.  0.
        -12    1    3    3    0    0 -0.57690400741E+01  0.20493837070E+02  0.30041631021E+02  0.36820901342E+02  0.00000000000E+00 0.  1.
         11    1    4    4    0    0 -0.22538079391E+01  0.27890832173E+01 -0.11857527493E+02  0.12387880929E+02  0.51100000000E-03 0. -1.
        -11    1    4    4    0    0 -0.74025092599E+01 -0.16497221929E+02 -0.17423045118E+02  0.25110117008E+02  0.51100000000E-03 0.  1.
        -12    1    4    4    0    0  0.15425357273E+02 -0.67856983585E+01 -0.76105841025E+00  0.16869100721E+02  0.00000000000E+00 0.  1.
</event>
<event>
 8    1  0.3146747E-007  0.9118800E+02  0.7816164E-02  0.1184000E+00
        -11   -1    0    0    0    0  0.00000000000E+00  0.00000000000E+00  0.45593999997E+02  0.45594000000E+02  0.51100000000E-03 0.  1.
         11   -1    0    0    0    0 -0.00000000000E+00 -0.00000000000E+00 -0.45593999997E+02  0.45594000000E+02  0.51100000000E-03 0. -1.
         23    2    1    2    0    0  0.00000000000E+00  0.00000000000E+00  0.00000000000E+00  0.91188000000E+02  0.91188000000E+02 0.  0.
    9900012    2    3    3    0    0  0.23777287358E+02  0.70805725352E+01 -0.27208189515E+02  0.54367089117E+02  0.40000011260E+02 0.  0.
        -12    1    3    3    0    0 -0.23777287358E+02 -0.70805725352E+01  0.27208189515E+02  0.36820910883E+02  0.00000000000E+00 0.  1.
         11    1    4    4    0    0  0.11316049136E+02  0.18706593301E+01 -0.14369080731E+02  0.18385396805E+02  0.51100000000E-03 0. -1.
        -11    1    4    4    0    0 -0.14567953527E+01 -0.68069146260E+01  0.63374059777E+01  0.94137693944E+01  0.51100000000E-03 0.  1.
        -12    1    4    4    0    0  0.13918033575E+02  0.12016827831E+02 -0.19176514762E+02  0.26567922917E+02  0.00000000000E+00 0.  1.
</event>
<event>
 8    1  0.3146747E-007  0.9118800E+02  0.7816164E-02  0.1184000E+00
        -11   -1    0    0    0    0  0.00000000000E+00  0.00000000000E+00  0.45593999997E+02  0.45594000000E+02  0.51100000000E-03 0. -1.
         11   -1    0    0    0    0 -0.00000000000E+00 -0.00000000000E+00 -0.45593999997E+02  0.45594000000E+02  0.51100000000E-03 0.  1.
         23    2    1    2    0    0  0.00000000000E+00  0.88817841970E-15  0.00000000000E+00  0.91188000000E+02  0.91188000000E+02 0.  0.
    9900012    2    3    3    0    0 -0.50651085765E+01 -0.18532692270E+01 -0.36423751783E+02  0.54367087116E+02  0.40000006697E+02 0.  0.
         12    1    3    3    0    0  0.50651085765E+01  0.18532692270E+01  0.36423751783E+02  0.36820912884E+02  0.00000000000E+00 0. -1.
         11    1    4    4    0    0 -0.48212168954E+01  0.13418911436E+02 -0.13805212753E+02  0.19846793592E+02  0.51100000000E-03 0. -1.
        -11    1    4    4    0    0  0.41514565772E+01 -0.19348852030E+02 -0.15031784973E+02  0.24850899910E+02  0.51100000000E-03 0.  1.
        -12    1    4    4    0    0 -0.43953482583E+01  0.40766713663E+01 -0.75867540569E+01  0.96693936139E+01  0.00000000000E+00 0.  1.
</event>
<event>
 8    1  0.3146747E-007  0.9118800E+02  0.7816164E-02  0.1184000E+00
        -11   -1    0    0    0    0  0.00000000000E+00  0.00000000000E+00  0.45593999997E+02  0.45594000000E+02  0.51100000000E-03 0.  1.
         11   -1    0    0    0    0 -0.00000000000E+00 -0.00000000000E+00 -0.45593999997E+02  0.45594000000E+02  0.51100000000E-03 0. -1.
         23    2    1    2    0    0 -0.35527136788E-14 -0.35527136788E-14  0.00000000000E+00  0.91188000000E+02  0.91188000000E+02 0.  0.
    9900012    2    3    3    0    0 -0.26964518270E+02 -0.19160208621E+02  0.16173464435E+02  0.54367084860E+02  0.40000001554E+02 0.  0.
         12    1    3    3    0    0  0.26964518270E+02  0.19160208621E+02 -0.16173464435E+02  0.36820915140E+02  0.00000000000E+00 0. -1.
         11    1    4    4    0    0 -0.15582075233E+02 -0.23715866914E+02 -0.35952139839E+01  0.28603653192E+02  0.51100000000E-03 0. -1.
        -11    1    4    4    0    0 -0.72025094965E+01  0.65731603606E+01  0.65321831381E+01  0.11736779668E+02  0.51100000000E-03 0.  1.
         12    1    4    4    0    0 -0.41799335405E+01 -0.20175020677E+01  0.13236495281E+02  0.14026651999E+02  0.00000000000E+00 0. -1.
</event>
<event>
 8    1  0.3146747E-007  0.9118800E+02  0.7816164E-02  0.1184000E+00
        -11   -1    0    0    0    0  0.00000000000E+00  0.00000000000E+00  0.45593999997E+02  0.45594000000E+02  0.51100000000E-03 0.  1.
         11   -1    0    0    0    0 -0.00000000000E+00 -0.00000000000E+00 -0.45593999997E+02  0.45594000000E+02  0.51100000000E-03 0. -1.
         23    2    1    2    0    0 -0.35527136788E-14 -0.15543122345E-14  0.00000000000E+00  0.91188000000E+02  0.91188000000E+02 0.  0.
    9900012    2    3    3    0    0 -0.88366758013E+01  0.17868111815E+01  0.35700132818E+02  0.54367095386E+02  0.40000025551E+02 0.  0.
         12    1    3    3    0    0  0.88366758013E+01 -0.17868111815E+01 -0.35700132818E+02  0.36820904614E+02  0.00000000000E+00 0. -1.
         11    1    4    4    0    0  0.64280401964E+01 -0.95124739601E+01  0.82199149984E+01  0.14119981036E+02  0.51100000000E-03 0.  1.
        -11    1    4    4    0    0 -0.19627047351E+02  0.10080133189E+02  0.28043340605E+02  0.35682755294E+02  0.51100000000E-03 0. -1.
        -12    1    4    4    0    0  0.43623313535E+01  0.12191519528E+01 -0.56312278552E+00  0.45643590562E+01  0.00000000000E+00 0.  1.
</event>
<event>
 8    1  0.3146747E-007  0.9118800E+02  0.7816164E-02  0.1184000E+00
        -11   -1    0    0    0    0  0.00000000000E+00  0.00000000000E+00  0.45593999997E+02  0.45594000000E+02  0.51100000000E-03 0. -1.
         11   -1    0    0    0    0 -0.00000000000E+00 -0.00000000000E+00 -0.45593999997E+02  0.45594000000E+02  0.51100000000E-03 0.  1.
         23    2    1    2    0    0  0.00000000000E+00  0.00000000000E+00 -0.35527136788E-14  0.91188000000E+02  0.91188000000E+02 0.  0.
    9900012    2    3    3    0    0  0.26298797337E+02  0.22721561632E+02 -0.12160785883E+02  0.54367070929E+02  0.39999969796E+02 0.  0.
         12    1    3    3    0    0 -0.26298797337E+02 -0.22721561632E+02  0.12160785883E+02  0.36820929071E+02  0.00000000000E+00 0. -1.
         11    1    4    4    0    0  0.10676900902E+02  0.35539954428E+01 -0.21166655765E+02  0.23971950547E+02  0.51100000000E-03 0. -1.
        -11    1    4    4    0    0  0.31225360222E+00  0.12609968323E+01 -0.34923311991E+01  0.37261230238E+01  0.51100000000E-03 0.  1.
         12    1    4    4    0    0  0.15309642833E+02  0.17906569357E+02  0.12498201081E+02  0.26668997358E+02  0.00000000000E+00 0. -1.
</event>
<event>
 8    1  0.3146747E-007  0.9118800E+02  0.7816164E-02  0.1184000E+00
        -11   -1    0    0    0    0  0.00000000000E+00  0.00000000000E+00  0.45593999997E+02  0.45594000000E+02  0.51100000000E-03 0.  1.
         11   -1    0    0    0    0 -0.00000000000E+00 -0.00000000000E+00 -0.45593999997E+02  0.45594000000E+02  0.51100000000E-03 0. -1.
         23    2    1    2    0    0 -0.71054273576E-14  0.88817841970E-15  0.17763568394E-14  0.91188000000E+02  0.91188000000E+02 0.  0.
    9900012    2    3    3    0    0 -0.35673352704E+02 -0.52487732514E+01  0.74593773935E+01  0.54367081694E+02  0.39999994338E+02 0.  0.
         12    1    3    3    0    0  0.35673352704E+02  0.52487732514E+01 -0.74593773935E+01  0.36820918306E+02  0.00000000000E+00 0. -1.
         11    1    4    4    0    0  0.17368083303E+01 -0.74399615365E+01 -0.65456693447E+01  0.10060582402E+02  0.51100000000E-03 0. -1.
        -11    1    4    4    0    0 -0.39258530348E+02  0.29621638074E+01  0.14922943640E+02  0.42103454331E+02  0.51100000000E-03 0.  1.
        -12    1    4    4    0    0  0.18483693137E+01 -0.77097552228E+00 -0.91789690181E+00  0.22030449606E+01  0.00000000000E+00 0.  1.
</event>
<event>
 8    1  0.3146747E-007  0.9118800E+02  0.7816164E-02  0.1184000E+00
        -11   -1    0    0    0    0  0.00000000000E+00  0.00000000000E+00  0.45593999997E+02  0.45594000000E+02  0.51100000000E-03 0.  1.
         11   -1    0    0    0    0 -0.00000000000E+00 -0.00000000000E+00 -0.45593999997E+02  0.45594000000E+02  0.51100000000E-03 0. -1.
         23    2    1    2    0    0  0.17763568394E-14  0.00000000000E+00  0.00000000000E+00  0.91188000000E+02  0.91188000000E+02 0.  0.
    9900012    2    3    3    0    0  0.11183723368E+02 -0.30634807031E+02 -0.17094245389E+02  0.54367078018E+02  0.39999985957E+02 0.  0.
         12    1    3    3    0    0 -0.11183723368E+02  0.30634807031E+02  0.17094245389E+02  0.36820921982E+02  0.00000000000E+00 0. -1.
         11    1    4    4    0    0  0.36439331049E+01 -0.28969430747E+02 -0.79395612067E+01  0.30257937780E+02  0.51100000000E-03 0. -1.
        -11    1    4    4    0    0 -0.69881064779E+01 -0.15030277369E+01 -0.42749471726E+00  0.71606896678E+01  0.51100000000E-03 0.  1.
         12    1    4    4    0    0  0.14527896741E+02 -0.16234854757E+00 -0.87271894651E+01  0.16948450570E+02  0.00000000000E+00 0. -1.
</event>
<event>
 8    1  0.3146747E-007  0.9118800E+02  0.7816164E-02  0.1184000E+00
        -11   -1    0    0    0    0  0.00000000000E+00  0.00000000000E+00  0.45593999997E+02  0.45594000000E+02  0.51100000000E-03 0.  1.
         11   -1    0    0    0    0 -0.00000000000E+00 -0.00000000000E+00 -0.45593999997E+02  0.45594000000E+02  0.51100000000E-03 0. -1.
         23    2    1    2    0    0  0.17763568394E-14 -0.35527136788E-14  0.00000000000E+00  0.91188000000E+02  0.91188000000E+02 0.  0.
    9900012    2    3    3    0    0  0.66215334594E+01 -0.30550188738E+02 -0.19458098531E+02  0.54367131790E+02  0.40000108542E+02 0.  0.
        -12    1    3    3    0    0 -0.66215334594E+01  0.30550188738E+02  0.19458098531E+02  0.36820868210E+02  0.00000000000E+00 0.  1.
         11    1    4    4    0    0  0.59288901701E+01 -0.50556707607E+01  0.69809997868E+01  0.10461639631E+02  0.51100000000E-03 0.  1.
        -11    1    4    4    0    0  0.46484932919E+01  0.34295242955E+01 -0.55280679963E+01  0.79956027172E+01  0.51100000000E-03 0. -1.
         12    1    4    4    0    0 -0.39558500026E+01 -0.28924042273E+02 -0.20911030321E+02  0.35909889442E+02  0.00000000000E+00 0. -1.
</event>
<event>
 8    1  0.3146747E-007  0.9118800E+02  0.7816164E-02  0.1184000E+00
        -11   -1    0    0    0    0  0.00000000000E+00  0.00000000000E+00  0.45593999997E+02  0.45594000000E+02  0.51100000000E-03 0.  1.
         11   -1    0    0    0    0 -0.00000000000E+00 -0.00000000000E+00 -0.45593999997E+02  0.45594000000E+02  0.51100000000E-03 0. -1.
         23    2    1    2    0    0  0.00000000000E+00  0.71054273576E-14  0.35527136788E-14  0.91188000000E+02  0.91188000000E+02 0.  0.
    9900012    2    3    3    0    0 -0.48692973462E+01 -0.24239494719E+02 -0.27285850537E+02  0.54367071163E+02  0.39999970331E+02 0.  0.
        -12    1    3    3    0    0  0.48692973462E+01  0.24239494719E+02  0.27285850537E+02  0.36820928837E+02  0.00000000000E+00 0.  1.
         11    1    4    4    0    0  0.13410899541E+01 -0.19425216786E+01 -0.95668985449E-01  0.23624278937E+01  0.51100000000E-03 0.  1.
        -11    1    4    4    0    0 -0.10874266168E+02 -0.31746935271E+02 -0.18334906140E+02  0.38239852866E+02  0.51100000000E-03 0. -1.
         12    1    4    4    0    0  0.46638788679E+01  0.94499622306E+01 -0.88552754113E+01  0.13764790404E+02  0.00000000000E+00 0. -1.
</event>
<event>
 8    1  0.3146747E-007  0.9118800E+02  0.7816164E-02  0.1184000E+00
        -11   -1    0    0    0    0  0.00000000000E+00  0.00000000000E+00  0.45593999997E+02  0.45594000000E+02  0.51100000000E-03 0.  1.
         11   -1    0    0    0    0 -0.00000000000E+00 -0.00000000000E+00 -0.45593999997E+02  0.45594000000E+02  0.51100000000E-03 0. -1.
         23    2    1    2    0    0  0.00000000000E+00  0.00000000000E+00  0.00000000000E+00  0.91188000000E+02  0.91188000000E+02 0.  0.
    9900012    2    3    3    0    0 -0.80496222689E+01  0.15825157697E+02 -0.32257524060E+02  0.54367083481E+02  0.39999998411E+02 0.  0.
        -12    1    3    3    0    0  0.80496222689E+01 -0.15825157697E+02  0.32257524060E+02  0.36820916519E+02  0.00000000000E+00 0.  1.
         11    1    4    4    0    0  0.92398892020E+01 -0.11776694672E+01  0.18333601169E+01  0.94933485883E+01  0.51100000000E-03 0.  1.
        -11    1    4    4    0    0 -0.15909117417E+02  0.12247786557E+02 -0.34487958597E+02  0.39906485451E+02  0.51100000000E-03 0. -1.
         12    1    4    4    0    0 -0.13803940537E+01  0.47550406073E+01  0.39707442019E+00  0.49672494416E+01  0.00000000000E+00 0. -1.
</event>
<event>
 8    1  0.3146747E-007  0.9118800E+02  0.7816164E-02  0.1184000E+00
        -11   -1    0    0    0    0  0.00000000000E+00  0.00000000000E+00  0.45593999997E+02  0.45594000000E+02  0.51100000000E-03 0. -1.
         11   -1    0    0    0    0 -0.00000000000E+00 -0.00000000000E+00 -0.45593999997E+02  0.45594000000E+02  0.51100000000E-03 0.  1.
         23    2    1    2    0    0  0.35527136788E-14  0.00000000000E+00  0.00000000000E+00  0.91188000000E+02  0.91188000000E+02 0.  0.
    9900012    2    3    3    0    0 -0.17156030328E+02  0.16245702581E+02  0.28240557535E+02  0.54367064124E+02  0.39999954282E+02 0.  0.
        -12    1    3    3    0    0  0.17156030328E+02 -0.16245702581E+02 -0.28240557535E+02  0.36820935876E+02  0.00000000000E+00 0.  1.
         11    1    4    4    0    0 -0.46322644517E+01 -0.29813152382E+01 -0.15340884951E+00  0.55108664506E+01  0.51100000000E-03 0. -1.
        -11    1    4    4    0    0 -0.39798935504E+01  0.16086517447E+02 -0.24005284522E+01  0.16744495614E+02  0.51100000000E-03 0.  1.
         12    1    4    4    0    0 -0.85438723254E+01  0.31405003719E+01  0.30794494836E+02  0.32111702059E+02  0.00000000000E+00 0. -1.
</event>
<event>
 8    1  0.3146747E-007  0.9118800E+02  0.7816164E-02  0.1184000E+00
        -11   -1    0    0    0    0  0.00000000000E+00  0.00000000000E+00  0.45593999997E+02  0.45594000000E+02  0.51100000000E-03 0.  1.
         11   -1    0    0    0    0 -0.00000000000E+00 -0.00000000000E+00 -0.45593999997E+02  0.45594000000E+02  0.51100000000E-03 0. -1.
         23    2    1    2    0    0  0.17763568394E-14 -0.35527136788E-14  0.00000000000E+00  0.91188000000E+02  0.91188000000E+02 0.  0.
    9900012    2    3    3    0    0  0.11001573017E+02 -0.13619791141E+02  0.32392069882E+02  0.54367088675E+02  0.40000010252E+02 0.  0.
         12    1    3    3    0    0 -0.11001573017E+02  0.13619791141E+02 -0.32392069882E+02  0.36820911325E+02  0.00000000000E+00 0. -1.
         11    1    4    4    0    0 -0.75485239757E+01  0.33369434345E+01  0.13205414524E+02  0.15572359446E+02  0.51100000000E-03 0. -1.
        -11    1    4    4    0    0  0.11810236585E+02 -0.15075024534E+02  0.85115838611E+00  0.19169312031E+02  0.51100000000E-03 0.  1.
        -12    1    4    4    0    0  0.67398604073E+01 -0.18817100420E+01  0.18335496972E+02  0.19625417198E+02  0.00000000000E+00 0.  1.
</event>
<event>
 8    1  0.3146747E-007  0.9118800E+02  0.7816164E-02  0.1184000E+00
        -11   -1    0    0    0    0  0.00000000000E+00  0.00000000000E+00  0.45593999997E+02  0.45594000000E+02  0.51100000000E-03 0. -1.
         11   -1    0    0    0    0 -0.00000000000E+00 -0.00000000000E+00 -0.45593999997E+02  0.45594000000E+02  0.51100000000E-03 0.  1.
         23    2    1    2    0    0  0.22204460493E-15  0.00000000000E+00  0.00000000000E+00  0.91188000000E+02  0.91188000000E+02 0.  0.
    9900012    2    3    3    0    0  0.10107767364E+01 -0.24178910699E+02 -0.27751364691E+02  0.54367086996E+02  0.40000006426E+02 0.  0.
         12    1    3    3    0    0 -0.10107767364E+01  0.24178910699E+02  0.27751364691E+02  0.36820913004E+02  0.00000000000E+00 0. -1.
         11    1    4    4    0    0 -0.15202716822E+02  0.14412400708E+00 -0.60842153520E+01  0.16375623567E+02  0.51100000000E-03 0. -1.
        -11    1    4    4    0    0  0.24213361253E+01 -0.51028280191E+01 -0.10296584488E+02  0.11743993137E+02  0.51100000000E-03 0.  1.
        -12    1    4    4    0    0  0.13792157433E+02 -0.19220206687E+02 -0.11370564851E+02  0.26247470293E+02  0.00000000000E+00 0.  1.
</event>
<event>
 8    1  0.3146747E-007  0.9118800E+02  0.7816164E-02  0.1184000E+00
        -11   -1    0    0    0    0  0.00000000000E+00  0.00000000000E+00  0.45593999997E+02  0.45594000000E+02  0.51100000000E-03 0. -1.
         11   -1    0    0    0    0 -0.00000000000E+00 -0.00000000000E+00 -0.45593999997E+02  0.45594000000E+02  0.51100000000E-03 0.  1.
         23    2    1    2    0    0  0.00000000000E+00  0.88817841970E-15  0.35527136788E-14  0.91188000000E+02  0.91188000000E+02 0.  0.
    9900012    2    3    3    0    0  0.26897596181E+02 -0.75914392482E+01 -0.23972243127E+02  0.54367094651E+02  0.40000023876E+02 0.  0.
         12    1    3    3    0    0 -0.26897596181E+02  0.75914392482E+01  0.23972243127E+02  0.36820905349E+02  0.00000000000E+00 0. -1.
         11    1    4    4    0    0  0.44291482777E+00 -0.14152347384E+00  0.81704589267E+01  0.81836789877E+01  0.51100000000E-03 0. -1.
        -11    1    4    4    0    0  0.51620201576E+01 -0.37840975568E+01  0.11415564676E+01  0.65014612094E+01  0.51100000000E-03 0.  1.
        -12    1    4    4    0    0  0.21292661195E+02 -0.36658182176E+01 -0.33284258521E+02  0.39681954454E+02  0.00000000000E+00 0.  1.
</event>
<event>
 8    1  0.3146747E-007  0.9118800E+02  0.7816164E-02  0.1184000E+00
        -11   -1    0    0    0    0  0.00000000000E+00  0.00000000000E+00  0.45593999997E+02  0.45594000000E+02  0.51100000000E-03 0.  1.
         11   -1    0    0    0    0 -0.00000000000E+00 -0.00000000000E+00 -0.45593999997E+02  0.45594000000E+02  0.51100000000E-03 0. -1.
         23    2    1    2    0    0  0.00000000000E+00 -0.88817841970E-15  0.00000000000E+00  0.91188000000E+02  0.91188000000E+02 0.  0.
    9900012    2    3    3    0    0  0.22096979422E+02 -0.70782647920E+01 -0.28590237395E+02  0.54367081946E+02  0.39999994913E+02 0.  0.
        -12    1    3    3    0    0 -0.22096979422E+02  0.70782647920E+01  0.28590237395E+02  0.36820918054E+02  0.00000000000E+00 0.  1.
         11    1    4    4    0    0  0.11561692956E+02  0.60928645766E+01 -0.10520470461E+02  0.16777247741E+02  0.51100000000E-03 0. -1.
        -11    1    4    4    0    0  0.13393618893E+02  0.45296897663E+01 -0.12339806026E+02  0.18766404276E+02  0.51100000000E-03 0.  1.
         12    1    4    4    0    0 -0.28583324271E+01 -0.17700819135E+02 -0.57299609075E+01  0.18823429930E+02  0.00000000000E+00 0. -1.
</event>
<event>
 8    1  0.3146747E-007  0.9118800E+02  0.7816164E-02  0.1184000E+00
        -11   -1    0    0    0    0  0.00000000000E+00  0.00000000000E+00  0.45593999997E+02  0.45594000000E+02  0.51100000000E-03 0.  1.
         11   -1    0    0    0    0 -0.00000000000E+00 -0.00000000000E+00 -0.45593999997E+02  0.45594000000E+02  0.51100000000E-03 0. -1.
         23    2    1    2    0    0 -0.35527136788E-14  0.00000000000E+00 -0.35527136788E-14  0.91188000000E+02  0.91188000000E+02 0.  0.
    9900012    2    3    3    0    0  0.24613469212E+02 -0.15154881444E+02 -0.22809790588E+02  0.54367084139E+02  0.39999999911E+02 0.  0.
        -12    1    3    3    0    0 -0.24613469212E+02  0.15154881444E+02  0.22809790588E+02  0.36820915861E+02  0.00000000000E+00 0.  1.
         11    1    4    4    0    0 -0.10285802626E+01 -0.61343764939E+01 -0.20364269471E+02  0.21293004102E+02  0.51100000000E-03 0. -1.
        -11    1    4    4    0    0  0.24395337404E+01  0.40485764283E+01 -0.42859175422E+01  0.63805474221E+01  0.51100000000E-03 0.  1.
         12    1    4    4    0    0  0.23202515734E+02 -0.13069081379E+02  0.18403964257E+01  0.26693532615E+02  0.00000000000E+00 0. -1.
</event>
<event>
 8    1  0.3146747E-007  0.9118800E+02  0.7816164E-02  0.1184000E+00
        -11   -1    0    0    0    0  0.00000000000E+00  0.00000000000E+00  0.45593999997E+02  0.45594000000E+02  0.51100000000E-03 0.  1.
         11   -1    0    0    0    0 -0.00000000000E+00 -0.00000000000E+00 -0.45593999997E+02  0.45594000000E+02  0.51100000000E-03 0. -1.
         23    2    1    2    0    0  0.00000000000E+00  0.00000000000E+00  0.00000000000E+00  0.91188000000E+02  0.91188000000E+02 0.  0.
    9900012    2    3    3    0    0  0.48893151712E+01  0.64276389971E+01  0.35924479915E+02  0.54366970640E+02  0.39999741168E+02 0.  0.
         12    1    3    3    0    0 -0.48893151712E+01 -0.64276389971E+01 -0.35924479915E+02  0.36821029360E+02  0.00000000000E+00 0. -1.
         11    1    4    4    0    0  0.39853496314E+01 -0.56561549501E+01 -0.54564574811E+01  0.88118119026E+01  0.51100000000E-03 0. -1.
        -11    1    4    4    0    0  0.59851645050E+01  0.19395817061E+00  0.15688952452E+02  0.16792946234E+02  0.51100000000E-03 0.  1.
        -12    1    4    4    0    0 -0.50811989652E+01  0.11889835777E+02  0.25691984944E+02  0.28762212503E+02  0.00000000000E+00 0.  1.
</event>
<event>
 8    1  0.3146747E-007  0.9118800E+02  0.7816164E-02  0.1184000E+00
        -11   -1    0    0    0    0  0.00000000000E+00  0.00000000000E+00  0.45593999997E+02  0.45594000000E+02  0.51100000000E-03 0. -1.
         11   -1    0    0    0    0 -0.00000000000E+00 -0.00000000000E+00 -0.45593999997E+02  0.45594000000E+02  0.51100000000E-03 0.  1.
         23    2    1    2    0    0  0.88817841970E-15  0.35527136788E-14  0.00000000000E+00  0.91188000000E+02  0.91188000000E+02 0.  0.
    9900012    2    3    3    0    0  0.53433837988E+01  0.28171313307E+02  0.23099879473E+02  0.54367094586E+02  0.40000023727E+02 0.  0.
        -12    1    3    3    0    0 -0.53433837988E+01 -0.28171313307E+02 -0.23099879473E+02  0.36820905414E+02  0.00000000000E+00 0.  1.
         11    1    4    4    0    0  0.17315551418E+02  0.23791335918E+02  0.27210398172E+02  0.40078195501E+02  0.51100000000E-03 0. -1.
        -11    1    4    4    0    0 -0.21782053828E+01  0.25583255504E+01 -0.25217921105E+01  0.42010765312E+01  0.51100000000E-03 0.  1.
         12    1    4    4    0    0 -0.97939622362E+01  0.18216518383E+01 -0.15887265885E+01  0.10087822554E+02  0.00000000000E+00 0. -1.
</event>
<event>
 8    1  0.3146747E-007  0.9118800E+02  0.7816164E-02  0.1184000E+00
        -11   -1    0    0    0    0  0.00000000000E+00  0.00000000000E+00  0.45593999997E+02  0.45594000000E+02  0.51100000000E-03 0.  1.
         11   -1    0    0    0    0 -0.00000000000E+00 -0.00000000000E+00 -0.45593999997E+02  0.45594000000E+02  0.51100000000E-03 0. -1.
         23    2    1    2    0    0  0.00000000000E+00 -0.17763568394E-14  0.00000000000E+00  0.91188000000E+02  0.91188000000E+02 0.  0.
    9900012    2    3    3    0    0 -0.35756893747E+02  0.75077182106E+01 -0.45671470380E+01  0.54367080467E+02  0.39999991542E+02 0.  0.
         12    1    3    3    0    0  0.35756893747E+02 -0.75077182106E+01  0.45671470380E+01  0.36820919533E+02  0.00000000000E+00 0. -1.
         11    1    4    4    0    0 -0.61434327635E+00 -0.22311706666E+00  0.10558033746E+02  0.10578245399E+02  0.51100000000E-03 0.  1.
        -11    1    4    4    0    0 -0.23011772421E+02 -0.39201606458E+01 -0.13310568884E+02  0.26871556965E+02  0.51100000000E-03 0. -1.
         12    1    4    4    0    0 -0.12130778050E+02  0.11650995923E+02 -0.18146118994E+01  0.16917278104E+02  0.00000000000E+00 0. -1.
</event>
<event>
 8    1  0.3146747E-007  0.9118800E+02  0.7816164E-02  0.1184000E+00
        -11   -1    0    0    0    0  0.00000000000E+00  0.00000000000E+00  0.45593999997E+02  0.45594000000E+02  0.51100000000E-03 0.  1.
         11   -1    0    0    0    0 -0.00000000000E+00 -0.00000000000E+00 -0.45593999997E+02  0.45594000000E+02  0.51100000000E-03 0. -1.
         23    2    1    2    0    0  0.71054273576E-14  0.00000000000E+00  0.44408920985E-15  0.91188000000E+02  0.91188000000E+02 0.  0.
    9900012    2    3    3    0    0  0.36404374272E+02  0.45353594569E+01  0.31513322106E+01  0.54367097699E+02  0.40000030824E+02 0.  0.
        -12    1    3    3    0    0 -0.36404374272E+02 -0.45353594569E+01 -0.31513322106E+01  0.36820902301E+02  0.00000000000E+00 0.  1.
         11    1    4    4    0    0 -0.17677639183E+01 -0.44365991993E+01  0.82640636452E+01  0.95447970077E+01  0.51100000000E-03 0. -1.
        -11    1    4    4    0    0  0.16198565297E+02 -0.36222071153E+01  0.53207293698E+01  0.17430549715E+02  0.51100000000E-03 0.  1.
         12    1    4    4    0    0  0.21973572894E+02  0.12594165771E+02 -0.10433460804E+02  0.27391750977E+02  0.00000000000E+00 0. -1.
</event>
<event>
 8    1  0.3146747E-007  0.9118800E+02  0.7816164E-02  0.1184000E+00
        -11   -1    0    0    0    0  0.00000000000E+00  0.00000000000E+00  0.45593999997E+02  0.45594000000E+02  0.51100000000E-03 0. -1.
         11   -1    0    0    0    0 -0.00000000000E+00 -0.00000000000E+00 -0.45593999997E+02  0.45594000000E+02  0.51100000000E-03 0.  1.
         23    2    1    2    0    0  0.00000000000E+00 -0.88817841970E-15  0.17763568394E-14  0.91188000000E+02  0.91188000000E+02 0.  0.
    9900012    2    3    3    0    0 -0.35702302782E+02 -0.57193416382E+01  0.69582305925E+01  0.54367051266E+02  0.39999924971E+02 0.  0.
        -12    1    3    3    0    0  0.35702302782E+02  0.57193416382E+01 -0.69582305925E+01  0.36820948734E+02  0.00000000000E+00 0.  1.
         11    1    4    4    0    0  0.24620997277E+01  0.28826146920E+01 -0.87621294832E+01  0.95470579695E+01  0.51100000000E-03 0.  1.
        -11    1    4    4    0    0 -0.30499098382E+02 -0.25010575778E+00  0.98320173521E+01  0.32045688017E+02  0.51100000000E-03 0. -1.
        -12    1    4    4    0    0 -0.76653041273E+01 -0.83518505724E+01  0.58883427237E+01  0.12774305280E+02  0.00000000000E+00 0.  1.
</event>
<event>
 8    1  0.3146747E-007  0.9118800E+02  0.7816164E-02  0.1184000E+00
        -11   -1    0    0    0    0  0.00000000000E+00  0.00000000000E+00  0.45593999997E+02  0.45594000000E+02  0.51100000000E-03 0. -1.
         11   -1    0    0    0    0 -0.00000000000E+00 -0.00000000000E+00 -0.45593999997E+02  0.45594000000E+02  0.51100000000E-03 0.  1.
         23    2    1    2    0    0  0.00000000000E+00  0.00000000000E+00  0.00000000000E+00  0.91188000000E+02  0.91188000000E+02 0.  0.
    9900012    2    3    3    0    0 -0.19726857877E+02  0.56277703115E+01  0.30577132788E+02  0.54367057998E+02  0.39999940318E+02 0.  0.
        -12    1    3    3    0    0  0.19726857877E+02 -0.56277703115E+01 -0.30577132788E+02  0.36820942002E+02  0.00000000000E+00 0.  1.
         11    1    4    4    0    0  0.12891145380E+01 -0.95991498548E+01  0.45890383571E+01  0.10717498194E+02  0.51100000000E-03 0. -1.
        -11    1    4    4    0    0 -0.14279634488E+01  0.15289883607E+02  0.96009106948E+01  0.18110690400E+02  0.51100000000E-03 0.  1.
        -12    1    4    4    0    0 -0.19588008966E+02 -0.62963441112E-01  0.16387183736E+02  0.25538869404E+02  0.00000000000E+00 0.  1.
</event>
<event>
 8    1  0.3146747E-007  0.9118800E+02  0.7816164E-02  0.1184000E+00
        -11   -1    0    0    0    0  0.00000000000E+00  0.00000000000E+00  0.45593999997E+02  0.45594000000E+02  0.51100000000E-03 0. -1.
         11   -1    0    0    0    0 -0.00000000000E+00 -0.00000000000E+00 -0.45593999997E+02  0.45594000000E+02  0.51100000000E-03 0.  1.
         23    2    1    2    0    0  0.00000000000E+00 -0.35527136788E-14  0.00000000000E+00  0.91188000000E+02  0.91188000000E+02 0.  0.
    9900012    2    3    3    0    0 -0.17164874326E+02 -0.28269630407E+02  0.16185542237E+02  0.54367126959E+02  0.40000097528E+02 0.  0.
        -12    1    3    3    0    0  0.17164874326E+02  0.28269630407E+02 -0.16185542237E+02  0.36820873041E+02  0.00000000000E+00 0.  1.
         11    1    4    4    0    0  0.94076627799E+01 -0.50521956166E+01 -0.13975326487E+01  0.10769489184E+02  0.51100000000E-03 0. -1.
        -11    1    4    4    0    0 -0.16003734332E+00 -0.10584971115E+02  0.39216851116E+01  0.11289235573E+02  0.51100000000E-03 0.  1.
         12    1    4    4    0    0 -0.26412499763E+02 -0.12632463676E+02  0.13661389774E+02  0.32308402201E+02  0.00000000000E+00 0. -1.
</event>
<event>
 8    1  0.3146747E-007  0.9118800E+02  0.7816164E-02  0.1184000E+00
        -11   -1    0    0    0    0  0.00000000000E+00  0.00000000000E+00  0.45593999997E+02  0.45594000000E+02  0.51100000000E-03 0.  1.
         11   -1    0    0    0    0 -0.00000000000E+00 -0.00000000000E+00 -0.45593999997E+02  0.45594000000E+02  0.51100000000E-03 0. -1.
         23    2    1    2    0    0  0.71054273576E-14  0.00000000000E+00 -0.35527136788E-14  0.91188000000E+02  0.91188000000E+02 0.  0.
    9900012    2    3    3    0    0  0.23413940114E+02  0.24054046252E+01  0.28315737977E+02  0.54367087732E+02  0.40000008102E+02 0.  0.
         12    1    3    3    0    0 -0.23413940114E+02 -0.24054046252E+01 -0.28315737977E+02  0.36820912268E+02  0.00000000000E+00 0. -1.
         11    1    4    4    0    0  0.16899325606E+02  0.12679559853E+02  0.13658923089E+02  0.25157993247E+02  0.51100000000E-03 0.  1.
        -11    1    4    4    0    0 -0.27308663123E+00 -0.29247930908E+01 -0.57639949952E+01  0.64693608261E+01  0.51100000000E-03 0. -1.
        -12    1    4    4    0    0  0.67877011390E+01 -0.73493621370E+01  0.20420809884E+02  0.22739733659E+02  0.00000000000E+00 0.  1.
</event>
<event>
 8    1  0.3146747E-007  0.9118800E+02  0.7816164E-02  0.1184000E+00
        -11   -1    0    0    0    0  0.00000000000E+00  0.00000000000E+00  0.45593999997E+02  0.45594000000E+02  0.51100000000E-03 0.  1.
         11   -1    0    0    0    0 -0.00000000000E+00 -0.00000000000E+00 -0.45593999997E+02  0.45594000000E+02  0.51100000000E-03 0. -1.
         23    2    1    2    0    0 -0.35527136788E-14  0.00000000000E+00  0.35527136788E-14  0.91188000000E+02  0.91188000000E+02 0.  0.
    9900012    2    3    3    0    0 -0.30347892764E+02 -0.18607522965E+02  0.94096848266E+01  0.54367127188E+02  0.40000098049E+02 0.  0.
        -12    1    3    3    0    0  0.30347892764E+02  0.18607522965E+02 -0.94096848266E+01  0.36820872812E+02  0.00000000000E+00 0.  1.
         11    1    4    4    0    0 -0.31375224113E+01 -0.14000304939E+02 -0.45765826394E+01  0.15059803923E+02  0.51100000000E-03 0. -1.
        -11    1    4    4    0    0 -0.20223528707E+02  0.19388273415E+01  0.19582530449E+02  0.28217470898E+02  0.51100000000E-03 0.  1.
        -12    1    4    4    0    0 -0.69868416460E+01 -0.65460453673E+01 -0.55962629834E+01  0.11089852367E+02  0.00000000000E+00 0.  1.
</event>
<event>
 8    1  0.3146747E-007  0.9118800E+02  0.7816164E-02  0.1184000E+00
        -11   -1    0    0    0    0  0.00000000000E+00  0.00000000000E+00  0.45593999997E+02  0.45594000000E+02  0.51100000000E-03 0. -1.
         11   -1    0    0    0    0 -0.00000000000E+00 -0.00000000000E+00 -0.45593999997E+02  0.45594000000E+02  0.51100000000E-03 0.  1.
         23    2    1    2    0    0 -0.33306690739E-15  0.71054273576E-14  0.00000000000E+00  0.91188000000E+02  0.91188000000E+02 0.  0.
    9900012    2    3    3    0    0  0.36689639639E+00 -0.33655586375E+02 -0.14931252243E+02  0.54367144486E+02  0.40000137485E+02 0.  0.
         12    1    3    3    0    0 -0.36689639639E+00  0.33655586375E+02  0.14931252243E+02  0.36820855514E+02  0.00000000000E+00 0. -1.
         11    1    4    4    0    0  0.72030009962E+01 -0.11417936406E+02  0.97307867835E+01  0.16641535591E+02  0.51100000000E-03 0. -1.
        -11    1    4    4    0    0 -0.74114658990E+01 -0.12785618518E+01 -0.76170778036E+01  0.10704411320E+02  0.51100000000E-03 0.  1.
        -12    1    4    4    0    0  0.57536129915E+00 -0.20959088117E+02 -0.17044961223E+02  0.27021197576E+02  0.00000000000E+00 0.  1.
</event>
<event>
 8    1  0.3146747E-007  0.9118800E+02  0.7816164E-02  0.1184000E+00
        -11   -1    0    0    0    0  0.00000000000E+00  0.00000000000E+00  0.45593999997E+02  0.45594000000E+02  0.51100000000E-03 0.  1.
         11   -1    0    0    0    0 -0.00000000000E+00 -0.00000000000E+00 -0.45593999997E+02  0.45594000000E+02  0.51100000000E-03 0. -1.
         23    2    1    2    0    0  0.00000000000E+00  0.00000000000E+00  0.00000000000E+00  0.91188000000E+02  0.91188000000E+02 0.  0.
    9900012    2    3    3    0    0  0.18761121810E+02  0.21602200796E+02  0.23176576477E+02  0.54366967044E+02  0.39999732968E+02 0.  0.
         12    1    3    3    0    0 -0.18761121810E+02 -0.21602200796E+02 -0.23176576477E+02  0.36821032956E+02  0.00000000000E+00 0. -1.
         11    1    4    4    0    0 -0.57281439425E+00  0.12523542345E+02  0.85150075168E+01  0.15154952407E+02  0.51100000000E-03 0. -1.
        -11    1    4    4    0    0  0.24202606830E+02 -0.16170711086E+01  0.72439948272E+01  0.25315144827E+02  0.51100000000E-03 0.  1.
        -12    1    4    4    0    0 -0.48686706251E+01  0.10695729560E+02  0.74175741326E+01  0.13896869809E+02  0.00000000000E+00 0.  1.
</event>
<event>
 8    1  0.3146747E-007  0.9118800E+02  0.7816164E-02  0.1184000E+00
        -11   -1    0    0    0    0  0.00000000000E+00  0.00000000000E+00  0.45593999997E+02  0.45594000000E+02  0.51100000000E-03 0.  1.
         11   -1    0    0    0    0 -0.00000000000E+00 -0.00000000000E+00 -0.45593999997E+02  0.45594000000E+02  0.51100000000E-03 0. -1.
         23    2    1    2    0    0  0.35527136788E-14  0.35527136788E-14  0.00000000000E+00  0.91188000000E+02  0.91188000000E+02 0.  0.
    9900012    2    3    3    0    0 -0.25697616895E+02 -0.24906849184E+02 -0.86637870290E+01  0.54367083987E+02  0.39999999564E+02 0.  0.
         12    1    3    3    0    0  0.25697616895E+02  0.24906849184E+02  0.86637870290E+01  0.36820916013E+02  0.00000000000E+00 0. -1.
         11    1    4    4    0    0 -0.75900681297E+01 -0.15334460561E+02 -0.95367699401E+01  0.19588384212E+02  0.51100000000E-03 0. -1.
        -11    1    4    4    0    0  0.17378596491E+01 -0.19692122532E+01  0.10948597630E+02  0.11259207049E+02  0.51100000000E-03 0.  1.
         12    1    4    4    0    0 -0.19845408415E+02 -0.76031763705E+01 -0.10075614719E+02  0.23519492725E+02  0.00000000000E+00 0. -1.
</event>
<event>
 8    1  0.3146747E-007  0.9118800E+02  0.7816164E-02  0.1184000E+00
        -11   -1    0    0    0    0  0.00000000000E+00  0.00000000000E+00  0.45593999997E+02  0.45594000000E+02  0.51100000000E-03 0.  1.
         11   -1    0    0    0    0 -0.00000000000E+00 -0.00000000000E+00 -0.45593999997E+02  0.45594000000E+02  0.51100000000E-03 0. -1.
         23    2    1    2    0    0  0.00000000000E+00  0.00000000000E+00  0.35527136788E-14  0.91188000000E+02  0.91188000000E+02 0.  0.
    9900012    2    3    3    0    0 -0.18765551459E+02  0.91578222960E+01  0.30327664737E+02  0.54367097252E+02  0.40000029805E+02 0.  0.
         12    1    3    3    0    0  0.18765551459E+02 -0.91578222960E+01 -0.30327664737E+02  0.36820902748E+02  0.00000000000E+00 0. -1.
         11    1    4    4    0    0  0.30962121688E+01 -0.98595255172E+00  0.28670822024E+02  0.28854369998E+02  0.51100000000E-03 0. -1.
        -11    1    4    4    0    0 -0.61708434193E+01  0.47536530533E+01  0.40010965530E+01  0.87570143168E+01  0.51100000000E-03 0.  1.
        -12    1    4    4    0    0 -0.15690920209E+02  0.53901217945E+01 -0.23442538393E+01  0.16755712937E+02  0.00000000000E+00 0.  1.
</event>
<event>
 8    1  0.3146747E-007  0.9118800E+02  0.7816164E-02  0.1184000E+00
        -11   -1    0    0    0    0  0.00000000000E+00  0.00000000000E+00  0.45593999997E+02  0.45594000000E+02  0.51100000000E-03 0. -1.
         11   -1    0    0    0    0 -0.00000000000E+00 -0.00000000000E+00 -0.45593999997E+02  0.45594000000E+02  0.51100000000E-03 0.  1.
         23    2    1    2    0    0 -0.88817841970E-15  0.00000000000E+00  0.00000000000E+00  0.91188000000E+02  0.91188000000E+02 0.  0.
    9900012    2    3    3    0    0  0.49858787724E+01  0.28032251767E+02 -0.23347661106E+02  0.54367090107E+02  0.40000013516E+02 0.  0.
         12    1    3    3    0    0 -0.49858787724E+01 -0.28032251767E+02  0.23347661106E+02  0.36820909893E+02  0.00000000000E+00 0. -1.
         11    1    4    4    0    0 -0.14054505644E+02  0.39861969603E+01 -0.10207547197E+02  0.17821697875E+02  0.51100000000E-03 0. -1.
        -11    1    4    4    0    0  0.40436856412E+01  0.14923125839E+02 -0.16127087361E+01  0.15545157063E+02  0.51100000000E-03 0.  1.
        -12    1    4    4    0    0  0.14996698776E+02  0.91229289676E+01 -0.11527405173E+02  0.21000235169E+02  0.00000000000E+00 0.  1.
</event>
<event>
 8    1  0.3146747E-007  0.9118800E+02  0.7816164E-02  0.1184000E+00
        -11   -1    0    0    0    0  0.00000000000E+00  0.00000000000E+00  0.45593999997E+02  0.45594000000E+02  0.51100000000E-03 0.  1.
         11   -1    0    0    0    0 -0.00000000000E+00 -0.00000000000E+00 -0.45593999997E+02  0.45594000000E+02  0.51100000000E-03 0. -1.
         23    2    1    2    0    0  0.35527136788E-14  0.00000000000E+00  0.00000000000E+00  0.91188000000E+02  0.91188000000E+02 0.  0.
    9900012    2    3    3    0    0  0.28962005075E+02  0.19285533188E+02 -0.12044243820E+02  0.54366900919E+02  0.39999582223E+02 0.  0.
        -12    1    3    3    0    0 -0.28962005075E+02 -0.19285533188E+02  0.12044243820E+02  0.36821099081E+02  0.00000000000E+00 0.  1.
         11    1    4    4    0    0 -0.38029859471E+01  0.70972475175E+01  0.84834079083E+01  0.11696231634E+02  0.51100000000E-03 0.  1.
        -11    1    4    4    0    0  0.30966074522E+02  0.12176971643E+02 -0.14350514461E+02  0.36236910399E+02  0.51100000000E-03 0. -1.
        -12    1    4    4    0    0  0.17989165000E+01  0.11314027089E-01 -0.61771372676E+01  0.64337588861E+01  0.00000000000E+00 0.  1.
</event>
<event>
 8    1  0.3146747E-007  0.9118800E+02  0.7816164E-02  0.1184000E+00
        -11   -1    0    0    0    0  0.00000000000E+00  0.00000000000E+00  0.45593999997E+02  0.45594000000E+02  0.51100000000E-03 0. -1.
         11   -1    0    0    0    0 -0.00000000000E+00 -0.00000000000E+00 -0.45593999997E+02  0.45594000000E+02  0.51100000000E-03 0.  1.
         23    2    1    2    0    0 -0.35527136788E-14 -0.35527136788E-14 -0.35527136788E-14  0.91188000000E+02  0.91188000000E+02 0.  0.
    9900012    2    3    3    0    0  0.26509952373E+02  0.17396226532E+02 -0.18718352481E+02  0.54367041404E+02  0.39999902488E+02 0.  0.
         12    1    3    3    0    0 -0.26509952373E+02 -0.17396226532E+02  0.18718352481E+02  0.36820958596E+02  0.00000000000E+00 0. -1.
         11    1    4    4    0    0 -0.44339597830E+01  0.17223162182E+02 -0.69582327269E+01  0.19097495067E+02  0.51100000000E-03 0. -1.
        -11    1    4    4    0    0  0.11775294703E+02  0.19430520017E+01 -0.10636698334E+02  0.15986630919E+02  0.51100000000E-03 0.  1.
        -12    1    4    4    0    0  0.19168617453E+02 -0.17699876517E+01 -0.11234214208E+01  0.19282915418E+02  0.00000000000E+00 0.  1.
</event>
<event>
 8    1  0.3146747E-007  0.9118800E+02  0.7816164E-02  0.1184000E+00
        -11   -1    0    0    0    0  0.00000000000E+00  0.00000000000E+00  0.45593999997E+02  0.45594000000E+02  0.51100000000E-03 0.  1.
         11   -1    0    0    0    0 -0.00000000000E+00 -0.00000000000E+00 -0.45593999997E+02  0.45594000000E+02  0.51100000000E-03 0. -1.
         23    2    1    2    0    0  0.88817841970E-15  0.00000000000E+00 -0.35527136788E-14  0.91188000000E+02  0.91188000000E+02 0.  0.
    9900012    2    3    3    0    0 -0.66265008601E+01  0.25588975470E+02 -0.25633334768E+02  0.54367163092E+02  0.40000179901E+02 0.  0.
        -12    1    3    3    0    0  0.66265008601E+01 -0.25588975470E+02  0.25633334768E+02  0.36820836908E+02  0.00000000000E+00 0.  1.
         11    1    4    4    0    0 -0.15193536871E+02  0.24374155040E+01 -0.29092771472E+01  0.15660410300E+02  0.51100000000E-03 0. -1.
        -11    1    4    4    0    0 -0.40519072706E+01 -0.63536376738E+00 -0.13179899045E+01  0.43079852943E+01  0.51100000000E-03 0.  1.
         12    1    4    4    0    0  0.12618943282E+02  0.23786923734E+02 -0.21406067716E+02  0.34398767497E+02  0.00000000000E+00 0. -1.
</event>
<event>
 8    1  0.3146747E-007  0.9118800E+02  0.7816164E-02  0.1184000E+00
        -11   -1    0    0    0    0  0.00000000000E+00  0.00000000000E+00  0.45593999997E+02  0.45594000000E+02  0.51100000000E-03 0. -1.
         11   -1    0    0    0    0 -0.00000000000E+00 -0.00000000000E+00 -0.45593999997E+02  0.45594000000E+02  0.51100000000E-03 0.  1.
         23    2    1    2    0    0  0.00000000000E+00  0.00000000000E+00 -0.17763568394E-14  0.91188000000E+02  0.91188000000E+02 0.  0.
    9900012    2    3    3    0    0 -0.32645143944E+02 -0.61795637186E+01 -0.15870977038E+02  0.54367077374E+02  0.39999984489E+02 0.  0.
         12    1    3    3    0    0  0.32645143944E+02  0.61795637186E+01  0.15870977038E+02  0.36820922626E+02  0.00000000000E+00 0. -1.
         11    1    4    4    0    0 -0.81598017190E+01  0.62886738064E+01 -0.46006665001E+01  0.11282549129E+02  0.51100000000E-03 0. -1.
        -11    1    4    4    0    0 -0.24729743072E+02 -0.79590200662E+01  0.47764969416E+01  0.26414411144E+02  0.51100000000E-03 0.  1.
        -12    1    4    4    0    0  0.24440084660E+00 -0.45092174588E+01 -0.16046807480E+02  0.16670117101E+02  0.00000000000E+00 0.  1.
</event>
<event>
 8    1  0.3146747E-007  0.9118800E+02  0.7816164E-02  0.1184000E+00
        -11   -1    0    0    0    0  0.00000000000E+00  0.00000000000E+00  0.45593999997E+02  0.45594000000E+02  0.51100000000E-03 0. -1.
         11   -1    0    0    0    0 -0.00000000000E+00 -0.00000000000E+00 -0.45593999997E+02  0.45594000000E+02  0.51100000000E-03 0.  1.
         23    2    1    2    0    0 -0.88817841970E-15  0.00000000000E+00  0.88817841970E-15  0.91188000000E+02  0.91188000000E+02 0.  0.
    9900012    2    3    3    0    0  0.42701939350E+01  0.36160799412E+02 -0.54718880178E+01  0.54367088430E+02  0.40000009693E+02 0.  0.
        -12    1    3    3    0    0 -0.42701939350E+01 -0.36160799412E+02  0.54718880178E+01  0.36820911570E+02  0.00000000000E+00 0.  1.
         11    1    4    4    0    0 -0.14329392275E+02  0.14278659108E+02 -0.79252841517E+01  0.21726060803E+02  0.51100000000E-03 0. -1.
        -11    1    4    4    0    0 -0.22095052280E+00  0.10281497823E+02 -0.70508136674E+00  0.10308014193E+02  0.51100000000E-03 0.  1.
        -12    1    4    4    0    0  0.18820536733E+02  0.11600642482E+02  0.31584775006E+01  0.22333013434E+02  0.00000000000E+00 0.  1.
</event>
<event>
 8    1  0.3146747E-007  0.9118800E+02  0.7816164E-02  0.1184000E+00
        -11   -1    0    0    0    0  0.00000000000E+00  0.00000000000E+00  0.45593999997E+02  0.45594000000E+02  0.51100000000E-03 0.  1.
         11   -1    0    0    0    0 -0.00000000000E+00 -0.00000000000E+00 -0.45593999997E+02  0.45594000000E+02  0.51100000000E-03 0. -1.
         23    2    1    2    0    0  0.00000000000E+00 -0.35527136788E-14  0.00000000000E+00  0.91188000000E+02  0.91188000000E+02 0.  0.
    9900012    2    3    3    0    0  0.13339771780E+02 -0.25598756220E+02 -0.22859018046E+02  0.54367074737E+02  0.39999978479E+02 0.  0.
        -12    1    3    3    0    0 -0.13339771780E+02  0.25598756220E+02  0.22859018046E+02  0.36820925263E+02  0.00000000000E+00 0.  1.
         11    1    4    4    0    0 -0.27405081170E+01  0.23316413332E+01  0.61003558825E+01  0.70824627214E+01  0.51100000000E-03 0.  1.
        -11    1    4    4    0    0  0.32050981541E+01 -0.22198906344E+02 -0.22540557706E+02  0.31798440827E+02  0.51100000000E-03 0. -1.
        -12    1    4    4    0    0  0.12875181743E+02 -0.57314912094E+01 -0.64188162225E+01  0.15486171189E+02  0.00000000000E+00 0.  1.
</event>
<event>
 8    1  0.3146747E-007  0.9118800E+02  0.7816164E-02  0.1184000E+00
        -11   -1    0    0    0    0  0.00000000000E+00  0.00000000000E+00  0.45593999997E+02  0.45594000000E+02  0.51100000000E-03 0. -1.
         11   -1    0    0    0    0 -0.00000000000E+00 -0.00000000000E+00 -0.45593999997E+02  0.45594000000E+02  0.51100000000E-03 0.  1.
         23    2    1    2    0    0  0.00000000000E+00  0.00000000000E+00  0.00000000000E+00  0.91188000000E+02  0.91188000000E+02 0.  0.
    9900012    2    3    3    0    0  0.27356324140E+02 -0.94550403408E+01  0.22759908270E+02  0.54367086340E+02  0.40000004929E+02 0.  0.
        -12    1    3    3    0    0 -0.27356324140E+02  0.94550403408E+01 -0.22759908270E+02  0.36820913660E+02  0.00000000000E+00 0.  1.
         11    1    4    4    0    0  0.80826606839E+01  0.69468991378E+01  0.18990424012E+02  0.21776708103E+02  0.51100000000E-03 0. -1.
        -11    1    4    4    0    0  0.70040280725E+01  0.42255533233E+01 -0.57265698305E+00  0.81999784396E+01  0.51100000000E-03 0.  1.
         12    1    4    4    0    0  0.12269635384E+02 -0.20627492802E+02  0.43421412406E+01  0.24390399798E+02  0.00000000000E+00 0. -1.
</event>
<event>
 8    1  0.3146747E-007  0.9118800E+02  0.7816164E-02  0.1184000E+00
        -11   -1    0    0    0    0  0.00000000000E+00  0.00000000000E+00  0.45593999997E+02  0.45594000000E+02  0.51100000000E-03 0.  1.
         11   -1    0    0    0    0 -0.00000000000E+00 -0.00000000000E+00 -0.45593999997E+02  0.45594000000E+02  0.51100000000E-03 0. -1.
         23    2    1    2    0    0  0.35527136788E-14  0.00000000000E+00  0.00000000000E+00  0.91188000000E+02  0.91188000000E+02 0.  0.
    9900012    2    3    3    0    0 -0.17290648414E+02 -0.15044138411E+02 -0.28818166692E+02  0.54367090796E+02  0.40000015089E+02 0.  0.
        -12    1    3    3    0    0  0.17290648414E+02  0.15044138411E+02  0.28818166692E+02  0.36820909204E+02  0.00000000000E+00 0.  1.
         11    1    4    4    0    0  0.66204417811E+01  0.23410436706E+01 -0.43397336681E+01  0.82549393345E+01  0.51100000000E-03 0. -1.
        -11    1    4    4    0    0  0.57800621306E+00 -0.88725705284E+01  0.19362662893E+01  0.90997651821E+01  0.51100000000E-03 0.  1.
         12    1    4    4    0    0 -0.24489096408E+02 -0.85126115534E+01 -0.26414699313E+02  0.37012386280E+02  0.00000000000E+00 0. -1.
</event>
<event>
 8    1  0.3146747E-007  0.9118800E+02  0.7816164E-02  0.1184000E+00
        -11   -1    0    0    0    0  0.00000000000E+00  0.00000000000E+00  0.45593999997E+02  0.45594000000E+02  0.51100000000E-03 0.  1.
         11   -1    0    0    0    0 -0.00000000000E+00 -0.00000000000E+00 -0.45593999997E+02  0.45594000000E+02  0.51100000000E-03 0. -1.
         23    2    1    2    0    0  0.17763568394E-14 -0.71054273576E-14 -0.17763568394E-14  0.91188000000E+02  0.91188000000E+02 0.  0.
    9900012    2    3    3    0    0 -0.15703904959E+02  0.32138299698E+02  0.87347967814E+01  0.54367087284E+02  0.40000007081E+02 0.  0.
        -12    1    3    3    0    0  0.15703904959E+02 -0.32138299698E+02 -0.87347967814E+01  0.36820912716E+02  0.00000000000E+00 0.  1.
         11    1    4    4    0    0  0.40523376715E+00 -0.16470768071E+01 -0.83167774410E+01  0.84879834872E+01  0.51100000000E-03 0. -1.
        -11    1    4    4    0    0 -0.47774146820E+01  0.29086442231E+02  0.77326446094E+01  0.30473572250E+02  0.51100000000E-03 0.  1.
         12    1    4    4    0    0 -0.11331724044E+02  0.46989342734E+01  0.93189296130E+01  0.15405531547E+02  0.00000000000E+00 0. -1.
</event>
<event>
 8    1  0.3146747E-007  0.9118800E+02  0.7816164E-02  0.1184000E+00
        -11   -1    0    0    0    0  0.00000000000E+00  0.00000000000E+00  0.45593999997E+02  0.45594000000E+02  0.51100000000E-03 0. -1.
         11   -1    0    0    0    0 -0.00000000000E+00 -0.00000000000E+00 -0.45593999997E+02  0.45594000000E+02  0.51100000000E-03 0.  1.
         23    2    1    2    0    0 -0.71054273576E-14  0.00000000000E+00  0.00000000000E+00  0.91188000000E+02  0.91188000000E+02 0.  0.
    9900012    2    3    3    0    0 -0.35373717324E+02  0.30914490782E+01 -0.97429223009E+01  0.54367062075E+02  0.39999949612E+02 0.  0.
         12    1    3    3    0    0  0.35373717324E+02 -0.30914490782E+01  0.97429223009E+01  0.36820937925E+02  0.00000000000E+00 0. -1.
         11    1    4    4    0    0 -0.21957273733E+02  0.13927758554E+02 -0.20257035986E+02  0.32961368833E+02  0.51100000000E-03 0.  1.
        -11    1    4    4    0    0 -0.66965640428E+01 -0.97533557822E+01  0.69751399349E+01  0.13734063360E+02  0.51100000000E-03 0. -1.
        -12    1    4    4    0    0 -0.67198795480E+01 -0.10829536938E+01  0.35389737503E+01  0.76716298821E+01  0.00000000000E+00 0.  1.
</event>
<event>
 8    1  0.3146747E-007  0.9118800E+02  0.7816164E-02  0.1184000E+00
        -11   -1    0    0    0    0  0.00000000000E+00  0.00000000000E+00  0.45593999997E+02  0.45594000000E+02  0.51100000000E-03 0.  1.
         11   -1    0    0    0    0 -0.00000000000E+00 -0.00000000000E+00 -0.45593999997E+02  0.45594000000E+02  0.51100000000E-03 0. -1.
         23    2    1    2    0    0 -0.35527136788E-14  0.35527136788E-14 -0.17763568394E-14  0.91188000000E+02  0.91188000000E+02 0.  0.
    9900012    2    3    3    0    0 -0.29511002790E+02  0.18423920340E+02 -0.12060262610E+02  0.54366945417E+02  0.39999683665E+02 0.  0.
         12    1    3    3    0    0  0.29511002790E+02 -0.18423920340E+02  0.12060262610E+02  0.36821054583E+02  0.00000000000E+00 0. -1.
         11    1    4    4    0    0 -0.12437233754E+02  0.95834069395E+01 -0.15919718036E+02  0.22359872420E+02  0.51100000000E-03 0. -1.
        -11    1    4    4    0    0  0.34999390401E+01  0.59413245234E+01 -0.58785349729E+01  0.90612407575E+01  0.51100000000E-03 0.  1.
        -12    1    4    4    0    0 -0.20573708076E+02  0.28991888775E+01  0.97379903989E+01  0.22945832240E+02  0.00000000000E+00 0.  1.
</event>
<event>
 8    1  0.3146747E-007  0.9118800E+02  0.7816164E-02  0.1184000E+00
        -11   -1    0    0    0    0  0.00000000000E+00  0.00000000000E+00  0.45593999997E+02  0.45594000000E+02  0.51100000000E-03 0.  1.
         11   -1    0    0    0    0 -0.00000000000E+00 -0.00000000000E+00 -0.45593999997E+02  0.45594000000E+02  0.51100000000E-03 0. -1.
         23    2    1    2    0    0 -0.35527136788E-14  0.17763568394E-14  0.00000000000E+00  0.91188000000E+02  0.91188000000E+02 0.  0.
    9900012    2    3    3    0    0  0.29207140217E+02  0.15322626270E+02  0.16368864758E+02  0.54367086800E+02  0.40000005977E+02 0.  0.
         12    1    3    3    0    0 -0.29207140217E+02 -0.15322626270E+02 -0.16368864758E+02  0.36820913200E+02  0.00000000000E+00 0. -1.
         11    1    4    4    0    0  0.72800617215E+01 -0.45178555937E-01 -0.17476158686E+01  0.74870221889E+01  0.51100000000E-03 0. -1.
        -11    1    4    4    0    0  0.20390131276E+02 -0.62780542496E+01  0.67133772387E+01  0.22366064759E+02  0.51100000000E-03 0.  1.
         12    1    4    4    0    0  0.15369472195E+01  0.21645859075E+02  0.11403103388E+02  0.24513999852E+02  0.00000000000E+00 0. -1.
</event>
<event>
 8    1  0.3146747E-007  0.9118800E+02  0.7816164E-02  0.1184000E+00
        -11   -1    0    0    0    0  0.00000000000E+00  0.00000000000E+00  0.45593999997E+02  0.45594000000E+02  0.51100000000E-03 0. -1.
         11   -1    0    0    0    0 -0.00000000000E+00 -0.00000000000E+00 -0.45593999997E+02  0.45594000000E+02  0.51100000000E-03 0.  1.
         23    2    1    2    0    0  0.00000000000E+00  0.00000000000E+00  0.00000000000E+00  0.91188000000E+02  0.91188000000E+02 0.  0.
    9900012    2    3    3    0    0  0.22583903172E+02 -0.14467820084E+02 -0.25227604697E+02  0.54367047552E+02  0.39999916504E+02 0.  0.
         12    1    3    3    0    0 -0.22583903172E+02  0.14467820084E+02  0.25227604697E+02  0.36820952448E+02  0.00000000000E+00 0. -1.
         11    1    4    4    0    0 -0.52397887783E+01 -0.60759352945E+01 -0.14812831997E+02  0.16846138079E+02  0.51100000000E-03 0.  1.
        -11    1    4    4    0    0  0.25845642800E+01 -0.74201707053E+01  0.35917495176E+01  0.86394195796E+01  0.51100000000E-03 0. -1.
        -12    1    4    4    0    0  0.25239127670E+02 -0.97171408438E+00 -0.14006522217E+02  0.28881489893E+02  0.00000000000E+00 0.  1.
</event>
<event>
 8    1  0.3146747E-007  0.9118800E+02  0.7816164E-02  0.1184000E+00
        -11   -1    0    0    0    0  0.00000000000E+00  0.00000000000E+00  0.45593999997E+02  0.45594000000E+02  0.51100000000E-03 0.  1.
         11   -1    0    0    0    0 -0.00000000000E+00 -0.00000000000E+00 -0.45593999997E+02  0.45594000000E+02  0.51100000000E-03 0. -1.
         23    2    1    2    0    0  0.00000000000E+00 -0.17763568394E-14 -0.35527136788E-14  0.91188000000E+02  0.91188000000E+02 0.  0.
    9900012    2    3    3    0    0  0.28282571606E+02  0.99669834992E+01  0.21366671114E+02  0.54367092200E+02  0.40000018288E+02 0.  0.
         12    1    3    3    0    0 -0.28282571606E+02 -0.99669834992E+01 -0.21366671114E+02  0.36820907800E+02  0.00000000000E+00 0. -1.
         11    1    4    4    0    0  0.26621738409E+00  0.36286289998E+00 -0.35640417494E+01  0.35923439468E+01  0.51100000000E-03 0. -1.
        -11    1    4    4    0    0  0.20854620800E+02 -0.64858075284E+01  0.21002701683E+01  0.21940648191E+02  0.51100000000E-03 0.  1.
        -12    1    4    4    0    0  0.71617334225E+01  0.16089928128E+02  0.22830442695E+02  0.28834100062E+02  0.00000000000E+00 0.  1.
</event>
<event>
 8    1  0.3146747E-007  0.9118800E+02  0.7816164E-02  0.1184000E+00
        -11   -1    0    0    0    0  0.00000000000E+00  0.00000000000E+00  0.45593999997E+02  0.45594000000E+02  0.51100000000E-03 0. -1.
         11   -1    0    0    0    0 -0.00000000000E+00 -0.00000000000E+00 -0.45593999997E+02  0.45594000000E+02  0.51100000000E-03 0.  1.
         23    2    1    2    0    0  0.71054273576E-14  0.00000000000E+00  0.00000000000E+00  0.91188000000E+02  0.91188000000E+02 0.  0.
    9900012    2    3    3    0    0 -0.31396336452E+02  0.63174942287E+01  0.18169730292E+02  0.54367085090E+02  0.40000002080E+02 0.  0.
        -12    1    3    3    0    0  0.31396336452E+02 -0.63174942287E+01 -0.18169730292E+02  0.36820914910E+02  0.00000000000E+00 0.  1.
         11    1    4    4    0    0 -0.69447114160E+01  0.32083916063E+01 -0.20009992544E+01  0.79073884202E+01  0.51100000000E-03 0. -1.
        -11    1    4    4    0    0 -0.22494618294E+02 -0.12579594318E+02  0.99155859583E+01  0.27614722351E+02  0.51100000000E-03 0.  1.
         12    1    4    4    0    0 -0.19570067421E+01  0.15688696940E+02  0.10255143588E+02  0.18844974319E+02  0.00000000000E+00 0. -1.
</event>
<event>
 8    1  0.3146747E-007  0.9118800E+02  0.7816164E-02  0.1184000E+00
        -11   -1    0    0    0    0  0.00000000000E+00  0.00000000000E+00  0.45593999997E+02  0.45594000000E+02  0.51100000000E-03 0. -1.
         11   -1    0    0    0    0 -0.00000000000E+00 -0.00000000000E+00 -0.45593999997E+02  0.45594000000E+02  0.51100000000E-03 0.  1.
         23    2    1    2    0    0  0.71054273576E-14  0.88817841970E-15 -0.13322676296E-14  0.91188000000E+02  0.91188000000E+02 0.  0.
    9900012    2    3    3    0    0 -0.36403117820E+02 -0.52793194381E+01 -0.16496183523E+01  0.54367089616E+02  0.40000012398E+02 0.  0.
        -12    1    3    3    0    0  0.36403117820E+02  0.52793194381E+01  0.16496183523E+01  0.36820910384E+02  0.00000000000E+00 0.  1.
         11    1    4    4    0    0 -0.20391140623E+02 -0.61967470368E+00  0.16858697225E+02  0.26465038920E+02  0.51100000000E-03 0. -1.
        -11    1    4    4    0    0 -0.11465795982E+02  0.14553140461E+01 -0.54388345040E+01  0.12773540523E+02  0.51100000000E-03 0.  1.
         12    1    4    4    0    0 -0.45461812150E+01 -0.61149587805E+01 -0.13069481073E+02  0.15128510173E+02  0.00000000000E+00 0. -1.
</event>
<event>
 8    1  0.3146747E-007  0.9118800E+02  0.7816164E-02  0.1184000E+00
        -11   -1    0    0    0    0  0.00000000000E+00  0.00000000000E+00  0.45593999997E+02  0.45594000000E+02  0.51100000000E-03 0. -1.
         11   -1    0    0    0    0 -0.00000000000E+00 -0.00000000000E+00 -0.45593999997E+02  0.45594000000E+02  0.51100000000E-03 0.  1.
         23    2    1    2    0    0 -0.44408920985E-15  0.00000000000E+00 -0.35527136788E-14  0.91188000000E+02  0.91188000000E+02 0.  0.
    9900012    2    3    3    0    0 -0.31415845543E+01  0.21408499678E+02  0.29792388986E+02  0.54367084022E+02  0.39999999644E+02 0.  0.
        -12    1    3    3    0    0  0.31415845543E+01 -0.21408499678E+02 -0.29792388986E+02  0.36820915978E+02  0.00000000000E+00 0.  1.
         11    1    4    4    0    0  0.35343746462E+01  0.45753033609E+01  0.51965157444E+01  0.77736079864E+01  0.51100000000E-03 0. -1.
        -11    1    4    4    0    0 -0.10472476331E+02  0.32072369086E+01  0.29622065116E+02  0.31582049824E+02  0.51100000000E-03 0.  1.
         12    1    4    4    0    0  0.37965171301E+01  0.13625959409E+02 -0.50261918744E+01  0.15011426211E+02  0.00000000000E+00 0. -1.
</event>
<event>
 8    1  0.3146747E-007  0.9118800E+02  0.7816164E-02  0.1184000E+00
        -11   -1    0    0    0    0  0.00000000000E+00  0.00000000000E+00  0.45593999997E+02  0.45594000000E+02  0.51100000000E-03 0. -1.
         11   -1    0    0    0    0 -0.00000000000E+00 -0.00000000000E+00 -0.45593999997E+02  0.45594000000E+02  0.51100000000E-03 0.  1.
         23    2    1    2    0    0  0.17763568394E-14  0.35527136788E-14  0.00000000000E+00  0.91188000000E+02  0.91188000000E+02 0.  0.
    9900012    2    3    3    0    0  0.13171075159E+02 -0.28403541270E+02 -0.19378895994E+02  0.54367082202E+02  0.39999995496E+02 0.  0.
        -12    1    3    3    0    0 -0.13171075159E+02  0.28403541270E+02  0.19378895994E+02  0.36820917798E+02  0.00000000000E+00 0.  1.
         11    1    4    4    0    0  0.16605579657E+01 -0.46248995218E+01 -0.19180867927E+02  0.19800324316E+02  0.51100000000E-03 0. -1.
        -11    1    4    4    0    0  0.16103279510E+02 -0.19438245876E+02 -0.60468579775E+01  0.25956222865E+02  0.51100000000E-03 0.  1.
         12    1    4    4    0    0 -0.45927623171E+01 -0.43403958720E+01  0.58488299103E+01  0.86105350209E+01  0.00000000000E+00 0. -1.
</event>
<event>
 8    1  0.3146747E-007  0.9118800E+02  0.7816164E-02  0.1184000E+00
        -11   -1    0    0    0    0  0.00000000000E+00  0.00000000000E+00  0.45593999997E+02  0.45594000000E+02  0.51100000000E-03 0. -1.
         11   -1    0    0    0    0 -0.00000000000E+00 -0.00000000000E+00 -0.45593999997E+02  0.45594000000E+02  0.51100000000E-03 0.  1.
         23    2    1    2    0    0  0.00000000000E+00  0.00000000000E+00  0.00000000000E+00  0.91188000000E+02  0.91188000000E+02 0.  0.
    9900012    2    3    3    0    0  0.19075623274E+02  0.26948231277E+02  0.16299963218E+02  0.54367144861E+02  0.40000138339E+02 0.  0.
         12    1    3    3    0    0 -0.19075623274E+02 -0.26948231277E+02 -0.16299963218E+02  0.36820855139E+02  0.00000000000E+00 0. -1.
         11    1    4    4    0    0 -0.29716594488E+01  0.15052642795E+02  0.23152394326E+02  0.27774919951E+02  0.51100000000E-03 0. -1.
        -11    1    4    4    0    0  0.24505053172E+01  0.36720957116E+01 -0.16456033716E+01  0.47113983001E+01  0.51100000000E-03 0.  1.
         12    1    4    4    0    0  0.19596777406E+02  0.82234927709E+01 -0.52068277360E+01  0.21880826610E+02  0.00000000000E+00 0. -1.
</event>
<event>
 8    1  0.3146747E-007  0.9118800E+02  0.7816164E-02  0.1184000E+00
        -11   -1    0    0    0    0  0.00000000000E+00  0.00000000000E+00  0.45593999997E+02  0.45594000000E+02  0.51100000000E-03 0.  1.
         11   -1    0    0    0    0 -0.00000000000E+00 -0.00000000000E+00 -0.45593999997E+02  0.45594000000E+02  0.51100000000E-03 0. -1.
         23    2    1    2    0    0  0.00000000000E+00  0.00000000000E+00  0.00000000000E+00  0.91188000000E+02  0.91188000000E+02 0.  0.
    9900012    2    3    3    0    0  0.15690340066E+02  0.19573847612E+02  0.26952889733E+02  0.54367074608E+02  0.39999978184E+02 0.  0.
         12    1    3    3    0    0 -0.15690340066E+02 -0.19573847612E+02 -0.26952889733E+02  0.36820925392E+02  0.00000000000E+00 0. -1.
         11    1    4    4    0    0 -0.48483878395E+00 -0.74777918323E+01  0.78222542836E+00  0.75342097273E+01  0.51100000000E-03 0. -1.
        -11    1    4    4    0    0 -0.30032364630E+01  0.15707266066E+02  0.70727737759E+01  0.17486044884E+02  0.51100000000E-03 0.  1.
        -12    1    4    4    0    0  0.19178415313E+02  0.11344373378E+02  0.19097890529E+02  0.29346819997E+02  0.00000000000E+00 0.  1.
</event>
<event>
 8    1  0.3146747E-007  0.9118800E+02  0.7816164E-02  0.1184000E+00
        -11   -1    0    0    0    0  0.00000000000E+00  0.00000000000E+00  0.45593999997E+02  0.45594000000E+02  0.51100000000E-03 0.  1.
         11   -1    0    0    0    0 -0.00000000000E+00 -0.00000000000E+00 -0.45593999997E+02  0.45594000000E+02  0.51100000000E-03 0. -1.
         23    2    1    2    0    0 -0.35527136788E-14  0.35527136788E-14  0.35527136788E-14  0.91188000000E+02  0.91188000000E+02 0.  0.
    9900012    2    3    3    0    0 -0.25689424306E+02  0.18735912856E+02  0.18568761443E+02  0.54367084025E+02  0.39999999652E+02 0.  0.
         12    1    3    3    0    0  0.25689424306E+02 -0.18735912856E+02 -0.18568761443E+02  0.36820915975E+02  0.00000000000E+00 0. -1.
         11    1    4    4    0    0 -0.10955108238E+02  0.26257565247E+02  0.11400165551E+02  0.30650251289E+02  0.51100000000E-03 0. -1.
        -11    1    4    4    0    0 -0.92584475098E+01 -0.10966857318E+02  0.90646055259E+01  0.16975213793E+02  0.51100000000E-03 0.  1.
        -12    1    4    4    0    0 -0.54758685576E+01  0.34452049265E+01 -0.18960096332E+01  0.67416189432E+01  0.00000000000E+00 0.  1.
</event>
<event>
 8    1  0.3146747E-007  0.9118800E+02  0.7816164E-02  0.1184000E+00
        -11   -1    0    0    0    0  0.00000000000E+00  0.00000000000E+00  0.45593999997E+02  0.45594000000E+02  0.51100000000E-03 0.  1.
         11   -1    0    0    0    0 -0.00000000000E+00 -0.00000000000E+00 -0.45593999997E+02  0.45594000000E+02  0.51100000000E-03 0. -1.
         23    2    1    2    0    0  0.00000000000E+00  0.00000000000E+00  0.00000000000E+00  0.91188000000E+02  0.91188000000E+02 0.  0.
    9900012    2    3    3    0    0  0.19842554645E+02 -0.28870639200E+02  0.11337512178E+02  0.54367082507E+02  0.39999996191E+02 0.  0.
         12    1    3    3    0    0 -0.19842554645E+02  0.28870639200E+02 -0.11337512178E+02  0.36820917493E+02  0.00000000000E+00 0. -1.
         11    1    4    4    0    0 -0.10428617919E+02 -0.12455605157E+02  0.12226345253E+01  0.16290887237E+02  0.51100000000E-03 0. -1.
        -11    1    4    4    0    0  0.16618336334E+02 -0.11740341537E+02 -0.18263931476E+00  0.20347925675E+02  0.51100000000E-03 0.  1.
         12    1    4    4    0    0  0.13652836230E+02 -0.46746925069E+01  0.10297516967E+02  0.17728269595E+02  0.00000000000E+00 0. -1.
</event>
<event>
 8    1  0.3146747E-007  0.9118800E+02  0.7816164E-02  0.1184000E+00
        -11   -1    0    0    0    0  0.00000000000E+00  0.00000000000E+00  0.45593999997E+02  0.45594000000E+02  0.51100000000E-03 0.  1.
         11   -1    0    0    0    0 -0.00000000000E+00 -0.00000000000E+00 -0.45593999997E+02  0.45594000000E+02  0.51100000000E-03 0. -1.
         23    2    1    2    0    0 -0.22204460493E-15  0.00000000000E+00  0.00000000000E+00  0.91188000000E+02  0.91188000000E+02 0.  0.
    9900012    2    3    3    0    0  0.12562764177E+01  0.35039432924E+02 -0.11244529043E+02  0.54367088503E+02  0.40000009861E+02 0.  0.
         12    1    3    3    0    0 -0.12562764177E+01 -0.35039432924E+02  0.11244529043E+02  0.36820911497E+02  0.00000000000E+00 0. -1.
         11    1    4    4    0    0  0.33539004817E+01  0.18141163025E+02 -0.14036086595E+02  0.23181073563E+02  0.51100000000E-03 0. -1.
        -11    1    4    4    0    0 -0.20821280002E+01 -0.44802126727E+01  0.77960160944E+01  0.92295953220E+01  0.51100000000E-03 0.  1.
        -12    1    4    4    0    0 -0.15496063894E-01  0.21378482571E+02 -0.50044585419E+01  0.21956419619E+02  0.00000000000E+00 0.  1.
</event>
<event>
 8    1  0.3146747E-007  0.9118800E+02  0.7816164E-02  0.1184000E+00
        -11   -1    0    0    0    0  0.00000000000E+00  0.00000000000E+00  0.45593999997E+02  0.45594000000E+02  0.51100000000E-03 0. -1.
         11   -1    0    0    0    0 -0.00000000000E+00 -0.00000000000E+00 -0.45593999997E+02  0.45594000000E+02  0.51100000000E-03 0.  1.
         23    2    1    2    0    0  0.35527136788E-14 -0.35527136788E-14 -0.35527136788E-14  0.91188000000E+02  0.91188000000E+02 0.  0.
    9900012    2    3    3    0    0 -0.21131930399E+02  0.20527994535E+02 -0.22086787855E+02  0.54367038038E+02  0.39999894815E+02 0.  0.
         12    1    3    3    0    0  0.21131930399E+02 -0.20527994535E+02  0.22086787855E+02  0.36820961962E+02  0.00000000000E+00 0. -1.
         11    1    4    4    0    0 -0.48334594063E+01  0.14049182182E+02 -0.17771120451E+02  0.23163647644E+02  0.51100000000E-03 0. -1.
        -11    1    4    4    0    0  0.28823204340E+01  0.10493845614E+02 -0.40302395005E+01  0.11604800625E+02  0.51100000000E-03 0.  1.
         12    1    4    4    0    0 -0.19180791427E+02 -0.40150332610E+01 -0.28542790435E+00  0.19598589769E+02  0.00000000000E+00 0. -1.
</event>
<event>
 8    1  0.3146747E-007  0.9118800E+02  0.7816164E-02  0.1184000E+00
        -11   -1    0    0    0    0  0.00000000000E+00  0.00000000000E+00  0.45593999997E+02  0.45594000000E+02  0.51100000000E-03 0.  1.
         11   -1    0    0    0    0 -0.00000000000E+00 -0.00000000000E+00 -0.45593999997E+02  0.45594000000E+02  0.51100000000E-03 0. -1.
         23    2    1    2    0    0  0.00000000000E+00  0.00000000000E+00  0.00000000000E+00  0.91188000000E+02  0.91188000000E+02 0.  0.
    9900012    2    3    3    0    0  0.30715432187E+02  0.90688412244E+01 -0.18168609319E+02  0.54367081758E+02  0.39999994485E+02 0.  0.
         12    1    3    3    0    0 -0.30715432187E+02 -0.90688412244E+01  0.18168609319E+02  0.36820918242E+02  0.00000000000E+00 0. -1.
         11    1    4    4    0    0  0.59857964435E+01 -0.59492886628E+01  0.30711676470E+01  0.89808610742E+01  0.51100000000E-03 0. -1.
        -11    1    4    4    0    0  0.28412456217E+01  0.12861236593E+02  0.20754640941E+01  0.13333852964E+02  0.51100000000E-03 0.  1.
         12    1    4    4    0    0  0.21888390121E+02  0.21568932938E+01 -0.23315241060E+02  0.32052367720E+02  0.00000000000E+00 0. -1.
</event>
<event>
 8    1  0.3146747E-007  0.9118800E+02  0.7816164E-02  0.1184000E+00
        -11   -1    0    0    0    0  0.00000000000E+00  0.00000000000E+00  0.45593999997E+02  0.45594000000E+02  0.51100000000E-03 0. -1.
         11   -1    0    0    0    0 -0.00000000000E+00 -0.00000000000E+00 -0.45593999997E+02  0.45594000000E+02  0.51100000000E-03 0.  1.
         23    2    1    2    0    0 -0.17763568394E-14  0.22204460493E-15 -0.71054273576E-14  0.91188000000E+02  0.91188000000E+02 0.  0.
    9900012    2    3    3    0    0 -0.64390680325E+01  0.18899583763E+01 -0.36204239154E+02  0.54367075616E+02  0.39999980481E+02 0.  0.
         12    1    3    3    0    0  0.64390680325E+01 -0.18899583763E+01  0.36204239154E+02  0.36820924384E+02  0.00000000000E+00 0. -1.
         11    1    4    4    0    0 -0.11244282523E+02 -0.29311436928E+01 -0.33485263724E+02  0.35444158612E+02  0.51100000000E-03 0.  1.
        -11    1    4    4    0    0  0.56106922216E+00 -0.21112978672E+01  0.63672044310E+01  0.67315429051E+01  0.51100000000E-03 0. -1.
        -12    1    4    4    0    0  0.42441452684E+01  0.69323999363E+01 -0.90861798615E+01  0.12191374099E+02  0.00000000000E+00 0.  1.
</event>
<event>
 8    1  0.3146747E-007  0.9118800E+02  0.7816164E-02  0.1184000E+00
        -11   -1    0    0    0    0  0.00000000000E+00  0.00000000000E+00  0.45593999997E+02  0.45594000000E+02  0.51100000000E-03 0.  1.
         11   -1    0    0    0    0 -0.00000000000E+00 -0.00000000000E+00 -0.45593999997E+02  0.45594000000E+02  0.51100000000E-03 0. -1.
         23    2    1    2    0    0 -0.71054273576E-14 -0.17763568394E-14  0.00000000000E+00  0.91188000000E+02  0.91188000000E+02 0.  0.
    9900012    2    3    3    0    0  0.32778765154E+02  0.15755260814E+02  0.57536192901E+01  0.54367084432E+02  0.40000000580E+02 0.  0.
         12    1    3    3    0    0 -0.32778765154E+02 -0.15755260814E+02 -0.57536192901E+01  0.36820915568E+02  0.00000000000E+00 0. -1.
         11    1    4    4    0    0  0.29768469407E+02  0.13970463591E+01  0.14686101891E+02  0.33223411902E+02  0.51100000000E-03 0. -1.
        -11    1    4    4    0    0  0.41383496018E+01  0.56321458692E+01 -0.10084764835E+02  0.12269860902E+02  0.51100000000E-03 0.  1.
        -12    1    4    4    0    0 -0.11280538551E+01  0.87260685861E+01  0.11522822338E+01  0.88738116284E+01  0.00000000000E+00 0.  1.
</event>
<event>
 8    1  0.3146747E-007  0.9118800E+02  0.7816164E-02  0.1184000E+00
        -11   -1    0    0    0    0  0.00000000000E+00  0.00000000000E+00  0.45593999997E+02  0.45594000000E+02  0.51100000000E-03 0.  1.
         11   -1    0    0    0    0 -0.00000000000E+00 -0.00000000000E+00 -0.45593999997E+02  0.45594000000E+02  0.51100000000E-03 0. -1.
         23    2    1    2    0    0  0.00000000000E+00  0.88817841970E-15  0.00000000000E+00  0.91188000000E+02  0.91188000000E+02 0.  0.
    9900012    2    3    3    0    0  0.36561430192E+02  0.37093919369E+01 -0.22989810299E+01  0.54367040208E+02  0.39999899761E+02 0.  0.
         12    1    3    3    0    0 -0.36561430192E+02 -0.37093919369E+01  0.22989810299E+01  0.36820959792E+02  0.00000000000E+00 0. -1.
         11    1    4    4    0    0  0.24356173651E+01 -0.67840147160E+01  0.41136716380E+01  0.82992398582E+01  0.51100000000E-03 0. -1.
        -11    1    4    4    0    0  0.98341795955E+01  0.17707589830E+02 -0.21077156263E+01  0.20364486032E+02  0.51100000000E-03 0.  1.
         12    1    4    4    0    0  0.24291633232E+02 -0.72141831775E+01 -0.43049370416E+01  0.25703314318E+02  0.00000000000E+00 0. -1.
</event>
<event>
 8    1  0.3146747E-007  0.9118800E+02  0.7816164E-02  0.1184000E+00
        -11   -1    0    0    0    0  0.00000000000E+00  0.00000000000E+00  0.45593999997E+02  0.45594000000E+02  0.51100000000E-03 0. -1.
         11   -1    0    0    0    0 -0.00000000000E+00 -0.00000000000E+00 -0.45593999997E+02  0.45594000000E+02  0.51100000000E-03 0.  1.
         23    2    1    2    0    0  0.00000000000E+00 -0.35527136788E-14  0.00000000000E+00  0.91188000000E+02  0.91188000000E+02 0.  0.
    9900012    2    3    3    0    0 -0.20565417008E+02 -0.11717954537E+02 -0.28205167596E+02  0.54367104922E+02  0.40000047290E+02 0.  0.
         12    1    3    3    0    0  0.20565417008E+02  0.11717954537E+02  0.28205167596E+02  0.36820895078E+02  0.00000000000E+00 0. -1.
         11    1    4    4    0    0 -0.19241949183E+02 -0.39574545360E+01 -0.22788311530E+02  0.30086894114E+02  0.51100000000E-03 0. -1.
        -11    1    4    4    0    0  0.21399941485E+01 -0.14125091942E+02 -0.82532469186E+01  0.16498905488E+02  0.51100000000E-03 0.  1.
         12    1    4    4    0    0 -0.34634619732E+01  0.63645919406E+01  0.28363908528E+01  0.77813053198E+01  0.00000000000E+00 0. -1.
</event>
<event>
 8    1  0.3146747E-007  0.9118800E+02  0.7816164E-02  0.1184000E+00
        -11   -1    0    0    0    0  0.00000000000E+00  0.00000000000E+00  0.45593999997E+02  0.45594000000E+02  0.51100000000E-03 0.  1.
         11   -1    0    0    0    0 -0.00000000000E+00 -0.00000000000E+00 -0.45593999997E+02  0.45594000000E+02  0.51100000000E-03 0. -1.
         23    2    1    2    0    0  0.17763568394E-14  0.00000000000E+00  0.00000000000E+00  0.91188000000E+02  0.91188000000E+02 0.  0.
    9900012    2    3    3    0    0 -0.47421650829E+01 -0.31581069431E+02  0.18328342155E+02  0.54367079286E+02  0.39999988849E+02 0.  0.
         12    1    3    3    0    0  0.47421650829E+01  0.31581069431E+02 -0.18328342155E+02  0.36820920714E+02  0.00000000000E+00 0. -1.
         11    1    4    4    0    0 -0.80885243414E+01 -0.11184805967E+02  0.22033228474E+01  0.13977794618E+02  0.51100000000E-03 0. -1.
        -11    1    4    4    0    0  0.16907932511E+02 -0.82336957504E+01  0.86108041189E+01  0.20683758734E+02  0.51100000000E-03 0.  1.
         12    1    4    4    0    0 -0.13561573253E+02 -0.12162567713E+02  0.75142151886E+01  0.19705525935E+02  0.00000000000E+00 0. -1.
</event>
<event>
 8    1  0.3146747E-007  0.9118800E+02  0.7816164E-02  0.1184000E+00
        -11   -1    0    0    0    0  0.00000000000E+00  0.00000000000E+00  0.45593999997E+02  0.45594000000E+02  0.51100000000E-03 0.  1.
         11   -1    0    0    0    0 -0.00000000000E+00 -0.00000000000E+00 -0.45593999997E+02  0.45594000000E+02  0.51100000000E-03 0. -1.
         23    2    1    2    0    0  0.55511151231E-15  0.35527136788E-14  0.00000000000E+00  0.91188000000E+02  0.91188000000E+02 0.  0.
    9900012    2    3    3    0    0  0.93972830554E+00  0.22456146180E+02 -0.29165662636E+02  0.54366844837E+02  0.39999454371E+02 0.  0.
        -12    1    3    3    0    0 -0.93972830554E+00 -0.22456146180E+02  0.29165662636E+02  0.36821155163E+02  0.00000000000E+00 0.  1.
         11    1    4    4    0    0  0.56069044814E+01  0.23193173338E+02 -0.24192275457E+01  0.23983605432E+02  0.51100000000E-03 0. -1.
        -11    1    4    4    0    0 -0.94884488603E+01 -0.67638705555E+00 -0.16189556207E+02  0.18777377124E+02  0.51100000000E-03 0.  1.
         12    1    4    4    0    0  0.48212726845E+01 -0.60640101760E-01 -0.10556878883E+02  0.11605862281E+02  0.00000000000E+00 0. -1.
</event>
<event>
 8    1  0.3146747E-007  0.9118800E+02  0.7816164E-02  0.1184000E+00
        -11   -1    0    0    0    0  0.00000000000E+00  0.00000000000E+00  0.45593999997E+02  0.45594000000E+02  0.51100000000E-03 0.  1.
         11   -1    0    0    0    0 -0.00000000000E+00 -0.00000000000E+00 -0.45593999997E+02  0.45594000000E+02  0.51100000000E-03 0. -1.
         23    2    1    2    0    0  0.00000000000E+00 -0.17763568394E-14 -0.88817841970E-15  0.91188000000E+02  0.91188000000E+02 0.  0.
    9900012    2    3    3    0    0 -0.35677014222E+02 -0.67307764499E+01  0.61342631946E+01  0.54367056498E+02  0.39999936899E+02 0.  0.
         12    1    3    3    0    0  0.35677014222E+02  0.67307764499E+01 -0.61342631946E+01  0.36820943502E+02  0.00000000000E+00 0. -1.
         11    1    4    4    0    0 -0.10220704157E+02 -0.15668974311E+02 -0.16999866193E+01  0.18784821112E+02  0.51100000000E-03 0. -1.
        -11    1    4    4    0    0 -0.16408099190E+02  0.56024789144E+01 -0.63207781983E+01  0.18454422947E+02  0.51100000000E-03 0.  1.
        -12    1    4    4    0    0 -0.90482108754E+01  0.33357189471E+01  0.14155028012E+02  0.17127812440E+02  0.00000000000E+00 0.  1.
</event>
<event>
 8    1  0.3146747E-007  0.9118800E+02  0.7816164E-02  0.1184000E+00
        -11   -1    0    0    0    0  0.00000000000E+00  0.00000000000E+00  0.45593999997E+02  0.45594000000E+02  0.51100000000E-03 0. -1.
         11   -1    0    0    0    0 -0.00000000000E+00 -0.00000000000E+00 -0.45593999997E+02  0.45594000000E+02  0.51100000000E-03 0.  1.
         23    2    1    2    0    0  0.00000000000E+00 -0.35527136788E-14  0.35527136788E-14  0.91188000000E+02  0.91188000000E+02 0.  0.
    9900012    2    3    3    0    0  0.22106063295E+02  0.15276226322E+02 -0.25174136475E+02  0.54367105492E+02  0.40000048591E+02 0.  0.
         12    1    3    3    0    0 -0.22106063295E+02 -0.15276226322E+02  0.25174136475E+02  0.36820894508E+02  0.00000000000E+00 0. -1.
         11    1    4    4    0    0  0.30648250984E+01  0.14665463768E+00  0.29367298148E+00  0.30823537350E+01  0.51100000000E-03 0. -1.
        -11    1    4    4    0    0  0.51265917035E+00 -0.80782123187E+01 -0.19335239975E+02  0.20961198411E+02  0.51100000000E-03 0.  1.
        -12    1    4    4    0    0  0.18528579026E+02  0.23207784003E+02 -0.61325694817E+01  0.30323553346E+02  0.00000000000E+00 0.  1.
</event>
<event>
 8    1  0.3146747E-007  0.9118800E+02  0.7816164E-02  0.1184000E+00
        -11   -1    0    0    0    0  0.00000000000E+00  0.00000000000E+00  0.45593999997E+02  0.45594000000E+02  0.51100000000E-03 0.  1.
         11   -1    0    0    0    0 -0.00000000000E+00 -0.00000000000E+00 -0.45593999997E+02  0.45594000000E+02  0.51100000000E-03 0. -1.
         23    2    1    2    0    0 -0.17763568394E-14  0.35527136788E-14  0.00000000000E+00  0.91188000000E+02  0.91188000000E+02 0.  0.
    9900012    2    3    3    0    0 -0.10908006267E+02 -0.27919647330E+02  0.21384311966E+02  0.54367080593E+02  0.39999991827E+02 0.  0.
         12    1    3    3    0    0  0.10908006267E+02  0.27919647330E+02 -0.21384311966E+02  0.36820919407E+02  0.00000000000E+00 0. -1.
         11    1    4    4    0    0 -0.57425427557E+01  0.17418183717E+01  0.58851951889E+01  0.84051324329E+01  0.51100000000E-03 0. -1.
        -11    1    4    4    0    0 -0.10892256014E+02 -0.34232078285E+02  0.12350908224E+02  0.37987120962E+02  0.51100000000E-03 0.  1.
        -12    1    4    4    0    0  0.57267925025E+01  0.45706125825E+01  0.31482085521E+01  0.79748271977E+01  0.00000000000E+00 0.  1.
</event>
<event>
 8    1  0.3146747E-007  0.9118800E+02  0.7816164E-02  0.1184000E+00
        -11   -1    0    0    0    0  0.00000000000E+00  0.00000000000E+00  0.45593999997E+02  0.45594000000E+02  0.51100000000E-03 0.  1.
         11   -1    0    0    0    0 -0.00000000000E+00 -0.00000000000E+00 -0.45593999997E+02  0.45594000000E+02  0.51100000000E-03 0. -1.
         23    2    1    2    0    0  0.00000000000E+00  0.00000000000E+00  0.00000000000E+00  0.91188000000E+02  0.91188000000E+02 0.  0.
    9900012    2    3    3    0    0  0.12815033872E+02  0.27219138207E+02 -0.21229092161E+02  0.54367069378E+02  0.39999966261E+02 0.  0.
        -12    1    3    3    0    0 -0.12815033872E+02 -0.27219138207E+02  0.21229092161E+02  0.36820930622E+02  0.00000000000E+00 0.  1.
         11    1    4    4    0    0  0.25130245070E+01 -0.58624372624E+01 -0.10289719814E+02  0.12106270976E+02  0.51100000000E-03 0. -1.
        -11    1    4    4    0    0  0.73628587844E+01  0.61860131375E+01  0.50208721922E+01  0.10848391855E+02  0.51100000000E-03 0.  1.
         12    1    4    4    0    0  0.29391505809E+01  0.26895562332E+02 -0.15960244540E+02  0.31412406547E+02  0.00000000000E+00 0. -1.
</event>
<event>
 8    1  0.3146747E-007  0.9118800E+02  0.7816164E-02  0.1184000E+00
        -11   -1    0    0    0    0  0.00000000000E+00  0.00000000000E+00  0.45593999997E+02  0.45594000000E+02  0.51100000000E-03 0.  1.
         11   -1    0    0    0    0 -0.00000000000E+00 -0.00000000000E+00 -0.45593999997E+02  0.45594000000E+02  0.51100000000E-03 0. -1.
         23    2    1    2    0    0 -0.17763568394E-14  0.71054273576E-14  0.00000000000E+00  0.91188000000E+02  0.91188000000E+02 0.  0.
    9900012    2    3    3    0    0  0.15568414814E+02  0.32247933284E+02 -0.85717219281E+01  0.54367093470E+02  0.40000021182E+02 0.  0.
        -12    1    3    3    0    0 -0.15568414814E+02 -0.32247933284E+02  0.85717219281E+01  0.36820906530E+02  0.00000000000E+00 0.  1.
         11    1    4    4    0    0  0.81232110285E+01  0.17091714960E+01  0.19055611903E+01  0.85169823487E+01  0.51100000000E-03 0. -1.
        -11    1    4    4    0    0  0.13556420813E+00 -0.58896615816E+01  0.26296473390E+01  0.64514755358E+01  0.51100000000E-03 0.  1.
         12    1    4    4    0    0  0.73096395775E+01  0.36428423370E+02 -0.13106930457E+02  0.39398635585E+02  0.00000000000E+00 0. -1.
</event>
<event>
 8    1  0.3146747E-007  0.9118800E+02  0.7816164E-02  0.1184000E+00
        -11   -1    0    0    0    0  0.00000000000E+00  0.00000000000E+00  0.45593999997E+02  0.45594000000E+02  0.51100000000E-03 0. -1.
         11   -1    0    0    0    0 -0.00000000000E+00 -0.00000000000E+00 -0.45593999997E+02  0.45594000000E+02  0.51100000000E-03 0.  1.
         23    2    1    2    0    0  0.00000000000E+00  0.00000000000E+00 -0.88817841970E-15  0.91188000000E+02  0.91188000000E+02 0.  0.
    9900012    2    3    3    0    0  0.12569720107E+02  0.34342622818E+02 -0.42857054287E+01  0.54367070129E+02  0.39999967972E+02 0.  0.
         12    1    3    3    0    0 -0.12569720107E+02 -0.34342622818E+02  0.42857054287E+01  0.36820929871E+02  0.00000000000E+00 0. -1.
         11    1    4    4    0    0 -0.72545394093E+00  0.94264350893E+01 -0.80426925348E+01  0.12412448001E+02  0.51100000000E-03 0.  1.
        -11    1    4    4    0    0 -0.21237668347E+01 -0.28694558421E+01  0.90600848260E+01  0.97380336677E+01  0.51100000000E-03 0. -1.
         12    1    4    4    0    0  0.15418940882E+02  0.27785643571E+02 -0.53030977198E+01  0.32216588460E+02  0.00000000000E+00 0. -1.
</event>
<event>
 8    1  0.3146747E-007  0.9118800E+02  0.7816164E-02  0.1184000E+00
        -11   -1    0    0    0    0  0.00000000000E+00  0.00000000000E+00  0.45593999997E+02  0.45594000000E+02  0.51100000000E-03 0.  1.
         11   -1    0    0    0    0 -0.00000000000E+00 -0.00000000000E+00 -0.45593999997E+02  0.45594000000E+02  0.51100000000E-03 0. -1.
         23    2    1    2    0    0  0.00000000000E+00  0.00000000000E+00  0.00000000000E+00  0.91188000000E+02  0.91188000000E+02 0.  0.
    9900012    2    3    3    0    0  0.10432774908E+02  0.22332313732E+02 -0.27353330131E+02  0.54367086131E+02  0.40000004452E+02 0.  0.
        -12    1    3    3    0    0 -0.10432774908E+02 -0.22332313732E+02  0.27353330131E+02  0.36820913869E+02  0.00000000000E+00 0.  1.
         11    1    4    4    0    0 -0.15666469405E+01  0.27086388216E+01 -0.86110427134E+01  0.91619410485E+01  0.51100000000E-03 0. -1.
        -11    1    4    4    0    0 -0.72371879617E+01 -0.57299392928E+01 -0.54152792959E+01  0.10702071949E+02  0.51100000000E-03 0.  1.
         12    1    4    4    0    0  0.19236609810E+02  0.25353614203E+02 -0.13327008122E+02  0.34503073133E+02  0.00000000000E+00 0. -1.
</event>
<event>
 8    1  0.3146747E-007  0.9118800E+02  0.7816164E-02  0.1184000E+00
        -11   -1    0    0    0    0  0.00000000000E+00  0.00000000000E+00  0.45593999997E+02  0.45594000000E+02  0.51100000000E-03 0.  1.
         11   -1    0    0    0    0 -0.00000000000E+00 -0.00000000000E+00 -0.45593999997E+02  0.45594000000E+02  0.51100000000E-03 0. -1.
         23    2    1    2    0    0  0.00000000000E+00  0.00000000000E+00  0.13322676296E-14  0.91188000000E+02  0.91188000000E+02 0.  0.
    9900012    2    3    3    0    0  0.12758309398E+02  0.34499399587E+02 -0.16724096820E+01  0.54367082239E+02  0.39999995581E+02 0.  0.
         12    1    3    3    0    0 -0.12758309398E+02 -0.34499399587E+02  0.16724096820E+01  0.36820917761E+02  0.00000000000E+00 0. -1.
         11    1    4    4    0    0  0.20935952884E+01  0.29330884153E+02 -0.11777923091E+02  0.31676543041E+02  0.51100000000E-03 0. -1.
        -11    1    4    4    0    0  0.70734511616E-01  0.67723460825E-01 -0.41841357989E+01  0.41852816492E+01  0.51100000000E-03 0.  1.
        -12    1    4    4    0    0  0.10593979598E+02  0.51007919738E+01  0.14289649208E+02  0.18505257549E+02  0.00000000000E+00 0.  1.
</event>
<event>
 8    1  0.3146747E-007  0.9118800E+02  0.7816164E-02  0.1184000E+00
        -11   -1    0    0    0    0  0.00000000000E+00  0.00000000000E+00  0.45593999997E+02  0.45594000000E+02  0.51100000000E-03 0.  1.
         11   -1    0    0    0    0 -0.00000000000E+00 -0.00000000000E+00 -0.45593999997E+02  0.45594000000E+02  0.51100000000E-03 0. -1.
         23    2    1    2    0    0  0.17763568394E-14  0.00000000000E+00 -0.35527136788E-14  0.91188000000E+02  0.91188000000E+02 0.  0.
    9900012    2    3    3    0    0  0.15887530956E+02 -0.13858887414E+02  0.30187698029E+02  0.54367088652E+02  0.40000010200E+02 0.  0.
         12    1    3    3    0    0 -0.15887530956E+02  0.13858887414E+02 -0.30187698029E+02  0.36820911348E+02  0.00000000000E+00 0. -1.
         11    1    4    4    0    0 -0.67622507602E+01  0.95517331293E+01  0.63920412855E+01  0.13334985308E+02  0.51100000000E-03 0. -1.
        -11    1    4    4    0    0  0.10764810444E+02 -0.16435098484E+02  0.13965378757E+02  0.24104468676E+02  0.51100000000E-03 0.  1.
        -12    1    4    4    0    0  0.11884971272E+02 -0.69755220586E+01  0.98302779866E+01  0.16927634667E+02  0.00000000000E+00 0.  1.
</event>
<event>
 8    1  0.3146747E-007  0.9118800E+02  0.7816164E-02  0.1184000E+00
        -11   -1    0    0    0    0  0.00000000000E+00  0.00000000000E+00  0.45593999997E+02  0.45594000000E+02  0.51100000000E-03 0. -1.
         11   -1    0    0    0    0 -0.00000000000E+00 -0.00000000000E+00 -0.45593999997E+02  0.45594000000E+02  0.51100000000E-03 0.  1.
         23    2    1    2    0    0  0.35527136788E-14  0.35527136788E-14  0.00000000000E+00  0.91188000000E+02  0.91188000000E+02 0.  0.
    9900012    2    3    3    0    0  0.22615097470E+02  0.21218100585E+02 -0.19852697041E+02  0.54367081953E+02  0.39999994929E+02 0.  0.
         12    1    3    3    0    0 -0.22615097470E+02 -0.21218100585E+02  0.19852697041E+02  0.36820918047E+02  0.00000000000E+00 0. -1.
         11    1    4    4    0    0  0.96932179793E+01  0.19628160413E+02  0.59459566371E+01  0.22684301986E+02  0.51100000000E-03 0. -1.
        -11    1    4    4    0    0  0.79461995267E+01 -0.53613619638E+01 -0.10983422240E+02  0.14578129283E+02  0.51100000000E-03 0.  1.
         12    1    4    4    0    0  0.49756799635E+01  0.69513021360E+01 -0.14815231438E+02  0.17104650685E+02  0.00000000000E+00 0. -1.
</event>
<event>
 8    1  0.3146747E-007  0.9118800E+02  0.7816164E-02  0.1184000E+00
        -11   -1    0    0    0    0  0.00000000000E+00  0.00000000000E+00  0.45593999997E+02  0.45594000000E+02  0.51100000000E-03 0.  1.
         11   -1    0    0    0    0 -0.00000000000E+00 -0.00000000000E+00 -0.45593999997E+02  0.45594000000E+02  0.51100000000E-03 0. -1.
         23    2    1    2    0    0 -0.88817841970E-15 -0.35527136788E-14  0.00000000000E+00  0.91188000000E+02  0.91188000000E+02 0.  0.
    9900012    2    3    3    0    0  0.42111561428E+01  0.26372507466E+02 -0.25348308890E+02  0.54367085431E+02  0.40000002858E+02 0.  0.
        -12    1    3    3    0    0 -0.42111561428E+01 -0.26372507466E+02  0.25348308890E+02  0.36820914569E+02  0.00000000000E+00 0.  1.
         11    1    4    4    0    0  0.33928174086E+01  0.80874883489E+00 -0.23008247988E+02  0.23271114292E+02  0.51100000000E-03 0. -1.
        -11    1    4    4    0    0  0.10848705025E+01 -0.20099502981E+01  0.21747834007E+01  0.31538115526E+01  0.51100000000E-03 0.  1.
         12    1    4    4    0    0 -0.26653176831E+00  0.27573708929E+02 -0.45148443021E+01  0.27942159587E+02  0.00000000000E+00 0. -1.
</event>
<event>
 8    1  0.3146747E-007  0.9118800E+02  0.7816164E-02  0.1184000E+00
        -11   -1    0    0    0    0  0.00000000000E+00  0.00000000000E+00  0.45593999997E+02  0.45594000000E+02  0.51100000000E-03 0.  1.
         11   -1    0    0    0    0 -0.00000000000E+00 -0.00000000000E+00 -0.45593999997E+02  0.45594000000E+02  0.51100000000E-03 0. -1.
         23    2    1    2    0    0  0.00000000000E+00  0.00000000000E+00  0.00000000000E+00  0.91188000000E+02  0.91188000000E+02 0.  0.
    9900012    2    3    3    0    0 -0.19105030909E+02  0.29817388600E+02 -0.10084832733E+02  0.54367045093E+02  0.39999910899E+02 0.  0.
         12    1    3    3    0    0  0.19105030909E+02 -0.29817388600E+02  0.10084832733E+02  0.36820954907E+02  0.00000000000E+00 0. -1.
         11    1    4    4    0    0  0.88479383034E+00  0.17587322599E+01  0.30672302428E+01  0.36447086177E+01  0.51100000000E-03 0.  1.
        -11    1    4    4    0    0  0.13509865195E+01  0.75598061015E+01  0.10382123500E+02  0.12913726089E+02  0.51100000000E-03 0. -1.
        -12    1    4    4    0    0 -0.21340811259E+02  0.20498850239E+02 -0.23534186476E+02  0.37808610387E+02  0.00000000000E+00 0.  1.
</event>
<event>
 8    1  0.3146747E-007  0.9118800E+02  0.7816164E-02  0.1184000E+00
        -11   -1    0    0    0    0  0.00000000000E+00  0.00000000000E+00  0.45593999997E+02  0.45594000000E+02  0.51100000000E-03 0. -1.
         11   -1    0    0    0    0 -0.00000000000E+00 -0.00000000000E+00 -0.45593999997E+02  0.45594000000E+02  0.51100000000E-03 0.  1.
         23    2    1    2    0    0  0.00000000000E+00  0.66613381478E-15  0.00000000000E+00  0.91188000000E+02  0.91188000000E+02 0.  0.
    9900012    2    3    3    0    0  0.20042123595E+02 -0.19015578746E+01  0.30829790872E+02  0.54367100422E+02  0.40000037032E+02 0.  0.
        -12    1    3    3    0    0 -0.20042123595E+02  0.19015578746E+01 -0.30829790872E+02  0.36820899578E+02  0.00000000000E+00 0.  1.
         11    1    4    4    0    0  0.87050052566E+01  0.11155651470E+02  0.81178131568E+01  0.16313324828E+02  0.51100000000E-03 0. -1.
        -11    1    4    4    0    0 -0.68441485054E+01  0.39344709262E+00  0.99576963933E+01  0.12089370831E+02  0.51100000000E-03 0.  1.
        -12    1    4    4    0    0  0.18181266843E+02 -0.13450656437E+02  0.12754281322E+02  0.25964404762E+02  0.00000000000E+00 0.  1.
</event>
<event>
 8    1  0.3146747E-007  0.9118800E+02  0.7816164E-02  0.1184000E+00
        -11   -1    0    0    0    0  0.00000000000E+00  0.00000000000E+00  0.45593999997E+02  0.45594000000E+02  0.51100000000E-03 0.  1.
         11   -1    0    0    0    0 -0.00000000000E+00 -0.00000000000E+00 -0.45593999997E+02  0.45594000000E+02  0.51100000000E-03 0. -1.
         23    2    1    2    0    0  0.17763568394E-14  0.00000000000E+00 -0.53290705182E-14  0.91188000000E+02  0.91188000000E+02 0.  0.
    9900012    2    3    3    0    0 -0.12191104988E+02  0.32170871415E+02  0.13122263243E+02  0.54367057576E+02  0.39999939355E+02 0.  0.
        -12    1    3    3    0    0  0.12191104988E+02 -0.32170871415E+02 -0.13122263243E+02  0.36820942424E+02  0.00000000000E+00 0.  1.
         11    1    4    4    0    0  0.73506410404E+01 -0.49642920775E+00  0.44419155017E+00  0.73807636501E+01  0.51100000000E-03 0. -1.
        -11    1    4    4    0    0 -0.15753956580E+02  0.16164002825E+02  0.18392018324E+02  0.29115777056E+02  0.51100000000E-03 0.  1.
        -12    1    4    4    0    0 -0.37877894478E+01  0.16503297797E+02 -0.57139466316E+01  0.17870516869E+02  0.00000000000E+00 0.  1.
</event>
<event>
 8    1  0.3146747E-007  0.9118800E+02  0.7816164E-02  0.1184000E+00
        -11   -1    0    0    0    0  0.00000000000E+00  0.00000000000E+00  0.45593999997E+02  0.45594000000E+02  0.51100000000E-03 0.  1.
         11   -1    0    0    0    0 -0.00000000000E+00 -0.00000000000E+00 -0.45593999997E+02  0.45594000000E+02  0.51100000000E-03 0. -1.
         23    2    1    2    0    0  0.00000000000E+00  0.88817841970E-15  0.00000000000E+00  0.91188000000E+02  0.91188000000E+02 0.  0.
    9900012    2    3    3    0    0 -0.16765525080E+02 -0.48422672356E+01  0.32422963803E+02  0.54367096087E+02  0.40000027150E+02 0.  0.
         12    1    3    3    0    0  0.16765525080E+02  0.48422672356E+01 -0.32422963803E+02  0.36820903913E+02  0.00000000000E+00 0. -1.
         11    1    4    4    0    0  0.37160450108E+00 -0.95472532419E+00  0.13294731806E+02  0.13334147307E+02  0.51100000000E-03 0. -1.
        -11    1    4    4    0    0 -0.25574151788E+01 -0.11848110451E+02  0.21070779972E+02  0.24308349647E+02  0.51100000000E-03 0.  1.
         12    1    4    4    0    0 -0.14579714403E+02  0.79605685397E+01 -0.19425479755E+01  0.16724599134E+02  0.00000000000E+00 0. -1.
</event>
<event>
 8    1  0.3146747E-007  0.9118800E+02  0.7816164E-02  0.1184000E+00
        -11   -1    0    0    0    0  0.00000000000E+00  0.00000000000E+00  0.45593999997E+02  0.45594000000E+02  0.51100000000E-03 0.  1.
         11   -1    0    0    0    0 -0.00000000000E+00 -0.00000000000E+00 -0.45593999997E+02  0.45594000000E+02  0.51100000000E-03 0. -1.
         23    2    1    2    0    0  0.00000000000E+00  0.00000000000E+00  0.00000000000E+00  0.91188000000E+02  0.91188000000E+02 0.  0.
    9900012    2    3    3    0    0 -0.32779324057E+01  0.18890326519E+02 -0.31435504997E+02  0.54367078620E+02  0.39999987331E+02 0.  0.
        -12    1    3    3    0    0  0.32779324057E+01 -0.18890326519E+02  0.31435504997E+02  0.36820921380E+02  0.00000000000E+00 0.  1.
         11    1    4    4    0    0  0.87445477004E+01 -0.70260461366E+01 -0.11765284934E+02  0.16255902578E+02  0.51100000000E-03 0. -1.
        -11    1    4    4    0    0  0.15005808208E+01  0.12868383077E+02 -0.37635530779E+01  0.13491158506E+02  0.51100000000E-03 0.  1.
        -12    1    4    4    0    0 -0.13523060927E+02  0.13047989579E+02 -0.15906666985E+02  0.24620017536E+02  0.00000000000E+00 0.  1.
</event>
<event>
 8    1  0.3146747E-007  0.9118800E+02  0.7816164E-02  0.1184000E+00
        -11   -1    0    0    0    0  0.00000000000E+00  0.00000000000E+00  0.45593999997E+02  0.45594000000E+02  0.51100000000E-03 0.  1.
         11   -1    0    0    0    0 -0.00000000000E+00 -0.00000000000E+00 -0.45593999997E+02  0.45594000000E+02  0.51100000000E-03 0. -1.
         23    2    1    2    0    0 -0.17763568394E-14  0.19984014443E-14  0.00000000000E+00  0.91188000000E+02  0.91188000000E+02 0.  0.
    9900012    2    3    3    0    0 -0.14265964886E+02  0.17178922062E+01 -0.33901470483E+02  0.54367100926E+02  0.40000038180E+02 0.  0.
        -12    1    3    3    0    0  0.14265964886E+02 -0.17178922062E+01  0.33901470483E+02  0.36820899074E+02  0.00000000000E+00 0.  1.
         11    1    4    4    0    0 -0.60272590113E+01 -0.55832910288E+01 -0.48349764903E+01  0.95329946934E+01  0.51100000000E-03 0. -1.
        -11    1    4    4    0    0 -0.27327878691E+01  0.14261640022E+02 -0.82000150814E-01  0.14521337058E+02  0.51100000000E-03 0.  1.
        -12    1    4    4    0    0 -0.55059180055E+01 -0.69604567871E+01 -0.28984493842E+02  0.30312769174E+02  0.00000000000E+00 0.  1.
</event>
<event>
 8    1  0.3146747E-007  0.9118800E+02  0.7816164E-02  0.1184000E+00
        -11   -1    0    0    0    0  0.00000000000E+00  0.00000000000E+00  0.45593999997E+02  0.45594000000E+02  0.51100000000E-03 0.  1.
         11   -1    0    0    0    0 -0.00000000000E+00 -0.00000000000E+00 -0.45593999997E+02  0.45594000000E+02  0.51100000000E-03 0. -1.
         23    2    1    2    0    0 -0.88817841970E-15  0.00000000000E+00  0.00000000000E+00  0.91188000000E+02  0.91188000000E+02 0.  0.
    9900012    2    3    3    0    0  0.56149897738E+01 -0.18188937301E+02 -0.31518470927E+02  0.54367088009E+02  0.40000008733E+02 0.  0.
        -12    1    3    3    0    0 -0.56149897738E+01  0.18188937301E+02  0.31518470927E+02  0.36820911991E+02  0.00000000000E+00 0.  1.
         11    1    4    4    0    0  0.11525691202E+02 -0.12615481253E+02 -0.16769832030E+02  0.23941996398E+02  0.51100000000E-03 0. -1.
        -11    1    4    4    0    0 -0.47906357788E+01  0.33911274507E+01  0.56303766322E+01  0.81333312875E+01  0.51100000000E-03 0.  1.
        -12    1    4    4    0    0 -0.11200656496E+01 -0.89645834983E+01 -0.20379015530E+02  0.22291760323E+02  0.00000000000E+00 0.  1.
</event>
<event>
 8    1  0.3146747E-007  0.9118800E+02  0.7816164E-02  0.1184000E+00
        -11   -1    0    0    0    0  0.00000000000E+00  0.00000000000E+00  0.45593999997E+02  0.45594000000E+02  0.51100000000E-03 0.  1.
         11   -1    0    0    0    0 -0.00000000000E+00 -0.00000000000E+00 -0.45593999997E+02  0.45594000000E+02  0.51100000000E-03 0. -1.
         23    2    1    2    0    0  0.35527136788E-14  0.35527136788E-14  0.00000000000E+00  0.91188000000E+02  0.91188000000E+02 0.  0.
    9900012    2    3    3    0    0 -0.20873416661E+02  0.44561973946E+01  0.30003700447E+02  0.54367092097E+02  0.40000018053E+02 0.  0.
         12    1    3    3    0    0  0.20873416661E+02 -0.44561973946E+01 -0.30003700447E+02  0.36820907903E+02  0.00000000000E+00 0. -1.
         11    1    4    4    0    0 -0.13837416942E+02 -0.81471405049E+01 -0.27995301801E+00  0.16060148816E+02  0.51100000000E-03 0.  1.
        -11    1    4    4    0    0 -0.23977301674E+01 -0.39191891074E+01  0.15691534884E+01  0.48550382230E+01  0.51100000000E-03 0. -1.
         12    1    4    4    0    0 -0.46382695513E+01  0.16522527007E+02  0.28714499976E+02  0.33451905058E+02  0.00000000000E+00 0. -1.
</event>
<event>
 8    1  0.3146747E-007  0.9118800E+02  0.7816164E-02  0.1184000E+00
        -11   -1    0    0    0    0  0.00000000000E+00  0.00000000000E+00  0.45593999997E+02  0.45594000000E+02  0.51100000000E-03 0.  1.
         11   -1    0    0    0    0 -0.00000000000E+00 -0.00000000000E+00 -0.45593999997E+02  0.45594000000E+02  0.51100000000E-03 0. -1.
         23    2    1    2    0    0  0.00000000000E+00 -0.35527136788E-14  0.00000000000E+00  0.91188000000E+02  0.91188000000E+02 0.  0.
    9900012    2    3    3    0    0 -0.18546056737E+02  0.31113572033E+02  0.66157960764E+01  0.54367090956E+02  0.40000015451E+02 0.  0.
         12    1    3    3    0    0  0.18546056737E+02 -0.31113572033E+02 -0.66157960764E+01  0.36820909044E+02  0.00000000000E+00 0. -1.
         11    1    4    4    0    0  0.64800822196E+01  0.18017141203E+02  0.36762331998E+01  0.19496757000E+02  0.51100000000E-03 0. -1.
        -11    1    4    4    0    0 -0.81798685256E+01 -0.71024556608E+00 -0.71298016841E+01  0.10874225038E+02  0.51100000000E-03 0.  1.
        -12    1    4    4    0    0 -0.16846270431E+02  0.13806676395E+02  0.10069364561E+02  0.23996108918E+02  0.00000000000E+00 0.  1.
</event>
<event>
 8    1  0.3146747E-007  0.9118800E+02  0.7816164E-02  0.1184000E+00
        -11   -1    0    0    0    0  0.00000000000E+00  0.00000000000E+00  0.45593999997E+02  0.45594000000E+02  0.51100000000E-03 0.  1.
         11   -1    0    0    0    0 -0.00000000000E+00 -0.00000000000E+00 -0.45593999997E+02  0.45594000000E+02  0.51100000000E-03 0. -1.
         23    2    1    2    0    0 -0.17763568394E-14  0.00000000000E+00 -0.35527136788E-14  0.91188000000E+02  0.91188000000E+02 0.  0.
    9900012    2    3    3    0    0 -0.12306936747E+01  0.29609016950E+02 -0.21853397249E+02  0.54367089324E+02  0.40000011733E+02 0.  0.
        -12    1    3    3    0    0  0.12306936747E+01 -0.29609016950E+02  0.21853397249E+02  0.36820910676E+02  0.00000000000E+00 0.  1.
         11    1    4    4    0    0  0.99981006800E+01  0.11142743237E+02 -0.83207990130E+01  0.17127709728E+02  0.51100000000E-03 0. -1.
        -11    1    4    4    0    0  0.87113581193E+01  0.25661420371E+01 -0.48706023394E+01  0.10305125552E+02  0.51100000000E-03 0.  1.
        -12    1    4    4    0    0 -0.19940152474E+02  0.15900131676E+02 -0.86619958970E+01  0.26934254044E+02  0.00000000000E+00 0.  1.
</event>
<event>
 8    1  0.3146747E-007  0.9118800E+02  0.7816164E-02  0.1184000E+00
        -11   -1    0    0    0    0  0.00000000000E+00  0.00000000000E+00  0.45593999997E+02  0.45594000000E+02  0.51100000000E-03 0.  1.
         11   -1    0    0    0    0 -0.00000000000E+00 -0.00000000000E+00 -0.45593999997E+02  0.45594000000E+02  0.51100000000E-03 0. -1.
         23    2    1    2    0    0  0.71054273576E-14  0.44408920985E-15  0.00000000000E+00  0.91188000000E+02  0.91188000000E+02 0.  0.
    9900012    2    3    3    0    0 -0.29664802440E+02  0.28813542581E+01 -0.21621422272E+02  0.54366965153E+02  0.39999728658E+02 0.  0.
        -12    1    3    3    0    0  0.29664802440E+02 -0.28813542581E+01  0.21621422272E+02  0.36821034847E+02  0.00000000000E+00 0.  1.
         11    1    4    4    0    0 -0.20479935838E+02  0.79970041296E+01 -0.32324108237E+01  0.22222248468E+02  0.51100000000E-03 0. -1.
        -11    1    4    4    0    0 -0.89754059853E+00 -0.12686085523E+02 -0.29479485720E+01  0.13054989317E+02  0.51100000000E-03 0.  1.
         12    1    4    4    0    0 -0.82873260035E+01  0.75704356513E+01 -0.15441062876E+02  0.19089727368E+02  0.00000000000E+00 0. -1.
</event>
<event>
 8    1  0.3146747E-007  0.9118800E+02  0.7816164E-02  0.1184000E+00
        -11   -1    0    0    0    0  0.00000000000E+00  0.00000000000E+00  0.45593999997E+02  0.45594000000E+02  0.51100000000E-03 0. -1.
         11   -1    0    0    0    0 -0.00000000000E+00 -0.00000000000E+00 -0.45593999997E+02  0.45594000000E+02  0.51100000000E-03 0.  1.
         23    2    1    2    0    0  0.00000000000E+00  0.17763568394E-14  0.00000000000E+00  0.91188000000E+02  0.91188000000E+02 0.  0.
    9900012    2    3    3    0    0 -0.28494668829E+02  0.86301110061E+01  0.21664618748E+02  0.54367072891E+02  0.39999974270E+02 0.  0.
        -12    1    3    3    0    0  0.28494668829E+02 -0.86301110061E+01 -0.21664618748E+02  0.36820927109E+02  0.00000000000E+00 0.  1.
         11    1    4    4    0    0  0.50116843108E+01 -0.63286478416E+01  0.52563680090E+01  0.96331805777E+01  0.51100000000E-03 0. -1.
        -11    1    4    4    0    0 -0.21287726169E+02  0.95236586189E+01  0.20179285660E+02  0.30839437883E+02  0.51100000000E-03 0.  1.
        -12    1    4    4    0    0 -0.12218626971E+02  0.54351002289E+01 -0.37710349209E+01  0.13894454430E+02  0.00000000000E+00 0.  1.
</event>
<event>
 8    1  0.3146747E-007  0.9118800E+02  0.7816164E-02  0.1184000E+00
        -11   -1    0    0    0    0  0.00000000000E+00  0.00000000000E+00  0.45593999997E+02  0.45594000000E+02  0.51100000000E-03 0.  1.
         11   -1    0    0    0    0 -0.00000000000E+00 -0.00000000000E+00 -0.45593999997E+02  0.45594000000E+02  0.51100000000E-03 0. -1.
         23    2    1    2    0    0  0.00000000000E+00  0.00000000000E+00 -0.88817841970E-15  0.91188000000E+02  0.91188000000E+02 0.  0.
    9900012    2    3    3    0    0  0.48847790021E+01 -0.35845086423E+02  0.68592131399E+01  0.54367080790E+02  0.39999992276E+02 0.  0.
         12    1    3    3    0    0 -0.48847790021E+01  0.35845086423E+02 -0.68592131399E+01  0.36820919210E+02  0.00000000000E+00 0. -1.
         11    1    4    4    0    0  0.43530236805E+01 -0.77295311102E+01 -0.48495815196E+01  0.10110039937E+02  0.51100000000E-03 0. -1.
        -11    1    4    4    0    0 -0.40054493547E+01  0.59298377032E+01  0.62070132383E+01  0.94727827654E+01  0.51100000000E-03 0.  1.
        -12    1    4    4    0    0  0.45372046762E+01 -0.34045393016E+02  0.55017814212E+01  0.34784258088E+02  0.00000000000E+00 0.  1.
</event>
<event>
 8    1  0.3146747E-007  0.9118800E+02  0.7816164E-02  0.1184000E+00
        -11   -1    0    0    0    0  0.00000000000E+00  0.00000000000E+00  0.45593999997E+02  0.45594000000E+02  0.51100000000E-03 0.  1.
         11   -1    0    0    0    0 -0.00000000000E+00 -0.00000000000E+00 -0.45593999997E+02  0.45594000000E+02  0.51100000000E-03 0. -1.
         23    2    1    2    0    0  0.35527136788E-14 -0.35527136788E-14 -0.35527136788E-14  0.91188000000E+02  0.91188000000E+02 0.  0.
    9900012    2    3    3    0    0  0.21369007923E+02 -0.20130958350E+02 -0.22223640093E+02  0.54367079823E+02  0.39999990072E+02 0.  0.
        -12    1    3    3    0    0 -0.21369007923E+02  0.20130958350E+02  0.22223640093E+02  0.36820920177E+02  0.00000000000E+00 0.  1.
         11    1    4    4    0    0  0.25409486834E+02 -0.74218254551E+01 -0.21307240923E+02  0.33981230558E+02  0.51100000000E-03 0. -1.
        -11    1    4    4    0    0  0.50436761356E+01 -0.75386468828E+01  0.24662357961E+01  0.93995843019E+01  0.51100000000E-03 0.  1.
         12    1    4    4    0    0 -0.90841550467E+01 -0.51704860121E+01 -0.33826349662E+01  0.10986264963E+02  0.00000000000E+00 0. -1.
</event>
<event>
 8    1  0.3146747E-007  0.9118800E+02  0.7816164E-02  0.1184000E+00
        -11   -1    0    0    0    0  0.00000000000E+00  0.00000000000E+00  0.45593999997E+02  0.45594000000E+02  0.51100000000E-03 0. -1.
         11   -1    0    0    0    0 -0.00000000000E+00 -0.00000000000E+00 -0.45593999997E+02  0.45594000000E+02  0.51100000000E-03 0.  1.
         23    2    1    2    0    0  0.35527136788E-14  0.26645352591E-14 -0.35527136788E-14  0.91188000000E+02  0.91188000000E+02 0.  0.
    9900012    2    3    3    0    0 -0.23768500117E+02  0.60611102200E+01  0.27461019295E+02  0.54366997357E+02  0.39999802075E+02 0.  0.
        -12    1    3    3    0    0  0.23768500117E+02 -0.60611102200E+01 -0.27461019295E+02  0.36821002643E+02  0.00000000000E+00 0.  1.
         11    1    4    4    0    0 -0.23825383076E+01 -0.45521943809E+01  0.61920237813E+01  0.80461246099E+01  0.51100000000E-03 0. -1.
        -11    1    4    4    0    0 -0.10403696084E+02 -0.10761590120E+02  0.15621258522E+02  0.21634981678E+02  0.51100000000E-03 0.  1.
        -12    1    4    4    0    0 -0.10982265725E+02  0.21374894721E+02  0.56477369915E+01  0.24685891070E+02  0.00000000000E+00 0.  1.
</event>
<event>
 8    1  0.3146747E-007  0.9118800E+02  0.7816164E-02  0.1184000E+00
        -11   -1    0    0    0    0  0.00000000000E+00  0.00000000000E+00  0.45593999997E+02  0.45594000000E+02  0.51100000000E-03 0. -1.
         11   -1    0    0    0    0 -0.00000000000E+00 -0.00000000000E+00 -0.45593999997E+02  0.45594000000E+02  0.51100000000E-03 0.  1.
         23    2    1    2    0    0  0.00000000000E+00  0.71054273576E-14  0.88817841970E-15  0.91188000000E+02  0.91188000000E+02 0.  0.
    9900012    2    3    3    0    0 -0.27143126280E+02  0.24409158697E+02  0.48191229406E+01  0.54367078251E+02  0.39999986488E+02 0.  0.
         12    1    3    3    0    0  0.27143126280E+02 -0.24409158697E+02 -0.48191229406E+01  0.36820921749E+02  0.00000000000E+00 0. -1.
         11    1    4    4    0    0 -0.40153536830E+01  0.43035537745E+01 -0.74158962309E+01  0.94677958078E+01  0.51100000000E-03 0. -1.
        -11    1    4    4    0    0  0.37859340601E+01  0.14691357056E+02  0.89886686826E+00  0.15197935082E+02  0.51100000000E-03 0.  1.
        -12    1    4    4    0    0 -0.26913706658E+02  0.54142478661E+01  0.11336152303E+02  0.29701347361E+02  0.00000000000E+00 0.  1.
</event>
<event>
 8    1  0.3146747E-007  0.9118800E+02  0.7816164E-02  0.1184000E+00
        -11   -1    0    0    0    0  0.00000000000E+00  0.00000000000E+00  0.45593999997E+02  0.45594000000E+02  0.51100000000E-03 0. -1.
         11   -1    0    0    0    0 -0.00000000000E+00 -0.00000000000E+00 -0.45593999997E+02  0.45594000000E+02  0.51100000000E-03 0.  1.
         23    2    1    2    0    0  0.35527136788E-14  0.88817841970E-15  0.00000000000E+00  0.91188000000E+02  0.91188000000E+02 0.  0.
    9900012    2    3    3    0    0  0.14458495491E+02  0.46669825076E+01 -0.33540338719E+02  0.54367039407E+02  0.39999897936E+02 0.  0.
         12    1    3    3    0    0 -0.14458495491E+02 -0.46669825076E+01  0.33540338719E+02  0.36820960593E+02  0.00000000000E+00 0. -1.
         11    1    4    4    0    0  0.65554806597E+01  0.57208149928E+01 -0.82053471884E+01  0.11959505575E+02  0.51100000000E-03 0. -1.
        -11    1    4    4    0    0  0.17533492880E+02  0.72288821568E+01 -0.22437471395E+02  0.29378907955E+02  0.51100000000E-03 0.  1.
         12    1    4    4    0    0 -0.96304780488E+01 -0.82827146419E+01 -0.28975201364E+01  0.13028625876E+02  0.00000000000E+00 0. -1.
</event>
<event>
 8    1  0.3146747E-007  0.9118800E+02  0.7816164E-02  0.1184000E+00
        -11   -1    0    0    0    0  0.00000000000E+00  0.00000000000E+00  0.45593999997E+02  0.45594000000E+02  0.51100000000E-03 0. -1.
         11   -1    0    0    0    0 -0.00000000000E+00 -0.00000000000E+00 -0.45593999997E+02  0.45594000000E+02  0.51100000000E-03 0.  1.
         23    2    1    2    0    0  0.00000000000E+00  0.88817841970E-15  0.00000000000E+00  0.91188000000E+02  0.91188000000E+02 0.  0.
    9900012    2    3    3    0    0  0.33267536170E+02 -0.50811579675E+01  0.14940914509E+02  0.54367108437E+02  0.40000055304E+02 0.  0.
        -12    1    3    3    0    0 -0.33267536170E+02  0.50811579675E+01 -0.14940914509E+02  0.36820891563E+02  0.00000000000E+00 0.  1.
         11    1    4    4    0    0  0.18547710144E+02  0.92591815205E+01  0.12285509351E+02  0.24097380237E+02  0.51100000000E-03 0. -1.
        -11    1    4    4    0    0  0.67752445927E+01 -0.17873378154E+02 -0.37391405085E+01  0.19476723491E+02  0.51100000000E-03 0.  1.
        -12    1    4    4    0    0  0.79445814331E+01  0.35330386662E+01  0.63945456664E+01  0.10793004709E+02  0.00000000000E+00 0.  1.
</event>
<event>
 8    1  0.3146747E-007  0.9118800E+02  0.7816164E-02  0.1184000E+00
        -11   -1    0    0    0    0  0.00000000000E+00  0.00000000000E+00  0.45593999997E+02  0.45594000000E+02  0.51100000000E-03 0.  1.
         11   -1    0    0    0    0 -0.00000000000E+00 -0.00000000000E+00 -0.45593999997E+02  0.45594000000E+02  0.51100000000E-03 0. -1.
         23    2    1    2    0    0 -0.35527136788E-14  0.00000000000E+00  0.11102230246E-14  0.91188000000E+02  0.91188000000E+02 0.  0.
    9900012    2    3    3    0    0 -0.17133241569E+02  0.32572216466E+02 -0.11324087224E+01  0.54367087441E+02  0.40000007440E+02 0.  0.
        -12    1    3    3    0    0  0.17133241569E+02 -0.32572216466E+02  0.11324087224E+01  0.36820912559E+02  0.00000000000E+00 0.  1.
         11    1    4    4    0    0 -0.16060290881E+02  0.81744218025E+01  0.88752861470E+01  0.20087927206E+02  0.51100000000E-03 0. -1.
        -11    1    4    4    0    0 -0.87243003333E+01  0.22248470575E+02 -0.38076167779E+01  0.24199293482E+02  0.51100000000E-03 0.  1.
        -12    1    4    4    0    0  0.76513496446E+01  0.21493240876E+01 -0.62000780915E+01  0.10079866753E+02  0.00000000000E+00 0.  1.
</event>
<event>
 8    1  0.3146747E-007  0.9118800E+02  0.7816164E-02  0.1184000E+00
        -11   -1    0    0    0    0  0.00000000000E+00  0.00000000000E+00  0.45593999997E+02  0.45594000000E+02  0.51100000000E-03 0.  1.
         11   -1    0    0    0    0 -0.00000000000E+00 -0.00000000000E+00 -0.45593999997E+02  0.45594000000E+02  0.51100000000E-03 0. -1.
         23    2    1    2    0    0  0.00000000000E+00  0.00000000000E+00 -0.88817841970E-15  0.91188000000E+02  0.91188000000E+02 0.  0.
    9900012    2    3    3    0    0 -0.11051725486E+02 -0.34894273446E+02  0.40034733560E+01  0.54367098946E+02  0.40000033667E+02 0.  0.
         12    1    3    3    0    0  0.11051725486E+02  0.34894273446E+02 -0.40034733560E+01  0.36820901054E+02  0.00000000000E+00 0. -1.
         11    1    4    4    0    0 -0.40412841858E+01  0.21642040797E+00 -0.97839328990E+01  0.10587925146E+02  0.51100000000E-03 0. -1.
        -11    1    4    4    0    0  0.53533174476E+01 -0.15251471956E+01  0.33610591133E+01  0.65023688212E+01  0.51100000000E-03 0.  1.
        -12    1    4    4    0    0 -0.12363758747E+02 -0.33585546658E+02  0.10426347142E+02  0.37276804979E+02  0.00000000000E+00 0.  1.
</event>
<event>
 8    1  0.3146747E-007  0.9118800E+02  0.7816164E-02  0.1184000E+00
        -11   -1    0    0    0    0  0.00000000000E+00  0.00000000000E+00  0.45593999997E+02  0.45594000000E+02  0.51100000000E-03 0.  1.
         11   -1    0    0    0    0 -0.00000000000E+00 -0.00000000000E+00 -0.45593999997E+02  0.45594000000E+02  0.51100000000E-03 0. -1.
         23    2    1    2    0    0  0.00000000000E+00  0.00000000000E+00 -0.22204460493E-15  0.91188000000E+02  0.91188000000E+02 0.  0.
    9900012    2    3    3    0    0  0.34243100673E+02  0.13433004020E+02 -0.16564819766E+01  0.54367089185E+02  0.40000011415E+02 0.  0.
         12    1    3    3    0    0 -0.34243100673E+02 -0.13433004020E+02  0.16564819766E+01  0.36820910815E+02  0.00000000000E+00 0. -1.
         11    1    4    4    0    0 -0.67856588477E+01 -0.24436666843E+00  0.29680370482E+01  0.74104065507E+01  0.51100000000E-03 0. -1.
        -11    1    4    4    0    0  0.37522788065E+02  0.66948026129E+01 -0.70784690310E+01  0.38767057282E+02  0.51100000000E-03 0.  1.
         12    1    4    4    0    0  0.35059714558E+01  0.69825680756E+01  0.24539500062E+01  0.81896253524E+01  0.00000000000E+00 0. -1.
</event>
<event>
 8    1  0.3146747E-007  0.9118800E+02  0.7816164E-02  0.1184000E+00
        -11   -1    0    0    0    0  0.00000000000E+00  0.00000000000E+00  0.45593999997E+02  0.45594000000E+02  0.51100000000E-03 0. -1.
         11   -1    0    0    0    0 -0.00000000000E+00 -0.00000000000E+00 -0.45593999997E+02  0.45594000000E+02  0.51100000000E-03 0.  1.
         23    2    1    2    0    0  0.00000000000E+00  0.00000000000E+00  0.00000000000E+00  0.91188000000E+02  0.91188000000E+02 0.  0.
    9900012    2    3    3    0    0  0.97693854703E+01  0.93382717820E+01 -0.34251082743E+02  0.54367070064E+02  0.39999967824E+02 0.  0.
         12    1    3    3    0    0 -0.97693854703E+01 -0.93382717820E+01  0.34251082743E+02  0.36820929936E+02  0.00000000000E+00 0. -1.
         11    1    4    4    0    0  0.45814319743E+01  0.25241912764E+01  0.66024367945E+01  0.84233741708E+01  0.51100000000E-03 0. -1.
        -11    1    4    4    0    0 -0.45183921979E+01  0.13597302849E+01 -0.13598057440E+01  0.49105810679E+01  0.51100000000E-03 0.  1.
        -12    1    4    4    0    0  0.97063456940E+01  0.54543502207E+01 -0.39493713793E+02  0.41033114825E+02  0.00000000000E+00 0.  1.
</event>
<event>
 8    1  0.3146747E-007  0.9118800E+02  0.7816164E-02  0.1184000E+00
        -11   -1    0    0    0    0  0.00000000000E+00  0.00000000000E+00  0.45593999997E+02  0.45594000000E+02  0.51100000000E-03 0.  1.
         11   -1    0    0    0    0 -0.00000000000E+00 -0.00000000000E+00 -0.45593999997E+02  0.45594000000E+02  0.51100000000E-03 0. -1.
         23    2    1    2    0    0  0.00000000000E+00  0.17763568394E-14  0.00000000000E+00  0.91188000000E+02  0.91188000000E+02 0.  0.
    9900012    2    3    3    0    0 -0.29145034473E+02  0.10028491830E+02  0.20143892094E+02  0.54367081061E+02  0.39999992894E+02 0.  0.
         12    1    3    3    0    0  0.29145034473E+02 -0.10028491830E+02 -0.20143892094E+02  0.36820918939E+02  0.00000000000E+00 0. -1.
         11    1    4    4    0    0 -0.89647334754E+01  0.11419719712E+02  0.34509742724E+01  0.14922656207E+02  0.51100000000E-03 0. -1.
        -11    1    4    4    0    0  0.65516296013E+01  0.20747783907E+01  0.91686203589E+01  0.11458278900E+02  0.51100000000E-03 0.  1.
         12    1    4    4    0    0 -0.26731930599E+02 -0.34660062727E+01  0.75242974627E+01  0.27986145954E+02  0.00000000000E+00 0. -1.
</event>
<event>
 8    1  0.3146747E-007  0.9118800E+02  0.7816164E-02  0.1184000E+00
        -11   -1    0    0    0    0  0.00000000000E+00  0.00000000000E+00  0.45593999997E+02  0.45594000000E+02  0.51100000000E-03 0.  1.
         11   -1    0    0    0    0 -0.00000000000E+00 -0.00000000000E+00 -0.45593999997E+02  0.45594000000E+02  0.51100000000E-03 0. -1.
         23    2    1    2    0    0 -0.17763568394E-14  0.71054273576E-14  0.55511151231E-16  0.91188000000E+02  0.91188000000E+02 0.  0.
    9900012    2    3    3    0    0 -0.15979831554E+02 -0.33170896906E+02 -0.34038863539E+00  0.54367091776E+02  0.40000017321E+02 0.  0.
         12    1    3    3    0    0  0.15979831554E+02  0.33170896906E+02  0.34038863539E+00  0.36820908224E+02  0.00000000000E+00 0. -1.
         11    1    4    4    0    0 -0.15329484383E+02 -0.12069907208E+02  0.17277418683E+01  0.19587262282E+02  0.51100000000E-03 0. -1.
        -11    1    4    4    0    0  0.92336540881E+01 -0.22780106152E+02 -0.19721303758E+00  0.24581141092E+02  0.51100000000E-03 0.  1.
        -12    1    4    4    0    0 -0.98840012590E+01  0.16791164544E+01 -0.18709174662E+01  0.10198688402E+02  0.00000000000E+00 0.  1.
</event>
<event>
 8    1  0.3146747E-007  0.9118800E+02  0.7816164E-02  0.1184000E+00
        -11   -1    0    0    0    0  0.00000000000E+00  0.00000000000E+00  0.45593999997E+02  0.45594000000E+02  0.51100000000E-03 0. -1.
         11   -1    0    0    0    0 -0.00000000000E+00 -0.00000000000E+00 -0.45593999997E+02  0.45594000000E+02  0.51100000000E-03 0.  1.
         23    2    1    2    0    0  0.00000000000E+00  0.00000000000E+00  0.00000000000E+00  0.91188000000E+02  0.91188000000E+02 0.  0.
    9900012    2    3    3    0    0  0.11531091907E+02  0.23770330056E+02  0.25647319992E+02  0.54367086183E+02  0.40000004572E+02 0.  0.
        -12    1    3    3    0    0 -0.11531091907E+02 -0.23770330056E+02 -0.25647319992E+02  0.36820913817E+02  0.00000000000E+00 0.  1.
         11    1    4    4    0    0  0.52614059966E+01  0.12573093178E+02 -0.73265960291E+01  0.15473980572E+02  0.51100000000E-03 0. -1.
        -11    1    4    4    0    0 -0.52986641675E+01  0.39433899414E+01  0.75260262085E+01  0.10013352932E+02  0.51100000000E-03 0.  1.
         12    1    4    4    0    0  0.11568350077E+02  0.72538469367E+01  0.25447889813E+02  0.28879752679E+02  0.00000000000E+00 0. -1.
</event>
<event>
 8    1  0.3146747E-007  0.9118800E+02  0.7816164E-02  0.1184000E+00
        -11   -1    0    0    0    0  0.00000000000E+00  0.00000000000E+00  0.45593999997E+02  0.45594000000E+02  0.51100000000E-03 0. -1.
         11   -1    0    0    0    0 -0.00000000000E+00 -0.00000000000E+00 -0.45593999997E+02  0.45594000000E+02  0.51100000000E-03 0.  1.
         23    2    1    2    0    0  0.00000000000E+00 -0.44408920985E-15 -0.13322676296E-14  0.91188000000E+02  0.91188000000E+02 0.  0.
    9900012    2    3    3    0    0  0.36615189488E+02  0.13938362033E+01 -0.36284240210E+01  0.54367077395E+02  0.39999984537E+02 0.  0.
        -12    1    3    3    0    0 -0.36615189488E+02 -0.13938362033E+01  0.36284240210E+01  0.36820922605E+02  0.00000000000E+00 0.  1.
         11    1    4    4    0    0  0.23705360604E+02 -0.17281168235E+01  0.12953140225E+02  0.27068696886E+02  0.51100000000E-03 0. -1.
        -11    1    4    4    0    0  0.36551007392E+00  0.70878098116E+01 -0.14440418967E+01  0.72426447379E+01  0.51100000000E-03 0.  1.
         12    1    4    4    0    0  0.12544318810E+02 -0.39658567848E+01 -0.15137522350E+02  0.20055735771E+02  0.00000000000E+00 0. -1.
</event>
<event>
 8    1  0.3146747E-007  0.9118800E+02  0.7816164E-02  0.1184000E+00
        -11   -1    0    0    0    0  0.00000000000E+00  0.00000000000E+00  0.45593999997E+02  0.45594000000E+02  0.51100000000E-03 0.  1.
         11   -1    0    0    0    0 -0.00000000000E+00 -0.00000000000E+00 -0.45593999997E+02  0.45594000000E+02  0.51100000000E-03 0. -1.
         23    2    1    2    0    0 -0.71054273576E-14  0.00000000000E+00  0.00000000000E+00  0.91188000000E+02  0.91188000000E+02 0.  0.
    9900012    2    3    3    0    0  0.33457240468E+02  0.15001870808E+02 -0.33674891385E+01  0.54367040608E+02  0.39999900673E+02 0.  0.
         12    1    3    3    0    0 -0.33457240468E+02 -0.15001870808E+02  0.33674891385E+01  0.36820959392E+02  0.00000000000E+00 0. -1.
         11    1    4    4    0    0  0.22791926377E+02  0.63798355889E+00  0.66100609229E+01  0.23739667998E+02  0.51100000000E-03 0. -1.
        -11    1    4    4    0    0  0.13568324739E+02  0.73220935612E+01  0.28785681762E+01  0.15684343957E+02  0.51100000000E-03 0.  1.
         12    1    4    4    0    0 -0.29030106486E+01  0.70417936882E+01 -0.12856118238E+02  0.14943028653E+02  0.00000000000E+00 0. -1.
</event>
<event>
 8    1  0.3146747E-007  0.9118800E+02  0.7816164E-02  0.1184000E+00
        -11   -1    0    0    0    0  0.00000000000E+00  0.00000000000E+00  0.45593999997E+02  0.45594000000E+02  0.51100000000E-03 0. -1.
         11   -1    0    0    0    0 -0.00000000000E+00 -0.00000000000E+00 -0.45593999997E+02  0.45594000000E+02  0.51100000000E-03 0.  1.
         23    2    1    2    0    0  0.00000000000E+00 -0.44408920985E-15  0.71054273576E-14  0.91188000000E+02  0.91188000000E+02 0.  0.
    9900012    2    3    3    0    0 -0.20464226415E+02  0.22969586544E+01 -0.30524152148E+02  0.54367021656E+02  0.39999857469E+02 0.  0.
         12    1    3    3    0    0  0.20464226415E+02 -0.22969586544E+01  0.30524152148E+02  0.36820978344E+02  0.00000000000E+00 0. -1.
         11    1    4    4    0    0  0.10181349724E+02 -0.77485896022E+00 -0.42506585188E+01  0.11060216396E+02  0.51100000000E-03 0. -1.
        -11    1    4    4    0    0 -0.31786394915E+02  0.23291729568E+01 -0.21757234800E+02  0.38589858962E+02  0.51100000000E-03 0.  1.
        -12    1    4    4    0    0  0.11408187753E+01  0.74264465780E+00 -0.45162588294E+01  0.47169462982E+01  0.00000000000E+00 0.  1.
</event>
<event>
 8    1  0.3146747E-007  0.9118800E+02  0.7816164E-02  0.1184000E+00
        -11   -1    0    0    0    0  0.00000000000E+00  0.00000000000E+00  0.45593999997E+02  0.45594000000E+02  0.51100000000E-03 0.  1.
         11   -1    0    0    0    0 -0.00000000000E+00 -0.00000000000E+00 -0.45593999997E+02  0.45594000000E+02  0.51100000000E-03 0. -1.
         23    2    1    2    0    0  0.00000000000E+00 -0.13322676296E-14  0.00000000000E+00  0.91188000000E+02  0.91188000000E+02 0.  0.
    9900012    2    3    3    0    0 -0.81422913174E+01  0.39221056317E+01 -0.35694538553E+02  0.54367083350E+02  0.39999998112E+02 0.  0.
        -12    1    3    3    0    0  0.81422913174E+01 -0.39221056317E+01  0.35694538553E+02  0.36820916650E+02  0.00000000000E+00 0.  1.
         11    1    4    4    0    0 -0.13222324912E+02  0.15608088022E+02 -0.31503860975E+02  0.37562421972E+02  0.51100000000E-03 0. -1.
        -11    1    4    4    0    0  0.59399388636E+01 -0.65433098007E+01 -0.66303586334E+01  0.11048051082E+02  0.51100000000E-03 0.  1.
         12    1    4    4    0    0 -0.85990526915E+00 -0.51426725897E+01  0.24396810563E+01  0.57566102954E+01  0.00000000000E+00 0. -1.
</event>
<event>
 8    1  0.3146747E-007  0.9118800E+02  0.7816164E-02  0.1184000E+00
        -11   -1    0    0    0    0  0.00000000000E+00  0.00000000000E+00  0.45593999997E+02  0.45594000000E+02  0.51100000000E-03 0.  1.
         11   -1    0    0    0    0 -0.00000000000E+00 -0.00000000000E+00 -0.45593999997E+02  0.45594000000E+02  0.51100000000E-03 0. -1.
         23    2    1    2    0    0  0.00000000000E+00  0.00000000000E+00 -0.71054273576E-14  0.91188000000E+02  0.91188000000E+02 0.  0.
    9900012    2    3    3    0    0 -0.58683637187E+01 -0.14926151345E+02  0.33144398469E+02  0.54367097831E+02  0.40000031125E+02 0.  0.
         12    1    3    3    0    0  0.58683637187E+01  0.14926151345E+02 -0.33144398469E+02  0.36820902169E+02  0.00000000000E+00 0. -1.
         11    1    4    4    0    0  0.60461723920E+01  0.80961053562E+01  0.92496501366E+01  0.13698874058E+02  0.51100000000E-03 0. -1.
        -11    1    4    4    0    0 -0.14220758267E+02 -0.10433737613E+02  0.59239802141E+01  0.18606084706E+02  0.51100000000E-03 0.  1.
        -12    1    4    4    0    0  0.23062221561E+01 -0.12588519089E+02  0.17970768118E+02  0.22062139067E+02  0.00000000000E+00 0.  1.
</event>
<event>
 8    1  0.3146747E-007  0.9118800E+02  0.7816164E-02  0.1184000E+00
        -11   -1    0    0    0    0  0.00000000000E+00  0.00000000000E+00  0.45593999997E+02  0.45594000000E+02  0.51100000000E-03 0. -1.
         11   -1    0    0    0    0 -0.00000000000E+00 -0.00000000000E+00 -0.45593999997E+02  0.45594000000E+02  0.51100000000E-03 0.  1.
         23    2    1    2    0    0  0.00000000000E+00  0.00000000000E+00  0.00000000000E+00  0.91188000000E+02  0.91188000000E+02 0.  0.
    9900012    2    3    3    0    0  0.20141265229E+02  0.30458793464E+02  0.47293519267E+01  0.54367144036E+02  0.40000136458E+02 0.  0.
         12    1    3    3    0    0 -0.20141265229E+02 -0.30458793464E+02 -0.47293519267E+01  0.36820855964E+02  0.00000000000E+00 0. -1.
         11    1    4    4    0    0  0.17032122433E+02  0.28258886779E+00  0.62146678697E+01  0.18132709340E+02  0.51100000000E-03 0. -1.
        -11    1    4    4    0    0 -0.48645346399E+00  0.23215808184E+01  0.65957003489E+01  0.70092537280E+01  0.51100000000E-03 0.  1.
        -12    1    4    4    0    0  0.35955962601E+01  0.27854623778E+02 -0.80810162919E+01  0.29225180967E+02  0.00000000000E+00 0.  1.
</event>
<event>
 8    1  0.3146747E-007  0.9118800E+02  0.7816164E-02  0.1184000E+00
        -11   -1    0    0    0    0  0.00000000000E+00  0.00000000000E+00  0.45593999997E+02  0.45594000000E+02  0.51100000000E-03 0. -1.
         11   -1    0    0    0    0 -0.00000000000E+00 -0.00000000000E+00 -0.45593999997E+02  0.45594000000E+02  0.51100000000E-03 0.  1.
         23    2    1    2    0    0  0.17763568394E-14  0.00000000000E+00  0.35527136788E-14  0.91188000000E+02  0.91188000000E+02 0.  0.
    9900012    2    3    3    0    0 -0.94137386331E+01  0.24771993487E+02  0.25563810469E+02  0.54367101829E+02  0.40000040240E+02 0.  0.
        -12    1    3    3    0    0  0.94137386331E+01 -0.24771993487E+02 -0.25563810469E+02  0.36820898171E+02  0.00000000000E+00 0.  1.
         11    1    4    4    0    0 -0.12836966074E+02  0.14778281239E+02  0.35000232247E+02  0.40102388357E+02  0.51100000000E-03 0. -1.
        -11    1    4    4    0    0  0.15429175589E+01  0.40476763660E+01 -0.27998706303E+01  0.51578633526E+01  0.51100000000E-03 0.  1.
         12    1    4    4    0    0  0.18803098818E+01  0.59460358821E+01 -0.66365511471E+01  0.91068501191E+01  0.00000000000E+00 0. -1.
</event>
<event>
 8    1  0.3146747E-007  0.9118800E+02  0.7816164E-02  0.1184000E+00
        -11   -1    0    0    0    0  0.00000000000E+00  0.00000000000E+00  0.45593999997E+02  0.45594000000E+02  0.51100000000E-03 0. -1.
         11   -1    0    0    0    0 -0.00000000000E+00 -0.00000000000E+00 -0.45593999997E+02  0.45594000000E+02  0.51100000000E-03 0.  1.
         23    2    1    2    0    0  0.00000000000E+00  0.00000000000E+00  0.35527136788E-14  0.91188000000E+02  0.91188000000E+02 0.  0.
    9900012    2    3    3    0    0  0.25643855081E+02 -0.17158206014E+02  0.20093985998E+02  0.54367087324E+02  0.40000007172E+02 0.  0.
        -12    1    3    3    0    0 -0.25643855081E+02  0.17158206014E+02 -0.20093985998E+02  0.36820912676E+02  0.00000000000E+00 0.  1.
         11    1    4    4    0    0 -0.41210245463E+01  0.47990621964E+01  0.12820270574E+01  0.64542571155E+01  0.51100000000E-03 0. -1.
        -11    1    4    4    0    0  0.47187083754E+01 -0.76602956268E+01 -0.51947503966E+01  0.10389021598E+02  0.51100000000E-03 0.  1.
         12    1    4    4    0    0  0.25046171252E+02 -0.14296972583E+02  0.24006709337E+02  0.37523808610E+02  0.00000000000E+00 0. -1.
</event>
<event>
 8    1  0.3146747E-007  0.9118800E+02  0.7816164E-02  0.1184000E+00
        -11   -1    0    0    0    0  0.00000000000E+00  0.00000000000E+00  0.45593999997E+02  0.45594000000E+02  0.51100000000E-03 0. -1.
         11   -1    0    0    0    0 -0.00000000000E+00 -0.00000000000E+00 -0.45593999997E+02  0.45594000000E+02  0.51100000000E-03 0.  1.
         23    2    1    2    0    0  0.33306690739E-15  0.00000000000E+00  0.00000000000E+00  0.91188000000E+02  0.91188000000E+02 0.  0.
    9900012    2    3    3    0    0 -0.34813016538E+00 -0.36600470283E+02 -0.40081651899E+01  0.54367068348E+02  0.39999963912E+02 0.  0.
        -12    1    3    3    0    0  0.34813016538E+00  0.36600470283E+02  0.40081651899E+01  0.36820931652E+02  0.00000000000E+00 0.  1.
         11    1    4    4    0    0 -0.67477990318E+01 -0.24300996566E+02 -0.94077237097E+01  0.26917958532E+02  0.51100000000E-03 0. -1.
        -11    1    4    4    0    0  0.14582527155E+02 -0.10796733194E+02  0.13454916501E+01  0.18194226940E+02  0.51100000000E-03 0.  1.
        -12    1    4    4    0    0 -0.81828582890E+01 -0.15027405225E+01  0.40540668696E+01  0.92548828755E+01  0.00000000000E+00 0.  1.
</event>
<event>
 8    1  0.3146747E-007  0.9118800E+02  0.7816164E-02  0.1184000E+00
        -11   -1    0    0    0    0  0.00000000000E+00  0.00000000000E+00  0.45593999997E+02  0.45594000000E+02  0.51100000000E-03 0.  1.
         11   -1    0    0    0    0 -0.00000000000E+00 -0.00000000000E+00 -0.45593999997E+02  0.45594000000E+02  0.51100000000E-03 0. -1.
         23    2    1    2    0    0 -0.17763568394E-14  0.35527136788E-14  0.00000000000E+00  0.91188000000E+02  0.91188000000E+02 0.  0.
    9900012    2    3    3    0    0  0.15837099758E+02  0.22243227902E+02 -0.24702322055E+02  0.54367087041E+02  0.40000006528E+02 0.  0.
        -12    1    3    3    0    0 -0.15837099758E+02 -0.22243227902E+02  0.24702322055E+02  0.36820912959E+02  0.00000000000E+00 0.  1.
         11    1    4    4    0    0  0.20150014735E+02  0.22606210600E+02 -0.15327560508E+02  0.33941095487E+02  0.51100000000E-03 0. -1.
        -11    1    4    4    0    0  0.41264971393E+01  0.60176847350E+00  0.31962488063E+01  0.52541517516E+01  0.51100000000E-03 0.  1.
        -12    1    4    4    0    0 -0.84394121162E+01 -0.96475117207E+00 -0.12571010353E+02  0.15171839802E+02  0.00000000000E+00 0.  1.
</event>
<event>
 8    1  0.3146747E-007  0.9118800E+02  0.7816164E-02  0.1184000E+00
        -11   -1    0    0    0    0  0.00000000000E+00  0.00000000000E+00  0.45593999997E+02  0.45594000000E+02  0.51100000000E-03 0.  1.
         11   -1    0    0    0    0 -0.00000000000E+00 -0.00000000000E+00 -0.45593999997E+02  0.45594000000E+02  0.51100000000E-03 0. -1.
         23    2    1    2    0    0  0.35527136788E-14  0.00000000000E+00  0.00000000000E+00  0.91188000000E+02  0.91188000000E+02 0.  0.
    9900012    2    3    3    0    0 -0.31315627720E+02  0.17382125407E+02 -0.85424226525E+01  0.54367084640E+02  0.40000001053E+02 0.  0.
        -12    1    3    3    0    0  0.31315627720E+02 -0.17382125407E+02  0.85424226525E+01  0.36820915360E+02  0.00000000000E+00 0.  1.
         11    1    4    4    0    0  0.25356914906E+01  0.14697897685E+02 -0.26407282260E+01  0.15146992227E+02  0.51100000000E-03 0. -1.
        -11    1    4    4    0    0 -0.28007276725E+02  0.30124561194E+01  0.32510215955E+01  0.28355803341E+02  0.51100000000E-03 0.  1.
         12    1    4    4    0    0 -0.58440424857E+01 -0.32822839740E+00 -0.91527160220E+01  0.10864289072E+02  0.00000000000E+00 0. -1.
</event>
<event>
 8    1  0.3146747E-007  0.9118800E+02  0.7816164E-02  0.1184000E+00
        -11   -1    0    0    0    0  0.00000000000E+00  0.00000000000E+00  0.45593999997E+02  0.45594000000E+02  0.51100000000E-03 0. -1.
         11   -1    0    0    0    0 -0.00000000000E+00 -0.00000000000E+00 -0.45593999997E+02  0.45594000000E+02  0.51100000000E-03 0.  1.
         23    2    1    2    0    0  0.00000000000E+00  0.11657341759E-14 -0.35527136788E-14  0.91188000000E+02  0.91188000000E+02 0.  0.
    9900012    2    3    3    0    0  0.20946636831E+02  0.17871272182E+00 -0.30281786082E+02  0.54367080659E+02  0.39999991979E+02 0.  0.
         12    1    3    3    0    0 -0.20946636831E+02 -0.17871272182E+00  0.30281786082E+02  0.36820919341E+02  0.00000000000E+00 0. -1.
         11    1    4    4    0    0  0.20893578463E+02  0.78648686196E+01 -0.16011955471E+02  0.27473268784E+02  0.51100000000E-03 0. -1.
        -11    1    4    4    0    0  0.27084724573E+01 -0.44016401532E+00 -0.18080139824E+02  0.18287181952E+02  0.51100000000E-03 0.  1.
         12    1    4    4    0    0 -0.26554140895E+01 -0.72459918825E+01  0.38103092127E+01  0.86066299238E+01  0.00000000000E+00 0. -1.
</event>
<event>
 8    1  0.3146747E-007  0.9118800E+02  0.7816164E-02  0.1184000E+00
        -11   -1    0    0    0    0  0.00000000000E+00  0.00000000000E+00  0.45593999997E+02  0.45594000000E+02  0.51100000000E-03 0. -1.
         11   -1    0    0    0    0 -0.00000000000E+00 -0.00000000000E+00 -0.45593999997E+02  0.45594000000E+02  0.51100000000E-03 0.  1.
         23    2    1    2    0    0  0.26645352591E-14 -0.71054273576E-14 -0.35527136788E-14  0.91188000000E+02  0.91188000000E+02 0.  0.
    9900012    2    3    3    0    0 -0.72204078941E+01  0.23624738682E+02  0.27304168878E+02  0.54367079234E+02  0.39999988730E+02 0.  0.
         12    1    3    3    0    0  0.72204078941E+01 -0.23624738682E+02 -0.27304168878E+02  0.36820920766E+02  0.00000000000E+00 0. -1.
         11    1    4    4    0    0 -0.18948745792E+01 -0.88498758110E+01  0.90454417127E+01  0.12795736305E+02  0.51100000000E-03 0. -1.
        -11    1    4    4    0    0 -0.10257588578E+02  0.27920186728E+02  0.18173966583E+02  0.34857538811E+02  0.51100000000E-03 0.  1.
        -12    1    4    4    0    0  0.49320552630E+01  0.45544277652E+01  0.84760582140E-01  0.67138041186E+01  0.00000000000E+00 0.  1.
</event>
<event>
 8    1  0.3146747E-007  0.9118800E+02  0.7816164E-02  0.1184000E+00
        -11   -1    0    0    0    0  0.00000000000E+00  0.00000000000E+00  0.45593999997E+02  0.45594000000E+02  0.51100000000E-03 0.  1.
         11   -1    0    0    0    0 -0.00000000000E+00 -0.00000000000E+00 -0.45593999997E+02  0.45594000000E+02  0.51100000000E-03 0. -1.
         23    2    1    2    0    0  0.00000000000E+00  0.00000000000E+00  0.00000000000E+00  0.91188000000E+02  0.91188000000E+02 0.  0.
    9900012    2    3    3    0    0  0.23857922820E+02 -0.25848696407E+02 -0.10882347960E+02  0.54367067308E+02  0.39999961541E+02 0.  0.
        -12    1    3    3    0    0 -0.23857922820E+02  0.25848696407E+02  0.10882347960E+02  0.36820932692E+02  0.00000000000E+00 0.  1.
         11    1    4    4    0    0 -0.18590966619E+01  0.19178803311E+01  0.92896290502E+00  0.28279812063E+01  0.51100000000E-03 0. -1.
        -11    1    4    4    0    0  0.28105340159E+02 -0.19959379292E+02 -0.20100913653E+02  0.39904056149E+02  0.51100000000E-03 0.  1.
        -12    1    4    4    0    0 -0.23883206776E+01 -0.78071974457E+01  0.82896027878E+01  0.11635029952E+02  0.00000000000E+00 0.  1.
</event>
<event>
 8    1  0.3146747E-007  0.9118800E+02  0.7816164E-02  0.1184000E+00
        -11   -1    0    0    0    0  0.00000000000E+00  0.00000000000E+00  0.45593999997E+02  0.45594000000E+02  0.51100000000E-03 0. -1.
         11   -1    0    0    0    0 -0.00000000000E+00 -0.00000000000E+00 -0.45593999997E+02  0.45594000000E+02  0.51100000000E-03 0.  1.
         23    2    1    2    0    0  0.00000000000E+00  0.00000000000E+00  0.17763568394E-14  0.91188000000E+02  0.91188000000E+02 0.  0.
    9900012    2    3    3    0    0  0.24161449183E+02 -0.23320217243E+02  0.15105336325E+02  0.54367090935E+02  0.40000015405E+02 0.  0.
        -12    1    3    3    0    0 -0.24161449183E+02  0.23320217243E+02 -0.15105336325E+02  0.36820909065E+02  0.00000000000E+00 0.  1.
         11    1    4    4    0    0  0.55402796856E+00 -0.76289928815E+01 -0.99025073966E+01  0.12512718824E+02  0.51100000000E-03 0.  1.
        -11    1    4    4    0    0 -0.48520195784E+00 -0.78350790156E+01  0.87062237619E+01  0.11722722234E+02  0.51100000000E-03 0. -1.
         12    1    4    4    0    0  0.24092623172E+02 -0.78561453460E+01  0.16301619960E+02  0.30131649877E+02  0.00000000000E+00 0. -1.
</event>
<event>
 8    1  0.3146747E-007  0.9118800E+02  0.7816164E-02  0.1184000E+00
        -11   -1    0    0    0    0  0.00000000000E+00  0.00000000000E+00  0.45593999997E+02  0.45594000000E+02  0.51100000000E-03 0. -1.
         11   -1    0    0    0    0 -0.00000000000E+00 -0.00000000000E+00 -0.45593999997E+02  0.45594000000E+02  0.51100000000E-03 0.  1.
         23    2    1    2    0    0  0.00000000000E+00 -0.66613381478E-15  0.17763568394E-14  0.91188000000E+02  0.91188000000E+02 0.  0.
    9900012    2    3    3    0    0  0.36401218928E+02 -0.11976798475E+01 -0.54125297575E+01  0.54367100298E+02  0.40000036750E+02 0.  0.
         12    1    3    3    0    0 -0.36401218928E+02  0.11976798475E+01  0.54125297575E+01  0.36820899702E+02  0.00000000000E+00 0. -1.
         11    1    4    4    0    0  0.23594854076E+01 -0.96765521448E+01  0.15497001177E+01  0.10079900968E+02  0.51100000000E-03 0. -1.
        -11    1    4    4    0    0  0.56934536503E+01 -0.20486183734E+01  0.84130428577E+01  0.10362989052E+02  0.51100000000E-03 0.  1.
        -12    1    4    4    0    0  0.28348279870E+02  0.10527490671E+02 -0.15375272733E+02  0.33924210279E+02  0.00000000000E+00 0.  1.
</event>
<event>
 8    1  0.3146747E-007  0.9118800E+02  0.7816164E-02  0.1184000E+00
        -11   -1    0    0    0    0  0.00000000000E+00  0.00000000000E+00  0.45593999997E+02  0.45594000000E+02  0.51100000000E-03 0. -1.
         11   -1    0    0    0    0 -0.00000000000E+00 -0.00000000000E+00 -0.45593999997E+02  0.45594000000E+02  0.51100000000E-03 0.  1.
         23    2    1    2    0    0 -0.35527136788E-14  0.00000000000E+00  0.35527136788E-14  0.91188000000E+02  0.91188000000E+02 0.  0.
    9900012    2    3    3    0    0  0.23522657643E+02  0.17227395513E+02 -0.22487354317E+02  0.54367086338E+02  0.40000004924E+02 0.  0.
         12    1    3    3    0    0 -0.23522657643E+02 -0.17227395513E+02  0.22487354317E+02  0.36820913662E+02  0.00000000000E+00 0. -1.
         11    1    4    4    0    0  0.44225187925E+01  0.10896439223E+02 -0.16943923669E+02  0.20624926903E+02  0.51100000000E-03 0. -1.
        -11    1    4    4    0    0  0.11162699112E+02  0.22477126639E+01 -0.16225026954E+02  0.19821946514E+02  0.51100000000E-03 0.  1.
         12    1    4    4    0    0  0.79374397384E+01  0.40832436256E+01  0.10681596306E+02  0.13920212920E+02  0.00000000000E+00 0. -1.
</event>
<event>
 8    1  0.3146747E-007  0.9118800E+02  0.7816164E-02  0.1184000E+00
        -11   -1    0    0    0    0  0.00000000000E+00  0.00000000000E+00  0.45593999997E+02  0.45594000000E+02  0.51100000000E-03 0.  1.
         11   -1    0    0    0    0 -0.00000000000E+00 -0.00000000000E+00 -0.45593999997E+02  0.45594000000E+02  0.51100000000E-03 0. -1.
         23    2    1    2    0    0  0.35527136788E-14  0.00000000000E+00 -0.35527136788E-14  0.91188000000E+02  0.91188000000E+02 0.  0.
    9900012    2    3    3    0    0  0.26849075260E+02 -0.15874247001E+02  0.19568221021E+02  0.54367084285E+02  0.40000000244E+02 0.  0.
         12    1    3    3    0    0 -0.26849075260E+02  0.15874247001E+02 -0.19568221021E+02  0.36820915715E+02  0.00000000000E+00 0. -1.
         11    1    4    4    0    0  0.16999433099E+02 -0.10663820723E+02  0.13778657107E+02  0.24342333291E+02  0.51100000000E-03 0. -1.
        -11    1    4    4    0    0  0.11515309693E+02  0.21682528007E+01  0.14398976538E+02  0.18564326089E+02  0.51100000000E-03 0.  1.
         12    1    4    4    0    0 -0.16656675321E+01 -0.73786790784E+01 -0.86094126242E+01  0.11460424905E+02  0.00000000000E+00 0. -1.
</event>
<event>
 8    1  0.3146747E-007  0.9118800E+02  0.7816164E-02  0.1184000E+00
        -11   -1    0    0    0    0  0.00000000000E+00  0.00000000000E+00  0.45593999997E+02  0.45594000000E+02  0.51100000000E-03 0.  1.
         11   -1    0    0    0    0 -0.00000000000E+00 -0.00000000000E+00 -0.45593999997E+02  0.45594000000E+02  0.51100000000E-03 0. -1.
         23    2    1    2    0    0  0.00000000000E+00 -0.88817841970E-15 -0.35527136788E-14  0.91188000000E+02  0.91188000000E+02 0.  0.
    9900012    2    3    3    0    0  0.26108858467E+02  0.22262542996E+01  0.25867989911E+02  0.54367060296E+02  0.39999945557E+02 0.  0.
        -12    1    3    3    0    0 -0.26108858467E+02 -0.22262542996E+01 -0.25867989911E+02  0.36820939704E+02  0.00000000000E+00 0.  1.
         11    1    4    4    0    0  0.12881816260E+02  0.59401048703E+01  0.38643592387E+00  0.14190678948E+02  0.51100000000E-03 0. -1.
        -11    1    4    4    0    0  0.17919742283E+02 -0.11897507090E+02  0.19289542799E+02  0.28892114843E+02  0.51100000000E-03 0.  1.
        -12    1    4    4    0    0 -0.46927000757E+01  0.81836565189E+01  0.61920111877E+01  0.11284266506E+02  0.00000000000E+00 0.  1.
</event>
<event>
 8    1  0.3146747E-007  0.9118800E+02  0.7816164E-02  0.1184000E+00
        -11   -1    0    0    0    0  0.00000000000E+00  0.00000000000E+00  0.45593999997E+02  0.45594000000E+02  0.51100000000E-03 0.  1.
         11   -1    0    0    0    0 -0.00000000000E+00 -0.00000000000E+00 -0.45593999997E+02  0.45594000000E+02  0.51100000000E-03 0. -1.
         23    2    1    2    0    0  0.00000000000E+00  0.00000000000E+00  0.00000000000E+00  0.91188000000E+02  0.91188000000E+02 0.  0.
    9900012    2    3    3    0    0 -0.14045274580E+02 -0.65807281727E+01 -0.33394695489E+02  0.54367062911E+02  0.39999951518E+02 0.  0.
        -12    1    3    3    0    0  0.14045274580E+02  0.65807281727E+01  0.33394695489E+02  0.36820937089E+02  0.00000000000E+00 0.  1.
         11    1    4    4    0    0 -0.22607117982E+02  0.51369056920E+00 -0.16166384137E+02  0.27797439410E+02  0.51100000000E-03 0. -1.
        -11    1    4    4    0    0  0.41485863673E+01 -0.23581797624E+01  0.27919480227E+01  0.55287208884E+01  0.51100000000E-03 0.  1.
         12    1    4    4    0    0  0.44132570344E+01 -0.47362389795E+01 -0.20020259375E+02  0.21040902613E+02  0.00000000000E+00 0. -1.
</event>
<event>
 8    1  0.3146747E-007  0.9118800E+02  0.7816164E-02  0.1184000E+00
        -11   -1    0    0    0    0  0.00000000000E+00  0.00000000000E+00  0.45593999997E+02  0.45594000000E+02  0.51100000000E-03 0.  1.
         11   -1    0    0    0    0 -0.00000000000E+00 -0.00000000000E+00 -0.45593999997E+02  0.45594000000E+02  0.51100000000E-03 0. -1.
         23    2    1    2    0    0  0.44408920985E-15  0.00000000000E+00 -0.35527136788E-14  0.91188000000E+02  0.91188000000E+02 0.  0.
    9900012    2    3    3    0    0  0.10341521888E+01  0.19500073028E+02  0.31216303038E+02  0.54367083469E+02  0.39999998385E+02 0.  0.
        -12    1    3    3    0    0 -0.10341521888E+01 -0.19500073028E+02 -0.31216303038E+02  0.36820916531E+02  0.00000000000E+00 0.  1.
         11    1    4    4    0    0  0.66601361830E+01  0.39189455177E+01 -0.35142479900E+01  0.84891393641E+01  0.51100000000E-03 0. -1.
        -11    1    4    4    0    0 -0.94189270166E+01  0.76369251617E+00  0.18713311818E+01  0.96333427768E+01  0.51100000000E-03 0.  1.
        -12    1    4    4    0    0  0.37929430225E+01  0.14817434994E+02  0.32859219846E+02  0.36244601328E+02  0.00000000000E+00 0.  1.
</event>
<event>
 8    1  0.3146747E-007  0.9118800E+02  0.7816164E-02  0.1184000E+00
        -11   -1    0    0    0    0  0.00000000000E+00  0.00000000000E+00  0.45593999997E+02  0.45594000000E+02  0.51100000000E-03 0.  1.
         11   -1    0    0    0    0 -0.00000000000E+00 -0.00000000000E+00 -0.45593999997E+02  0.45594000000E+02  0.51100000000E-03 0. -1.
         23    2    1    2    0    0  0.00000000000E+00  0.00000000000E+00  0.00000000000E+00  0.91188000000E+02  0.91188000000E+02 0.  0.
    9900012    2    3    3    0    0 -0.23634625906E+02 -0.15975177422E+02  0.23280410685E+02  0.54367090763E+02  0.40000015012E+02 0.  0.
         12    1    3    3    0    0  0.23634625906E+02  0.15975177422E+02 -0.23280410685E+02  0.36820909237E+02  0.00000000000E+00 0. -1.
         11    1    4    4    0    0  0.45229708078E+01 -0.46452751399E+01  0.13294820038E+02  0.14791486949E+02  0.51100000000E-03 0. -1.
        -11    1    4    4    0    0 -0.13645932512E+01 -0.73367284353E+01 -0.46431074922E+01  0.87890924628E+01  0.51100000000E-03 0.  1.
        -12    1    4    4    0    0 -0.26793003463E+02 -0.39931738469E+01  0.14628698138E+02  0.30786511351E+02  0.00000000000E+00 0.  1.
</event>
<event>
 8    1  0.3146747E-007  0.9118800E+02  0.7816164E-02  0.1184000E+00
        -11   -1    0    0    0    0  0.00000000000E+00  0.00000000000E+00  0.45593999997E+02  0.45594000000E+02  0.51100000000E-03 0.  1.
         11   -1    0    0    0    0 -0.00000000000E+00 -0.00000000000E+00 -0.45593999997E+02  0.45594000000E+02  0.51100000000E-03 0. -1.
         23    2    1    2    0    0  0.35527136788E-14 -0.44408920985E-15  0.00000000000E+00  0.91188000000E+02  0.91188000000E+02 0.  0.
    9900012    2    3    3    0    0 -0.22080755689E+02  0.51428630982E+00 -0.29461099681E+02  0.54367073116E+02  0.39999974782E+02 0.  0.
         12    1    3    3    0    0  0.22080755689E+02 -0.51428630982E+00  0.29461099681E+02  0.36820926884E+02  0.00000000000E+00 0. -1.
         11    1    4    4    0    0 -0.24722223966E+01  0.87604688293E+01 -0.21274661703E+02  0.23140201566E+02  0.51100000000E-03 0. -1.
        -11    1    4    4    0    0 -0.19702554048E+02 -0.14063973005E+02 -0.76330304382E+01  0.25382063089E+02  0.51100000000E-03 0.  1.
         12    1    4    4    0    0  0.94020755183E-01  0.58177904860E+01 -0.55340754011E+00  0.58448084611E+01  0.00000000000E+00 0. -1.
</event>
<event>
 8    1  0.3146747E-007  0.9118800E+02  0.7816164E-02  0.1184000E+00
        -11   -1    0    0    0    0  0.00000000000E+00  0.00000000000E+00  0.45593999997E+02  0.45594000000E+02  0.51100000000E-03 0. -1.
         11   -1    0    0    0    0 -0.00000000000E+00 -0.00000000000E+00 -0.45593999997E+02  0.45594000000E+02  0.51100000000E-03 0.  1.
         23    2    1    2    0    0  0.00000000000E+00 -0.17763568394E-14  0.17763568394E-14  0.91188000000E+02  0.91188000000E+02 0.  0.
    9900012    2    3    3    0    0 -0.32336223461E+02  0.15071396311E+02  0.91105318510E+01  0.54367080333E+02  0.39999991236E+02 0.  0.
         12    1    3    3    0    0  0.32336223461E+02 -0.15071396311E+02 -0.91105318510E+01  0.36820919667E+02  0.00000000000E+00 0. -1.
         11    1    4    4    0    0 -0.11918736550E+01 -0.52289382732E+01 -0.49520975541E+01  0.72997005912E+01  0.51100000000E-03 0. -1.
        -11    1    4    4    0    0 -0.15424046985E+02 -0.20656526236E+01  0.12000997309E+02  0.19651770476E+02  0.51100000000E-03 0.  1.
        -12    1    4    4    0    0 -0.15720302821E+02  0.22365987208E+02  0.20616320963E+01  0.27415609266E+02  0.00000000000E+00 0.  1.
</event>
<event>
 8    1  0.3146747E-007  0.9118800E+02  0.7816164E-02  0.1184000E+00
        -11   -1    0    0    0    0  0.00000000000E+00  0.00000000000E+00  0.45593999997E+02  0.45594000000E+02  0.51100000000E-03 0. -1.
         11   -1    0    0    0    0 -0.00000000000E+00 -0.00000000000E+00 -0.45593999997E+02  0.45594000000E+02  0.51100000000E-03 0.  1.
         23    2    1    2    0    0 -0.35527136788E-14  0.17763568394E-14  0.00000000000E+00  0.91188000000E+02  0.91188000000E+02 0.  0.
    9900012    2    3    3    0    0 -0.17161911065E+02  0.10177081946E+02  0.30946314024E+02  0.54367101858E+02  0.40000040305E+02 0.  0.
        -12    1    3    3    0    0  0.17161911065E+02 -0.10177081946E+02 -0.30946314024E+02  0.36820898142E+02  0.00000000000E+00 0.  1.
         11    1    4    4    0    0 -0.13390540871E+02 -0.23877937118E+01  0.58872005045E+01  0.14821176528E+02  0.51100000000E-03 0. -1.
        -11    1    4    4    0    0  0.82654917040E+01  0.15946561893E+02  0.16537581173E+02  0.24415216170E+02  0.51100000000E-03 0.  1.
        -12    1    4    4    0    0 -0.12036861898E+02 -0.33816862355E+01  0.85215323460E+01  0.15130709159E+02  0.00000000000E+00 0.  1.
</event>
<event>
 8    1  0.3146747E-007  0.9118800E+02  0.7816164E-02  0.1184000E+00
        -11   -1    0    0    0    0  0.00000000000E+00  0.00000000000E+00  0.45593999997E+02  0.45594000000E+02  0.51100000000E-03 0.  1.
         11   -1    0    0    0    0 -0.00000000000E+00 -0.00000000000E+00 -0.45593999997E+02  0.45594000000E+02  0.51100000000E-03 0. -1.
         23    2    1    2    0    0 -0.35527136788E-14 -0.35527136788E-14  0.00000000000E+00  0.91188000000E+02  0.91188000000E+02 0.  0.
    9900012    2    3    3    0    0  0.25955189158E+02 -0.23987109212E+02  0.10330850429E+02  0.54367085791E+02  0.40000003679E+02 0.  0.
        -12    1    3    3    0    0 -0.25955189158E+02  0.23987109212E+02 -0.10330850429E+02  0.36820914209E+02  0.00000000000E+00 0.  1.
         11    1    4    4    0    0  0.19121700369E+02  0.18301591098E+01 -0.71179680166E+00  0.19222267356E+02  0.51100000000E-03 0. -1.
        -11    1    4    4    0    0 -0.18037060566E+01 -0.21033607465E+02  0.11103312530E+01  0.21139981890E+02  0.51100000000E-03 0.  1.
         12    1    4    4    0    0  0.86371948459E+01 -0.47836608565E+01  0.99323159777E+01  0.14004836546E+02  0.00000000000E+00 0. -1.
</event>
<event>
 8    1  0.3146747E-007  0.9118800E+02  0.7816164E-02  0.1184000E+00
        -11   -1    0    0    0    0  0.00000000000E+00  0.00000000000E+00  0.45593999997E+02  0.45594000000E+02  0.51100000000E-03 0.  1.
         11   -1    0    0    0    0 -0.00000000000E+00 -0.00000000000E+00 -0.45593999997E+02  0.45594000000E+02  0.51100000000E-03 0. -1.
         23    2    1    2    0    0  0.00000000000E+00  0.00000000000E+00 -0.35527136788E-14  0.91188000000E+02  0.91188000000E+02 0.  0.
    9900012    2    3    3    0    0 -0.28781988891E+02  0.10529873471E+02 -0.20408339283E+02  0.54367062585E+02  0.39999950775E+02 0.  0.
        -12    1    3    3    0    0  0.28781988891E+02 -0.10529873471E+02  0.20408339283E+02  0.36820937415E+02  0.00000000000E+00 0.  1.
         11    1    4    4    0    0 -0.10867873666E+02 -0.42071296182E+01 -0.20249206216E+02  0.23363239721E+02  0.51100000000E-03 0. -1.
        -11    1    4    4    0    0 -0.20758852681E+02  0.90188407461E+01 -0.47650585592E+01  0.23129531694E+02  0.51100000000E-03 0.  1.
         12    1    4    4    0    0  0.28447374562E+01  0.57181623435E+01  0.46059254923E+01  0.78742911695E+01  0.00000000000E+00 0. -1.
</event>
<event>
 8    1  0.3146747E-007  0.9118800E+02  0.7816164E-02  0.1184000E+00
        -11   -1    0    0    0    0  0.00000000000E+00  0.00000000000E+00  0.45593999997E+02  0.45594000000E+02  0.51100000000E-03 0.  1.
         11   -1    0    0    0    0 -0.00000000000E+00 -0.00000000000E+00 -0.45593999997E+02  0.45594000000E+02  0.51100000000E-03 0. -1.
         23    2    1    2    0    0  0.00000000000E+00  0.00000000000E+00 -0.66613381478E-15  0.91188000000E+02  0.91188000000E+02 0.  0.
    9900012    2    3    3    0    0  0.36259138304E+02 -0.63844705922E+01  0.54248079027E+00  0.54367070345E+02  0.39999968464E+02 0.  0.
        -12    1    3    3    0    0 -0.36259138304E+02  0.63844705922E+01 -0.54248079027E+00  0.36820929655E+02  0.00000000000E+00 0.  1.
         11    1    4    4    0    0  0.23284080944E+02 -0.66910810274E+01  0.91628082804E+01  0.25901274999E+02  0.51100000000E-03 0. -1.
        -11    1    4    4    0    0  0.25189959190E+01 -0.10343441036E+02  0.10257262136E+01  0.10695056215E+02  0.51100000000E-03 0.  1.
        -12    1    4    4    0    0  0.10456061441E+02  0.10650051472E+02 -0.96460537037E+01  0.17770739131E+02  0.00000000000E+00 0.  1.
</event>
<event>
 8    1  0.3146747E-007  0.9118800E+02  0.7816164E-02  0.1184000E+00
        -11   -1    0    0    0    0  0.00000000000E+00  0.00000000000E+00  0.45593999997E+02  0.45594000000E+02  0.51100000000E-03 0.  1.
         11   -1    0    0    0    0 -0.00000000000E+00 -0.00000000000E+00 -0.45593999997E+02  0.45594000000E+02  0.51100000000E-03 0. -1.
         23    2    1    2    0    0 -0.71054273576E-14  0.88817841970E-15  0.00000000000E+00  0.91188000000E+02  0.91188000000E+02 0.  0.
    9900012    2    3    3    0    0 -0.36310328942E+02 -0.47501898061E+01 -0.38441729981E+01  0.54367055456E+02  0.39999934523E+02 0.  0.
         12    1    3    3    0    0  0.36310328942E+02  0.47501898061E+01  0.38441729981E+01  0.36820944544E+02  0.00000000000E+00 0. -1.
         11    1    4    4    0    0 -0.88976149315E+01 -0.81383208864E+01 -0.16500651519E+02  0.20437008566E+02  0.51100000000E-03 0. -1.
        -11    1    4    4    0    0 -0.12733474503E+02  0.34837494385E+00  0.13941256599E+02  0.18884421459E+02  0.51100000000E-03 0.  1.
        -12    1    4    4    0    0 -0.14679239508E+02  0.30397561364E+01 -0.12847780783E+01  0.15045625431E+02  0.00000000000E+00 0.  1.
</event>
<event>
 8    1  0.3146747E-007  0.9118800E+02  0.7816164E-02  0.1184000E+00
        -11   -1    0    0    0    0  0.00000000000E+00  0.00000000000E+00  0.45593999997E+02  0.45594000000E+02  0.51100000000E-03 0.  1.
         11   -1    0    0    0    0 -0.00000000000E+00 -0.00000000000E+00 -0.45593999997E+02  0.45594000000E+02  0.51100000000E-03 0. -1.
         23    2    1    2    0    0  0.00000000000E+00 -0.88817841970E-15  0.17763568394E-14  0.91188000000E+02  0.91188000000E+02 0.  0.
    9900012    2    3    3    0    0 -0.34776224428E+02 -0.56889624337E+01 -0.10678534042E+02  0.54367066168E+02  0.39999958942E+02 0.  0.
        -12    1    3    3    0    0  0.34776224428E+02  0.56889624337E+01  0.10678534042E+02  0.36820933832E+02  0.00000000000E+00 0.  1.
         11    1    4    4    0    0 -0.18481214992E+02  0.30206313933E+01 -0.23236752639E+01  0.18870055341E+02  0.51100000000E-03 0. -1.
        -11    1    4    4    0    0  0.19167497141E+01 -0.96157821659E+01  0.66795186011E+01  0.11863943911E+02  0.51100000000E-03 0.  1.
        -12    1    4    4    0    0 -0.18211759150E+02  0.90618833889E+00 -0.15034377379E+02  0.23633066915E+02  0.00000000000E+00 0.  1.
</event>
<event>
 8    1  0.3146747E-007  0.9118800E+02  0.7816164E-02  0.1184000E+00
        -11   -1    0    0    0    0  0.00000000000E+00  0.00000000000E+00  0.45593999997E+02  0.45594000000E+02  0.51100000000E-03 0.  1.
         11   -1    0    0    0    0 -0.00000000000E+00 -0.00000000000E+00 -0.45593999997E+02  0.45594000000E+02  0.51100000000E-03 0. -1.
         23    2    1    2    0    0  0.35527136788E-14  0.00000000000E+00  0.35527136788E-14  0.91188000000E+02  0.91188000000E+02 0.  0.
    9900012    2    3    3    0    0  0.24189827228E+02  0.94672532828E+01  0.26096040981E+02  0.54367082292E+02  0.39999995700E+02 0.  0.
         12    1    3    3    0    0 -0.24189827228E+02 -0.94672532828E+01 -0.26096040981E+02  0.36820917708E+02  0.00000000000E+00 0. -1.
         11    1    4    4    0    0  0.10235982272E+00  0.93336462164E+01  0.19846622894E+01  0.95428671735E+01  0.51100000000E-03 0. -1.
        -11    1    4    4    0    0  0.24344680993E+02  0.12331387690E+01  0.30098705265E+02  0.38731333346E+02  0.51100000000E-03 0.  1.
        -12    1    4    4    0    0 -0.25721358786E+00 -0.10995317026E+01 -0.59873265734E+01  0.60928817723E+01  0.00000000000E+00 0.  1.
</event>
<event>
 8    1  0.3146747E-007  0.9118800E+02  0.7816164E-02  0.1184000E+00
        -11   -1    0    0    0    0  0.00000000000E+00  0.00000000000E+00  0.45593999997E+02  0.45594000000E+02  0.51100000000E-03 0.  1.
         11   -1    0    0    0    0 -0.00000000000E+00 -0.00000000000E+00 -0.45593999997E+02  0.45594000000E+02  0.51100000000E-03 0. -1.
         23    2    1    2    0    0  0.00000000000E+00  0.00000000000E+00  0.00000000000E+00  0.91188000000E+02  0.91188000000E+02 0.  0.
    9900012    2    3    3    0    0 -0.17828219849E+02 -0.32171957281E+02  0.17026940795E+01  0.54367089835E+02  0.40000012897E+02 0.  0.
         12    1    3    3    0    0  0.17828219849E+02  0.32171957281E+02 -0.17026940795E+01  0.36820910165E+02  0.00000000000E+00 0. -1.
         11    1    4    4    0    0 -0.51427447302E+01  0.41292181947E+01  0.19592817228E+01  0.68801926855E+01  0.51100000000E-03 0. -1.
        -11    1    4    4    0    0  0.54442656922E+01 -0.45053559587E+01 -0.73591847632E+01  0.10202737960E+02  0.51100000000E-03 0.  1.
        -12    1    4    4    0    0 -0.18129740811E+02 -0.31795819517E+02  0.71025971199E+01  0.37284159189E+02  0.00000000000E+00 0.  1.
</event>
<event>
 8    1  0.3146747E-007  0.9118800E+02  0.7816164E-02  0.1184000E+00
        -11   -1    0    0    0    0  0.00000000000E+00  0.00000000000E+00  0.45593999997E+02  0.45594000000E+02  0.51100000000E-03 0. -1.
         11   -1    0    0    0    0 -0.00000000000E+00 -0.00000000000E+00 -0.45593999997E+02  0.45594000000E+02  0.51100000000E-03 0.  1.
         23    2    1    2    0    0  0.35527136788E-14 -0.35527136788E-14 -0.35527136788E-14  0.91188000000E+02  0.91188000000E+02 0.  0.
    9900012    2    3    3    0    0  0.20198102712E+02 -0.25348059057E+02 -0.17472616947E+02  0.54367084828E+02  0.40000001483E+02 0.  0.
         12    1    3    3    0    0 -0.20198102712E+02  0.25348059057E+02  0.17472616947E+02  0.36820915172E+02  0.00000000000E+00 0. -1.
         11    1    4    4    0    0  0.20160009419E+02 -0.18449664601E+02 -0.94043717734E+01  0.28900835842E+02  0.51100000000E-03 0.  1.
        -11    1    4    4    0    0 -0.10851572998E+02  0.70215355143E+00 -0.35697996369E+01  0.11445222840E+02  0.51100000000E-03 0. -1.
         12    1    4    4    0    0  0.10889666292E+02 -0.76005480078E+01 -0.44984455364E+01  0.14021026147E+02  0.00000000000E+00 0. -1.
</event>
<event>
 8    1  0.3146747E-007  0.9118800E+02  0.7816164E-02  0.1184000E+00
        -11   -1    0    0    0    0  0.00000000000E+00  0.00000000000E+00  0.45593999997E+02  0.45594000000E+02  0.51100000000E-03 0. -1.
         11   -1    0    0    0    0 -0.00000000000E+00 -0.00000000000E+00 -0.45593999997E+02  0.45594000000E+02  0.51100000000E-03 0.  1.
         23    2    1    2    0    0  0.00000000000E+00 -0.35527136788E-14  0.35527136788E-14  0.91188000000E+02  0.91188000000E+02 0.  0.
    9900012    2    3    3    0    0  0.14926097349E+02  0.28240793949E+02  0.18315245854E+02  0.54367094856E+02  0.40000024342E+02 0.  0.
        -12    1    3    3    0    0 -0.14926097349E+02 -0.28240793949E+02 -0.18315245854E+02  0.36820905144E+02  0.00000000000E+00 0.  1.
         11    1    4    4    0    0 -0.53290003291E+00  0.24248974277E+01 -0.95468461503E+01  0.98643997110E+01  0.51100000000E-03 0. -1.
        -11    1    4    4    0    0 -0.37615451334E+01  0.27283476825E+01  0.41652107515E+01  0.62403592631E+01  0.51100000000E-03 0.  1.
         12    1    4    4    0    0  0.19220542516E+02  0.23087548839E+02  0.23696881253E+02  0.38262335881E+02  0.00000000000E+00 0. -1.
</event>
<event>
 8    1  0.3146747E-007  0.9118800E+02  0.7816164E-02  0.1184000E+00
        -11   -1    0    0    0    0  0.00000000000E+00  0.00000000000E+00  0.45593999997E+02  0.45594000000E+02  0.51100000000E-03 0. -1.
         11   -1    0    0    0    0 -0.00000000000E+00 -0.00000000000E+00 -0.45593999997E+02  0.45594000000E+02  0.51100000000E-03 0.  1.
         23    2    1    2    0    0 -0.88817841970E-15 -0.44408920985E-15  0.00000000000E+00  0.91188000000E+02  0.91188000000E+02 0.  0.
    9900012    2    3    3    0    0  0.59854446777E+01 -0.28437233254E+01 -0.36219706102E+02  0.54367089902E+02  0.40000013048E+02 0.  0.
         12    1    3    3    0    0 -0.59854446777E+01  0.28437233254E+01  0.36219706102E+02  0.36820910098E+02  0.00000000000E+00 0. -1.
         11    1    4    4    0    0 -0.43655196737E+00  0.19272489481E+01 -0.21034754831E+02  0.21127370333E+02  0.51100000000E-03 0.  1.
        -11    1    4    4    0    0  0.14442944277E+02 -0.11547213528E+02 -0.12749652144E+02  0.22460863957E+02  0.51100000000E-03 0. -1.
        -12    1    4    4    0    0 -0.80209476324E+01  0.67762412541E+01 -0.24352991280E+01  0.10778855612E+02  0.00000000000E+00 0.  1.
</event>
<event>
 8    1  0.3146747E-007  0.9118800E+02  0.7816164E-02  0.1184000E+00
        -11   -1    0    0    0    0  0.00000000000E+00  0.00000000000E+00  0.45593999997E+02  0.45594000000E+02  0.51100000000E-03 0. -1.
         11   -1    0    0    0    0 -0.00000000000E+00 -0.00000000000E+00 -0.45593999997E+02  0.45594000000E+02  0.51100000000E-03 0.  1.
         23    2    1    2    0    0  0.17763568394E-14  0.00000000000E+00  0.00000000000E+00  0.91188000000E+02  0.91188000000E+02 0.  0.
    9900012    2    3    3    0    0  0.69185949435E+01  0.23052986140E+02  0.27865266141E+02  0.54367079546E+02  0.39999989442E+02 0.  0.
        -12    1    3    3    0    0 -0.69185949435E+01 -0.23052986140E+02 -0.27865266141E+02  0.36820920454E+02  0.00000000000E+00 0.  1.
         11    1    4    4    0    0  0.53506617691E+01 -0.41170412302E+01 -0.36854042670E+01  0.76916717774E+01  0.51100000000E-03 0.  1.
        -11    1    4    4    0    0  0.69478288146E+01  0.99529897403E+01  0.24436637764E+02  0.27285226689E+02  0.51100000000E-03 0. -1.
        -12    1    4    4    0    0 -0.53798956402E+01  0.17217037630E+02  0.71140326440E+01  0.19390181080E+02  0.00000000000E+00 0.  1.
</event>
<event>
 8    1  0.3146747E-007  0.9118800E+02  0.7816164E-02  0.1184000E+00
        -11   -1    0    0    0    0  0.00000000000E+00  0.00000000000E+00  0.45593999997E+02  0.45594000000E+02  0.51100000000E-03 0.  1.
         11   -1    0    0    0    0 -0.00000000000E+00 -0.00000000000E+00 -0.45593999997E+02  0.45594000000E+02  0.51100000000E-03 0. -1.
         23    2    1    2    0    0  0.00000000000E+00 -0.17763568394E-14  0.00000000000E+00  0.91188000000E+02  0.91188000000E+02 0.  0.
    9900012    2    3    3    0    0  0.10756114607E+02 -0.13086292366E+02 -0.32693042741E+02  0.54367080770E+02  0.39999992230E+02 0.  0.
        -12    1    3    3    0    0 -0.10756114607E+02  0.13086292366E+02  0.32693042741E+02  0.36820919230E+02  0.00000000000E+00 0.  1.
         11    1    4    4    0    0  0.88693314411E-01 -0.72232612232E+01 -0.26590457737E+02  0.27554234015E+02  0.51100000000E-03 0. -1.
        -11    1    4    4    0    0  0.54965477288E+01 -0.13148886506E+02 -0.96379283100E+01  0.17204502773E+02  0.51100000000E-03 0.  1.
         12    1    4    4    0    0  0.51708735634E+01  0.72858553638E+01  0.35353433059E+01  0.96083439823E+01  0.00000000000E+00 0. -1.
</event>
<event>
 8    1  0.3146747E-007  0.9118800E+02  0.7816164E-02  0.1184000E+00
        -11   -1    0    0    0    0  0.00000000000E+00  0.00000000000E+00  0.45593999997E+02  0.45594000000E+02  0.51100000000E-03 0.  1.
         11   -1    0    0    0    0 -0.00000000000E+00 -0.00000000000E+00 -0.45593999997E+02  0.45594000000E+02  0.51100000000E-03 0. -1.
         23    2    1    2    0    0  0.17763568394E-14  0.35527136788E-14  0.35527136788E-14  0.91188000000E+02  0.91188000000E+02 0.  0.
    9900012    2    3    3    0    0  0.10104638746E+02  0.20742894832E+02  0.28695092025E+02  0.54367085881E+02  0.40000003883E+02 0.  0.
         12    1    3    3    0    0 -0.10104638746E+02 -0.20742894832E+02 -0.28695092025E+02  0.36820914119E+02  0.00000000000E+00 0. -1.
         11    1    4    4    0    0  0.83905814884E+01  0.53373780074E+01 -0.16660598221E+00  0.99457136256E+01  0.51100000000E-03 0. -1.
        -11    1    4    4    0    0 -0.16122038873E+01  0.11194288978E+02  0.34696930389E+02  0.36493674599E+02  0.51100000000E-03 0.  1.
        -12    1    4    4    0    0  0.33262611452E+01  0.42112278466E+01 -0.58352323810E+01  0.79276976559E+01  0.00000000000E+00 0.  1.
</event>
<event>
 8    1  0.3146747E-007  0.9118800E+02  0.7816164E-02  0.1184000E+00
        -11   -1    0    0    0    0  0.00000000000E+00  0.00000000000E+00  0.45593999997E+02  0.45594000000E+02  0.51100000000E-03 0. -1.
         11   -1    0    0    0    0 -0.00000000000E+00 -0.00000000000E+00 -0.45593999997E+02  0.45594000000E+02  0.51100000000E-03 0.  1.
         23    2    1    2    0    0  0.00000000000E+00  0.00000000000E+00  0.35527136788E-14  0.91188000000E+02  0.91188000000E+02 0.  0.
    9900012    2    3    3    0    0 -0.25019575353E+02 -0.90528317628E+01  0.25452838434E+02  0.54367083416E+02  0.39999998263E+02 0.  0.
        -12    1    3    3    0    0  0.25019575353E+02  0.90528317628E+01 -0.25452838434E+02  0.36820916584E+02  0.00000000000E+00 0.  1.
         11    1    4    4    0    0 -0.88217968869E+01  0.49354352259E+00  0.30814951895E+02  0.32056652134E+02  0.51100000000E-03 0. -1.
        -11    1    4    4    0    0 -0.24567783887E+00  0.36543386716E+00  0.20672859733E+01  0.21136629505E+01  0.51100000000E-03 0.  1.
         12    1    4    4    0    0 -0.15952100627E+02 -0.99118091526E+01 -0.74293994340E+01  0.20196768331E+02  0.00000000000E+00 0. -1.
</event>
<event>
 8    1  0.3146747E-007  0.9118800E+02  0.7816164E-02  0.1184000E+00
        -11   -1    0    0    0    0  0.00000000000E+00  0.00000000000E+00  0.45593999997E+02  0.45594000000E+02  0.51100000000E-03 0. -1.
         11   -1    0    0    0    0 -0.00000000000E+00 -0.00000000000E+00 -0.45593999997E+02  0.45594000000E+02  0.51100000000E-03 0.  1.
         23    2    1    2    0    0 -0.17763568394E-14  0.00000000000E+00 -0.66613381478E-15  0.91188000000E+02  0.91188000000E+02 0.  0.
    9900012    2    3    3    0    0 -0.82577643280E+01 -0.35859180734E+02 -0.13070313946E+01  0.54367084128E+02  0.39999999887E+02 0.  0.
         12    1    3    3    0    0  0.82577643280E+01  0.35859180734E+02  0.13070313946E+01  0.36820915872E+02  0.00000000000E+00 0. -1.
         11    1    4    4    0    0  0.17780007046E+01  0.18901190094E+01  0.16953914004E+01  0.30997078309E+01  0.51100000000E-03 0.  1.
        -11    1    4    4    0    0  0.33581416587E+01 -0.12404710106E+02  0.13130871754E+02  0.18373179950E+02  0.51100000000E-03 0. -1.
        -12    1    4    4    0    0 -0.13393906691E+02 -0.25344589637E+02 -0.16133294549E+02  0.32894196347E+02  0.00000000000E+00 0.  1.
</event>
<event>
 8    1  0.3146747E-007  0.9118800E+02  0.7816164E-02  0.1184000E+00
        -11   -1    0    0    0    0  0.00000000000E+00  0.00000000000E+00  0.45593999997E+02  0.45594000000E+02  0.51100000000E-03 0.  1.
         11   -1    0    0    0    0 -0.00000000000E+00 -0.00000000000E+00 -0.45593999997E+02  0.45594000000E+02  0.51100000000E-03 0. -1.
         23    2    1    2    0    0 -0.22204460493E-15  0.35527136788E-14  0.35527136788E-14  0.91188000000E+02  0.91188000000E+02 0.  0.
    9900012    2    3    3    0    0 -0.15246469774E+01  0.18244154029E+02  0.31946934390E+02  0.54367077666E+02  0.39999985155E+02 0.  0.
         12    1    3    3    0    0  0.15246469774E+01 -0.18244154029E+02 -0.31946934390E+02  0.36820922334E+02  0.00000000000E+00 0. -1.
         11    1    4    4    0    0 -0.62546760444E+01 -0.67037595738E+01 -0.78508988564E+00  0.92020503820E+01  0.51100000000E-03 0. -1.
        -11    1    4    4    0    0 -0.66353300139E+00  0.11400675911E+02  0.26323573211E+01  0.11719427998E+02  0.51100000000E-03 0.  1.
        -12    1    4    4    0    0  0.53935620683E+01  0.13547237692E+02  0.30099666954E+02  0.33445599286E+02  0.00000000000E+00 0.  1.
</event>
<event>
 8    1  0.3146747E-007  0.9118800E+02  0.7816164E-02  0.1184000E+00
        -11   -1    0    0    0    0  0.00000000000E+00  0.00000000000E+00  0.45593999997E+02  0.45594000000E+02  0.51100000000E-03 0.  1.
         11   -1    0    0    0    0 -0.00000000000E+00 -0.00000000000E+00 -0.45593999997E+02  0.45594000000E+02  0.51100000000E-03 0. -1.
         23    2    1    2    0    0 -0.22204460493E-14 -0.71054273576E-14 -0.35527136788E-14  0.91188000000E+02  0.91188000000E+02 0.  0.
    9900012    2    3    3    0    0 -0.65849136341E-01  0.25473833620E+02  0.26586819003E+02  0.54367089092E+02  0.40000011202E+02 0.  0.
         12    1    3    3    0    0  0.65849136341E-01 -0.25473833620E+02 -0.26586819003E+02  0.36820910908E+02  0.00000000000E+00 0. -1.
         11    1    4    4    0    0  0.85029960324E+01  0.23597356308E+02  0.23252280537E+02  0.34202408054E+02  0.51100000000E-03 0. -1.
        -11    1    4    4    0    0 -0.80385417476E+00 -0.21413151173E+01  0.93022088089E+01  0.95792745525E+01  0.51100000000E-03 0.  1.
         12    1    4    4    0    0 -0.77649909939E+01  0.40177924287E+01 -0.59676703427E+01  0.10585406485E+02  0.00000000000E+00 0. -1.
</event>
<event>
 8    1  0.3146747E-007  0.9118800E+02  0.7816164E-02  0.1184000E+00
        -11   -1    0    0    0    0  0.00000000000E+00  0.00000000000E+00  0.45593999997E+02  0.45594000000E+02  0.51100000000E-03 0.  1.
         11   -1    0    0    0    0 -0.00000000000E+00 -0.00000000000E+00 -0.45593999997E+02  0.45594000000E+02  0.51100000000E-03 0. -1.
         23    2    1    2    0    0  0.00000000000E+00  0.00000000000E+00  0.00000000000E+00  0.91188000000E+02  0.91188000000E+02 0.  0.
    9900012    2    3    3    0    0  0.18674882735E+02  0.71700338123E+01 -0.30913100964E+02  0.54367076040E+02  0.39999981449E+02 0.  0.
        -12    1    3    3    0    0 -0.18674882735E+02 -0.71700338123E+01  0.30913100964E+02  0.36820923960E+02  0.00000000000E+00 0.  1.
         11    1    4    4    0    0  0.37190870867E+01  0.11851123818E+02  0.74968122728E+00  0.12443583355E+02  0.51100000000E-03 0. -1.
        -11    1    4    4    0    0  0.20376085780E+02 -0.54960661427E+01 -0.20180704074E+02  0.29200212875E+02  0.51100000000E-03 0.  1.
        -12    1    4    4    0    0 -0.54202901321E+01  0.81497613663E+00 -0.11482078118E+02  0.12723279810E+02  0.00000000000E+00 0.  1.
</event>
<event>
 8    1  0.3146747E-007  0.9118800E+02  0.7816164E-02  0.1184000E+00
        -11   -1    0    0    0    0  0.00000000000E+00  0.00000000000E+00  0.45593999997E+02  0.45594000000E+02  0.51100000000E-03 0. -1.
         11   -1    0    0    0    0 -0.00000000000E+00 -0.00000000000E+00 -0.45593999997E+02  0.45594000000E+02  0.51100000000E-03 0.  1.
         23    2    1    2    0    0  0.00000000000E+00  0.77715611724E-15  0.00000000000E+00  0.91188000000E+02  0.91188000000E+02 0.  0.
    9900012    2    3    3    0    0 -0.93898950443E+01 -0.97314016184E+00  0.35590214376E+02  0.54367075378E+02  0.39999979939E+02 0.  0.
        -12    1    3    3    0    0  0.93898950443E+01  0.97314016184E+00 -0.35590214376E+02  0.36820924622E+02  0.00000000000E+00 0.  1.
         11    1    4    4    0    0  0.23984840775E+00 -0.61638062560E+01 -0.33500544168E+00  0.61775613090E+01  0.51100000000E-03 0. -1.
        -11    1    4    4    0    0 -0.13471694298E+02  0.11447054518E+02  0.81612310906E+01  0.19471191478E+02  0.51100000000E-03 0.  1.
         12    1    4    4    0    0  0.38419508457E+01 -0.62563884242E+01  0.27763988727E+02  0.28718322591E+02  0.00000000000E+00 0. -1.
</event>
<event>
 8    1  0.3146747E-007  0.9118800E+02  0.7816164E-02  0.1184000E+00
        -11   -1    0    0    0    0  0.00000000000E+00  0.00000000000E+00  0.45593999997E+02  0.45594000000E+02  0.51100000000E-03 0.  1.
         11   -1    0    0    0    0 -0.00000000000E+00 -0.00000000000E+00 -0.45593999997E+02  0.45594000000E+02  0.51100000000E-03 0. -1.
         23    2    1    2    0    0  0.00000000000E+00  0.00000000000E+00 -0.35527136788E-14  0.91188000000E+02  0.91188000000E+02 0.  0.
    9900012    2    3    3    0    0  0.20038347158E+02  0.30173401832E+02  0.66191470560E+01  0.54367046147E+02  0.39999913300E+02 0.  0.
         12    1    3    3    0    0 -0.20038347158E+02 -0.30173401832E+02 -0.66191470560E+01  0.36820953853E+02  0.00000000000E+00 0. -1.
         11    1    4    4    0    0  0.18524447319E+02  0.34549148165E+01 -0.49643298407E+01  0.19486820056E+02  0.51100000000E-03 0. -1.
        -11    1    4    4    0    0  0.55639278390E+00  0.22351025437E+02  0.16831853808E+02  0.27985517931E+02  0.51100000000E-03 0.  1.
        -12    1    4    4    0    0  0.95750705494E+00  0.43674615785E+01 -0.52483769114E+01  0.68947081594E+01  0.00000000000E+00 0.  1.
</event>
<event>
 8    1  0.3146747E-007  0.9118800E+02  0.7816164E-02  0.1184000E+00
        -11   -1    0    0    0    0  0.00000000000E+00  0.00000000000E+00  0.45593999997E+02  0.45594000000E+02  0.51100000000E-03 0.  1.
         11   -1    0    0    0    0 -0.00000000000E+00 -0.00000000000E+00 -0.45593999997E+02  0.45594000000E+02  0.51100000000E-03 0. -1.
         23    2    1    2    0    0 -0.17763568394E-14  0.35527136788E-14 -0.35527136788E-14  0.91188000000E+02  0.91188000000E+02 0.  0.
    9900012    2    3    3    0    0  0.15453822543E+02  0.11986293191E+02 -0.31197556039E+02  0.54367090744E+02  0.40000014969E+02 0.  0.
        -12    1    3    3    0    0 -0.15453822543E+02 -0.11986293191E+02  0.31197556039E+02  0.36820909256E+02  0.00000000000E+00 0.  1.
         11    1    4    4    0    0  0.82290039466E+01  0.13348095598E+02 -0.96880351980E+01  0.18432205194E+02  0.51100000000E-03 0. -1.
        -11    1    4    4    0    0  0.63654660270E+01  0.69428406603E+01 -0.25128070081E+02  0.26835463485E+02  0.51100000000E-03 0.  1.
        -12    1    4    4    0    0  0.85935256969E+00 -0.83046430676E+01  0.36185492405E+01  0.90994220654E+01  0.00000000000E+00 0.  1.
</event>
<event>
 8    1  0.3146747E-007  0.9118800E+02  0.7816164E-02  0.1184000E+00
        -11   -1    0    0    0    0  0.00000000000E+00  0.00000000000E+00  0.45593999997E+02  0.45594000000E+02  0.51100000000E-03 0. -1.
         11   -1    0    0    0    0 -0.00000000000E+00 -0.00000000000E+00 -0.45593999997E+02  0.45594000000E+02  0.51100000000E-03 0.  1.
         23    2    1    2    0    0  0.00000000000E+00 -0.17763568394E-14  0.00000000000E+00  0.91188000000E+02  0.91188000000E+02 0.  0.
    9900012    2    3    3    0    0  0.11975744475E+02 -0.13714304364E+02  0.32004429188E+02  0.54367026526E+02  0.39999868572E+02 0.  0.
        -12    1    3    3    0    0 -0.11975744475E+02  0.13714304364E+02 -0.32004429188E+02  0.36820973474E+02  0.00000000000E+00 0.  1.
         11    1    4    4    0    0 -0.48018923861E+01 -0.86081234589E+01  0.32303537403E+02  0.33773902484E+02  0.51100000000E-03 0. -1.
        -11    1    4    4    0    0 -0.56119700917E+00  0.10950655900E+01 -0.17302560121E+01  0.21231808350E+01  0.51100000000E-03 0.  1.
        -12    1    4    4    0    0  0.17338833870E+02 -0.62012464952E+01  0.14311477962E+01  0.18469943207E+02  0.00000000000E+00 0.  1.
</event>
<event>
 8    1  0.3146747E-007  0.9118800E+02  0.7816164E-02  0.1184000E+00
        -11   -1    0    0    0    0  0.00000000000E+00  0.00000000000E+00  0.45593999997E+02  0.45594000000E+02  0.51100000000E-03 0. -1.
         11   -1    0    0    0    0 -0.00000000000E+00 -0.00000000000E+00 -0.45593999997E+02  0.45594000000E+02  0.51100000000E-03 0.  1.
         23    2    1    2    0    0  0.71054273576E-14  0.00000000000E+00  0.88817841970E-15  0.91188000000E+02  0.91188000000E+02 0.  0.
    9900012    2    3    3    0    0  0.35719312920E+02 -0.74592871652E+01  0.49265490098E+01  0.54367066203E+02  0.39999959023E+02 0.  0.
        -12    1    3    3    0    0 -0.35719312920E+02  0.74592871652E+01 -0.49265490098E+01  0.36820933797E+02  0.00000000000E+00 0.  1.
         11    1    4    4    0    0  0.18303995589E+02 -0.12799512415E+01  0.29648519038E+01  0.18586685470E+02  0.51100000000E-03 0. -1.
        -11    1    4    4    0    0  0.56714466994E+01  0.10487304666E+02  0.81865804897E+01  0.14462674967E+02  0.51100000000E-03 0.  1.
         12    1    4    4    0    0  0.11743870632E+02 -0.16666640590E+02 -0.62248833837E+01  0.21317705766E+02  0.00000000000E+00 0. -1.
</event>
<event>
 8    1  0.3146747E-007  0.9118800E+02  0.7816164E-02  0.1184000E+00
        -11   -1    0    0    0    0  0.00000000000E+00  0.00000000000E+00  0.45593999997E+02  0.45594000000E+02  0.51100000000E-03 0. -1.
         11   -1    0    0    0    0 -0.00000000000E+00 -0.00000000000E+00 -0.45593999997E+02  0.45594000000E+02  0.51100000000E-03 0.  1.
         23    2    1    2    0    0 -0.35527136788E-14  0.00000000000E+00  0.17763568394E-14  0.91188000000E+02  0.91188000000E+02 0.  0.
    9900012    2    3    3    0    0 -0.20302299675E+02 -0.29153049432E+02 -0.96796847856E+01  0.54367082564E+02  0.39999996322E+02 0.  0.
         12    1    3    3    0    0  0.20302299675E+02  0.29153049432E+02  0.96796847856E+01  0.36820917436E+02  0.00000000000E+00 0. -1.
         11    1    4    4    0    0  0.35383862627E+01  0.33105173563E+01  0.27881800633E+01  0.55904964749E+01  0.51100000000E-03 0. -1.
        -11    1    4    4    0    0 -0.54428247606E+01 -0.24000112896E+02 -0.14266290179E+02  0.28445681502E+02  0.51100000000E-03 0.  1.
        -12    1    4    4    0    0 -0.18397861177E+02 -0.84634538922E+01  0.17984253299E+01  0.20330904588E+02  0.00000000000E+00 0.  1.
</event>
<event>
 8    1  0.3146747E-007  0.9118800E+02  0.7816164E-02  0.1184000E+00
        -11   -1    0    0    0    0  0.00000000000E+00  0.00000000000E+00  0.45593999997E+02  0.45594000000E+02  0.51100000000E-03 0. -1.
         11   -1    0    0    0    0 -0.00000000000E+00 -0.00000000000E+00 -0.45593999997E+02  0.45594000000E+02  0.51100000000E-03 0.  1.
         23    2    1    2    0    0  0.00000000000E+00  0.00000000000E+00  0.00000000000E+00  0.91188000000E+02  0.91188000000E+02 0.  0.
    9900012    2    3    3    0    0 -0.16867209332E+02  0.21612636672E+02  0.24579849213E+02  0.54367111881E+02  0.40000063154E+02 0.  0.
        -12    1    3    3    0    0  0.16867209332E+02 -0.21612636672E+02 -0.24579849213E+02  0.36820888119E+02  0.00000000000E+00 0.  1.
         11    1    4    4    0    0 -0.80821098000E+01  0.14207352340E+02 -0.49895955996E+01  0.17089921704E+02  0.51100000000E-03 0. -1.
        -11    1    4    4    0    0 -0.93111925604E+01 -0.43032226858E+01  0.18512904595E+02  0.21164679757E+02  0.51100000000E-03 0.  1.
         12    1    4    4    0    0  0.52609302842E+00  0.11708507018E+02  0.11056540217E+02  0.16112510420E+02  0.00000000000E+00 0. -1.
</event>
<event>
 8    1  0.3146747E-007  0.9118800E+02  0.7816164E-02  0.1184000E+00
        -11   -1    0    0    0    0  0.00000000000E+00  0.00000000000E+00  0.45593999997E+02  0.45594000000E+02  0.51100000000E-03 0. -1.
         11   -1    0    0    0    0 -0.00000000000E+00 -0.00000000000E+00 -0.45593999997E+02  0.45594000000E+02  0.51100000000E-03 0.  1.
         23    2    1    2    0    0  0.00000000000E+00 -0.88817841970E-15 -0.35527136788E-14  0.91188000000E+02  0.91188000000E+02 0.  0.
    9900012    2    3    3    0    0  0.26024631393E+02  0.43645355463E+01  0.25679693100E+02  0.54367119410E+02  0.40000080320E+02 0.  0.
        -12    1    3    3    0    0 -0.26024631393E+02 -0.43645355463E+01 -0.25679693100E+02  0.36820880590E+02  0.00000000000E+00 0.  1.
         11    1    4    4    0    0 -0.61102263844E+01  0.76636099515E+01  0.18132863368E+02  0.20612290463E+02  0.51100000000E-03 0. -1.
        -11    1    4    4    0    0  0.23672095583E+01  0.12669471912E+01 -0.87833557869E-01  0.26863639503E+01  0.51100000000E-03 0.  1.
         12    1    4    4    0    0  0.29767648219E+02 -0.45660215965E+01  0.76346632901E+01  0.31068464997E+02  0.00000000000E+00 0. -1.
</event>
<event>
 8    1  0.3146747E-007  0.9118800E+02  0.7816164E-02  0.1184000E+00
        -11   -1    0    0    0    0  0.00000000000E+00  0.00000000000E+00  0.45593999997E+02  0.45594000000E+02  0.51100000000E-03 0. -1.
         11   -1    0    0    0    0 -0.00000000000E+00 -0.00000000000E+00 -0.45593999997E+02  0.45594000000E+02  0.51100000000E-03 0.  1.
         23    2    1    2    0    0  0.10824674490E-14  0.00000000000E+00  0.00000000000E+00  0.91188000000E+02  0.91188000000E+02 0.  0.
    9900012    2    3    3    0    0  0.23484322520E+00 -0.30481211815E+02  0.20654827435E+02  0.54367064089E+02  0.39999954203E+02 0.  0.
        -12    1    3    3    0    0 -0.23484322520E+00  0.30481211815E+02 -0.20654827435E+02  0.36820935911E+02  0.00000000000E+00 0.  1.
         11    1    4    4    0    0 -0.39799900932E+01 -0.24733634363E+01 -0.19749189727E+01  0.50850912519E+01  0.51100000000E-03 0.  1.
        -11    1    4    4    0    0  0.11489830985E+02 -0.18530118539E+02  0.28569694935E+02  0.35938961839E+02  0.51100000000E-03 0. -1.
         12    1    4    4    0    0 -0.72749976668E+01 -0.94777298400E+01 -0.59399485278E+01  0.13343010998E+02  0.00000000000E+00 0. -1.
</event>
<event>
 8    1  0.3146747E-007  0.9118800E+02  0.7816164E-02  0.1184000E+00
        -11   -1    0    0    0    0  0.00000000000E+00  0.00000000000E+00  0.45593999997E+02  0.45594000000E+02  0.51100000000E-03 0.  1.
         11   -1    0    0    0    0 -0.00000000000E+00 -0.00000000000E+00 -0.45593999997E+02  0.45594000000E+02  0.51100000000E-03 0. -1.
         23    2    1    2    0    0  0.00000000000E+00  0.00000000000E+00  0.00000000000E+00  0.91188000000E+02  0.91188000000E+02 0.  0.
    9900012    2    3    3    0    0 -0.23918123116E+02 -0.13755158700E+02  0.24382338963E+02  0.54367089398E+02  0.40000011901E+02 0.  0.
         12    1    3    3    0    0  0.23918123116E+02  0.13755158700E+02 -0.24382338963E+02  0.36820910602E+02  0.00000000000E+00 0. -1.
         11    1    4    4    0    0  0.39981232494E+01  0.10479229800E+01  0.62093019121E+01  0.74591261275E+01  0.51100000000E-03 0. -1.
        -11    1    4    4    0    0 -0.11851537731E+01  0.80100685578E+01  0.36803966729E+01  0.88944425175E+01  0.51100000000E-03 0.  1.
        -12    1    4    4    0    0 -0.26731092592E+02 -0.22813150238E+02  0.14492640378E+02  0.38013520753E+02  0.00000000000E+00 0.  1.
</event>
<event>
 8    1  0.3146747E-007  0.9118800E+02  0.7816164E-02  0.1184000E+00
        -11   -1    0    0    0    0  0.00000000000E+00  0.00000000000E+00  0.45593999997E+02  0.45594000000E+02  0.51100000000E-03 0. -1.
         11   -1    0    0    0    0 -0.00000000000E+00 -0.00000000000E+00 -0.45593999997E+02  0.45594000000E+02  0.51100000000E-03 0.  1.
         23    2    1    2    0    0  0.00000000000E+00  0.00000000000E+00  0.00000000000E+00  0.91188000000E+02  0.91188000000E+02 0.  0.
    9900012    2    3    3    0    0 -0.16478977083E+02  0.17363986896E+02  0.27977035096E+02  0.54367092632E+02  0.40000019273E+02 0.  0.
        -12    1    3    3    0    0  0.16478977083E+02 -0.17363986896E+02 -0.27977035096E+02  0.36820907368E+02  0.00000000000E+00 0.  1.
         11    1    4    4    0    0 -0.79157177616E+01  0.97074359251E+00  0.23009605477E+01  0.83003223135E+01  0.51100000000E-03 0. -1.
        -11    1    4    4    0    0 -0.14625315547E+02 -0.26922295268E+01  0.19166509299E+01  0.14994049010E+02  0.51100000000E-03 0.  1.
        -12    1    4    4    0    0  0.60620562256E+01  0.19085472830E+02  0.23759423619E+02  0.31072721309E+02  0.00000000000E+00 0.  1.
</event>
<event>
 8    1  0.3146747E-007  0.9118800E+02  0.7816164E-02  0.1184000E+00
        -11   -1    0    0    0    0  0.00000000000E+00  0.00000000000E+00  0.45593999997E+02  0.45594000000E+02  0.51100000000E-03 0. -1.
         11   -1    0    0    0    0 -0.00000000000E+00 -0.00000000000E+00 -0.45593999997E+02  0.45594000000E+02  0.51100000000E-03 0.  1.
         23    2    1    2    0    0  0.00000000000E+00  0.00000000000E+00  0.00000000000E+00  0.91188000000E+02  0.91188000000E+02 0.  0.
    9900012    2    3    3    0    0  0.73738331836E+01 -0.15809158059E+01 -0.36040474615E+02  0.54366966322E+02  0.39999731324E+02 0.  0.
         12    1    3    3    0    0 -0.73738331836E+01  0.15809158059E+01  0.36040474615E+02  0.36821033678E+02  0.00000000000E+00 0. -1.
         11    1    4    4    0    0 -0.12999806807E+01  0.14619008673E+02 -0.10967005133E+02  0.18321587436E+02  0.51100000000E-03 0. -1.
        -11    1    4    4    0    0 -0.30339864425E+01 -0.13185200433E+02 -0.10604881603E+02  0.17190639844E+02  0.51100000000E-03 0.  1.
        -12    1    4    4    0    0  0.11707800307E+02 -0.30147240463E+01 -0.14468587880E+02  0.18854739042E+02  0.00000000000E+00 0.  1.
</event>
<event>
 8    1  0.3146747E-007  0.9118800E+02  0.7816164E-02  0.1184000E+00
        -11   -1    0    0    0    0  0.00000000000E+00  0.00000000000E+00  0.45593999997E+02  0.45594000000E+02  0.51100000000E-03 0.  1.
         11   -1    0    0    0    0 -0.00000000000E+00 -0.00000000000E+00 -0.45593999997E+02  0.45594000000E+02  0.51100000000E-03 0. -1.
         23    2    1    2    0    0  0.00000000000E+00  0.00000000000E+00 -0.88817841970E-15  0.91188000000E+02  0.91188000000E+02 0.  0.
    9900012    2    3    3    0    0  0.33374677223E+02 -0.14347032563E+02  0.60061565597E+01  0.54367077419E+02  0.39999984592E+02 0.  0.
         12    1    3    3    0    0 -0.33374677223E+02  0.14347032563E+02 -0.60061565597E+01  0.36820922581E+02  0.00000000000E+00 0. -1.
         11    1    4    4    0    0  0.22736679825E+01 -0.14273343546E+02  0.89142145638E+01  0.16981199122E+02  0.51100000000E-03 0. -1.
        -11    1    4    4    0    0 -0.10359031595E+01 -0.41760990944E+00  0.43050920235E+01  0.44476185745E+01  0.51100000000E-03 0.  1.
         12    1    4    4    0    0  0.32136912400E+02  0.34392089309E+00 -0.72131500276E+01  0.32938259722E+02  0.00000000000E+00 0. -1.
</event>
<event>
 8    1  0.3146747E-007  0.9118800E+02  0.7816164E-02  0.1184000E+00
        -11   -1    0    0    0    0  0.00000000000E+00  0.00000000000E+00  0.45593999997E+02  0.45594000000E+02  0.51100000000E-03 0.  1.
         11   -1    0    0    0    0 -0.00000000000E+00 -0.00000000000E+00 -0.45593999997E+02  0.45594000000E+02  0.51100000000E-03 0. -1.
         23    2    1    2    0    0  0.44408920985E-15 -0.35527136788E-14  0.35527136788E-14  0.91188000000E+02  0.91188000000E+02 0.  0.
    9900012    2    3    3    0    0 -0.36175654601E+01  0.27728302337E+02 -0.23954847161E+02  0.54367078870E+02  0.39999987900E+02 0.  0.
        -12    1    3    3    0    0  0.36175654601E+01 -0.27728302337E+02  0.23954847161E+02  0.36820921130E+02  0.00000000000E+00 0.  1.
         11    1    4    4    0    0 -0.11931050079E+01  0.68160115407E+01 -0.37851779497E+01  0.78872736262E+01  0.51100000000E-03 0. -1.
        -11    1    4    4    0    0  0.14782410935E+02  0.90904275443E+01 -0.18759952568E+02  0.25555652341E+02  0.51100000000E-03 0.  1.
        -12    1    4    4    0    0 -0.17206871387E+02  0.11821863252E+02 -0.14097166434E+01  0.20924152903E+02  0.00000000000E+00 0.  1.
</event>
<event>
 8    1  0.3146747E-007  0.9118800E+02  0.7816164E-02  0.1184000E+00
        -11   -1    0    0    0    0  0.00000000000E+00  0.00000000000E+00  0.45593999997E+02  0.45594000000E+02  0.51100000000E-03 0.  1.
         11   -1    0    0    0    0 -0.00000000000E+00 -0.00000000000E+00 -0.45593999997E+02  0.45594000000E+02  0.51100000000E-03 0. -1.
         23    2    1    2    0    0 -0.71054273576E-14  0.17763568394E-14  0.00000000000E+00  0.91188000000E+02  0.91188000000E+02 0.  0.
    9900012    2    3    3    0    0 -0.35655392594E+02 -0.80604846202E+01  0.44159483808E+01  0.54367095157E+02  0.40000025029E+02 0.  0.
         12    1    3    3    0    0  0.35655392594E+02  0.80604846202E+01 -0.44159483808E+01  0.36820904843E+02  0.00000000000E+00 0. -1.
         11    1    4    4    0    0 -0.31928436049E+02 -0.85691637693E+01 -0.40185620595E+01  0.33301718237E+02  0.51100000000E-03 0. -1.
        -11    1    4    4    0    0 -0.99217134885E+01 -0.48713231628E+01  0.41257263253E+01  0.11797957699E+02  0.51100000000E-03 0.  1.
         12    1    4    4    0    0  0.61947569431E+01  0.53800023118E+01  0.43087841151E+01  0.92674192205E+01  0.00000000000E+00 0. -1.
</event>
<event>
 8    1  0.3146747E-007  0.9118800E+02  0.7816164E-02  0.1184000E+00
        -11   -1    0    0    0    0  0.00000000000E+00  0.00000000000E+00  0.45593999997E+02  0.45594000000E+02  0.51100000000E-03 0.  1.
         11   -1    0    0    0    0 -0.00000000000E+00 -0.00000000000E+00 -0.45593999997E+02  0.45594000000E+02  0.51100000000E-03 0. -1.
         23    2    1    2    0    0  0.35527136788E-14  0.00000000000E+00  0.71054273576E-14  0.91188000000E+02  0.91188000000E+02 0.  0.
    9900012    2    3    3    0    0  0.29488897531E+02 -0.16082791133E+01  0.21991061746E+02  0.54366967478E+02  0.39999733958E+02 0.  0.
         12    1    3    3    0    0 -0.29488897531E+02  0.16082791133E+01 -0.21991061746E+02  0.36821032522E+02  0.00000000000E+00 0. -1.
         11    1    4    4    0    0  0.11049155707E+02  0.60686749603E+01  0.20834557477E+02  0.24351415629E+02  0.51100000000E-03 0. -1.
        -11    1    4    4    0    0  0.64920031042E+00  0.54171468566E+01 -0.46574364872E+01  0.71734688960E+01  0.51100000000E-03 0.  1.
         12    1    4    4    0    0  0.17790541513E+02 -0.13094100930E+02  0.58139407558E+01  0.22842082952E+02  0.00000000000E+00 0. -1.
</event>
<event>
 8    1  0.3146747E-007  0.9118800E+02  0.7816164E-02  0.1184000E+00
        -11   -1    0    0    0    0  0.00000000000E+00  0.00000000000E+00  0.45593999997E+02  0.45594000000E+02  0.51100000000E-03 0.  1.
         11   -1    0    0    0    0 -0.00000000000E+00 -0.00000000000E+00 -0.45593999997E+02  0.45594000000E+02  0.51100000000E-03 0. -1.
         23    2    1    2    0    0 -0.88817841970E-15  0.35527136788E-14  0.00000000000E+00  0.91188000000E+02  0.91188000000E+02 0.  0.
    9900012    2    3    3    0    0  0.53019123025E+01 -0.29805140001E+02 -0.20959933400E+02  0.54367143782E+02  0.40000135879E+02 0.  0.
        -12    1    3    3    0    0 -0.53019123025E+01  0.29805140001E+02  0.20959933400E+02  0.36820856218E+02  0.00000000000E+00 0.  1.
         11    1    4    4    0    0 -0.97543726482E+01 -0.23635399393E+02 -0.15629596457E+02  0.29967718897E+02  0.51100000000E-03 0. -1.
        -11    1    4    4    0    0  0.94132313522E+01 -0.11292335983E+02  0.64433084477E+00  0.14715330065E+02  0.51100000000E-03 0.  1.
        -12    1    4    4    0    0  0.56430535985E+01  0.51225953752E+01 -0.59746677875E+01  0.96840948191E+01  0.00000000000E+00 0.  1.
</event>
<event>
 8    1  0.3146747E-007  0.9118800E+02  0.7816164E-02  0.1184000E+00
        -11   -1    0    0    0    0  0.00000000000E+00  0.00000000000E+00  0.45593999997E+02  0.45594000000E+02  0.51100000000E-03 0. -1.
         11   -1    0    0    0    0 -0.00000000000E+00 -0.00000000000E+00 -0.45593999997E+02  0.45594000000E+02  0.51100000000E-03 0.  1.
         23    2    1    2    0    0 -0.17763568394E-14  0.00000000000E+00 -0.17763568394E-14  0.91188000000E+02  0.91188000000E+02 0.  0.
    9900012    2    3    3    0    0  0.78203588809E+01  0.34935390199E+02  0.86104593069E+01  0.54367088674E+02  0.40000010251E+02 0.  0.
        -12    1    3    3    0    0 -0.78203588809E+01 -0.34935390199E+02 -0.86104593069E+01  0.36820911326E+02  0.00000000000E+00 0.  1.
         11    1    4    4    0    0  0.19107405814E+02  0.67663289930E+01  0.37841825175E+01  0.20620286190E+02  0.51100000000E-03 0.  1.
        -11    1    4    4    0    0 -0.30369460518E+01  0.22741954235E+02  0.62245662271E+01  0.23773193911E+02  0.51100000000E-03 0. -1.
        -12    1    4    4    0    0 -0.82501008810E+01  0.54271069711E+01 -0.13982894376E+01  0.99736085733E+01  0.00000000000E+00 0.  1.
</event>
<event>
 8    1  0.3146747E-007  0.9118800E+02  0.7816164E-02  0.1184000E+00
        -11   -1    0    0    0    0  0.00000000000E+00  0.00000000000E+00  0.45593999997E+02  0.45594000000E+02  0.51100000000E-03 0.  1.
         11   -1    0    0    0    0 -0.00000000000E+00 -0.00000000000E+00 -0.45593999997E+02  0.45594000000E+02  0.51100000000E-03 0. -1.
         23    2    1    2    0    0 -0.44408920985E-15  0.00000000000E+00  0.00000000000E+00  0.91188000000E+02  0.91188000000E+02 0.  0.
    9900012    2    3    3    0    0  0.34062899520E+01 -0.19450911617E+02 -0.31077945813E+02  0.54367088959E+02  0.40000010899E+02 0.  0.
        -12    1    3    3    0    0 -0.34062899520E+01  0.19450911617E+02  0.31077945813E+02  0.36820911041E+02  0.00000000000E+00 0.  1.
         11    1    4    4    0    0 -0.78395013717E+01 -0.10525670053E+02 -0.19239936900E+02  0.23289969601E+02  0.51100000000E-03 0. -1.
        -11    1    4    4    0    0  0.35572857548E+01 -0.17005100371E+02 -0.53708731955E+01  0.18184443894E+02  0.51100000000E-03 0.  1.
         12    1    4    4    0    0  0.76885055689E+01  0.80798588076E+01 -0.64671357170E+01  0.12892675464E+02  0.00000000000E+00 0. -1.
</event>
<event>
 8    1  0.3146747E-007  0.9118800E+02  0.7816164E-02  0.1184000E+00
        -11   -1    0    0    0    0  0.00000000000E+00  0.00000000000E+00  0.45593999997E+02  0.45594000000E+02  0.51100000000E-03 0.  1.
         11   -1    0    0    0    0 -0.00000000000E+00 -0.00000000000E+00 -0.45593999997E+02  0.45594000000E+02  0.51100000000E-03 0. -1.
         23    2    1    2    0    0  0.00000000000E+00  0.00000000000E+00  0.00000000000E+00  0.91188000000E+02  0.91188000000E+02 0.  0.
    9900012    2    3    3    0    0  0.17355989344E+02 -0.30587685720E+02 -0.10906092891E+02  0.54367085481E+02  0.40000002971E+02 0.  0.
        -12    1    3    3    0    0 -0.17355989344E+02  0.30587685720E+02  0.10906092891E+02  0.36820914519E+02  0.00000000000E+00 0.  1.
         11    1    4    4    0    0  0.16431867523E+02 -0.53720176385E+00  0.19640146734E+00  0.16441819541E+02  0.51100000000E-03 0. -1.
        -11    1    4    4    0    0  0.45813596086E+01 -0.44114910111E+01  0.44071884151E+01  0.77377915966E+01  0.51100000000E-03 0.  1.
        -12    1    4    4    0    0 -0.36572377874E+01 -0.25638992945E+02 -0.15509682774E+02  0.30187474343E+02  0.00000000000E+00 0.  1.
</event>
<event>
 8    1  0.3146747E-007  0.9118800E+02  0.7816164E-02  0.1184000E+00
        -11   -1    0    0    0    0  0.00000000000E+00  0.00000000000E+00  0.45593999997E+02  0.45594000000E+02  0.51100000000E-03 0.  1.
         11   -1    0    0    0    0 -0.00000000000E+00 -0.00000000000E+00 -0.45593999997E+02  0.45594000000E+02  0.51100000000E-03 0. -1.
         23    2    1    2    0    0  0.35527136788E-14 -0.88817841970E-15  0.71054273576E-14  0.91188000000E+02  0.91188000000E+02 0.  0.
    9900012    2    3    3    0    0 -0.31134334719E+02  0.52706501036E+01 -0.18938175617E+02  0.54367067820E+02  0.39999962710E+02 0.  0.
        -12    1    3    3    0    0  0.31134334719E+02 -0.52706501036E+01  0.18938175617E+02  0.36820932180E+02  0.00000000000E+00 0.  1.
         11    1    4    4    0    0  0.83698389142E+00  0.28215530006E+00  0.28944499953E+01  0.30262178845E+01  0.51100000000E-03 0.  1.
        -11    1    4    4    0    0 -0.24837121744E+02  0.96963731490E+01 -0.29566994496E+02  0.39813432816E+02  0.51100000000E-03 0. -1.
         12    1    4    4    0    0 -0.71341968658E+01 -0.47078783455E+01  0.77343688837E+01  0.11527417120E+02  0.00000000000E+00 0. -1.
</event>
<event>
 8    1  0.3146747E-007  0.9118800E+02  0.7816164E-02  0.1184000E+00
        -11   -1    0    0    0    0  0.00000000000E+00  0.00000000000E+00  0.45593999997E+02  0.45594000000E+02  0.51100000000E-03 0. -1.
         11   -1    0    0    0    0 -0.00000000000E+00 -0.00000000000E+00 -0.45593999997E+02  0.45594000000E+02  0.51100000000E-03 0.  1.
         23    2    1    2    0    0  0.00000000000E+00  0.35527136788E-14  0.17763568394E-14  0.91188000000E+02  0.91188000000E+02 0.  0.
    9900012    2    3    3    0    0  0.26281926393E+02 -0.23422447409E+02  0.10790186939E+02  0.54367097896E+02  0.40000031274E+02 0.  0.
         12    1    3    3    0    0 -0.26281926393E+02  0.23422447409E+02 -0.10790186939E+02  0.36820902104E+02  0.00000000000E+00 0. -1.
         11    1    4    4    0    0  0.16089396574E+02 -0.33517673537E+02  0.12600184856E+02  0.39256436162E+02  0.51100000000E-03 0.  1.
        -11    1    4    4    0    0  0.34780267675E+01  0.57667664844E+01  0.61377547330E+00  0.67623210863E+01  0.51100000000E-03 0. -1.
        -12    1    4    4    0    0  0.67145030516E+01  0.43284596442E+01 -0.24237733903E+01  0.83483406477E+01  0.00000000000E+00 0.  1.
</event>
<event>
 8    1  0.3146747E-007  0.9118800E+02  0.7816164E-02  0.1184000E+00
        -11   -1    0    0    0    0  0.00000000000E+00  0.00000000000E+00  0.45593999997E+02  0.45594000000E+02  0.51100000000E-03 0.  1.
         11   -1    0    0    0    0 -0.00000000000E+00 -0.00000000000E+00 -0.45593999997E+02  0.45594000000E+02  0.51100000000E-03 0. -1.
         23    2    1    2    0    0  0.00000000000E+00  0.00000000000E+00  0.88817841970E-15  0.91188000000E+02  0.91188000000E+02 0.  0.
    9900012    2    3    3    0    0 -0.99657614221E+01 -0.34867203612E+02  0.63822450039E+01  0.54367199632E+02  0.40000263201E+02 0.  0.
        -12    1    3    3    0    0  0.99657614221E+01  0.34867203612E+02 -0.63822450039E+01  0.36820800368E+02  0.00000000000E+00 0.  1.
         11    1    4    4    0    0 -0.35062171511E+01 -0.38128968088E+02 -0.21143694279E+01  0.38348172375E+02  0.51100000000E-03 0. -1.
        -11    1    4    4    0    0 -0.32314733623E+00 -0.31329492575E+01  0.60565719107E+01  0.68265554140E+01  0.51100000000E-03 0.  1.
         12    1    4    4    0    0 -0.61363969348E+01  0.63947137339E+01  0.24400425212E+01  0.91924718431E+01  0.00000000000E+00 0. -1.
</event>
<event>
 8    1  0.3146747E-007  0.9118800E+02  0.7816164E-02  0.1184000E+00
        -11   -1    0    0    0    0  0.00000000000E+00  0.00000000000E+00  0.45593999997E+02  0.45594000000E+02  0.51100000000E-03 0. -1.
         11   -1    0    0    0    0 -0.00000000000E+00 -0.00000000000E+00 -0.45593999997E+02  0.45594000000E+02  0.51100000000E-03 0.  1.
         23    2    1    2    0    0  0.00000000000E+00  0.35527136788E-14 -0.35527136788E-14  0.91188000000E+02  0.91188000000E+02 0.  0.
    9900012    2    3    3    0    0 -0.32716053253E+01  0.26205626451E+02 -0.25658200224E+02  0.54367061693E+02  0.39999948741E+02 0.  0.
         12    1    3    3    0    0  0.32716053253E+01 -0.26205626451E+02  0.25658200224E+02  0.36820938307E+02  0.00000000000E+00 0. -1.
         11    1    4    4    0    0 -0.12746790502E+02  0.24374999303E+02 -0.10077488179E+02  0.29294658683E+02  0.51100000000E-03 0. -1.
        -11    1    4    4    0    0 -0.67410978815E+00  0.74296535244E+01 -0.91877097916E+01  0.11835040641E+02  0.51100000000E-03 0.  1.
         12    1    4    4    0    0  0.10149294965E+02 -0.55990263769E+01 -0.63930022537E+01  0.13237362368E+02  0.00000000000E+00 0. -1.
</event>
<event>
 8    1  0.3146747E-007  0.9118800E+02  0.7816164E-02  0.1184000E+00
        -11   -1    0    0    0    0  0.00000000000E+00  0.00000000000E+00  0.45593999997E+02  0.45594000000E+02  0.51100000000E-03 0.  1.
         11   -1    0    0    0    0 -0.00000000000E+00 -0.00000000000E+00 -0.45593999997E+02  0.45594000000E+02  0.51100000000E-03 0. -1.
         23    2    1    2    0    0 -0.17763568394E-14  0.35527136788E-14  0.00000000000E+00  0.91188000000E+02  0.91188000000E+02 0.  0.
    9900012    2    3    3    0    0  0.10520641706E+02 -0.26998379455E+02  0.22719670261E+02  0.54367084586E+02  0.40000000932E+02 0.  0.
         12    1    3    3    0    0 -0.10520641706E+02  0.26998379455E+02 -0.22719670261E+02  0.36820915414E+02  0.00000000000E+00 0. -1.
         11    1    4    4    0    0 -0.34730944850E+01 -0.10705149058E+02  0.72148783300E+01  0.13368510435E+02  0.51100000000E-03 0. -1.
        -11    1    4    4    0    0  0.24842532620E+01  0.25295469785E+01 -0.80066244123E+01  0.87564922730E+01  0.51100000000E-03 0.  1.
        -12    1    4    4    0    0  0.11509482929E+02 -0.18822777375E+02  0.23511416343E+02  0.32242081879E+02  0.00000000000E+00 0.  1.
</event>
<event>
 8    1  0.3146747E-007  0.9118800E+02  0.7816164E-02  0.1184000E+00
        -11   -1    0    0    0    0  0.00000000000E+00  0.00000000000E+00  0.45593999997E+02  0.45594000000E+02  0.51100000000E-03 0.  1.
         11   -1    0    0    0    0 -0.00000000000E+00 -0.00000000000E+00 -0.45593999997E+02  0.45594000000E+02  0.51100000000E-03 0. -1.
         23    2    1    2    0    0  0.00000000000E+00  0.00000000000E+00  0.17763568394E-14  0.91188000000E+02  0.91188000000E+02 0.  0.
    9900012    2    3    3    0    0  0.26075944786E+02 -0.22731981654E+02  0.12612745098E+02  0.54367092552E+02  0.40000019091E+02 0.  0.
        -12    1    3    3    0    0 -0.26075944786E+02  0.22731981654E+02 -0.12612745098E+02  0.36820907448E+02  0.00000000000E+00 0.  1.
         11    1    4    4    0    0  0.21274577360E+02 -0.75984138324E+01 -0.11305109101E+02  0.25261611719E+02  0.51100000000E-03 0. -1.
        -11    1    4    4    0    0  0.49611140920E+01 -0.15443781965E+02  0.23213312275E+02  0.28319267671E+02  0.51100000000E-03 0.  1.
         12    1    4    4    0    0 -0.15974666588E+00  0.31021414338E+00  0.70454192439E+00  0.78621316145E+00  0.00000000000E+00 0. -1.
</event>
<event>
 8    1  0.3146747E-007  0.9118800E+02  0.7816164E-02  0.1184000E+00
        -11   -1    0    0    0    0  0.00000000000E+00  0.00000000000E+00  0.45593999997E+02  0.45594000000E+02  0.51100000000E-03 0. -1.
         11   -1    0    0    0    0 -0.00000000000E+00 -0.00000000000E+00 -0.45593999997E+02  0.45594000000E+02  0.51100000000E-03 0.  1.
         23    2    1    2    0    0 -0.17763568394E-14  0.71054273576E-14  0.00000000000E+00  0.91188000000E+02  0.91188000000E+02 0.  0.
    9900012    2    3    3    0    0 -0.14200435712E+02  0.33136251052E+02  0.74910594824E+01  0.54367089089E+02  0.40000011195E+02 0.  0.
         12    1    3    3    0    0  0.14200435712E+02 -0.33136251052E+02 -0.74910594824E+01  0.36820910911E+02  0.00000000000E+00 0. -1.
         11    1    4    4    0    0  0.90397919983E+01  0.10156044913E+02  0.73233926917E+01  0.15443288783E+02  0.51100000000E-03 0. -1.
        -11    1    4    4    0    0 -0.75575126737E+00 -0.37726143840E+01 -0.93596748793E+00  0.39597745729E+01  0.51100000000E-03 0.  1.
        -12    1    4    4    0    0 -0.22484476443E+02  0.26752820523E+02  0.11036342787E+01  0.34964025733E+02  0.00000000000E+00 0.  1.
</event>
<event>
 8    1  0.3146747E-007  0.9118800E+02  0.7816164E-02  0.1184000E+00
        -11   -1    0    0    0    0  0.00000000000E+00  0.00000000000E+00  0.45593999997E+02  0.45594000000E+02  0.51100000000E-03 0. -1.
         11   -1    0    0    0    0 -0.00000000000E+00 -0.00000000000E+00 -0.45593999997E+02  0.45594000000E+02  0.51100000000E-03 0.  1.
         23    2    1    2    0    0  0.00000000000E+00  0.35527136788E-14  0.44408920985E-15  0.91188000000E+02  0.91188000000E+02 0.  0.
    9900012    2    3    3    0    0  0.30455777375E+02 -0.20586188492E+02  0.21059260738E+01  0.54367075829E+02  0.39999980968E+02 0.  0.
        -12    1    3    3    0    0 -0.30455777375E+02  0.20586188492E+02 -0.21059260738E+01  0.36820924171E+02  0.00000000000E+00 0.  1.
         11    1    4    4    0    0  0.56268285526E+01 -0.22394706607E+02 -0.66186419395E+01  0.24020626656E+02  0.51100000000E-03 0. -1.
        -11    1    4    4    0    0  0.10300984520E+02  0.35427107087E+01 -0.33281648676E+01  0.11390248588E+02  0.51100000000E-03 0.  1.
         12    1    4    4    0    0  0.14527964303E+02 -0.17341925931E+01  0.12052732881E+02  0.18956200585E+02  0.00000000000E+00 0. -1.
</event>
<event>
 8    1  0.3146747E-007  0.9118800E+02  0.7816164E-02  0.1184000E+00
        -11   -1    0    0    0    0  0.00000000000E+00  0.00000000000E+00  0.45593999997E+02  0.45594000000E+02  0.51100000000E-03 0. -1.
         11   -1    0    0    0    0 -0.00000000000E+00 -0.00000000000E+00 -0.45593999997E+02  0.45594000000E+02  0.51100000000E-03 0.  1.
         23    2    1    2    0    0  0.00000000000E+00  0.11102230246E-14  0.00000000000E+00  0.91188000000E+02  0.91188000000E+02 0.  0.
    9900012    2    3    3    0    0  0.17064181111E+02 -0.10035383728E+01 -0.32612660270E+02  0.54367095936E+02  0.40000026805E+02 0.  0.
         12    1    3    3    0    0 -0.17064181111E+02  0.10035383728E+01  0.32612660270E+02  0.36820904064E+02  0.00000000000E+00 0. -1.
         11    1    4    4    0    0  0.45412185281E+01 -0.61963732016E+01 -0.13891375902E+02  0.15874130883E+02  0.51100000000E-03 0.  1.
        -11    1    4    4    0    0 -0.76368229341E+01  0.87311705343E+01 -0.14085037843E+01  0.11684959846E+02  0.51100000000E-03 0. -1.
         12    1    4    4    0    0  0.20159785517E+02 -0.35383357055E+01 -0.17312780583E+02  0.26808005207E+02  0.00000000000E+00 0. -1.
</event>
<event>
 8    1  0.3146747E-007  0.9118800E+02  0.7816164E-02  0.1184000E+00
        -11   -1    0    0    0    0  0.00000000000E+00  0.00000000000E+00  0.45593999997E+02  0.45594000000E+02  0.51100000000E-03 0.  1.
         11   -1    0    0    0    0 -0.00000000000E+00 -0.00000000000E+00 -0.45593999997E+02  0.45594000000E+02  0.51100000000E-03 0. -1.
         23    2    1    2    0    0 -0.17763568394E-14  0.00000000000E+00 -0.35527136788E-14  0.91188000000E+02  0.91188000000E+02 0.  0.
    9900012    2    3    3    0    0 -0.13691105705E+02  0.17298208145E+02  0.29480602761E+02  0.54367077692E+02  0.39999985215E+02 0.  0.
         12    1    3    3    0    0  0.13691105705E+02 -0.17298208145E+02 -0.29480602761E+02  0.36820922308E+02  0.00000000000E+00 0. -1.
         11    1    4    4    0    0 -0.43063159737E-01  0.17885904430E+02  0.32237196437E+02  0.36866573832E+02  0.51100000000E-03 0. -1.
        -11    1    4    4    0    0 -0.10740219502E+02 -0.32066570344E+01  0.19526194794E+01  0.11377507960E+02  0.51100000000E-03 0.  1.
        -12    1    4    4    0    0 -0.29078230434E+01  0.26189607495E+01 -0.47092131553E+01  0.61229959008E+01  0.00000000000E+00 0.  1.
</event>
<event>
 8    1  0.3146747E-007  0.9118800E+02  0.7816164E-02  0.1184000E+00
        -11   -1    0    0    0    0  0.00000000000E+00  0.00000000000E+00  0.45593999997E+02  0.45594000000E+02  0.51100000000E-03 0. -1.
         11   -1    0    0    0    0 -0.00000000000E+00 -0.00000000000E+00 -0.45593999997E+02  0.45594000000E+02  0.51100000000E-03 0.  1.
         23    2    1    2    0    0  0.00000000000E+00 -0.35527136788E-14  0.35527136788E-14  0.91188000000E+02  0.91188000000E+02 0.  0.
    9900012    2    3    3    0    0  0.33176987872E+01  0.23240783514E+02  0.28366144596E+02  0.54367091500E+02  0.40000016692E+02 0.  0.
        -12    1    3    3    0    0 -0.33176987872E+01 -0.23240783514E+02 -0.28366144596E+02  0.36820908500E+02  0.00000000000E+00 0.  1.
         11    1    4    4    0    0  0.54346775685E+01  0.10533365959E+02 -0.83408229985E+00  0.11882054209E+02  0.51100000000E-03 0.  1.
        -11    1    4    4    0    0 -0.95350948719E+01  0.18536753866E+02  0.23705563472E+02  0.31567119252E+02  0.51100000000E-03 0. -1.
        -12    1    4    4    0    0  0.74181160906E+01 -0.58293363103E+01  0.54946634237E+01  0.10917918038E+02  0.00000000000E+00 0.  1.
</event>
<event>
 8    1  0.3146747E-007  0.9118800E+02  0.7816164E-02  0.1184000E+00
        -11   -1    0    0    0    0  0.00000000000E+00  0.00000000000E+00  0.45593999997E+02  0.45594000000E+02  0.51100000000E-03 0. -1.
         11   -1    0    0    0    0 -0.00000000000E+00 -0.00000000000E+00 -0.45593999997E+02  0.45594000000E+02  0.51100000000E-03 0.  1.
         23    2    1    2    0    0  0.00000000000E+00  0.00000000000E+00  0.00000000000E+00  0.91188000000E+02  0.91188000000E+02 0.  0.
    9900012    2    3    3    0    0 -0.10713010001E+02 -0.30295866718E+02  0.17976972534E+02  0.54367086581E+02  0.40000005479E+02 0.  0.
        -12    1    3    3    0    0  0.10713010001E+02  0.30295866718E+02 -0.17976972534E+02  0.36820913419E+02  0.00000000000E+00 0.  1.
         11    1    4    4    0    0 -0.17806062115E+01  0.22954480740E+00  0.14272228944E+01  0.22935158055E+01  0.51100000000E-03 0. -1.
        -11    1    4    4    0    0 -0.77224354949E+01 -0.46199697230E+01 -0.11017198577E+02  0.14225287166E+02  0.51100000000E-03 0.  1.
         12    1    4    4    0    0 -0.12099682950E+01 -0.25905441803E+02  0.27566948216E+02  0.37848283610E+02  0.00000000000E+00 0. -1.
</event>
<event>
 8    1  0.3146747E-007  0.9118800E+02  0.7816164E-02  0.1184000E+00
        -11   -1    0    0    0    0  0.00000000000E+00  0.00000000000E+00  0.45593999997E+02  0.45594000000E+02  0.51100000000E-03 0. -1.
         11   -1    0    0    0    0 -0.00000000000E+00 -0.00000000000E+00 -0.45593999997E+02  0.45594000000E+02  0.51100000000E-03 0.  1.
         23    2    1    2    0    0 -0.71054273576E-14 -0.17763568394E-14 -0.17763568394E-14  0.91188000000E+02  0.91188000000E+02 0.  0.
    9900012    2    3    3    0    0 -0.32852669929E+02  0.86201557563E+01 -0.14218790804E+02  0.54367095358E+02  0.40000025487E+02 0.  0.
         12    1    3    3    0    0  0.32852669929E+02 -0.86201557563E+01  0.14218790804E+02  0.36820904642E+02  0.00000000000E+00 0. -1.
         11    1    4    4    0    0 -0.11651702556E+02  0.20754090688E+02 -0.16416033430E+00  0.23801710057E+02  0.51100000000E-03 0. -1.
        -11    1    4    4    0    0 -0.18585551424E+02 -0.10850926284E+02 -0.65200626404E+01  0.22487252834E+02  0.51100000000E-03 0.  1.
        -12    1    4    4    0    0 -0.26154159490E+01 -0.12830086480E+01 -0.75345678291E+01  0.80781324666E+01  0.00000000000E+00 0.  1.
</event>
<event>
 8    1  0.3146747E-007  0.9118800E+02  0.7816164E-02  0.1184000E+00
        -11   -1    0    0    0    0  0.00000000000E+00  0.00000000000E+00  0.45593999997E+02  0.45594000000E+02  0.51100000000E-03 0.  1.
         11   -1    0    0    0    0 -0.00000000000E+00 -0.00000000000E+00 -0.45593999997E+02  0.45594000000E+02  0.51100000000E-03 0. -1.
         23    2    1    2    0    0  0.35527136788E-14  0.35527136788E-14  0.35527136788E-14  0.91188000000E+02  0.91188000000E+02 0.  0.
    9900012    2    3    3    0    0 -0.15447916622E+02 -0.23817344941E+02 -0.23449427679E+02  0.54367086018E+02  0.40000004195E+02 0.  0.
        -12    1    3    3    0    0  0.15447916622E+02  0.23817344941E+02  0.23449427679E+02  0.36820913982E+02  0.00000000000E+00 0.  1.
         11    1    4    4    0    0 -0.20728596930E+02 -0.20228731235E+02 -0.97711153724E+01  0.30567155477E+02  0.51100000000E-03 0. -1.
        -11    1    4    4    0    0  0.72082986482E+01 -0.31207045845E+01 -0.17672958528E+02  0.19339902531E+02  0.51100000000E-03 0.  1.
         12    1    4    4    0    0 -0.19276183407E+01 -0.46790912192E+00  0.39946462218E+01  0.44600280102E+01  0.00000000000E+00 0. -1.
</event>
<event>
 8    1  0.3146747E-007  0.9118800E+02  0.7816164E-02  0.1184000E+00
        -11   -1    0    0    0    0  0.00000000000E+00  0.00000000000E+00  0.45593999997E+02  0.45594000000E+02  0.51100000000E-03 0. -1.
         11   -1    0    0    0    0 -0.00000000000E+00 -0.00000000000E+00 -0.45593999997E+02  0.45594000000E+02  0.51100000000E-03 0.  1.
         23    2    1    2    0    0  0.00000000000E+00  0.00000000000E+00  0.00000000000E+00  0.91188000000E+02  0.91188000000E+02 0.  0.
    9900012    2    3    3    0    0 -0.25026765866E+02  0.13202142409E+02 -0.23561494662E+02  0.54367087402E+02  0.40000007350E+02 0.  0.
         12    1    3    3    0    0  0.25026765866E+02 -0.13202142409E+02  0.23561494662E+02  0.36820912598E+02  0.00000000000E+00 0. -1.
         11    1    4    4    0    0 -0.17871687942E+01 -0.39310270668E+01  0.70213394949E+01  0.82429457515E+01  0.51100000000E-03 0. -1.
        -11    1    4    4    0    0 -0.17625183113E+02  0.12562889463E+01 -0.16380981857E+02  0.24094852325E+02  0.51100000000E-03 0.  1.
         12    1    4    4    0    0 -0.56144139585E+01  0.15876880530E+02 -0.14201852299E+02  0.22029289326E+02  0.00000000000E+00 0. -1.
</event>
<event>
 8    1  0.3146747E-007  0.9118800E+02  0.7816164E-02  0.1184000E+00
        -11   -1    0    0    0    0  0.00000000000E+00  0.00000000000E+00  0.45593999997E+02  0.45594000000E+02  0.51100000000E-03 0.  1.
         11   -1    0    0    0    0 -0.00000000000E+00 -0.00000000000E+00 -0.45593999997E+02  0.45594000000E+02  0.51100000000E-03 0. -1.
         23    2    1    2    0    0 -0.17763568394E-14  0.00000000000E+00 -0.35527136788E-14  0.91188000000E+02  0.91188000000E+02 0.  0.
    9900012    2    3    3    0    0  0.12776304785E+02 -0.16916859744E+02 -0.30105902319E+02  0.54367089337E+02  0.40000011762E+02 0.  0.
        -12    1    3    3    0    0 -0.12776304785E+02  0.16916859744E+02  0.30105902319E+02  0.36820910663E+02  0.00000000000E+00 0.  1.
         11    1    4    4    0    0  0.49265829628E+00 -0.13753280271E+02 -0.28241193151E+02  0.31415926235E+02  0.51100000000E-03 0. -1.
        -11    1    4    4    0    0 -0.25279174966E+00  0.13229541876E+01  0.68869775447E+01  0.70174476424E+01  0.51100000000E-03 0.  1.
         12    1    4    4    0    0  0.12536438239E+02 -0.44865336612E+01 -0.87516867134E+01  0.15933715459E+02  0.00000000000E+00 0. -1.
</event>
<event>
 8    1  0.3146747E-007  0.9118800E+02  0.7816164E-02  0.1184000E+00
        -11   -1    0    0    0    0  0.00000000000E+00  0.00000000000E+00  0.45593999997E+02  0.45594000000E+02  0.51100000000E-03 0. -1.
         11   -1    0    0    0    0 -0.00000000000E+00 -0.00000000000E+00 -0.45593999997E+02  0.45594000000E+02  0.51100000000E-03 0.  1.
         23    2    1    2    0    0  0.00000000000E+00  0.35527136788E-14  0.00000000000E+00  0.91188000000E+02  0.91188000000E+02 0.  0.
    9900012    2    3    3    0    0 -0.81424102326E+01 -0.16413185945E+02 -0.31938834121E+02  0.54367073311E+02  0.39999975226E+02 0.  0.
         12    1    3    3    0    0  0.81424102326E+01  0.16413185945E+02  0.31938834121E+02  0.36820926689E+02  0.00000000000E+00 0. -1.
         11    1    4    4    0    0  0.32584988708E+01 -0.17522480570E+02 -0.22635501923E+02  0.28810086564E+02  0.51100000000E-03 0.  1.
        -11    1    4    4    0    0 -0.34885841676E+01 -0.39041060840E+01  0.57819227327E+01  0.78001855464E+01  0.51100000000E-03 0. -1.
         12    1    4    4    0    0 -0.79123249357E+01  0.50134007095E+01 -0.15085254931E+02  0.17756801201E+02  0.00000000000E+00 0. -1.
</event>
<event>
 8    1  0.3146747E-007  0.9118800E+02  0.7816164E-02  0.1184000E+00
        -11   -1    0    0    0    0  0.00000000000E+00  0.00000000000E+00  0.45593999997E+02  0.45594000000E+02  0.51100000000E-03 0.  1.
         11   -1    0    0    0    0 -0.00000000000E+00 -0.00000000000E+00 -0.45593999997E+02  0.45594000000E+02  0.51100000000E-03 0. -1.
         23    2    1    2    0    0 -0.53290705182E-14  0.00000000000E+00 -0.35527136788E-14  0.91188000000E+02  0.91188000000E+02 0.  0.
    9900012    2    3    3    0    0 -0.15333665734E+02 -0.15584299211E+02 -0.29627477921E+02  0.54367093782E+02  0.40000021895E+02 0.  0.
        -12    1    3    3    0    0  0.15333665734E+02  0.15584299211E+02  0.29627477921E+02  0.36820906218E+02  0.00000000000E+00 0.  1.
         11    1    4    4    0    0 -0.25670575613E+02 -0.17601682844E+02 -0.23107354152E+02  0.38765287403E+02  0.51100000000E-03 0. -1.
        -11    1    4    4    0    0 -0.76212333491E+00  0.28335987213E+01 -0.59580303546E+00  0.29941768834E+01  0.51100000000E-03 0.  1.
         12    1    4    4    0    0  0.11099033214E+02 -0.81621508822E+00 -0.59243207337E+01  0.12607629496E+02  0.00000000000E+00 0. -1.
</event>
<event>
 8    1  0.3146747E-007  0.9118800E+02  0.7816164E-02  0.1184000E+00
        -11   -1    0    0    0    0  0.00000000000E+00  0.00000000000E+00  0.45593999997E+02  0.45594000000E+02  0.51100000000E-03 0.  1.
         11   -1    0    0    0    0 -0.00000000000E+00 -0.00000000000E+00 -0.45593999997E+02  0.45594000000E+02  0.51100000000E-03 0. -1.
         23    2    1    2    0    0  0.35527136788E-14  0.00000000000E+00  0.17763568394E-14  0.91188000000E+02  0.91188000000E+02 0.  0.
    9900012    2    3    3    0    0 -0.31052462681E+02 -0.16298042224E+02 -0.11220606319E+02  0.54367032807E+02  0.39999882890E+02 0.  0.
         12    1    3    3    0    0  0.31052462681E+02  0.16298042224E+02  0.11220606319E+02  0.36820967193E+02  0.00000000000E+00 0. -1.
         11    1    4    4    0    0 -0.20398109150E+02  0.88083775898E+01 -0.68931119034E+01  0.23263391082E+02  0.51100000000E-03 0. -1.
        -11    1    4    4    0    0 -0.55365387959E+01 -0.34242768712E+01 -0.58791216241E+01  0.87717162096E+01  0.51100000000E-03 0.  1.
         12    1    4    4    0    0 -0.51178147352E+01 -0.21682142942E+02  0.15516272089E+01  0.22331925515E+02  0.00000000000E+00 0. -1.
</event>
<event>
 8    1  0.3146747E-007  0.9118800E+02  0.7816164E-02  0.1184000E+00
        -11   -1    0    0    0    0  0.00000000000E+00  0.00000000000E+00  0.45593999997E+02  0.45594000000E+02  0.51100000000E-03 0. -1.
         11   -1    0    0    0    0 -0.00000000000E+00 -0.00000000000E+00 -0.45593999997E+02  0.45594000000E+02  0.51100000000E-03 0.  1.
         23    2    1    2    0    0  0.00000000000E+00  0.35527136788E-14 -0.17763568394E-14  0.91188000000E+02  0.91188000000E+02 0.  0.
    9900012    2    3    3    0    0 -0.22369001315E+02  0.27148951432E+02 -0.10878491570E+02  0.54367090688E+02  0.40000014842E+02 0.  0.
         12    1    3    3    0    0  0.22369001315E+02 -0.27148951432E+02  0.10878491570E+02  0.36820909312E+02  0.00000000000E+00 0. -1.
         11    1    4    4    0    0 -0.10695317330E+02 -0.15531217901E+01 -0.52320384188E+01  0.12007340520E+02  0.51100000000E-03 0. -1.
        -11    1    4    4    0    0 -0.82115081459E+01  0.30996831041E+02 -0.12442033187E+02  0.34395298962E+02  0.51100000000E-03 0.  1.
        -12    1    4    4    0    0 -0.34621758392E+01 -0.22947578189E+01  0.67955800357E+01  0.79644512059E+01  0.00000000000E+00 0.  1.
</event>
<event>
 8    1  0.3146747E-007  0.9118800E+02  0.7816164E-02  0.1184000E+00
        -11   -1    0    0    0    0  0.00000000000E+00  0.00000000000E+00  0.45593999997E+02  0.45594000000E+02  0.51100000000E-03 0.  1.
         11   -1    0    0    0    0 -0.00000000000E+00 -0.00000000000E+00 -0.45593999997E+02  0.45594000000E+02  0.51100000000E-03 0. -1.
         23    2    1    2    0    0  0.00000000000E+00  0.00000000000E+00 -0.35527136788E-14  0.91188000000E+02  0.91188000000E+02 0.  0.
    9900012    2    3    3    0    0  0.21021528541E+02  0.12200298471E+02 -0.27659133347E+02  0.54367087430E+02  0.40000007414E+02 0.  0.
        -12    1    3    3    0    0 -0.21021528541E+02 -0.12200298471E+02  0.27659133347E+02  0.36820912570E+02  0.00000000000E+00 0.  1.
         11    1    4    4    0    0 -0.15237485502E+01 -0.57623013517E+00 -0.12785707869E+02  0.12889071991E+02  0.51100000000E-03 0. -1.
        -11    1    4    4    0    0  0.23153196820E+02  0.25467764492E+00 -0.17048801429E+02  0.28754078217E+02  0.51100000000E-03 0.  1.
         12    1    4    4    0    0 -0.60791972954E+00  0.12521850962E+02  0.21753759503E+01  0.12723937222E+02  0.00000000000E+00 0. -1.
</event>
<event>
 8    1  0.3146747E-007  0.9118800E+02  0.7816164E-02  0.1184000E+00
        -11   -1    0    0    0    0  0.00000000000E+00  0.00000000000E+00  0.45593999997E+02  0.45594000000E+02  0.51100000000E-03 0. -1.
         11   -1    0    0    0    0 -0.00000000000E+00 -0.00000000000E+00 -0.45593999997E+02  0.45594000000E+02  0.51100000000E-03 0.  1.
         23    2    1    2    0    0 -0.35527136788E-14 -0.35527136788E-14 -0.17763568394E-14  0.91188000000E+02  0.91188000000E+02 0.  0.
    9900012    2    3    3    0    0 -0.31667120391E+02 -0.17524394699E+02 -0.67726694900E+01  0.54367082366E+02  0.39999995869E+02 0.  0.
         12    1    3    3    0    0  0.31667120391E+02  0.17524394699E+02  0.67726694900E+01  0.36820917634E+02  0.00000000000E+00 0. -1.
         11    1    4    4    0    0 -0.30418781756E+02 -0.44431479426E+01 -0.11282422861E+02  0.32746555743E+02  0.51100000000E-03 0.  1.
        -11    1    4    4    0    0  0.18635181776E+01  0.20729283418E+01 -0.32760489688E+01  0.43014217435E+01  0.51100000000E-03 0. -1.
        -12    1    4    4    0    0 -0.31118568123E+01 -0.15154175098E+02  0.77858023401E+01  0.17319104879E+02  0.00000000000E+00 0.  1.
</event>
<event>
 8    1  0.3146747E-007  0.9118800E+02  0.7816164E-02  0.1184000E+00
        -11   -1    0    0    0    0  0.00000000000E+00  0.00000000000E+00  0.45593999997E+02  0.45594000000E+02  0.51100000000E-03 0. -1.
         11   -1    0    0    0    0 -0.00000000000E+00 -0.00000000000E+00 -0.45593999997E+02  0.45594000000E+02  0.51100000000E-03 0.  1.
         23    2    1    2    0    0  0.17763568394E-14  0.00000000000E+00  0.88817841970E-15  0.91188000000E+02  0.91188000000E+02 0.  0.
    9900012    2    3    3    0    0  0.83904588882E+01 -0.35525336276E+02  0.48302693231E+01  0.54367070902E+02  0.39999969736E+02 0.  0.
        -12    1    3    3    0    0 -0.83904588882E+01  0.35525336276E+02 -0.48302693231E+01  0.36820929098E+02  0.00000000000E+00 0.  1.
         11    1    4    4    0    0 -0.32711045208E+01  0.42182977827E+01  0.26457823589E+01  0.59577114332E+01  0.51100000000E-03 0. -1.
        -11    1    4    4    0    0  0.11718171767E+02 -0.29669185154E+02 -0.92074113405E+01  0.33201694552E+02  0.51100000000E-03 0.  1.
         12    1    4    4    0    0 -0.56608358037E-01 -0.10074448904E+02  0.11391898305E+02  0.15207664917E+02  0.00000000000E+00 0. -1.
</event>
<event>
 8    1  0.3146747E-007  0.9118800E+02  0.7816164E-02  0.1184000E+00
        -11   -1    0    0    0    0  0.00000000000E+00  0.00000000000E+00  0.45593999997E+02  0.45594000000E+02  0.51100000000E-03 0. -1.
         11   -1    0    0    0    0 -0.00000000000E+00 -0.00000000000E+00 -0.45593999997E+02  0.45594000000E+02  0.51100000000E-03 0.  1.
         23    2    1    2    0    0  0.00000000000E+00  0.17763568394E-14  0.35527136788E-14  0.91188000000E+02  0.91188000000E+02 0.  0.
    9900012    2    3    3    0    0 -0.31619627968E+02  0.11174139870E+02  0.15202556187E+02  0.54367082178E+02  0.39999995441E+02 0.  0.
        -12    1    3    3    0    0  0.31619627968E+02 -0.11174139870E+02 -0.15202556187E+02  0.36820917822E+02  0.00000000000E+00 0.  1.
         11    1    4    4    0    0  0.22994736178E+01 -0.68589372259E+01  0.34542927282E+01  0.80165290058E+01  0.51100000000E-03 0.  1.
        -11    1    4    4    0    0 -0.17612853260E+02  0.26995919093E+01  0.15546561691E+02  0.23647324946E+02  0.51100000000E-03 0. -1.
         12    1    4    4    0    0 -0.16306248326E+02  0.15333485186E+02 -0.37982982322E+01  0.22703228226E+02  0.00000000000E+00 0. -1.
</event>
<event>
 8    1  0.3146747E-007  0.9118800E+02  0.7816164E-02  0.1184000E+00
        -11   -1    0    0    0    0  0.00000000000E+00  0.00000000000E+00  0.45593999997E+02  0.45594000000E+02  0.51100000000E-03 0.  1.
         11   -1    0    0    0    0 -0.00000000000E+00 -0.00000000000E+00 -0.45593999997E+02  0.45594000000E+02  0.51100000000E-03 0. -1.
         23    2    1    2    0    0  0.88817841970E-15 -0.17763568394E-14  0.00000000000E+00  0.91188000000E+02  0.91188000000E+02 0.  0.
    9900012    2    3    3    0    0  0.68073882486E+01 -0.94436183196E+01 -0.34932157246E+02  0.54367108218E+02  0.40000054805E+02 0.  0.
        -12    1    3    3    0    0 -0.68073882486E+01  0.94436183196E+01  0.34932157246E+02  0.36820891782E+02  0.00000000000E+00 0.  1.
         11    1    4    4    0    0 -0.10069558358E+02 -0.74438684988E+01 -0.60982172812E+01  0.13928224511E+02  0.51100000000E-03 0. -1.
        -11    1    4    4    0    0  0.19022327235E+02 -0.89232369732E+01 -0.19955774186E+02  0.28977681328E+02  0.51100000000E-03 0.  1.
         12    1    4    4    0    0 -0.21453806276E+01  0.69234871524E+01 -0.88781657789E+01  0.11461202380E+02  0.00000000000E+00 0. -1.
</event>
<event>
 8    1  0.3146747E-007  0.9118800E+02  0.7816164E-02  0.1184000E+00
        -11   -1    0    0    0    0  0.00000000000E+00  0.00000000000E+00  0.45593999997E+02  0.45594000000E+02  0.51100000000E-03 0.  1.
         11   -1    0    0    0    0 -0.00000000000E+00 -0.00000000000E+00 -0.45593999997E+02  0.45594000000E+02  0.51100000000E-03 0. -1.
         23    2    1    2    0    0  0.00000000000E+00  0.17763568394E-14  0.00000000000E+00  0.91188000000E+02  0.91188000000E+02 0.  0.
    9900012    2    3    3    0    0 -0.16338701710E+02 -0.12933111239E+02 -0.30357188738E+02  0.54367116687E+02  0.40000074111E+02 0.  0.
        -12    1    3    3    0    0  0.16338701710E+02  0.12933111239E+02  0.30357188738E+02  0.36820883313E+02  0.00000000000E+00 0.  1.
         11    1    4    4    0    0 -0.35973601841E+00 -0.18248736805E+02 -0.68888609426E+01  0.19509028943E+02  0.51100000000E-03 0. -1.
        -11    1    4    4    0    0 -0.29193785175E+01  0.93468321077E+01 -0.17265036395E+02  0.19848615149E+02  0.51100000000E-03 0.  1.
        -12    1    4    4    0    0 -0.13059587174E+02 -0.40312065422E+01 -0.62032914009E+01  0.15009472594E+02  0.00000000000E+00 0.  1.
</event>
<event>
 8    1  0.3146747E-007  0.9118800E+02  0.7816164E-02  0.1184000E+00
        -11   -1    0    0    0    0  0.00000000000E+00  0.00000000000E+00  0.45593999997E+02  0.45594000000E+02  0.51100000000E-03 0. -1.
         11   -1    0    0    0    0 -0.00000000000E+00 -0.00000000000E+00 -0.45593999997E+02  0.45594000000E+02  0.51100000000E-03 0.  1.
         23    2    1    2    0    0  0.00000000000E+00  0.35527136788E-14  0.35527136788E-14  0.91188000000E+02  0.91188000000E+02 0.  0.
    9900012    2    3    3    0    0 -0.11730770080E+02 -0.21079005433E+02 -0.27818073623E+02  0.54367073113E+02  0.39999974775E+02 0.  0.
         12    1    3    3    0    0  0.11730770080E+02  0.21079005433E+02  0.27818073623E+02  0.36820926887E+02  0.00000000000E+00 0. -1.
         11    1    4    4    0    0 -0.42834018317E+01  0.75651241763E+01 -0.53809901187E+01  0.10224171848E+02  0.51100000000E-03 0. -1.
        -11    1    4    4    0    0 -0.85474575421E+01 -0.72008882165E+01  0.22753486331E+01  0.11405657947E+02  0.51100000000E-03 0.  1.
        -12    1    4    4    0    0  0.11000892935E+01 -0.21443241393E+02 -0.24712432138E+02  0.32737243318E+02  0.00000000000E+00 0.  1.
</event>
<event>
 8    1  0.3146747E-007  0.9118800E+02  0.7816164E-02  0.1184000E+00
        -11   -1    0    0    0    0  0.00000000000E+00  0.00000000000E+00  0.45593999997E+02  0.45594000000E+02  0.51100000000E-03 0. -1.
         11   -1    0    0    0    0 -0.00000000000E+00 -0.00000000000E+00 -0.45593999997E+02  0.45594000000E+02  0.51100000000E-03 0.  1.
         23    2    1    2    0    0 -0.44408920985E-15  0.00000000000E+00  0.35527136788E-14  0.91188000000E+02  0.91188000000E+02 0.  0.
    9900012    2    3    3    0    0  0.34013181386E+01 -0.33461466073E+02 -0.14984707272E+02  0.54367080282E+02  0.39999991120E+02 0.  0.
         12    1    3    3    0    0 -0.34013181386E+01  0.33461466073E+02  0.14984707272E+02  0.36820919718E+02  0.00000000000E+00 0. -1.
         11    1    4    4    0    0  0.79249226763E-01 -0.14418144661E+02  0.65666976870E+01  0.15843317036E+02  0.51100000000E-03 0. -1.
        -11    1    4    4    0    0 -0.15785308498E+01 -0.14700867071E+01 -0.20107600763E+02  0.20222970189E+02  0.51100000000E-03 0.  1.
        -12    1    4    4    0    0  0.49005997616E+01 -0.17573234704E+02 -0.14438041968E+01  0.18300793058E+02  0.00000000000E+00 0.  1.
</event>
<event>
 8    1  0.3146747E-007  0.9118800E+02  0.7816164E-02  0.1184000E+00
        -11   -1    0    0    0    0  0.00000000000E+00  0.00000000000E+00  0.45593999997E+02  0.45594000000E+02  0.51100000000E-03 0.  1.
         11   -1    0    0    0    0 -0.00000000000E+00 -0.00000000000E+00 -0.45593999997E+02  0.45594000000E+02  0.51100000000E-03 0. -1.
         23    2    1    2    0    0  0.00000000000E+00 -0.35527136788E-14  0.00000000000E+00  0.91188000000E+02  0.91188000000E+02 0.  0.
    9900012    2    3    3    0    0  0.30250751252E+02  0.17286437645E+02  0.11910133992E+02  0.54367079731E+02  0.39999989863E+02 0.  0.
         12    1    3    3    0    0 -0.30250751252E+02 -0.17286437645E+02 -0.11910133992E+02  0.36820920269E+02  0.00000000000E+00 0. -1.
         11    1    4    4    0    0  0.91090636015E+01  0.21692226843E+02 -0.32387301310E+01  0.23749044575E+02  0.51100000000E-03 0. -1.
        -11    1    4    4    0    0  0.11902345262E+02  0.31039704137E+01  0.14030989060E+02  0.18659290161E+02  0.51100000000E-03 0.  1.
        -12    1    4    4    0    0  0.92393423883E+01 -0.75097596118E+01  0.11178750632E+01  0.11958744995E+02  0.00000000000E+00 0.  1.
</event>
<event>
 8    1  0.3146747E-007  0.9118800E+02  0.7816164E-02  0.1184000E+00
        -11   -1    0    0    0    0  0.00000000000E+00  0.00000000000E+00  0.45593999997E+02  0.45594000000E+02  0.51100000000E-03 0.  1.
         11   -1    0    0    0    0 -0.00000000000E+00 -0.00000000000E+00 -0.45593999997E+02  0.45594000000E+02  0.51100000000E-03 0. -1.
         23    2    1    2    0    0  0.00000000000E+00 -0.35527136788E-14  0.17763568394E-14  0.91188000000E+02  0.91188000000E+02 0.  0.
    9900012    2    3    3    0    0  0.18174908813E+02 -0.28019140052E+02 -0.15504201796E+02  0.54367084844E+02  0.40000001518E+02 0.  0.
        -12    1    3    3    0    0 -0.18174908813E+02  0.28019140052E+02  0.15504201796E+02  0.36820915156E+02  0.00000000000E+00 0.  1.
         11    1    4    4    0    0  0.14648946421E+02 -0.17120185847E+02 -0.15703352469E+01  0.22586685187E+02  0.51100000000E-03 0. -1.
        -11    1    4    4    0    0  0.13703417835E+02 -0.67589143233E+01 -0.17586183899E+01  0.15380485106E+02  0.51100000000E-03 0.  1.
        -12    1    4    4    0    0 -0.10177455443E+02 -0.41400398817E+01 -0.12175248159E+02  0.16399914550E+02  0.00000000000E+00 0.  1.
</event>
<event>
 8    1  0.3146747E-007  0.9118800E+02  0.7816164E-02  0.1184000E+00
        -11   -1    0    0    0    0  0.00000000000E+00  0.00000000000E+00  0.45593999997E+02  0.45594000000E+02  0.51100000000E-03 0. -1.
         11   -1    0    0    0    0 -0.00000000000E+00 -0.00000000000E+00 -0.45593999997E+02  0.45594000000E+02  0.51100000000E-03 0.  1.
         23    2    1    2    0    0 -0.35527136788E-14  0.00000000000E+00  0.00000000000E+00  0.91188000000E+02  0.91188000000E+02 0.  0.
    9900012    2    3    3    0    0  0.25037371618E+02  0.26574255469E+02  0.47664312066E+01  0.54367083421E+02  0.39999998275E+02 0.  0.
        -12    1    3    3    0    0 -0.25037371618E+02 -0.26574255469E+02 -0.47664312066E+01  0.36820916579E+02  0.00000000000E+00 0.  1.
         11    1    4    4    0    0  0.13415225193E+02  0.23187929077E+02  0.11170474659E+01  0.26812238197E+02  0.51100000000E-03 0. -1.
        -11    1    4    4    0    0  0.69362657872E+01  0.85558336723E+00 -0.10399908899E+02  0.12530040357E+02  0.51100000000E-03 0.  1.
         12    1    4    4    0    0  0.46858806380E+01  0.25307430248E+01  0.14049292640E+02  0.15024804867E+02  0.00000000000E+00 0. -1.
</event>
<event>
 8    1  0.3146747E-007  0.9118800E+02  0.7816164E-02  0.1184000E+00
        -11   -1    0    0    0    0  0.00000000000E+00  0.00000000000E+00  0.45593999997E+02  0.45594000000E+02  0.51100000000E-03 0. -1.
         11   -1    0    0    0    0 -0.00000000000E+00 -0.00000000000E+00 -0.45593999997E+02  0.45594000000E+02  0.51100000000E-03 0.  1.
         23    2    1    2    0    0 -0.17763568394E-14 -0.71054273576E-14  0.35527136788E-14  0.91188000000E+02  0.91188000000E+02 0.  0.
    9900012    2    3    3    0    0  0.90903739254E+01  0.32182909242E+02 -0.15407974244E+02  0.54367079103E+02  0.39999988432E+02 0.  0.
         12    1    3    3    0    0 -0.90903739254E+01 -0.32182909242E+02  0.15407974244E+02  0.36820920897E+02  0.00000000000E+00 0. -1.
         11    1    4    4    0    0 -0.55851693947E+01  0.23946037662E+02 -0.70902111692E+01  0.25590582869E+02  0.51100000000E-03 0. -1.
        -11    1    4    4    0    0  0.17231054490E+02  0.94101859726E+01 -0.12834444153E+02  0.23455997013E+02  0.51100000000E-03 0.  1.
        -12    1    4    4    0    0 -0.25555111700E+01 -0.11733143930E+01  0.45166810785E+01  0.53204992218E+01  0.00000000000E+00 0.  1.
</event>
<event>
 8    1  0.3146747E-007  0.9118800E+02  0.7816164E-02  0.1184000E+00
        -11   -1    0    0    0    0  0.00000000000E+00  0.00000000000E+00  0.45593999997E+02  0.45594000000E+02  0.51100000000E-03 0. -1.
         11   -1    0    0    0    0 -0.00000000000E+00 -0.00000000000E+00 -0.45593999997E+02  0.45594000000E+02  0.51100000000E-03 0.  1.
         23    2    1    2    0    0  0.00000000000E+00 -0.71054273576E-14  0.17763568394E-14  0.91188000000E+02  0.91188000000E+02 0.  0.
    9900012    2    3    3    0    0  0.21585893613E+01  0.35683618484E+02 -0.88204094817E+01  0.54367085297E+02  0.40000002552E+02 0.  0.
         12    1    3    3    0    0 -0.21585893613E+01 -0.35683618484E+02  0.88204094817E+01  0.36820914703E+02  0.00000000000E+00 0. -1.
         11    1    4    4    0    0  0.97242936712E+00 -0.79064188096E+01  0.15119154552E+01  0.81082036156E+01  0.51100000000E-03 0. -1.
        -11    1    4    4    0    0 -0.19529527731E+01  0.39756496598E+02 -0.73547078909E+01  0.40478201229E+02  0.51100000000E-03 0.  1.
         12    1    4    4    0    0  0.31391127673E+01  0.38335406953E+01 -0.29776170460E+01  0.57806804531E+01  0.00000000000E+00 0. -1.
</event>
<event>
 8    1  0.3146747E-007  0.9118800E+02  0.7816164E-02  0.1184000E+00
        -11   -1    0    0    0    0  0.00000000000E+00  0.00000000000E+00  0.45593999997E+02  0.45594000000E+02  0.51100000000E-03 0.  1.
         11   -1    0    0    0    0 -0.00000000000E+00 -0.00000000000E+00 -0.45593999997E+02  0.45594000000E+02  0.51100000000E-03 0. -1.
         23    2    1    2    0    0  0.71054273576E-14 -0.11102230246E-15  0.00000000000E+00  0.91188000000E+02  0.91188000000E+02 0.  0.
    9900012    2    3    3    0    0 -0.32194507589E+02  0.95099587336E+00  0.17843616251E+02  0.54367009343E+02  0.39999829400E+02 0.  0.
         12    1    3    3    0    0  0.32194507589E+02 -0.95099587336E+00 -0.17843616251E+02  0.36820990657E+02  0.00000000000E+00 0. -1.
         11    1    4    4    0    0  0.53772250650E+01 -0.13571526292E+01  0.12905105628E+02  0.14046286491E+02  0.51100000000E-03 0. -1.
        -11    1    4    4    0    0 -0.28162263647E+02  0.20355816190E+00  0.94085143978E+01  0.29693007141E+02  0.51100000000E-03 0.  1.
         12    1    4    4    0    0 -0.94094690071E+01  0.21045903407E+01 -0.44700037750E+01  0.10627715712E+02  0.00000000000E+00 0. -1.
</event>
<event>
 8    1  0.3146747E-007  0.9118800E+02  0.7816164E-02  0.1184000E+00
        -11   -1    0    0    0    0  0.00000000000E+00  0.00000000000E+00  0.45593999997E+02  0.45594000000E+02  0.51100000000E-03 0.  1.
         11   -1    0    0    0    0 -0.00000000000E+00 -0.00000000000E+00 -0.45593999997E+02  0.45594000000E+02  0.51100000000E-03 0. -1.
         23    2    1    2    0    0  0.00000000000E+00  0.00000000000E+00  0.22204460493E-15  0.91188000000E+02  0.91188000000E+02 0.  0.
    9900012    2    3    3    0    0  0.84405798164E+01 -0.35806131560E+02  0.15677152928E+01  0.54367079640E+02  0.39999989656E+02 0.  0.
         12    1    3    3    0    0 -0.84405798164E+01  0.35806131560E+02 -0.15677152928E+01  0.36820920360E+02  0.00000000000E+00 0. -1.
         11    1    4    4    0    0  0.10696527893E+02 -0.51390173440E+01 -0.22789125336E+00  0.11869167743E+02  0.51100000000E-03 0. -1.
        -11    1    4    4    0    0 -0.90777643532E+01 -0.32750458464E+02 -0.26576921231E+01  0.34089025550E+02  0.51100000000E-03 0.  1.
        -12    1    4    4    0    0  0.68218162767E+01  0.20833442480E+01  0.44532986693E+01  0.84088863476E+01  0.00000000000E+00 0.  1.
</event>
<event>
 8    1  0.3146747E-007  0.9118800E+02  0.7816164E-02  0.1184000E+00
        -11   -1    0    0    0    0  0.00000000000E+00  0.00000000000E+00  0.45593999997E+02  0.45594000000E+02  0.51100000000E-03 0.  1.
         11   -1    0    0    0    0 -0.00000000000E+00 -0.00000000000E+00 -0.45593999997E+02  0.45594000000E+02  0.51100000000E-03 0. -1.
         23    2    1    2    0    0  0.17763568394E-14  0.35527136788E-14 -0.17763568394E-14  0.91188000000E+02  0.91188000000E+02 0.  0.
    9900012    2    3    3    0    0  0.12997898256E+02  0.31157526573E+02  0.14698378165E+02  0.54367093684E+02  0.40000021672E+02 0.  0.
         12    1    3    3    0    0 -0.12997898256E+02 -0.31157526573E+02 -0.14698378165E+02  0.36820906316E+02  0.00000000000E+00 0. -1.
         11    1    4    4    0    0  0.44004832801E+01  0.31735023521E+02  0.20188019909E+02  0.37868616546E+02  0.51100000000E-03 0. -1.
        -11    1    4    4    0    0  0.24705369680E+01  0.38723289960E+01 -0.73810126312E+01  0.86935512011E+01  0.51100000000E-03 0.  1.
        -12    1    4    4    0    0  0.61268780074E+01 -0.44498259442E+01  0.18913708878E+01  0.78049259373E+01  0.00000000000E+00 0.  1.
</event>
<event>
 8    1  0.3146747E-007  0.9118800E+02  0.7816164E-02  0.1184000E+00
        -11   -1    0    0    0    0  0.00000000000E+00  0.00000000000E+00  0.45593999997E+02  0.45594000000E+02  0.51100000000E-03 0.  1.
         11   -1    0    0    0    0 -0.00000000000E+00 -0.00000000000E+00 -0.45593999997E+02  0.45594000000E+02  0.51100000000E-03 0. -1.
         23    2    1    2    0    0  0.00000000000E+00 -0.17763568394E-14  0.35527136788E-14  0.91188000000E+02  0.91188000000E+02 0.  0.
    9900012    2    3    3    0    0  0.17474497871E+02 -0.88429460876E+01 -0.31180529607E+02  0.54367065765E+02  0.39999958025E+02 0.  0.
        -12    1    3    3    0    0 -0.17474497871E+02  0.88429460876E+01  0.31180529607E+02  0.36820934235E+02  0.00000000000E+00 0.  1.
         11    1    4    4    0    0  0.62315504135E+01 -0.17181672159E+02 -0.10392654364E+02  0.21024969530E+02  0.51100000000E-03 0. -1.
        -11    1    4    4    0    0  0.64010147400E+01 -0.65909933985E+01 -0.31045743379E+01  0.96980702081E+01  0.51100000000E-03 0.  1.
        -12    1    4    4    0    0  0.48419327176E+01  0.14929719470E+02 -0.17683300905E+02  0.23644026027E+02  0.00000000000E+00 0.  1.
</event>
<event>
 8    1  0.3146747E-007  0.9118800E+02  0.7816164E-02  0.1184000E+00
        -11   -1    0    0    0    0  0.00000000000E+00  0.00000000000E+00  0.45593999997E+02  0.45594000000E+02  0.51100000000E-03 0.  1.
         11   -1    0    0    0    0 -0.00000000000E+00 -0.00000000000E+00 -0.45593999997E+02  0.45594000000E+02  0.51100000000E-03 0. -1.
         23    2    1    2    0    0 -0.17763568394E-14 -0.44408920985E-15 -0.71054273576E-14  0.91188000000E+02  0.91188000000E+02 0.  0.
    9900012    2    3    3    0    0  0.87945494492E+01  0.32767031001E+01  0.35604757989E+02  0.54367086449E+02  0.40000005179E+02 0.  0.
         12    1    3    3    0    0 -0.87945494492E+01 -0.32767031001E+01 -0.35604757989E+02  0.36820913551E+02  0.00000000000E+00 0. -1.
         11    1    4    4    0    0 -0.13179484426E+01  0.17379469311E+01  0.95831593256E+01  0.98282445307E+01  0.51100000000E-03 0. -1.
        -11    1    4    4    0    0  0.11522820614E+02 -0.10309873619E+02  0.28433165476E+02  0.32365317675E+02  0.51100000000E-03 0.  1.
         12    1    4    4    0    0 -0.14103227227E+01  0.11848629788E+02 -0.24115668120E+01  0.12173524244E+02  0.00000000000E+00 0. -1.
</event>
<event>
 8    1  0.3146747E-007  0.9118800E+02  0.7816164E-02  0.1184000E+00
        -11   -1    0    0    0    0  0.00000000000E+00  0.00000000000E+00  0.45593999997E+02  0.45594000000E+02  0.51100000000E-03 0.  1.
         11   -1    0    0    0    0 -0.00000000000E+00 -0.00000000000E+00 -0.45593999997E+02  0.45594000000E+02  0.51100000000E-03 0. -1.
         23    2    1    2    0    0  0.88817841970E-15  0.00000000000E+00  0.00000000000E+00  0.91188000000E+02  0.91188000000E+02 0.  0.
    9900012    2    3    3    0    0 -0.43859670774E+01 -0.19919477164E+02  0.30655344251E+02  0.54367185115E+02  0.40000230105E+02 0.  0.
         12    1    3    3    0    0  0.43859670774E+01  0.19919477164E+02 -0.30655344251E+02  0.36820814885E+02  0.00000000000E+00 0. -1.
         11    1    4    4    0    0  0.53557912516E+01  0.92853094638E+00  0.95409017509E+01  0.10980686505E+02  0.51100000000E-03 0. -1.
        -11    1    4    4    0    0  0.78606704043E+00 -0.15456511297E+02 -0.36864328831E+01  0.15909476124E+02  0.51100000000E-03 0.  1.
        -12    1    4    4    0    0 -0.10527825369E+02 -0.53914968132E+01  0.24800875383E+02  0.27477022485E+02  0.00000000000E+00 0.  1.
</event>
<event>
 8    1  0.3146747E-007  0.9118800E+02  0.7816164E-02  0.1184000E+00
        -11   -1    0    0    0    0  0.00000000000E+00  0.00000000000E+00  0.45593999997E+02  0.45594000000E+02  0.51100000000E-03 0. -1.
         11   -1    0    0    0    0 -0.00000000000E+00 -0.00000000000E+00 -0.45593999997E+02  0.45594000000E+02  0.51100000000E-03 0.  1.
         23    2    1    2    0    0  0.35527136788E-14  0.17763568394E-14  0.00000000000E+00  0.91188000000E+02  0.91188000000E+02 0.  0.
    9900012    2    3    3    0    0  0.22135987880E+02  0.14923062627E+02 -0.25359024817E+02  0.54367083428E+02  0.39999998290E+02 0.  0.
         12    1    3    3    0    0 -0.22135987880E+02 -0.14923062627E+02  0.25359024817E+02  0.36820916572E+02  0.00000000000E+00 0. -1.
         11    1    4    4    0    0  0.11688826230E+02  0.86897384172E+01 -0.51656989665E+00  0.14574191474E+02  0.51100000000E-03 0. -1.
        -11    1    4    4    0    0 -0.99673704082E+01  0.10627278694E+01 -0.77637689919E+01  0.12678878996E+02  0.51100000000E-03 0.  1.
        -12    1    4    4    0    0  0.20414532058E+02  0.51705963400E+01 -0.17078685928E+02  0.27114012958E+02  0.00000000000E+00 0.  1.
</event>
<event>
 8    1  0.3146747E-007  0.9118800E+02  0.7816164E-02  0.1184000E+00
        -11   -1    0    0    0    0  0.00000000000E+00  0.00000000000E+00  0.45593999997E+02  0.45594000000E+02  0.51100000000E-03 0. -1.
         11   -1    0    0    0    0 -0.00000000000E+00 -0.00000000000E+00 -0.45593999997E+02  0.45594000000E+02  0.51100000000E-03 0.  1.
         23    2    1    2    0    0  0.00000000000E+00  0.35527136788E-14  0.00000000000E+00  0.91188000000E+02  0.91188000000E+02 0.  0.
    9900012    2    3    3    0    0  0.99802319358E+01 -0.13898616602E+02  0.32603729750E+02  0.54367085202E+02  0.40000002335E+02 0.  0.
        -12    1    3    3    0    0 -0.99802319358E+01  0.13898616602E+02 -0.32603729750E+02  0.36820914798E+02  0.00000000000E+00 0.  1.
         11    1    4    4    0    0  0.15292273595E+01  0.26330158966E+01 -0.19652098099E+01  0.36239976389E+01  0.51100000000E-03 0. -1.
        -11    1    4    4    0    0  0.61733453980E+01  0.69658260772E+01  0.53511583161E+00  0.93230507644E+01  0.51100000000E-03 0.  1.
         12    1    4    4    0    0  0.22776591783E+01 -0.23497458576E+02  0.34033823728E+02  0.41420036799E+02  0.00000000000E+00 0. -1.
</event>
<event>
 8    1  0.3146747E-007  0.9118800E+02  0.7816164E-02  0.1184000E+00
        -11   -1    0    0    0    0  0.00000000000E+00  0.00000000000E+00  0.45593999997E+02  0.45594000000E+02  0.51100000000E-03 0.  1.
         11   -1    0    0    0    0 -0.00000000000E+00 -0.00000000000E+00 -0.45593999997E+02  0.45594000000E+02  0.51100000000E-03 0. -1.
         23    2    1    2    0    0  0.00000000000E+00  0.00000000000E+00  0.35527136788E-14  0.91188000000E+02  0.91188000000E+02 0.  0.
    9900012    2    3    3    0    0  0.78392717786E+01 -0.23746667684E+02 -0.27026323452E+02  0.54367074326E+02  0.39999977541E+02 0.  0.
        -12    1    3    3    0    0 -0.78392717786E+01  0.23746667684E+02  0.27026323452E+02  0.36820925674E+02  0.00000000000E+00 0.  1.
         11    1    4    4    0    0  0.17224535623E+01 -0.58456851073E+01 -0.20645974656E+02  0.21526614931E+02  0.51100000000E-03 0. -1.
        -11    1    4    4    0    0  0.21277176055E+01 -0.11534524749E+02  0.96163849087E+01  0.15167310321E+02  0.51100000000E-03 0.  1.
        -12    1    4    4    0    0  0.39891006107E+01 -0.63664578275E+01 -0.15996733705E+02  0.17673149074E+02  0.00000000000E+00 0.  1.
</event>
<event>
 8    1  0.3146747E-007  0.9118800E+02  0.7816164E-02  0.1184000E+00
        -11   -1    0    0    0    0  0.00000000000E+00  0.00000000000E+00  0.45593999997E+02  0.45594000000E+02  0.51100000000E-03 0.  1.
         11   -1    0    0    0    0 -0.00000000000E+00 -0.00000000000E+00 -0.45593999997E+02  0.45594000000E+02  0.51100000000E-03 0. -1.
         23    2    1    2    0    0  0.17763568394E-14  0.00000000000E+00  0.00000000000E+00  0.91188000000E+02  0.91188000000E+02 0.  0.
    9900012    2    3    3    0    0 -0.29076966495E+01  0.31669327372E+02  0.18557462288E+02  0.54367076565E+02  0.39999982646E+02 0.  0.
         12    1    3    3    0    0  0.29076966495E+01 -0.31669327372E+02 -0.18557462288E+02  0.36820923435E+02  0.00000000000E+00 0. -1.
         11    1    4    4    0    0 -0.25476972213E+01 -0.53834558833E+01 -0.15757383106E+01  0.61607880879E+01  0.51100000000E-03 0. -1.
        -11    1    4    4    0    0 -0.10736416236E+02  0.13507045444E+02  0.12697055352E+02  0.21422561123E+02  0.51100000000E-03 0.  1.
        -12    1    4    4    0    0  0.10376416808E+02  0.23545737812E+02  0.74361452468E+01  0.26783727354E+02  0.00000000000E+00 0.  1.
</event>
<event>
 8    1  0.3146747E-007  0.9118800E+02  0.7816164E-02  0.1184000E+00
        -11   -1    0    0    0    0  0.00000000000E+00  0.00000000000E+00  0.45593999997E+02  0.45594000000E+02  0.51100000000E-03 0.  1.
         11   -1    0    0    0    0 -0.00000000000E+00 -0.00000000000E+00 -0.45593999997E+02  0.45594000000E+02  0.51100000000E-03 0. -1.
         23    2    1    2    0    0 -0.88817841970E-15  0.00000000000E+00 -0.35527136788E-14  0.91188000000E+02  0.91188000000E+02 0.  0.
    9900012    2    3    3    0    0  0.69403944609E+01  0.34404238377E+02  0.11133696522E+02  0.54367083501E+02  0.39999998457E+02 0.  0.
        -12    1    3    3    0    0 -0.69403944609E+01 -0.34404238377E+02 -0.11133696522E+02  0.36820916499E+02  0.00000000000E+00 0.  1.
         11    1    4    4    0    0  0.45481148455E+01  0.25163127773E+02  0.13528774232E+02  0.28929156234E+02  0.51100000000E-03 0. -1.
        -11    1    4    4    0    0 -0.46283014297E+01  0.15250136425E+02 -0.19314403507E+00  0.15938166142E+02  0.51100000000E-03 0.  1.
        -12    1    4    4    0    0  0.70205810451E+01 -0.60090258197E+01 -0.22019336749E+01  0.94997611244E+01  0.00000000000E+00 0.  1.
</event>
<event>
 8    1  0.3146747E-007  0.9118800E+02  0.7816164E-02  0.1184000E+00
        -11   -1    0    0    0    0  0.00000000000E+00  0.00000000000E+00  0.45593999997E+02  0.45594000000E+02  0.51100000000E-03 0. -1.
         11   -1    0    0    0    0 -0.00000000000E+00 -0.00000000000E+00 -0.45593999997E+02  0.45594000000E+02  0.51100000000E-03 0.  1.
         23    2    1    2    0    0  0.00000000000E+00  0.00000000000E+00  0.00000000000E+00  0.91188000000E+02  0.91188000000E+02 0.  0.
    9900012    2    3    3    0    0 -0.33367586012E+01  0.35402141739E+02 -0.95568514830E+01  0.54367095504E+02  0.40000025820E+02 0.  0.
         12    1    3    3    0    0  0.33367586012E+01 -0.35402141739E+02  0.95568514830E+01  0.36820904496E+02  0.00000000000E+00 0. -1.
         11    1    4    4    0    0  0.33762664834E+00 -0.37247658472E+01 -0.64558830771E+01  0.74609851184E+01  0.51100000000E-03 0. -1.
        -11    1    4    4    0    0  0.16299654840E+01  0.96593105651E+01  0.10201205280E+02  0.14142972018E+02  0.51100000000E-03 0.  1.
         12    1    4    4    0    0 -0.53043507335E+01  0.29467597021E+02 -0.13302173686E+02  0.32763138367E+02  0.00000000000E+00 0. -1.
</event>
<event>
 8    1  0.3146747E-007  0.9118800E+02  0.7816164E-02  0.1184000E+00
        -11   -1    0    0    0    0  0.00000000000E+00  0.00000000000E+00  0.45593999997E+02  0.45594000000E+02  0.51100000000E-03 0. -1.
         11   -1    0    0    0    0 -0.00000000000E+00 -0.00000000000E+00 -0.45593999997E+02  0.45594000000E+02  0.51100000000E-03 0.  1.
         23    2    1    2    0    0  0.00000000000E+00 -0.17763568394E-14  0.00000000000E+00  0.91188000000E+02  0.91188000000E+02 0.  0.
    9900012    2    3    3    0    0  0.34092269984E+02  0.94762442617E+01  0.10183014720E+02  0.54367138159E+02  0.40000123060E+02 0.  0.
        -12    1    3    3    0    0 -0.34092269984E+02 -0.94762442617E+01 -0.10183014720E+02  0.36820861841E+02  0.00000000000E+00 0.  1.
         11    1    4    4    0    0  0.22068122112E+02  0.59748002497E+01  0.66951897070E+01  0.23822800362E+02  0.51100000000E-03 0. -1.
        -11    1    4    4    0    0 -0.24841606224E+01 -0.95526743670E+01  0.48157346261E+01  0.10982528935E+02  0.51100000000E-03 0.  1.
         12    1    4    4    0    0  0.14508308494E+02  0.13054118379E+02 -0.13279096131E+01  0.19561808862E+02  0.00000000000E+00 0. -1.
</event>
<event>
 8    1  0.3146747E-007  0.9118800E+02  0.7816164E-02  0.1184000E+00
        -11   -1    0    0    0    0  0.00000000000E+00  0.00000000000E+00  0.45593999997E+02  0.45594000000E+02  0.51100000000E-03 0.  1.
         11   -1    0    0    0    0 -0.00000000000E+00 -0.00000000000E+00 -0.45593999997E+02  0.45594000000E+02  0.51100000000E-03 0. -1.
         23    2    1    2    0    0 -0.17763568394E-14  0.00000000000E+00  0.00000000000E+00  0.91188000000E+02  0.91188000000E+02 0.  0.
    9900012    2    3    3    0    0 -0.12721236672E+02 -0.34475468290E+02 -0.23223340811E+01  0.54367068292E+02  0.39999963786E+02 0.  0.
         12    1    3    3    0    0  0.12721236672E+02  0.34475468290E+02  0.23223340811E+01  0.36820931708E+02  0.00000000000E+00 0. -1.
         11    1    4    4    0    0 -0.80704674561E+00 -0.29990266140E+02  0.27888305321E+01  0.30130465705E+02  0.51100000000E-03 0. -1.
        -11    1    4    4    0    0 -0.51295597235E+01 -0.23895437699E+01  0.77198498340E+01  0.95717492709E+01  0.51100000000E-03 0.  1.
        -12    1    4    4    0    0 -0.67846302031E+01 -0.20956583793E+01 -0.12831014447E+02  0.14664853316E+02  0.00000000000E+00 0.  1.
</event>
<event>
 8    1  0.3146747E-007  0.9118800E+02  0.7816164E-02  0.1184000E+00
        -11   -1    0    0    0    0  0.00000000000E+00  0.00000000000E+00  0.45593999997E+02  0.45594000000E+02  0.51100000000E-03 0. -1.
         11   -1    0    0    0    0 -0.00000000000E+00 -0.00000000000E+00 -0.45593999997E+02  0.45594000000E+02  0.51100000000E-03 0.  1.
         23    2    1    2    0    0 -0.35527136788E-14 -0.17763568394E-14  0.00000000000E+00  0.91188000000E+02  0.91188000000E+02 0.  0.
    9900012    2    3    3    0    0 -0.28533302947E+02 -0.14872677781E+02  0.17900573922E+02  0.54367129992E+02  0.40000104442E+02 0.  0.
        -12    1    3    3    0    0  0.28533302947E+02  0.14872677781E+02 -0.17900573922E+02  0.36820870008E+02  0.00000000000E+00 0.  1.
         11    1    4    4    0    0 -0.16237724380E+02  0.30588358171E+01  0.11637069881E+02  0.20209937290E+02  0.51100000000E-03 0. -1.
        -11    1    4    4    0    0 -0.10518070113E+02  0.33622517342E+01 -0.20463404965E+01  0.11230407175E+02  0.51100000000E-03 0.  1.
         12    1    4    4    0    0 -0.17775084539E+01 -0.21293765333E+02  0.83098445375E+01  0.22926785527E+02  0.00000000000E+00 0. -1.
</event>
<event>
 8    1  0.3146747E-007  0.9118800E+02  0.7816164E-02  0.1184000E+00
        -11   -1    0    0    0    0  0.00000000000E+00  0.00000000000E+00  0.45593999997E+02  0.45594000000E+02  0.51100000000E-03 0. -1.
         11   -1    0    0    0    0 -0.00000000000E+00 -0.00000000000E+00 -0.45593999997E+02  0.45594000000E+02  0.51100000000E-03 0.  1.
         23    2    1    2    0    0  0.88817841970E-15  0.00000000000E+00  0.00000000000E+00  0.91188000000E+02  0.91188000000E+02 0.  0.
    9900012    2    3    3    0    0  0.49199592111E+01  0.33943808013E+02  0.13393774213E+02  0.54367064532E+02  0.39999955215E+02 0.  0.
        -12    1    3    3    0    0 -0.49199592111E+01 -0.33943808013E+02 -0.13393774213E+02  0.36820935468E+02  0.00000000000E+00 0.  1.
         11    1    4    4    0    0 -0.32643578465E+01  0.23786022836E+02 -0.67573209691E+00  0.24018483062E+02  0.51100000000E-03 0. -1.
        -11    1    4    4    0    0  0.11520732365E+02  0.90135502020E+01  0.19190891353E+02  0.24130098894E+02  0.51100000000E-03 0.  1.
        -12    1    4    4    0    0 -0.33364153077E+01  0.11442349752E+01 -0.51213850433E+01  0.62184825758E+01  0.00000000000E+00 0.  1.
</event>
<event>
 8    1  0.3146747E-007  0.9118800E+02  0.7816164E-02  0.1184000E+00
        -11   -1    0    0    0    0  0.00000000000E+00  0.00000000000E+00  0.45593999997E+02  0.45594000000E+02  0.51100000000E-03 0.  1.
         11   -1    0    0    0    0 -0.00000000000E+00 -0.00000000000E+00 -0.45593999997E+02  0.45594000000E+02  0.51100000000E-03 0. -1.
         23    2    1    2    0    0  0.35527136788E-14 -0.35527136788E-14  0.55511151231E-16  0.91188000000E+02  0.91188000000E+02 0.  0.
    9900012    2    3    3    0    0 -0.25625187918E+02  0.26436564986E+02 -0.48703048620E+00  0.54367089870E+02  0.40000012977E+02 0.  0.
        -12    1    3    3    0    0  0.25625187918E+02 -0.26436564986E+02  0.48703048620E+00  0.36820910130E+02  0.00000000000E+00 0.  1.
         11    1    4    4    0    0 -0.15095244787E+02 -0.35710647079E+00 -0.12711486342E+02  0.19737675280E+02  0.51100000000E-03 0. -1.
        -11    1    4    4    0    0 -0.11552648427E+02  0.27105645912E+02  0.83718026682E+01  0.30631141117E+02  0.51100000000E-03 0.  1.
         12    1    4    4    0    0  0.10227052958E+01 -0.31197445448E+00  0.38526531873E+01  0.39982734729E+01  0.00000000000E+00 0. -1.
</event>
<event>
 8    1  0.3146747E-007  0.9118800E+02  0.7816164E-02  0.1184000E+00
        -11   -1    0    0    0    0  0.00000000000E+00  0.00000000000E+00  0.45593999997E+02  0.45594000000E+02  0.51100000000E-03 0. -1.
         11   -1    0    0    0    0 -0.00000000000E+00 -0.00000000000E+00 -0.45593999997E+02  0.45594000000E+02  0.51100000000E-03 0.  1.
         23    2    1    2    0    0  0.00000000000E+00  0.00000000000E+00 -0.35527136788E-14  0.91188000000E+02  0.91188000000E+02 0.  0.
    9900012    2    3    3    0    0 -0.28692634949E+02  0.96273398160E+01  0.20972053879E+02  0.54367081813E+02  0.39999994608E+02 0.  0.
        -12    1    3    3    0    0  0.28692634949E+02 -0.96273398160E+01 -0.20972053879E+02  0.36820918187E+02  0.00000000000E+00 0.  1.
         11    1    4    4    0    0 -0.23831332595E+02  0.47300689087E+01  0.27876099912E+02  0.36978140998E+02  0.51100000000E-03 0. -1.
        -11    1    4    4    0    0  0.72486673167E+00  0.19500147008E+00  0.41079909101E+01  0.41760084926E+01  0.51100000000E-03 0.  1.
        -12    1    4    4    0    0 -0.55861690857E+01  0.47022694373E+01 -0.11012036943E+02  0.13212932322E+02  0.00000000000E+00 0.  1.
</event>
<event>
 8    1  0.3146747E-007  0.9118800E+02  0.7816164E-02  0.1184000E+00
        -11   -1    0    0    0    0  0.00000000000E+00  0.00000000000E+00  0.45593999997E+02  0.45594000000E+02  0.51100000000E-03 0. -1.
         11   -1    0    0    0    0 -0.00000000000E+00 -0.00000000000E+00 -0.45593999997E+02  0.45594000000E+02  0.51100000000E-03 0.  1.
         23    2    1    2    0    0  0.00000000000E+00  0.00000000000E+00  0.00000000000E+00  0.91188000000E+02  0.91188000000E+02 0.  0.
    9900012    2    3    3    0    0 -0.32292174002E+02  0.16041785292E+02  0.74601666763E+01  0.54367116469E+02  0.40000073615E+02 0.  0.
         12    1    3    3    0    0  0.32292174002E+02 -0.16041785292E+02 -0.74601666763E+01  0.36820883531E+02  0.00000000000E+00 0. -1.
         11    1    4    4    0    0 -0.28368393147E+02  0.24783084932E+02  0.71741764283E+01  0.38346262349E+02  0.51100000000E-03 0.  1.
        -11    1    4    4    0    0 -0.75490623860E+01 -0.54844198536E+01 -0.33781390970E+01  0.99236600132E+01  0.51100000000E-03 0. -1.
        -12    1    4    4    0    0  0.36252815308E+01 -0.32568797859E+01  0.36641293449E+01  0.60971941066E+01  0.00000000000E+00 0.  1.
</event>
<event>
 8    1  0.3146747E-007  0.9118800E+02  0.7816164E-02  0.1184000E+00
        -11   -1    0    0    0    0  0.00000000000E+00  0.00000000000E+00  0.45593999997E+02  0.45594000000E+02  0.51100000000E-03 0. -1.
         11   -1    0    0    0    0 -0.00000000000E+00 -0.00000000000E+00 -0.45593999997E+02  0.45594000000E+02  0.51100000000E-03 0.  1.
         23    2    1    2    0    0  0.00000000000E+00  0.00000000000E+00  0.35527136788E-14  0.91188000000E+02  0.91188000000E+02 0.  0.
    9900012    2    3    3    0    0  0.16963140827E+02  0.74720699643E+01 -0.31815128855E+02  0.54367049437E+02  0.39999920802E+02 0.  0.
         12    1    3    3    0    0 -0.16963140827E+02 -0.74720699643E+01  0.31815128855E+02  0.36820950563E+02  0.00000000000E+00 0. -1.
         11    1    4    4    0    0  0.11567339408E+02 -0.39016520990E+01 -0.20881325848E+01  0.12384931491E+02  0.51100000000E-03 0. -1.
        -11    1    4    4    0    0  0.90396538090E+01  0.18999437166E+02 -0.19216040106E+02  0.28494739010E+02  0.51100000000E-03 0.  1.
         12    1    4    4    0    0 -0.36438523901E+01 -0.76257151030E+01 -0.10510956165E+02  0.13487378937E+02  0.00000000000E+00 0. -1.
</event>
<event>
 8    1  0.3146747E-007  0.9118800E+02  0.7816164E-02  0.1184000E+00
        -11   -1    0    0    0    0  0.00000000000E+00  0.00000000000E+00  0.45593999997E+02  0.45594000000E+02  0.51100000000E-03 0.  1.
         11   -1    0    0    0    0 -0.00000000000E+00 -0.00000000000E+00 -0.45593999997E+02  0.45594000000E+02  0.51100000000E-03 0. -1.
         23    2    1    2    0    0  0.00000000000E+00 -0.35527136788E-14  0.00000000000E+00  0.91188000000E+02  0.91188000000E+02 0.  0.
    9900012    2    3    3    0    0 -0.17117320408E+02 -0.25504880892E+02  0.20304555780E+02  0.54367128301E+02  0.40000100587E+02 0.  0.
         12    1    3    3    0    0  0.17117320408E+02  0.25504880892E+02 -0.20304555780E+02  0.36820871699E+02  0.00000000000E+00 0. -1.
         11    1    4    4    0    0 -0.70795776107E+01 -0.22195221421E+02  0.19712315191E+02  0.30517595638E+02  0.51100000000E-03 0. -1.
        -11    1    4    4    0    0 -0.12016541765E+02 -0.10648302952E+02 -0.98891414848E+00  0.16086067985E+02  0.51100000000E-03 0.  1.
        -12    1    4    4    0    0  0.19787989684E+01  0.73386434809E+01  0.15811547378E+01  0.77634646777E+01  0.00000000000E+00 0.  1.
</event>
<event>
 8    1  0.3146747E-007  0.9118800E+02  0.7816164E-02  0.1184000E+00
        -11   -1    0    0    0    0  0.00000000000E+00  0.00000000000E+00  0.45593999997E+02  0.45594000000E+02  0.51100000000E-03 0.  1.
         11   -1    0    0    0    0 -0.00000000000E+00 -0.00000000000E+00 -0.45593999997E+02  0.45594000000E+02  0.51100000000E-03 0. -1.
         23    2    1    2    0    0 -0.11102230246E-15  0.71054273576E-14 -0.44408920985E-15  0.91188000000E+02  0.91188000000E+02 0.  0.
    9900012    2    3    3    0    0 -0.53843948531E+00 -0.36796968235E+02  0.12132258736E+01  0.54367099612E+02  0.40000035186E+02 0.  0.
        -12    1    3    3    0    0  0.53843948531E+00  0.36796968235E+02 -0.12132258736E+01  0.36820900388E+02  0.00000000000E+00 0.  1.
         11    1    4    4    0    0 -0.10875547470E+01 -0.30514149102E+02  0.90371744896E+01  0.31842842112E+02  0.51100000000E-03 0. -1.
        -11    1    4    4    0    0  0.11934201449E+01 -0.13644790133E+02 -0.56944334350E+01  0.14833446054E+02  0.51100000000E-03 0.  1.
        -12    1    4    4    0    0 -0.64430488321E+00  0.73619710007E+01 -0.21295151810E+01  0.76908114464E+01  0.00000000000E+00 0.  1.
</event>
<event>
 8    1  0.3146747E-007  0.9118800E+02  0.7816164E-02  0.1184000E+00
        -11   -1    0    0    0    0  0.00000000000E+00  0.00000000000E+00  0.45593999997E+02  0.45594000000E+02  0.51100000000E-03 0. -1.
         11   -1    0    0    0    0 -0.00000000000E+00 -0.00000000000E+00 -0.45593999997E+02  0.45594000000E+02  0.51100000000E-03 0.  1.
         23    2    1    2    0    0 -0.88817841970E-15 -0.35527136788E-14 -0.71054273576E-14  0.91188000000E+02  0.91188000000E+02 0.  0.
    9900012    2    3    3    0    0  0.41863294620E+01  0.21092224022E+02  0.29889347658E+02  0.54367076981E+02  0.39999983593E+02 0.  0.
        -12    1    3    3    0    0 -0.41863294620E+01 -0.21092224022E+02 -0.29889347658E+02  0.36820923019E+02  0.00000000000E+00 0.  1.
         11    1    4    4    0    0  0.30949582659E+01  0.25088683457E+02  0.14740359760E+02  0.29262587213E+02  0.51100000000E-03 0. -1.
        -11    1    4    4    0    0 -0.33482404500E+01 -0.98425484041E+01  0.14350095882E+02  0.17720375991E+02  0.51100000000E-03 0.  1.
         12    1    4    4    0    0  0.44396116462E+01  0.58460889692E+01  0.79889201609E+00  0.73841137761E+01  0.00000000000E+00 0. -1.
</event>
<event>
 8    1  0.3146747E-007  0.9118800E+02  0.7816164E-02  0.1184000E+00
        -11   -1    0    0    0    0  0.00000000000E+00  0.00000000000E+00  0.45593999997E+02  0.45594000000E+02  0.51100000000E-03 0.  1.
         11   -1    0    0    0    0 -0.00000000000E+00 -0.00000000000E+00 -0.45593999997E+02  0.45594000000E+02  0.51100000000E-03 0. -1.
         23    2    1    2    0    0  0.35527136788E-14  0.00000000000E+00 -0.35527136788E-14  0.91188000000E+02  0.91188000000E+02 0.  0.
    9900012    2    3    3    0    0 -0.27237083504E+02  0.18228360697E+02  0.16782353192E+02  0.54367092486E+02  0.40000018940E+02 0.  0.
         12    1    3    3    0    0  0.27237083504E+02 -0.18228360697E+02 -0.16782353192E+02  0.36820907514E+02  0.00000000000E+00 0. -1.
         11    1    4    4    0    0 -0.31113688584E+01  0.72044675836E+01 -0.94771029633E+00  0.79046267719E+01  0.51100000000E-03 0. -1.
        -11    1    4    4    0    0 -0.71480293314E+01 -0.14727672803E+01  0.23499117436E+02  0.24606338356E+02  0.51100000000E-03 0.  1.
        -12    1    4    4    0    0 -0.16977685314E+02  0.12496660394E+02 -0.57690539480E+01  0.21856127358E+02  0.00000000000E+00 0.  1.
</event>
<event>
 8    1  0.3146747E-007  0.9118800E+02  0.7816164E-02  0.1184000E+00
        -11   -1    0    0    0    0  0.00000000000E+00  0.00000000000E+00  0.45593999997E+02  0.45594000000E+02  0.51100000000E-03 0. -1.
         11   -1    0    0    0    0 -0.00000000000E+00 -0.00000000000E+00 -0.45593999997E+02  0.45594000000E+02  0.51100000000E-03 0.  1.
         23    2    1    2    0    0 -0.88817841970E-15  0.00000000000E+00  0.35527136788E-14  0.91188000000E+02  0.91188000000E+02 0.  0.
    9900012    2    3    3    0    0 -0.49996312117E+01 -0.25886749850E+02  0.25703321639E+02  0.54367070172E+02  0.39999968072E+02 0.  0.
        -12    1    3    3    0    0  0.49996312117E+01  0.25886749850E+02 -0.25703321639E+02  0.36820929828E+02  0.00000000000E+00 0.  1.
         11    1    4    4    0    0  0.15728662673E+02 -0.12779388120E+02  0.19351699912E+02  0.28021275488E+02  0.51100000000E-03 0. -1.
        -11    1    4    4    0    0 -0.14384753923E+02 -0.12200523388E+02  0.29512481416E+01  0.19091458357E+02  0.51100000000E-03 0.  1.
         12    1    4    4    0    0 -0.63435399621E+01 -0.90683834232E+00  0.34003735857E+01  0.72543363275E+01  0.00000000000E+00 0. -1.
</event>
<event>
 8    1  0.3146747E-007  0.9118800E+02  0.7816164E-02  0.1184000E+00
        -11   -1    0    0    0    0  0.00000000000E+00  0.00000000000E+00  0.45593999997E+02  0.45594000000E+02  0.51100000000E-03 0. -1.
         11   -1    0    0    0    0 -0.00000000000E+00 -0.00000000000E+00 -0.45593999997E+02  0.45594000000E+02  0.51100000000E-03 0.  1.
         23    2    1    2    0    0 -0.71054273576E-14 -0.88817841970E-15  0.00000000000E+00  0.91188000000E+02  0.91188000000E+02 0.  0.
    9900012    2    3    3    0    0 -0.32207978375E+02  0.30428657540E+01  0.17583122777E+02  0.54367094123E+02  0.40000022672E+02 0.  0.
        -12    1    3    3    0    0  0.32207978375E+02 -0.30428657540E+01 -0.17583122777E+02  0.36820905877E+02  0.00000000000E+00 0.  1.
         11    1    4    4    0    0 -0.30772147627E+02 -0.78153295177E+01  0.16157260799E+02  0.35623889763E+02  0.51100000000E-03 0. -1.
        -11    1    4    4    0    0 -0.12668506527E+01  0.10893250464E+02 -0.51846258475E+01  0.12130464200E+02  0.51100000000E-03 0.  1.
         12    1    4    4    0    0 -0.16898009547E+00 -0.35055192781E-01  0.66104878257E+01  0.66127401607E+01  0.00000000000E+00 0. -1.
</event>
<event>
 8    1  0.3146747E-007  0.9118800E+02  0.7816164E-02  0.1184000E+00
        -11   -1    0    0    0    0  0.00000000000E+00  0.00000000000E+00  0.45593999997E+02  0.45594000000E+02  0.51100000000E-03 0. -1.
         11   -1    0    0    0    0 -0.00000000000E+00 -0.00000000000E+00 -0.45593999997E+02  0.45594000000E+02  0.51100000000E-03 0.  1.
         23    2    1    2    0    0  0.35527136788E-14 -0.35527136788E-14  0.00000000000E+00  0.91188000000E+02  0.91188000000E+02 0.  0.
    9900012    2    3    3    0    0  0.26755104754E+02 -0.18385852253E+02 -0.17375505687E+02  0.54367035980E+02  0.39999890124E+02 0.  0.
         12    1    3    3    0    0 -0.26755104754E+02  0.18385852253E+02  0.17375505687E+02  0.36820964020E+02  0.00000000000E+00 0. -1.
         11    1    4    4    0    0  0.12912435601E+02 -0.23277087021E+02  0.10782586380E+01  0.26640503285E+02  0.51100000000E-03 0. -1.
        -11    1    4    4    0    0  0.92758906719E+01 -0.41353513783E+01 -0.64606693228E+01  0.12036757335E+02  0.51100000000E-03 0.  1.
        -12    1    4    4    0    0  0.45667784813E+01  0.90265861457E+01 -0.11993095002E+02  0.15689775361E+02  0.00000000000E+00 0.  1.
</event>
<event>
 8    1  0.3146747E-007  0.9118800E+02  0.7816164E-02  0.1184000E+00
        -11   -1    0    0    0    0  0.00000000000E+00  0.00000000000E+00  0.45593999997E+02  0.45594000000E+02  0.51100000000E-03 0. -1.
         11   -1    0    0    0    0 -0.00000000000E+00 -0.00000000000E+00 -0.45593999997E+02  0.45594000000E+02  0.51100000000E-03 0.  1.
         23    2    1    2    0    0  0.00000000000E+00  0.00000000000E+00  0.00000000000E+00  0.91188000000E+02  0.91188000000E+02 0.  0.
    9900012    2    3    3    0    0  0.13220725837E+02 -0.11210903501E+02  0.32485499376E+02  0.54367087210E+02  0.40000006914E+02 0.  0.
        -12    1    3    3    0    0 -0.13220725837E+02  0.11210903501E+02 -0.32485499376E+02  0.36820912790E+02  0.00000000000E+00 0.  1.
         11    1    4    4    0    0  0.98950012120E+01  0.24777446393E+01  0.11427068807E+02  0.15317577134E+02  0.51100000000E-03 0. -1.
        -11    1    4    4    0    0  0.47222551146E+01  0.74393795887E+01  0.14347567121E+02  0.16837361568E+02  0.51100000000E-03 0.  1.
         12    1    4    4    0    0 -0.13965304893E+01 -0.21128027729E+02  0.67108634478E+01  0.22212148508E+02  0.00000000000E+00 0. -1.
</event>
<event>
 8    1  0.3146747E-007  0.9118800E+02  0.7816164E-02  0.1184000E+00
        -11   -1    0    0    0    0  0.00000000000E+00  0.00000000000E+00  0.45593999997E+02  0.45594000000E+02  0.51100000000E-03 0.  1.
         11   -1    0    0    0    0 -0.00000000000E+00 -0.00000000000E+00 -0.45593999997E+02  0.45594000000E+02  0.51100000000E-03 0. -1.
         23    2    1    2    0    0  0.00000000000E+00  0.00000000000E+00 -0.35527136788E-14  0.91188000000E+02  0.91188000000E+02 0.  0.
    9900012    2    3    3    0    0  0.22314218088E+02  0.19600693523E+02  0.21763930087E+02  0.54367079747E+02  0.39999989899E+02 0.  0.
         12    1    3    3    0    0 -0.22314218088E+02 -0.19600693523E+02 -0.21763930087E+02  0.36820920253E+02  0.00000000000E+00 0. -1.
         11    1    4    4    0    0  0.61470319496E+00 -0.36595927839E+01  0.46081423532E+01  0.59165408450E+01  0.51100000000E-03 0. -1.
        -11    1    4    4    0    0  0.90911104894E+01  0.14768640011E+01  0.21054750014E+02  0.22981120852E+02  0.51100000000E-03 0.  1.
        -12    1    4    4    0    0  0.12608404403E+02  0.21783422306E+02 -0.38989622802E+01  0.25469418050E+02  0.00000000000E+00 0.  1.
</event>
<event>
 8    1  0.3146747E-007  0.9118800E+02  0.7816164E-02  0.1184000E+00
        -11   -1    0    0    0    0  0.00000000000E+00  0.00000000000E+00  0.45593999997E+02  0.45594000000E+02  0.51100000000E-03 0.  1.
         11   -1    0    0    0    0 -0.00000000000E+00 -0.00000000000E+00 -0.45593999997E+02  0.45594000000E+02  0.51100000000E-03 0. -1.
         23    2    1    2    0    0 -0.88817841970E-15  0.00000000000E+00  0.00000000000E+00  0.91188000000E+02  0.91188000000E+02 0.  0.
    9900012    2    3    3    0    0  0.55028294052E+01 -0.20557735938E+02 -0.30047924712E+02  0.54367089937E+02  0.40000013130E+02 0.  0.
        -12    1    3    3    0    0 -0.55028294052E+01  0.20557735938E+02  0.30047924712E+02  0.36820910063E+02  0.00000000000E+00 0.  1.
         11    1    4    4    0    0 -0.71498342332E+00 -0.24490911829E+01 -0.49102909862E+01  0.55335528143E+01  0.51100000000E-03 0. -1.
        -11    1    4    4    0    0  0.19472626261E+02 -0.57057175565E+01 -0.35020120792E+01  0.20591320385E+02  0.51100000000E-03 0.  1.
        -12    1    4    4    0    0 -0.13254813433E+02 -0.12402927198E+02 -0.21635621647E+02  0.28242216738E+02  0.00000000000E+00 0.  1.
</event>
<event>
 8    1  0.3146747E-007  0.9118800E+02  0.7816164E-02  0.1184000E+00
        -11   -1    0    0    0    0  0.00000000000E+00  0.00000000000E+00  0.45593999997E+02  0.45594000000E+02  0.51100000000E-03 0.  1.
         11   -1    0    0    0    0 -0.00000000000E+00 -0.00000000000E+00 -0.45593999997E+02  0.45594000000E+02  0.51100000000E-03 0. -1.
         23    2    1    2    0    0  0.00000000000E+00 -0.17763568394E-14  0.00000000000E+00  0.91188000000E+02  0.91188000000E+02 0.  0.
    9900012    2    3    3    0    0 -0.16937419759E+02 -0.12536911218E+02 -0.30194854268E+02  0.54367088071E+02  0.40000008876E+02 0.  0.
        -12    1    3    3    0    0  0.16937419759E+02  0.12536911218E+02  0.30194854268E+02  0.36820911929E+02  0.00000000000E+00 0.  1.
         11    1    4    4    0    0 -0.84626558616E+01 -0.16918229759E+01 -0.92005249794E+00  0.86790152709E+01  0.51100000000E-03 0. -1.
        -11    1    4    4    0    0  0.32664569739E+01  0.10326926488E+02 -0.81048046626E+01  0.13527860537E+02  0.51100000000E-03 0.  1.
         12    1    4    4    0    0 -0.11741220871E+02 -0.21172014729E+02 -0.21169997108E+02  0.32160212263E+02  0.00000000000E+00 0. -1.
</event>
<event>
 8    1  0.3146747E-007  0.9118800E+02  0.7816164E-02  0.1184000E+00
        -11   -1    0    0    0    0  0.00000000000E+00  0.00000000000E+00  0.45593999997E+02  0.45594000000E+02  0.51100000000E-03 0. -1.
         11   -1    0    0    0    0 -0.00000000000E+00 -0.00000000000E+00 -0.45593999997E+02  0.45594000000E+02  0.51100000000E-03 0.  1.
         23    2    1    2    0    0  0.00000000000E+00  0.00000000000E+00  0.71054273576E-14  0.91188000000E+02  0.91188000000E+02 0.  0.
    9900012    2    3    3    0    0  0.38130657136E+01 -0.10518266276E+02 -0.35080006457E+02  0.54367078656E+02  0.39999987412E+02 0.  0.
         12    1    3    3    0    0 -0.38130657136E+01  0.10518266276E+02  0.35080006457E+02  0.36820921344E+02  0.00000000000E+00 0. -1.
         11    1    4    4    0    0  0.11674391019E+01 -0.11718471046E+02  0.15236803218E+00  0.11777465517E+02  0.51100000000E-03 0. -1.
        -11    1    4    4    0    0  0.12429395419E+02 -0.37115053346E+01 -0.18525675491E+02  0.22615609543E+02  0.51100000000E-03 0.  1.
        -12    1    4    4    0    0 -0.97837688077E+01  0.49117101056E+01 -0.16706698998E+02  0.19974003596E+02  0.00000000000E+00 0.  1.
</event>
<event>
 8    1  0.3146747E-007  0.9118800E+02  0.7816164E-02  0.1184000E+00
        -11   -1    0    0    0    0  0.00000000000E+00  0.00000000000E+00  0.45593999997E+02  0.45594000000E+02  0.51100000000E-03 0. -1.
         11   -1    0    0    0    0 -0.00000000000E+00 -0.00000000000E+00 -0.45593999997E+02  0.45594000000E+02  0.51100000000E-03 0.  1.
         23    2    1    2    0    0 -0.88817841970E-15  0.35527136788E-14  0.00000000000E+00  0.91188000000E+02  0.91188000000E+02 0.  0.
    9900012    2    3    3    0    0 -0.75679195967E+01  0.26485772477E+02 -0.24433815662E+02  0.54367069831E+02  0.39999967294E+02 0.  0.
         12    1    3    3    0    0  0.75679195967E+01 -0.26485772477E+02  0.24433815662E+02  0.36820930169E+02  0.00000000000E+00 0. -1.
         11    1    4    4    0    0  0.75600452579E+01 -0.29540085413E+01 -0.47321351238E+01  0.93954006756E+01  0.51100000000E-03 0. -1.
        -11    1    4    4    0    0 -0.29724839912E+01  0.22919591983E+01 -0.14243940975E+02  0.14730193237E+02  0.51100000000E-03 0.  1.
         12    1    4    4    0    0 -0.12155480863E+02  0.27147821820E+02 -0.54577395634E+01  0.30241475918E+02  0.00000000000E+00 0. -1.
</event>
<event>
 8    1  0.3146747E-007  0.9118800E+02  0.7816164E-02  0.1184000E+00
        -11   -1    0    0    0    0  0.00000000000E+00  0.00000000000E+00  0.45593999997E+02  0.45594000000E+02  0.51100000000E-03 0. -1.
         11   -1    0    0    0    0 -0.00000000000E+00 -0.00000000000E+00 -0.45593999997E+02  0.45594000000E+02  0.51100000000E-03 0.  1.
         23    2    1    2    0    0  0.00000000000E+00  0.00000000000E+00 -0.88817841970E-15  0.91188000000E+02  0.91188000000E+02 0.  0.
    9900012    2    3    3    0    0  0.22385865505E+02  0.28641278369E+02 -0.58592030212E+01  0.54367081203E+02  0.39999993219E+02 0.  0.
        -12    1    3    3    0    0 -0.22385865505E+02 -0.28641278369E+02  0.58592030212E+01  0.36820918797E+02  0.00000000000E+00 0.  1.
         11    1    4    4    0    0  0.21534308011E+02  0.18526967209E+02 -0.61462770984E+01  0.29064611779E+02  0.51100000000E-03 0. -1.
        -11    1    4    4    0    0 -0.25664814286E+01 -0.58230390955E+00 -0.98370489836E+01  0.10182997483E+02  0.51100000000E-03 0.  1.
         12    1    4    4    0    0  0.34180389229E+01  0.10696615070E+02  0.10124123061E+02  0.15119471941E+02  0.00000000000E+00 0. -1.
</event>
<event>
 8    1  0.3146747E-007  0.9118800E+02  0.7816164E-02  0.1184000E+00
        -11   -1    0    0    0    0  0.00000000000E+00  0.00000000000E+00  0.45593999997E+02  0.45594000000E+02  0.51100000000E-03 0. -1.
         11   -1    0    0    0    0 -0.00000000000E+00 -0.00000000000E+00 -0.45593999997E+02  0.45594000000E+02  0.51100000000E-03 0.  1.
         23    2    1    2    0    0  0.00000000000E+00  0.35527136788E-14  0.17763568394E-14  0.91188000000E+02  0.91188000000E+02 0.  0.
    9900012    2    3    3    0    0  0.22771479689E+02 -0.26489735893E+02 -0.11641900132E+02  0.54367078860E+02  0.39999987877E+02 0.  0.
         12    1    3    3    0    0 -0.22771479689E+02  0.26489735893E+02  0.11641900132E+02  0.36820921140E+02  0.00000000000E+00 0. -1.
         11    1    4    4    0    0  0.27423937395E+01 -0.27578601138E+02 -0.65208246603E+01  0.28471408793E+02  0.51100000000E-03 0. -1.
        -11    1    4    4    0    0  0.20644000434E+02 -0.32384746068E+01 -0.32773944374E+01  0.21151921574E+02  0.51100000000E-03 0.  1.
        -12    1    4    4    0    0 -0.61491448430E+00  0.43273398516E+01 -0.18436810341E+01  0.47437484935E+01  0.00000000000E+00 0.  1.
</event>
<event>
 8    1  0.3146747E-007  0.9118800E+02  0.7816164E-02  0.1184000E+00
        -11   -1    0    0    0    0  0.00000000000E+00  0.00000000000E+00  0.45593999997E+02  0.45594000000E+02  0.51100000000E-03 0. -1.
         11   -1    0    0    0    0 -0.00000000000E+00 -0.00000000000E+00 -0.45593999997E+02  0.45594000000E+02  0.51100000000E-03 0.  1.
         23    2    1    2    0    0 -0.28865798640E-14  0.00000000000E+00  0.00000000000E+00  0.91188000000E+02  0.91188000000E+02 0.  0.
    9900012    2    3    3    0    0 -0.59693532360E+00  0.34217363112E+02  0.13586578882E+02  0.54367090236E+02  0.40000013811E+02 0.  0.
        -12    1    3    3    0    0  0.59693532360E+00 -0.34217363112E+02 -0.13586578882E+02  0.36820909764E+02  0.00000000000E+00 0.  1.
         11    1    4    4    0    0  0.13841435897E+02  0.25157249691E+02  0.14309645912E+02  0.32081747554E+02  0.51100000000E-03 0. -1.
        -11    1    4    4    0    0 -0.55871719260E+01 -0.32367379652E+01 -0.27135798827E+01  0.70040330401E+01  0.51100000000E-03 0.  1.
         12    1    4    4    0    0 -0.88511992942E+01  0.12296851386E+02  0.19905128528E+01  0.15281309642E+02  0.00000000000E+00 0. -1.
</event>
<event>
 8    1  0.3146747E-007  0.9118800E+02  0.7816164E-02  0.1184000E+00
        -11   -1    0    0    0    0  0.00000000000E+00  0.00000000000E+00  0.45593999997E+02  0.45594000000E+02  0.51100000000E-03 0. -1.
         11   -1    0    0    0    0 -0.00000000000E+00 -0.00000000000E+00 -0.45593999997E+02  0.45594000000E+02  0.51100000000E-03 0.  1.
         23    2    1    2    0    0 -0.17763568394E-14  0.00000000000E+00 -0.35527136788E-14  0.91188000000E+02  0.91188000000E+02 0.  0.
    9900012    2    3    3    0    0 -0.13402174330E+02 -0.25955572029E+02  0.22415794363E+02  0.54367111457E+02  0.40000062189E+02 0.  0.
        -12    1    3    3    0    0  0.13402174330E+02  0.25955572029E+02 -0.22415794363E+02  0.36820888543E+02  0.00000000000E+00 0.  1.
         11    1    4    4    0    0 -0.87795175037E+01  0.12852117243E+01  0.15487703619E+01  0.90072407911E+01  0.51100000000E-03 0. -1.
        -11    1    4    4    0    0 -0.14566153345E+02 -0.12090336007E+02  0.17379592916E+01  0.19009722534E+02  0.51100000000E-03 0.  1.
         12    1    4    4    0    0  0.99434965190E+01 -0.15150447747E+02  0.19129064710E+02  0.26350148133E+02  0.00000000000E+00 0. -1.
</event>
<event>
 8    1  0.3146747E-007  0.9118800E+02  0.7816164E-02  0.1184000E+00
        -11   -1    0    0    0    0  0.00000000000E+00  0.00000000000E+00  0.45593999997E+02  0.45594000000E+02  0.51100000000E-03 0.  1.
         11   -1    0    0    0    0 -0.00000000000E+00 -0.00000000000E+00 -0.45593999997E+02  0.45594000000E+02  0.51100000000E-03 0. -1.
         23    2    1    2    0    0  0.35527136788E-14  0.00000000000E+00  0.00000000000E+00  0.91188000000E+02  0.91188000000E+02 0.  0.
    9900012    2    3    3    0    0  0.16161517226E+02  0.98089461509E+01  0.31597194789E+02  0.54366908461E+02  0.39999599416E+02 0.  0.
         12    1    3    3    0    0 -0.16161517226E+02 -0.98089461509E+01 -0.31597194789E+02  0.36821091539E+02  0.00000000000E+00 0. -1.
         11    1    4    4    0    0 -0.70259189703E+01  0.61727927391E+01  0.73311372224E+01  0.11883285775E+02  0.51100000000E-03 0. -1.
        -11    1    4    4    0    0  0.30949554729E+01  0.89816932152E+01 -0.12361331066E+01  0.95800619888E+01  0.51100000000E-03 0.  1.
        -12    1    4    4    0    0  0.20092480724E+02 -0.53455398034E+01  0.25502190673E+02  0.32903560697E+02  0.00000000000E+00 0.  1.
</event>
<event>
 8    1  0.3146747E-007  0.9118800E+02  0.7816164E-02  0.1184000E+00
        -11   -1    0    0    0    0  0.00000000000E+00  0.00000000000E+00  0.45593999997E+02  0.45594000000E+02  0.51100000000E-03 0.  1.
         11   -1    0    0    0    0 -0.00000000000E+00 -0.00000000000E+00 -0.45593999997E+02  0.45594000000E+02  0.51100000000E-03 0. -1.
         23    2    1    2    0    0  0.00000000000E+00  0.00000000000E+00  0.00000000000E+00  0.91188000000E+02  0.91188000000E+02 0.  0.
    9900012    2    3    3    0    0 -0.19960970826E+02 -0.17312493233E+02 -0.25644028455E+02  0.54367095969E+02  0.40000026881E+02 0.  0.
        -12    1    3    3    0    0  0.19960970826E+02  0.17312493233E+02  0.25644028455E+02  0.36820904031E+02  0.00000000000E+00 0.  1.
         11    1    4    4    0    0 -0.37649767304E+01 -0.89871764008E+01  0.93573991962E+01  0.13509452595E+02  0.51100000000E-03 0. -1.
        -11    1    4    4    0    0 -0.16601233540E+02 -0.66771915701E+01 -0.34822667669E+02  0.39151041189E+02  0.51100000000E-03 0.  1.
         12    1    4    4    0    0  0.40523944508E+00 -0.16481252617E+01 -0.17875998204E+00  0.17066021848E+01  0.00000000000E+00 0. -1.
</event>
<event>
 8    1  0.3146747E-007  0.9118800E+02  0.7816164E-02  0.1184000E+00
        -11   -1    0    0    0    0  0.00000000000E+00  0.00000000000E+00  0.45593999997E+02  0.45594000000E+02  0.51100000000E-03 0. -1.
         11   -1    0    0    0    0 -0.00000000000E+00 -0.00000000000E+00 -0.45593999997E+02  0.45594000000E+02  0.51100000000E-03 0.  1.
         23    2    1    2    0    0 -0.88817841970E-15  0.00000000000E+00 -0.17763568394E-14  0.91188000000E+02  0.91188000000E+02 0.  0.
    9900012    2    3    3    0    0 -0.37860635503E+01  0.35031357339E+02 -0.10688761142E+02  0.54367083540E+02  0.39999998546E+02 0.  0.
        -12    1    3    3    0    0  0.37860635503E+01 -0.35031357339E+02  0.10688761142E+02  0.36820916460E+02  0.00000000000E+00 0.  1.
         11    1    4    4    0    0  0.18065224978E+01  0.43569571964E+01 -0.15008856330E+02  0.15732525803E+02  0.51100000000E-03 0. -1.
        -11    1    4    4    0    0 -0.80100809095E+01  0.13066158705E+01 -0.22947072190E+01  0.84341165923E+01  0.51100000000E-03 0.  1.
         12    1    4    4    0    0  0.24174948615E+01  0.29367784272E+02  0.66148024071E+01  0.30200441145E+02  0.00000000000E+00 0. -1.
</event>
<event>
 8    1  0.3146747E-007  0.9118800E+02  0.7816164E-02  0.1184000E+00
        -11   -1    0    0    0    0  0.00000000000E+00  0.00000000000E+00  0.45593999997E+02  0.45594000000E+02  0.51100000000E-03 0. -1.
         11   -1    0    0    0    0 -0.00000000000E+00 -0.00000000000E+00 -0.45593999997E+02  0.45594000000E+02  0.51100000000E-03 0.  1.
         23    2    1    2    0    0  0.00000000000E+00  0.00000000000E+00  0.17763568394E-14  0.91188000000E+02  0.91188000000E+02 0.  0.
    9900012    2    3    3    0    0 -0.23887260724E+02  0.23498836040E+02 -0.15263787257E+02  0.54367085813E+02  0.40000003727E+02 0.  0.
        -12    1    3    3    0    0  0.23887260724E+02 -0.23498836040E+02  0.15263787257E+02  0.36820914187E+02  0.00000000000E+00 0.  1.
         11    1    4    4    0    0 -0.11485618635E+02 -0.48087061138E+01  0.43931361808E+01  0.13203890930E+02  0.51100000000E-03 0. -1.
        -11    1    4    4    0    0  0.37753488511E+01  0.47957139147E+00 -0.90796949694E+00  0.39125000365E+01  0.51100000000E-03 0.  1.
         12    1    4    4    0    0 -0.16176990940E+02  0.27827970762E+02 -0.18748953941E+02  0.37250694846E+02  0.00000000000E+00 0. -1.
</event>
<event>
 8    1  0.3146747E-007  0.9118800E+02  0.7816164E-02  0.1184000E+00
        -11   -1    0    0    0    0  0.00000000000E+00  0.00000000000E+00  0.45593999997E+02  0.45594000000E+02  0.51100000000E-03 0. -1.
         11   -1    0    0    0    0 -0.00000000000E+00 -0.00000000000E+00 -0.45593999997E+02  0.45594000000E+02  0.51100000000E-03 0.  1.
         23    2    1    2    0    0  0.35527136788E-14 -0.35527136788E-14  0.00000000000E+00  0.91188000000E+02  0.91188000000E+02 0.  0.
    9900012    2    3    3    0    0 -0.19156047332E+02 -0.24567858724E+02 -0.19627745757E+02  0.54367051680E+02  0.39999925915E+02 0.  0.
         12    1    3    3    0    0  0.19156047332E+02  0.24567858724E+02  0.19627745757E+02  0.36820948320E+02  0.00000000000E+00 0. -1.
         11    1    4    4    0    0 -0.55552222797E+01 -0.17855911329E+02 -0.26880096093E+02  0.32744978702E+02  0.51100000000E-03 0.  1.
        -11    1    4    4    0    0 -0.11228169791E+02  0.51861241755E-01  0.88278915290E+01  0.14283072343E+02  0.51100000000E-03 0. -1.
        -12    1    4    4    0    0 -0.23726552613E+01 -0.67638086374E+01 -0.15755411927E+01  0.73390006352E+01  0.00000000000E+00 0.  1.
</event>
<event>
 8    1  0.3146747E-007  0.9118800E+02  0.7816164E-02  0.1184000E+00
        -11   -1    0    0    0    0  0.00000000000E+00  0.00000000000E+00  0.45593999997E+02  0.45594000000E+02  0.51100000000E-03 0.  1.
         11   -1    0    0    0    0 -0.00000000000E+00 -0.00000000000E+00 -0.45593999997E+02  0.45594000000E+02  0.51100000000E-03 0. -1.
         23    2    1    2    0    0  0.00000000000E+00 -0.66613381478E-15  0.00000000000E+00  0.91188000000E+02  0.91188000000E+02 0.  0.
    9900012    2    3    3    0    0 -0.16963751706E+02  0.17749680531E+01 -0.32632198189E+02  0.54367085533E+02  0.40000003089E+02 0.  0.
        -12    1    3    3    0    0  0.16963751706E+02 -0.17749680531E+01  0.32632198189E+02  0.36820914467E+02  0.00000000000E+00 0.  1.
         11    1    4    4    0    0 -0.10169551171E+02  0.73789818575E+01 -0.33957286358E+02  0.36207270559E+02  0.51100000000E-03 0. -1.
        -11    1    4    4    0    0 -0.61156429259E+01  0.40322344950E+01  0.37077502186E+01  0.82102019077E+01  0.51100000000E-03 0.  1.
         12    1    4    4    0    0 -0.67855760937E+00 -0.96362482994E+01 -0.23826620498E+01  0.99496130659E+01  0.00000000000E+00 0. -1.
</event>
<event>
 8    1  0.3146747E-007  0.9118800E+02  0.7816164E-02  0.1184000E+00
        -11   -1    0    0    0    0  0.00000000000E+00  0.00000000000E+00  0.45593999997E+02  0.45594000000E+02  0.51100000000E-03 0. -1.
         11   -1    0    0    0    0 -0.00000000000E+00 -0.00000000000E+00 -0.45593999997E+02  0.45594000000E+02  0.51100000000E-03 0.  1.
         23    2    1    2    0    0 -0.35527136788E-14  0.71054273576E-14 -0.17763568394E-14  0.91188000000E+02  0.91188000000E+02 0.  0.
    9900012    2    3    3    0    0  0.21545577757E+02 -0.29658606840E+02  0.34549943840E+01  0.54367056683E+02  0.39999937320E+02 0.  0.
         12    1    3    3    0    0 -0.21545577757E+02  0.29658606840E+02 -0.34549943840E+01  0.36820943317E+02  0.00000000000E+00 0. -1.
         11    1    4    4    0    0  0.10062941096E+02 -0.21338398379E+02 -0.15834555033E+02  0.28413432778E+02  0.51100000000E-03 0.  1.
        -11    1    4    4    0    0  0.69598026762E+00  0.33469262029E+00  0.81745537262E+01  0.82109522326E+01  0.51100000000E-03 0. -1.
        -12    1    4    4    0    0  0.10786656394E+02 -0.86549010815E+01  0.11114995691E+02  0.17742671673E+02  0.00000000000E+00 0.  1.
</event>
<event>
 8    1  0.3146747E-007  0.9118800E+02  0.7816164E-02  0.1184000E+00
        -11   -1    0    0    0    0  0.00000000000E+00  0.00000000000E+00  0.45593999997E+02  0.45594000000E+02  0.51100000000E-03 0. -1.
         11   -1    0    0    0    0 -0.00000000000E+00 -0.00000000000E+00 -0.45593999997E+02  0.45594000000E+02  0.51100000000E-03 0.  1.
         23    2    1    2    0    0  0.00000000000E+00  0.00000000000E+00  0.88817841970E-15  0.91188000000E+02  0.91188000000E+02 0.  0.
    9900012    2    3    3    0    0 -0.16172098134E+02  0.32791524570E+02  0.43540385370E+01  0.54367102492E+02  0.40000041752E+02 0.  0.
        -12    1    3    3    0    0  0.16172098134E+02 -0.32791524570E+02 -0.43540385370E+01  0.36820897508E+02  0.00000000000E+00 0.  1.
         11    1    4    4    0    0 -0.56087118683E+01 -0.17419624938E+01  0.82067053603E+01  0.10091684462E+02  0.51100000000E-03 0. -1.
        -11    1    4    4    0    0  0.79593624715E+01  0.69668802643E+01 -0.32229254021E+01  0.11057853317E+02  0.51100000000E-03 0.  1.
        -12    1    4    4    0    0 -0.18522748737E+02  0.27566606800E+02 -0.62974142126E+00  0.33217564713E+02  0.00000000000E+00 0.  1.
</event>
<event>
 8    1  0.3146747E-007  0.9118800E+02  0.7816164E-02  0.1184000E+00
        -11   -1    0    0    0    0  0.00000000000E+00  0.00000000000E+00  0.45593999997E+02  0.45594000000E+02  0.51100000000E-03 0.  1.
         11   -1    0    0    0    0 -0.00000000000E+00 -0.00000000000E+00 -0.45593999997E+02  0.45594000000E+02  0.51100000000E-03 0. -1.
         23    2    1    2    0    0  0.00000000000E+00  0.00000000000E+00 -0.35527136788E-14  0.91188000000E+02  0.91188000000E+02 0.  0.
    9900012    2    3    3    0    0 -0.13393023143E+02  0.27626602996E+02 -0.20326778715E+02  0.54367079385E+02  0.39999989075E+02 0.  0.
         12    1    3    3    0    0  0.13393023143E+02 -0.27626602996E+02  0.20326778715E+02  0.36820920615E+02  0.00000000000E+00 0. -1.
         11    1    4    4    0    0 -0.11110659517E+00 -0.24962251484E+01  0.49884417334E+01  0.55792504744E+01  0.51100000000E-03 0.  1.
        -11    1    4    4    0    0  0.54011695166E+01  0.19305915702E+02 -0.10775844165E+02  0.22759829326E+02  0.51100000000E-03 0. -1.
        -12    1    4    4    0    0 -0.18683086064E+02  0.10816912442E+02 -0.14539376284E+02  0.26027999585E+02  0.00000000000E+00 0.  1.
</event>
<event>
 8    1  0.3146747E-007  0.9118800E+02  0.7816164E-02  0.1184000E+00
        -11   -1    0    0    0    0  0.00000000000E+00  0.00000000000E+00  0.45593999997E+02  0.45594000000E+02  0.51100000000E-03 0. -1.
         11   -1    0    0    0    0 -0.00000000000E+00 -0.00000000000E+00 -0.45593999997E+02  0.45594000000E+02  0.51100000000E-03 0.  1.
         23    2    1    2    0    0  0.35527136788E-14 -0.35527136788E-14 -0.88817841970E-15  0.91188000000E+02  0.91188000000E+02 0.  0.
    9900012    2    3    3    0    0  0.20626524015E+02  0.29637896347E+02  0.72056565169E+01  0.54367083679E+02  0.39999998864E+02 0.  0.
        -12    1    3    3    0    0 -0.20626524015E+02 -0.29637896347E+02 -0.72056565169E+01  0.36820916321E+02  0.00000000000E+00 0.  1.
         11    1    4    4    0    0  0.11170640421E+02 -0.33772396987E+01  0.34131391339E+00  0.11674992542E+02  0.51100000000E-03 0. -1.
        -11    1    4    4    0    0  0.13868359507E+02  0.31671009015E+02  0.11218610186E+02  0.36348884745E+02  0.51100000000E-03 0.  1.
        -12    1    4    4    0    0 -0.44124759129E+01  0.13441270313E+01 -0.43542675827E+01  0.63432063927E+01  0.00000000000E+00 0.  1.
</event>
<event>
 8    1  0.3146747E-007  0.9118800E+02  0.7816164E-02  0.1184000E+00
        -11   -1    0    0    0    0  0.00000000000E+00  0.00000000000E+00  0.45593999997E+02  0.45594000000E+02  0.51100000000E-03 0.  1.
         11   -1    0    0    0    0 -0.00000000000E+00 -0.00000000000E+00 -0.45593999997E+02  0.45594000000E+02  0.51100000000E-03 0. -1.
         23    2    1    2    0    0  0.00000000000E+00  0.22204460493E-15  0.00000000000E+00  0.91188000000E+02  0.91188000000E+02 0.  0.
    9900012    2    3    3    0    0  0.21181711926E+02 -0.17428061503E+01 -0.30067878376E+02  0.54367087417E+02  0.40000007386E+02 0.  0.
        -12    1    3    3    0    0 -0.21181711926E+02  0.17428061503E+01  0.30067878376E+02  0.36820912583E+02  0.00000000000E+00 0.  1.
         11    1    4    4    0    0  0.13429202698E+02  0.48449760914E+01  0.45652806622E+01  0.14988631232E+02  0.51100000000E-03 0.  1.
        -11    1    4    4    0    0  0.79917770634E+01  0.24465783531E+01 -0.24053621523E+02  0.25464307470E+02  0.51100000000E-03 0. -1.
        -12    1    4    4    0    0 -0.23926783513E+00 -0.90343605949E+01 -0.10579537515E+02  0.13914148716E+02  0.00000000000E+00 0.  1.
</event>
<event>
 8    1  0.3146747E-007  0.9118800E+02  0.7816164E-02  0.1184000E+00
        -11   -1    0    0    0    0  0.00000000000E+00  0.00000000000E+00  0.45593999997E+02  0.45594000000E+02  0.51100000000E-03 0.  1.
         11   -1    0    0    0    0 -0.00000000000E+00 -0.00000000000E+00 -0.45593999997E+02  0.45594000000E+02  0.51100000000E-03 0. -1.
         23    2    1    2    0    0  0.00000000000E+00 -0.35527136788E-14  0.00000000000E+00  0.91188000000E+02  0.91188000000E+02 0.  0.
    9900012    2    3    3    0    0 -0.20845545035E+02  0.27864030815E+02 -0.12034877077E+02  0.54367092525E+02  0.40000019028E+02 0.  0.
        -12    1    3    3    0    0  0.20845545035E+02 -0.27864030815E+02  0.12034877077E+02  0.36820907475E+02  0.00000000000E+00 0.  1.
         11    1    4    4    0    0  0.53333482064E+01  0.23684194384E+02 -0.12412188130E+02  0.27266244354E+02  0.51100000000E-03 0. -1.
        -11    1    4    4    0    0 -0.17361430525E+02  0.10001016313E+00 -0.26881906524E+00  0.17363799580E+02  0.51100000000E-03 0.  1.
         12    1    4    4    0    0 -0.88174627166E+01  0.40798262670E+01  0.64613011790E+00  0.97370485907E+01  0.00000000000E+00 0. -1.
</event>
<event>
 8    1  0.3146747E-007  0.9118800E+02  0.7816164E-02  0.1184000E+00
        -11   -1    0    0    0    0  0.00000000000E+00  0.00000000000E+00  0.45593999997E+02  0.45594000000E+02  0.51100000000E-03 0.  1.
         11   -1    0    0    0    0 -0.00000000000E+00 -0.00000000000E+00 -0.45593999997E+02  0.45594000000E+02  0.51100000000E-03 0. -1.
         23    2    1    2    0    0 -0.35527136788E-14 -0.35527136788E-14 -0.44408920985E-15  0.91188000000E+02  0.91188000000E+02 0.  0.
    9900012    2    3    3    0    0 -0.26760900141E+02 -0.25239304804E+02  0.16163674309E+01  0.54367069444E+02  0.39999966411E+02 0.  0.
        -12    1    3    3    0    0  0.26760900141E+02  0.25239304804E+02 -0.16163674309E+01  0.36820930556E+02  0.00000000000E+00 0.  1.
         11    1    4    4    0    0  0.56813642490E+01 -0.42299692701E+01  0.76307305308E+00  0.71241013821E+01  0.51100000000E-03 0. -1.
        -11    1    4    4    0    0  0.49485440779E-01 -0.73378229919E+01  0.84410629300E+01  0.11184705571E+02  0.51100000000E-03 0.  1.
        -12    1    4    4    0    0 -0.32491749830E+02 -0.13671512542E+02 -0.75877685521E+01  0.36058262491E+02  0.00000000000E+00 0.  1.
</event>
<event>
 8    1  0.3146747E-007  0.9118800E+02  0.7816164E-02  0.1184000E+00
        -11   -1    0    0    0    0  0.00000000000E+00  0.00000000000E+00  0.45593999997E+02  0.45594000000E+02  0.51100000000E-03 0.  1.
         11   -1    0    0    0    0 -0.00000000000E+00 -0.00000000000E+00 -0.45593999997E+02  0.45594000000E+02  0.51100000000E-03 0. -1.
         23    2    1    2    0    0 -0.71054273576E-14  0.66613381478E-15 -0.88817841970E-15  0.91188000000E+02  0.91188000000E+02 0.  0.
    9900012    2    3    3    0    0  0.36554232065E+02 -0.12339748656E+01  0.42466232871E+01  0.54367239753E+02  0.40000354663E+02 0.  0.
        -12    1    3    3    0    0 -0.36554232065E+02  0.12339748656E+01 -0.42466232871E+01  0.36820760247E+02  0.00000000000E+00 0.  1.
         11    1    4    4    0    0  0.11318351741E+02  0.16794088917E+02  0.59594428566E+01  0.21110695586E+02  0.51100000000E-03 0. -1.
        -11    1    4    4    0    0  0.18610807315E+02 -0.10342180392E+02  0.39223683478E+01  0.21649660919E+02  0.51100000000E-03 0.  1.
        -12    1    4    4    0    0  0.66250730082E+01 -0.76858833912E+01 -0.56351879173E+01  0.11606883248E+02  0.00000000000E+00 0.  1.
</event>
<event>
 8    1  0.3146747E-007  0.9118800E+02  0.7816164E-02  0.1184000E+00
        -11   -1    0    0    0    0  0.00000000000E+00  0.00000000000E+00  0.45593999997E+02  0.45594000000E+02  0.51100000000E-03 0. -1.
         11   -1    0    0    0    0 -0.00000000000E+00 -0.00000000000E+00 -0.45593999997E+02  0.45594000000E+02  0.51100000000E-03 0.  1.
         23    2    1    2    0    0  0.00000000000E+00 -0.88817841970E-15  0.00000000000E+00  0.91188000000E+02  0.91188000000E+02 0.  0.
    9900012    2    3    3    0    0  0.22412804048E+02  0.42377738009E+01  0.28904795608E+02  0.54367085818E+02  0.40000003739E+02 0.  0.
        -12    1    3    3    0    0 -0.22412804048E+02 -0.42377738009E+01 -0.28904795608E+02  0.36820914182E+02  0.00000000000E+00 0.  1.
         11    1    4    4    0    0 -0.22094047030E+01  0.70807134598E+00  0.71622444356E+01  0.75286505954E+01  0.51100000000E-03 0. -1.
        -11    1    4    4    0    0  0.32882956777E+02  0.40094821354E+01  0.18569914810E+02  0.37976394375E+02  0.51100000000E-03 0.  1.
        -12    1    4    4    0    0 -0.82607480265E+01 -0.47977968057E+00  0.31726363624E+01  0.88620408477E+01  0.00000000000E+00 0.  1.
</event>
<event>
 8    1  0.3146747E-007  0.9118800E+02  0.7816164E-02  0.1184000E+00
        -11   -1    0    0    0    0  0.00000000000E+00  0.00000000000E+00  0.45593999997E+02  0.45594000000E+02  0.51100000000E-03 0. -1.
         11   -1    0    0    0    0 -0.00000000000E+00 -0.00000000000E+00 -0.45593999997E+02  0.45594000000E+02  0.51100000000E-03 0.  1.
         23    2    1    2    0    0  0.00000000000E+00  0.35527136788E-14  0.17763568394E-14  0.91188000000E+02  0.91188000000E+02 0.  0.
    9900012    2    3    3    0    0 -0.15071134582E+02 -0.29765366150E+02 -0.15577657311E+02  0.54367088456E+02  0.40000009752E+02 0.  0.
         12    1    3    3    0    0  0.15071134582E+02  0.29765366150E+02  0.15577657311E+02  0.36820911544E+02  0.00000000000E+00 0. -1.
         11    1    4    4    0    0 -0.95701205380E+01 -0.62102113724E+01  0.82851732204E+01  0.14099575453E+02  0.51100000000E-03 0. -1.
        -11    1    4    4    0    0 -0.10648623046E+01 -0.24135913617E+02 -0.25841078461E+02  0.35375663868E+02  0.51100000000E-03 0.  1.
        -12    1    4    4    0    0 -0.44361517399E+01  0.58075883906E+00  0.19782479287E+01  0.48918491346E+01  0.00000000000E+00 0.  1.
</event>
<event>
 8    1  0.3146747E-007  0.9118800E+02  0.7816164E-02  0.1184000E+00
        -11   -1    0    0    0    0  0.00000000000E+00  0.00000000000E+00  0.45593999997E+02  0.45594000000E+02  0.51100000000E-03 0. -1.
         11   -1    0    0    0    0 -0.00000000000E+00 -0.00000000000E+00 -0.45593999997E+02  0.45594000000E+02  0.51100000000E-03 0.  1.
         23    2    1    2    0    0  0.00000000000E+00  0.00000000000E+00  0.00000000000E+00  0.91188000000E+02  0.91188000000E+02 0.  0.
    9900012    2    3    3    0    0  0.13372675175E+02  0.32516060016E+02 -0.10938776717E+02  0.54367089686E+02  0.40000012557E+02 0.  0.
        -12    1    3    3    0    0 -0.13372675175E+02 -0.32516060016E+02  0.10938776717E+02  0.36820910314E+02  0.00000000000E+00 0.  1.
         11    1    4    4    0    0  0.91719341496E+01  0.27065122627E+02 -0.12303254801E+02  0.31112944538E+02  0.51100000000E-03 0. -1.
        -11    1    4    4    0    0 -0.10633411356E+01 -0.83232438497E+01  0.14084501017E+01  0.85082791740E+01  0.51100000000E-03 0.  1.
        -12    1    4    4    0    0  0.52640821605E+01  0.13774181239E+02 -0.43972017994E-01  0.14745865974E+02  0.00000000000E+00 0.  1.
</event>
<event>
 8    1  0.3146747E-007  0.9118800E+02  0.7816164E-02  0.1184000E+00
        -11   -1    0    0    0    0  0.00000000000E+00  0.00000000000E+00  0.45593999997E+02  0.45594000000E+02  0.51100000000E-03 0. -1.
         11   -1    0    0    0    0 -0.00000000000E+00 -0.00000000000E+00 -0.45593999997E+02  0.45594000000E+02  0.51100000000E-03 0.  1.
         23    2    1    2    0    0  0.00000000000E+00  0.22204460493E-15  0.00000000000E+00  0.91188000000E+02  0.91188000000E+02 0.  0.
    9900012    2    3    3    0    0 -0.14793260380E+02 -0.15497280788E+01  0.33682903542E+02  0.54367079305E+02  0.39999988893E+02 0.  0.
        -12    1    3    3    0    0  0.14793260380E+02  0.15497280788E+01 -0.33682903542E+02  0.36820920695E+02  0.00000000000E+00 0.  1.
         11    1    4    4    0    0  0.68430990510E+01  0.58881024700E+01  0.53474945341E+01  0.10492542751E+02  0.51100000000E-03 0. -1.
        -11    1    4    4    0    0 -0.19363637562E+02 -0.76547270111E+01  0.32805338612E+02  0.38855315556E+02  0.51100000000E-03 0.  1.
        -12    1    4    4    0    0 -0.22727218682E+01  0.21689646233E+00 -0.44699296043E+01  0.50192209986E+01  0.00000000000E+00 0.  1.
</event>
<event>
 8    1  0.3146747E-007  0.9118800E+02  0.7816164E-02  0.1184000E+00
        -11   -1    0    0    0    0  0.00000000000E+00  0.00000000000E+00  0.45593999997E+02  0.45594000000E+02  0.51100000000E-03 0.  1.
         11   -1    0    0    0    0 -0.00000000000E+00 -0.00000000000E+00 -0.45593999997E+02  0.45594000000E+02  0.51100000000E-03 0. -1.
         23    2    1    2    0    0  0.17763568394E-14  0.35527136788E-14  0.35527136788E-14  0.91188000000E+02  0.91188000000E+02 0.  0.
    9900012    2    3    3    0    0  0.10821703960E+02  0.26705575587E+02  0.22923388678E+02  0.54367098428E+02  0.40000032487E+02 0.  0.
        -12    1    3    3    0    0 -0.10821703960E+02 -0.26705575587E+02 -0.22923388678E+02  0.36820901572E+02  0.00000000000E+00 0.  1.
         11    1    4    4    0    0  0.15760878455E+02  0.97582345919E+01  0.23074410048E+02  0.29598257235E+02  0.51100000000E-03 0. -1.
        -11    1    4    4    0    0  0.70334307553E+00 -0.33011015484E+01 -0.15256876078E+01  0.37040094293E+01  0.51100000000E-03 0.  1.
         12    1    4    4    0    0 -0.56425175703E+01  0.20248442544E+02  0.13746662383E+01  0.21064831764E+02  0.00000000000E+00 0. -1.
</event>
<event>
 8    1  0.3146747E-007  0.9118800E+02  0.7816164E-02  0.1184000E+00
        -11   -1    0    0    0    0  0.00000000000E+00  0.00000000000E+00  0.45593999997E+02  0.45594000000E+02  0.51100000000E-03 0.  1.
         11   -1    0    0    0    0 -0.00000000000E+00 -0.00000000000E+00 -0.45593999997E+02  0.45594000000E+02  0.51100000000E-03 0. -1.
         23    2    1    2    0    0  0.00000000000E+00  0.35527136788E-14  0.00000000000E+00  0.91188000000E+02  0.91188000000E+02 0.  0.
    9900012    2    3    3    0    0 -0.56854028907E+01 -0.16461300897E+02  0.32441976601E+02  0.54367080959E+02  0.39999992663E+02 0.  0.
         12    1    3    3    0    0  0.56854028907E+01  0.16461300897E+02 -0.32441976601E+02  0.36820919041E+02  0.00000000000E+00 0. -1.
         11    1    4    4    0    0  0.11180982551E+02  0.28232897612E+01  0.59931490571E+01  0.12996275303E+02  0.51100000000E-03 0. -1.
        -11    1    4    4    0    0 -0.49171174705E+01 -0.18196488455E+02  0.20921335731E+02  0.28160122964E+02  0.51100000000E-03 0.  1.
        -12    1    4    4    0    0 -0.11949267971E+02 -0.10881022027E+01  0.55274918132E+01  0.13210682692E+02  0.00000000000E+00 0.  1.
</event>
<event>
 8    1  0.3146747E-007  0.9118800E+02  0.7816164E-02  0.1184000E+00
        -11   -1    0    0    0    0  0.00000000000E+00  0.00000000000E+00  0.45593999997E+02  0.45594000000E+02  0.51100000000E-03 0.  1.
         11   -1    0    0    0    0 -0.00000000000E+00 -0.00000000000E+00 -0.45593999997E+02  0.45594000000E+02  0.51100000000E-03 0. -1.
         23    2    1    2    0    0 -0.88817841970E-15  0.17763568394E-14  0.71054273576E-14  0.91188000000E+02  0.91188000000E+02 0.  0.
    9900012    2    3    3    0    0 -0.78409482423E+01  0.90951465919E+01  0.34807721161E+02  0.54367087283E+02  0.40000007079E+02 0.  0.
         12    1    3    3    0    0  0.78409482423E+01 -0.90951465919E+01 -0.34807721161E+02  0.36820912717E+02  0.00000000000E+00 0. -1.
         11    1    4    4    0    0 -0.11814671761E+02  0.26243940905E+01  0.17883735996E+02  0.21594025253E+02  0.51100000000E-03 0.  1.
        -11    1    4    4    0    0  0.88282172280E+01  0.56900203746E+01 -0.40302105161E+01  0.11249726590E+02  0.51100000000E-03 0. -1.
         12    1    4    4    0    0 -0.48544937091E+01  0.78073212685E+00  0.20954195681E+02  0.21523335440E+02  0.00000000000E+00 0. -1.
</event>
<event>
 8    1  0.3146747E-007  0.9118800E+02  0.7816164E-02  0.1184000E+00
        -11   -1    0    0    0    0  0.00000000000E+00  0.00000000000E+00  0.45593999997E+02  0.45594000000E+02  0.51100000000E-03 0.  1.
         11   -1    0    0    0    0 -0.00000000000E+00 -0.00000000000E+00 -0.45593999997E+02  0.45594000000E+02  0.51100000000E-03 0. -1.
         23    2    1    2    0    0  0.00000000000E+00  0.66613381478E-15  0.00000000000E+00  0.91188000000E+02  0.91188000000E+02 0.  0.
    9900012    2    3    3    0    0 -0.93634085056E+01 -0.18890877414E+01  0.35560338214E+02  0.54367085763E+02  0.40000003615E+02 0.  0.
         12    1    3    3    0    0  0.93634085056E+01  0.18890877414E+01 -0.35560338214E+02  0.36820914237E+02  0.00000000000E+00 0. -1.
         11    1    4    4    0    0 -0.64703038114E+01  0.69794832287E+01  0.11562411859E+02  0.14975559616E+02  0.51100000000E-03 0. -1.
        -11    1    4    4    0    0  0.11205435238E+02  0.39633050119E+01  0.66691346042E+01  0.13628900253E+02  0.51100000000E-03 0.  1.
        -12    1    4    4    0    0 -0.14098539932E+02 -0.12831875982E+02  0.17328791750E+02  0.25762625894E+02  0.00000000000E+00 0.  1.
</event>
<event>
 8    1  0.3146747E-007  0.9118800E+02  0.7816164E-02  0.1184000E+00
        -11   -1    0    0    0    0  0.00000000000E+00  0.00000000000E+00  0.45593999997E+02  0.45594000000E+02  0.51100000000E-03 0. -1.
         11   -1    0    0    0    0 -0.00000000000E+00 -0.00000000000E+00 -0.45593999997E+02  0.45594000000E+02  0.51100000000E-03 0.  1.
         23    2    1    2    0    0  0.00000000000E+00 -0.66613381478E-15  0.00000000000E+00  0.91188000000E+02  0.91188000000E+02 0.  0.
    9900012    2    3    3    0    0 -0.32669680490E+02 -0.12639925961E+01 -0.16937346623E+02  0.54367090027E+02  0.40000013335E+02 0.  0.
         12    1    3    3    0    0  0.32669680490E+02  0.12639925961E+01  0.16937346623E+02  0.36820909973E+02  0.00000000000E+00 0. -1.
         11    1    4    4    0    0 -0.73698609269E+01  0.54670761565E+01 -0.81957412413E+01  0.12303411988E+02  0.51100000000E-03 0. -1.
        -11    1    4    4    0    0 -0.12441751513E+02  0.11860079099E+02 -0.91150036942E+01  0.19456154541E+02  0.51100000000E-03 0.  1.
         12    1    4    4    0    0 -0.12858068050E+02 -0.18591147851E+02  0.37339831288E+00  0.22607523498E+02  0.00000000000E+00 0. -1.
</event>
<event>
 8    1  0.3146747E-007  0.9118800E+02  0.7816164E-02  0.1184000E+00
        -11   -1    0    0    0    0  0.00000000000E+00  0.00000000000E+00  0.45593999997E+02  0.45594000000E+02  0.51100000000E-03 0. -1.
         11   -1    0    0    0    0 -0.00000000000E+00 -0.00000000000E+00 -0.45593999997E+02  0.45594000000E+02  0.51100000000E-03 0.  1.
         23    2    1    2    0    0  0.00000000000E+00  0.00000000000E+00 -0.26645352591E-14  0.91188000000E+02  0.91188000000E+02 0.  0.
    9900012    2    3    3    0    0  0.21614365925E+02 -0.29264027674E+02 -0.56758606026E+01  0.54367088501E+02  0.40000009855E+02 0.  0.
         12    1    3    3    0    0 -0.21614365925E+02  0.29264027674E+02  0.56758606026E+01  0.36820911499E+02  0.00000000000E+00 0. -1.
         11    1    4    4    0    0 -0.62449023968E+01 -0.81728905547E+01  0.73124017310E+01  0.12620069940E+02  0.51100000000E-03 0. -1.
        -11    1    4    4    0    0  0.21081694650E+02 -0.10464673105E+02 -0.16403842398E+02  0.28688556572E+02  0.51100000000E-03 0.  1.
        -12    1    4    4    0    0  0.67775736722E+01 -0.10626464015E+02  0.34155800640E+01  0.13058461989E+02  0.00000000000E+00 0.  1.
</event>
<event>
 8    1  0.3146747E-007  0.9118800E+02  0.7816164E-02  0.1184000E+00
        -11   -1    0    0    0    0  0.00000000000E+00  0.00000000000E+00  0.45593999997E+02  0.45594000000E+02  0.51100000000E-03 0. -1.
         11   -1    0    0    0    0 -0.00000000000E+00 -0.00000000000E+00 -0.45593999997E+02  0.45594000000E+02  0.51100000000E-03 0.  1.
         23    2    1    2    0    0  0.00000000000E+00  0.35527136788E-14 -0.22204460493E-15  0.91188000000E+02  0.91188000000E+02 0.  0.
    9900012    2    3    3    0    0 -0.30977288506E+02 -0.19868195281E+02 -0.12006140660E+01  0.54367094782E+02  0.40000024175E+02 0.  0.
        -12    1    3    3    0    0  0.30977288506E+02  0.19868195281E+02  0.12006140660E+01  0.36820905218E+02  0.00000000000E+00 0.  1.
         11    1    4    4    0    0 -0.13538376752E+00 -0.21750818896E+02  0.36005806514E+01  0.22047236396E+02  0.51100000000E-03 0. -1.
        -11    1    4    4    0    0 -0.20121853625E+02 -0.17369429144E+01 -0.46274350304E+00  0.20201982472E+02  0.51100000000E-03 0.  1.
         12    1    4    4    0    0 -0.10720051113E+02  0.36195665290E+01 -0.43384512144E+01  0.12117875914E+02  0.00000000000E+00 0. -1.
</event>
<event>
 8    1  0.3146747E-007  0.9118800E+02  0.7816164E-02  0.1184000E+00
        -11   -1    0    0    0    0  0.00000000000E+00  0.00000000000E+00  0.45593999997E+02  0.45594000000E+02  0.51100000000E-03 0. -1.
         11   -1    0    0    0    0 -0.00000000000E+00 -0.00000000000E+00 -0.45593999997E+02  0.45594000000E+02  0.51100000000E-03 0.  1.
         23    2    1    2    0    0  0.00000000000E+00  0.00000000000E+00  0.15543122345E-14  0.91188000000E+02  0.91188000000E+02 0.  0.
    9900012    2    3    3    0    0 -0.29398278688E+02 -0.22107023165E+02  0.16732188472E+01  0.54367096638E+02  0.40000028407E+02 0.  0.
        -12    1    3    3    0    0  0.29398278688E+02  0.22107023165E+02 -0.16732188472E+01  0.36820903362E+02  0.00000000000E+00 0.  1.
         11    1    4    4    0    0 -0.58787132294E+01 -0.30534477304E+01  0.49277463966E+01  0.82562398879E+01  0.51100000000E-03 0. -1.
        -11    1    4    4    0    0 -0.77522490388E+01 -0.84648930896E+01 -0.18489525273E+02  0.21762681941E+02  0.51100000000E-03 0.  1.
        -12    1    4    4    0    0 -0.15767316420E+02 -0.10588682345E+02  0.15234997724E+02  0.24348174809E+02  0.00000000000E+00 0.  1.
</event>
<event>
 8    1  0.3146747E-007  0.9118800E+02  0.7816164E-02  0.1184000E+00
        -11   -1    0    0    0    0  0.00000000000E+00  0.00000000000E+00  0.45593999997E+02  0.45594000000E+02  0.51100000000E-03 0.  1.
         11   -1    0    0    0    0 -0.00000000000E+00 -0.00000000000E+00 -0.45593999997E+02  0.45594000000E+02  0.51100000000E-03 0. -1.
         23    2    1    2    0    0  0.00000000000E+00 -0.44408920985E-15  0.00000000000E+00  0.91188000000E+02  0.91188000000E+02 0.  0.
    9900012    2    3    3    0    0  0.24511993527E+02 -0.36819889174E+01  0.27228372404E+02  0.54367093808E+02  0.40000021953E+02 0.  0.
         12    1    3    3    0    0 -0.24511993527E+02  0.36819889174E+01 -0.27228372404E+02  0.36820906192E+02  0.00000000000E+00 0. -1.
         11    1    4    4    0    0 -0.39128976705E+01 -0.37084124169E+01  0.21190866411E+01  0.57925486004E+01  0.51100000000E-03 0. -1.
        -11    1    4    4    0    0  0.16215325138E+02 -0.94426380246E+00 -0.42272423429E+01  0.16783860746E+02  0.51100000000E-03 0.  1.
        -12    1    4    4    0    0  0.12209566060E+02  0.97068730195E+00  0.29336528106E+02  0.31790684461E+02  0.00000000000E+00 0.  1.
</event>
<event>
 8    1  0.3146747E-007  0.9118800E+02  0.7816164E-02  0.1184000E+00
        -11   -1    0    0    0    0  0.00000000000E+00  0.00000000000E+00  0.45593999997E+02  0.45594000000E+02  0.51100000000E-03 0.  1.
         11   -1    0    0    0    0 -0.00000000000E+00 -0.00000000000E+00 -0.45593999997E+02  0.45594000000E+02  0.51100000000E-03 0. -1.
         23    2    1    2    0    0  0.00000000000E+00 -0.88817841970E-15  0.00000000000E+00  0.91188000000E+02  0.91188000000E+02 0.  0.
    9900012    2    3    3    0    0 -0.34871936661E+02 -0.45833554561E+01  0.10895984976E+02  0.54367060273E+02  0.39999945505E+02 0.  0.
        -12    1    3    3    0    0  0.34871936661E+02  0.45833554561E+01 -0.10895984976E+02  0.36820939727E+02  0.00000000000E+00 0.  1.
         11    1    4    4    0    0 -0.49013353369E+01  0.85310093634E+00  0.48436885720E+01  0.69434997325E+01  0.51100000000E-03 0. -1.
        -11    1    4    4    0    0 -0.60251043116E+01  0.27723145042E+01  0.18182083355E+02  0.19353959933E+02  0.51100000000E-03 0.  1.
         12    1    4    4    0    0 -0.23945497013E+02 -0.82087708967E+01 -0.12129786951E+02  0.28069600608E+02  0.00000000000E+00 0. -1.
</event>
<event>
 8    1  0.3146747E-007  0.9118800E+02  0.7816164E-02  0.1184000E+00
        -11   -1    0    0    0    0  0.00000000000E+00  0.00000000000E+00  0.45593999997E+02  0.45594000000E+02  0.51100000000E-03 0. -1.
         11   -1    0    0    0    0 -0.00000000000E+00 -0.00000000000E+00 -0.45593999997E+02  0.45594000000E+02  0.51100000000E-03 0.  1.
         23    2    1    2    0    0  0.00000000000E+00  0.00000000000E+00  0.00000000000E+00  0.91188000000E+02  0.91188000000E+02 0.  0.
    9900012    2    3    3    0    0 -0.17089143261E+02  0.17986585435E+02  0.27207056411E+02  0.54367082147E+02  0.39999995370E+02 0.  0.
        -12    1    3    3    0    0  0.17089143261E+02 -0.17986585435E+02 -0.27207056411E+02  0.36820917853E+02  0.00000000000E+00 0.  1.
         11    1    4    4    0    0 -0.84120019057E+01  0.30319050186E+01 -0.86592807037E+00  0.89835436097E+01  0.51100000000E-03 0. -1.
        -11    1    4    4    0    0  0.61141207643E+01 -0.67337504531E+01  0.47176430087E+01  0.10246073575E+02  0.51100000000E-03 0.  1.
         12    1    4    4    0    0 -0.14791262120E+02  0.21688430870E+02  0.23355341472E+02  0.35137464962E+02  0.00000000000E+00 0. -1.
</event>
<event>
 8    1  0.3146747E-007  0.9118800E+02  0.7816164E-02  0.1184000E+00
        -11   -1    0    0    0    0  0.00000000000E+00  0.00000000000E+00  0.45593999997E+02  0.45594000000E+02  0.51100000000E-03 0. -1.
         11   -1    0    0    0    0 -0.00000000000E+00 -0.00000000000E+00 -0.45593999997E+02  0.45594000000E+02  0.51100000000E-03 0.  1.
         23    2    1    2    0    0  0.35527136788E-14  0.00000000000E+00  0.44408920985E-15  0.91188000000E+02  0.91188000000E+02 0.  0.
    9900012    2    3    3    0    0 -0.25795738497E+02  0.25978461918E+02  0.39343942917E+01  0.54367081127E+02  0.39999993045E+02 0.  0.
        -12    1    3    3    0    0  0.25795738497E+02 -0.25978461918E+02 -0.39343942917E+01  0.36820918873E+02  0.00000000000E+00 0.  1.
         11    1    4    4    0    0 -0.73765658505E+01  0.11101931528E+02  0.14079684453E+02  0.19388247006E+02  0.51100000000E-03 0. -1.
        -11    1    4    4    0    0 -0.21344874765E+02  0.10673239104E+02 -0.28322883954E+00  0.23866334670E+02  0.51100000000E-03 0.  1.
         12    1    4    4    0    0  0.29257021193E+01  0.42032912863E+01 -0.98620613222E+01  0.11112499451E+02  0.00000000000E+00 0. -1.
</event>
<event>
 8    1  0.3146747E-007  0.9118800E+02  0.7816164E-02  0.1184000E+00
        -11   -1    0    0    0    0  0.00000000000E+00  0.00000000000E+00  0.45593999997E+02  0.45594000000E+02  0.51100000000E-03 0. -1.
         11   -1    0    0    0    0 -0.00000000000E+00 -0.00000000000E+00 -0.45593999997E+02  0.45594000000E+02  0.51100000000E-03 0.  1.
         23    2    1    2    0    0 -0.35527136788E-14  0.00000000000E+00  0.00000000000E+00  0.91188000000E+02  0.91188000000E+02 0.  0.
    9900012    2    3    3    0    0  0.28298755052E+02 -0.22959216776E+02  0.52758568629E+01  0.54367084230E+02  0.40000000120E+02 0.  0.
        -12    1    3    3    0    0 -0.28298755052E+02  0.22959216776E+02 -0.52758568629E+01  0.36820915770E+02  0.00000000000E+00 0.  1.
         11    1    4    4    0    0  0.58423204449E+01 -0.10878660190E+02  0.49988671647E+01  0.13321660141E+02  0.51100000000E-03 0. -1.
        -11    1    4    4    0    0 -0.11789231955E+01 -0.15549715378E+02 -0.53797353294E+01  0.16496213527E+02  0.51100000000E-03 0.  1.
         12    1    4    4    0    0  0.23635357803E+02  0.34691587924E+01  0.56567250276E+01  0.24549210563E+02  0.00000000000E+00 0. -1.
</event>
<event>
 8    1  0.3146747E-007  0.9118800E+02  0.7816164E-02  0.1184000E+00
        -11   -1    0    0    0    0  0.00000000000E+00  0.00000000000E+00  0.45593999997E+02  0.45594000000E+02  0.51100000000E-03 0. -1.
         11   -1    0    0    0    0 -0.00000000000E+00 -0.00000000000E+00 -0.45593999997E+02  0.45594000000E+02  0.51100000000E-03 0.  1.
         23    2    1    2    0    0  0.00000000000E+00 -0.88817841970E-15  0.00000000000E+00  0.91188000000E+02  0.91188000000E+02 0.  0.
    9900012    2    3    3    0    0 -0.28949818759E+01  0.45448818631E+01 -0.36424492079E+02  0.54367075318E+02  0.39999979804E+02 0.  0.
         12    1    3    3    0    0  0.28949818759E+01 -0.45448818631E+01  0.36424492079E+02  0.36820924682E+02  0.00000000000E+00 0. -1.
         11    1    4    4    0    0  0.44710621935E+01  0.35567759674E+01  0.35624848995E+01  0.67329303680E+01  0.51100000000E-03 0. -1.
        -11    1    4    4    0    0 -0.10185831332E+02  0.95488153028E+01 -0.34155780142E+02  0.36899164638E+02  0.51100000000E-03 0.  1.
        -12    1    4    4    0    0  0.28197872630E+01 -0.85607094071E+01 -0.58311968359E+01  0.10734980312E+02  0.00000000000E+00 0.  1.
</event>
<event>
 8    1  0.3146747E-007  0.9118800E+02  0.7816164E-02  0.1184000E+00
        -11   -1    0    0    0    0  0.00000000000E+00  0.00000000000E+00  0.45593999997E+02  0.45594000000E+02  0.51100000000E-03 0. -1.
         11   -1    0    0    0    0 -0.00000000000E+00 -0.00000000000E+00 -0.45593999997E+02  0.45594000000E+02  0.51100000000E-03 0.  1.
         23    2    1    2    0    0  0.00000000000E+00  0.22204460493E-15  0.13322676296E-14  0.91188000000E+02  0.91188000000E+02 0.  0.
    9900012    2    3    3    0    0  0.36596108310E+02  0.17082807249E+01  0.36858909875E+01  0.54367093454E+02  0.40000021147E+02 0.  0.
        -12    1    3    3    0    0 -0.36596108310E+02 -0.17082807249E+01 -0.36858909875E+01  0.36820906546E+02  0.00000000000E+00 0.  1.
         11    1    4    4    0    0  0.15362783103E+02 -0.15551528649E+01  0.11842962756E+02  0.19459942760E+02  0.51100000000E-03 0. -1.
        -11    1    4    4    0    0  0.25895025751E+02  0.65639647216E+01 -0.24391983490E+01  0.26825131507E+02  0.51100000000E-03 0.  1.
        -12    1    4    4    0    0 -0.46617005440E+01 -0.33005311318E+01 -0.57178734189E+01  0.80820191876E+01  0.00000000000E+00 0.  1.
</event>
<event>
 8    1  0.3146747E-007  0.9118800E+02  0.7816164E-02  0.1184000E+00
        -11   -1    0    0    0    0  0.00000000000E+00  0.00000000000E+00  0.45593999997E+02  0.45594000000E+02  0.51100000000E-03 0. -1.
         11   -1    0    0    0    0 -0.00000000000E+00 -0.00000000000E+00 -0.45593999997E+02  0.45594000000E+02  0.51100000000E-03 0.  1.
         23    2    1    2    0    0 -0.88817841970E-15  0.00000000000E+00  0.00000000000E+00  0.91188000000E+02  0.91188000000E+02 0.  0.
    9900012    2    3    3    0    0  0.50324375551E+01 -0.34484270382E+02 -0.11886518532E+02  0.54367086726E+02  0.40000005809E+02 0.  0.
         12    1    3    3    0    0 -0.50324375551E+01  0.34484270382E+02  0.11886518532E+02  0.36820913274E+02  0.00000000000E+00 0. -1.
         11    1    4    4    0    0  0.16626408747E+00 -0.13456803331E+02  0.21159523658E+01  0.13623158749E+02  0.51100000000E-03 0. -1.
        -11    1    4    4    0    0 -0.78853929406E+00 -0.18208820470E+02 -0.23251104649E+02  0.29543134647E+02  0.51100000000E-03 0.  1.
         12    1    4    4    0    0  0.56547127617E+01 -0.28186465810E+01  0.92486337504E+01  0.11200793330E+02  0.00000000000E+00 0. -1.
</event>
<event>
 8    1  0.3146747E-007  0.9118800E+02  0.7816164E-02  0.1184000E+00
        -11   -1    0    0    0    0  0.00000000000E+00  0.00000000000E+00  0.45593999997E+02  0.45594000000E+02  0.51100000000E-03 0.  1.
         11   -1    0    0    0    0 -0.00000000000E+00 -0.00000000000E+00 -0.45593999997E+02  0.45594000000E+02  0.51100000000E-03 0. -1.
         23    2    1    2    0    0  0.00000000000E+00  0.00000000000E+00  0.00000000000E+00  0.91188000000E+02  0.91188000000E+02 0.  0.
    9900012    2    3    3    0    0  0.17671584127E+02  0.21855578615E+02  0.23787167364E+02  0.54367074789E+02  0.39999978597E+02 0.  0.
         12    1    3    3    0    0 -0.17671584127E+02 -0.21855578615E+02 -0.23787167364E+02  0.36820925211E+02  0.00000000000E+00 0. -1.
         11    1    4    4    0    0  0.29454782922E+01 -0.55075570707E+01 -0.36584993508E+01  0.72383454614E+01  0.51100000000E-03 0.  1.
        -11    1    4    4    0    0  0.38900883918E+01  0.14824359306E+02  0.26396520645E+02  0.30523281589E+02  0.51100000000E-03 0. -1.
        -12    1    4    4    0    0  0.10836017443E+02  0.12538776380E+02  0.10491460695E+01  0.16605447739E+02  0.00000000000E+00 0.  1.
</event>
<event>
 8    1  0.3146747E-007  0.9118800E+02  0.7816164E-02  0.1184000E+00
        -11   -1    0    0    0    0  0.00000000000E+00  0.00000000000E+00  0.45593999997E+02  0.45594000000E+02  0.51100000000E-03 0. -1.
         11   -1    0    0    0    0 -0.00000000000E+00 -0.00000000000E+00 -0.45593999997E+02  0.45594000000E+02  0.51100000000E-03 0.  1.
         23    2    1    2    0    0  0.88817841970E-15  0.13322676296E-14  0.00000000000E+00  0.91188000000E+02  0.91188000000E+02 0.  0.
    9900012    2    3    3    0    0 -0.69318576772E+01  0.28529436692E+01  0.36049826998E+02  0.54367082507E+02  0.39999996191E+02 0.  0.
        -12    1    3    3    0    0  0.69318576772E+01 -0.28529436692E+01 -0.36049826998E+02  0.36820917493E+02  0.00000000000E+00 0.  1.
         11    1    4    4    0    0 -0.92152436244E+01  0.13399151440E+02  0.78166644538E+01  0.18043231911E+02  0.51100000000E-03 0. -1.
        -11    1    4    4    0    0  0.41738520578E+01 -0.58651632518E+01 -0.43763722733E+00  0.72119836088E+01  0.51100000000E-03 0.  1.
         12    1    4    4    0    0 -0.18904661105E+01 -0.46810445187E+01  0.28670799772E+02  0.29111866987E+02  0.00000000000E+00 0. -1.
</event>
<event>
 8    1  0.3146747E-007  0.9118800E+02  0.7816164E-02  0.1184000E+00
        -11   -1    0    0    0    0  0.00000000000E+00  0.00000000000E+00  0.45593999997E+02  0.45594000000E+02  0.51100000000E-03 0.  1.
         11   -1    0    0    0    0 -0.00000000000E+00 -0.00000000000E+00 -0.45593999997E+02  0.45594000000E+02  0.51100000000E-03 0. -1.
         23    2    1    2    0    0  0.71054273576E-14  0.53290705182E-14  0.00000000000E+00  0.91188000000E+02  0.91188000000E+02 0.  0.
    9900012    2    3    3    0    0  0.34780504799E+02 -0.11217907388E+02 -0.45004116838E+01  0.54367100153E+02  0.40000036419E+02 0.  0.
         12    1    3    3    0    0 -0.34780504799E+02  0.11217907388E+02  0.45004116838E+01  0.36820899847E+02  0.00000000000E+00 0. -1.
         11    1    4    4    0    0 -0.56166272833E+00 -0.45911399612E+01  0.25179142056E+01  0.52663007293E+01  0.51100000000E-03 0. -1.
        -11    1    4    4    0    0  0.20806198052E+02 -0.19375340617E+02 -0.85969879595E+01  0.29702018511E+02  0.51100000000E-03 0.  1.
        -12    1    4    4    0    0  0.14535969475E+02  0.12748573190E+02  0.15786620700E+01  0.19398780912E+02  0.00000000000E+00 0.  1.
</event>
<event>
 8    1  0.3146747E-007  0.9118800E+02  0.7816164E-02  0.1184000E+00
        -11   -1    0    0    0    0  0.00000000000E+00  0.00000000000E+00  0.45593999997E+02  0.45594000000E+02  0.51100000000E-03 0. -1.
         11   -1    0    0    0    0 -0.00000000000E+00 -0.00000000000E+00 -0.45593999997E+02  0.45594000000E+02  0.51100000000E-03 0.  1.
         23    2    1    2    0    0  0.00000000000E+00  0.00000000000E+00  0.00000000000E+00  0.91188000000E+02  0.91188000000E+02 0.  0.
    9900012    2    3    3    0    0  0.27347280863E+02  0.44103289095E+01 -0.24258084303E+02  0.54367089830E+02  0.40000012886E+02 0.  0.
         12    1    3    3    0    0 -0.27347280863E+02 -0.44103289095E+01  0.24258084303E+02  0.36820910170E+02  0.00000000000E+00 0. -1.
         11    1    4    4    0    0 -0.28485280705E+01  0.77317161556E+01  0.89799457058E+00  0.82885427784E+01  0.51100000000E-03 0. -1.
        -11    1    4    4    0    0  0.20774699304E+02 -0.37407964226E+01 -0.29021766913E+02  0.35886552412E+02  0.51100000000E-03 0.  1.
         12    1    4    4    0    0  0.94211096296E+01  0.41940917647E+00  0.38656880393E+01  0.10191994639E+02  0.00000000000E+00 0. -1.
</event>
<event>
 8    1  0.3146747E-007  0.9118800E+02  0.7816164E-02  0.1184000E+00
        -11   -1    0    0    0    0  0.00000000000E+00  0.00000000000E+00  0.45593999997E+02  0.45594000000E+02  0.51100000000E-03 0.  1.
         11   -1    0    0    0    0 -0.00000000000E+00 -0.00000000000E+00 -0.45593999997E+02  0.45594000000E+02  0.51100000000E-03 0. -1.
         23    2    1    2    0    0  0.00000000000E+00 -0.35527136788E-14  0.22204460493E-15  0.91188000000E+02  0.91188000000E+02 0.  0.
    9900012    2    3    3    0    0  0.30997279523E+02  0.19869036319E+02  0.41237002713E+00  0.54367082153E+02  0.39999995384E+02 0.  0.
        -12    1    3    3    0    0 -0.30997279523E+02 -0.19869036319E+02 -0.41237002713E+00  0.36820917847E+02  0.00000000000E+00 0.  1.
         11    1    4    4    0    0  0.60053337612E+01  0.81423608187E+01  0.28632487252E+01  0.10514764230E+02  0.51100000000E-03 0. -1.
        -11    1    4    4    0    0  0.54325697263E+01 -0.70443522746E+01  0.10538909493E+02  0.13791458457E+02  0.51100000000E-03 0.  1.
         12    1    4    4    0    0  0.19559376035E+02  0.18771027775E+02 -0.12989788191E+02  0.30060859467E+02  0.00000000000E+00 0. -1.
</event>
<event>
 8    1  0.3146747E-007  0.9118800E+02  0.7816164E-02  0.1184000E+00
        -11   -1    0    0    0    0  0.00000000000E+00  0.00000000000E+00  0.45593999997E+02  0.45594000000E+02  0.51100000000E-03 0.  1.
         11   -1    0    0    0    0 -0.00000000000E+00 -0.00000000000E+00 -0.45593999997E+02  0.45594000000E+02  0.51100000000E-03 0. -1.
         23    2    1    2    0    0  0.00000000000E+00 -0.17763568394E-14  0.00000000000E+00  0.91188000000E+02  0.91188000000E+02 0.  0.
    9900012    2    3    3    0    0  0.28727794096E+02  0.46009928352E+01  0.22568212958E+02  0.54367088485E+02  0.40000009818E+02 0.  0.
         12    1    3    3    0    0 -0.28727794096E+02 -0.46009928352E+01 -0.22568212958E+02  0.36820911515E+02  0.00000000000E+00 0. -1.
         11    1    4    4    0    0  0.17678528332E+02  0.88577643362E+01 -0.46122946613E+01  0.20304275789E+02  0.51100000000E-03 0. -1.
        -11    1    4    4    0    0  0.12680889064E+02 -0.10303827688E+01  0.27630982111E+02  0.30419365686E+02  0.51100000000E-03 0.  1.
        -12    1    4    4    0    0 -0.16316232994E+01 -0.32263887321E+01 -0.45047449102E+00  0.36434470092E+01  0.00000000000E+00 0.  1.
</event>
<event>
 8    1  0.3146747E-007  0.9118800E+02  0.7816164E-02  0.1184000E+00
        -11   -1    0    0    0    0  0.00000000000E+00  0.00000000000E+00  0.45593999997E+02  0.45594000000E+02  0.51100000000E-03 0. -1.
         11   -1    0    0    0    0 -0.00000000000E+00 -0.00000000000E+00 -0.45593999997E+02  0.45594000000E+02  0.51100000000E-03 0.  1.
         23    2    1    2    0    0  0.00000000000E+00 -0.44408920985E-15 -0.71054273576E-14  0.91188000000E+02  0.91188000000E+02 0.  0.
    9900012    2    3    3    0    0  0.12798327982E+02 -0.16810725603E+01  0.34484151947E+02  0.54367082853E+02  0.39999996980E+02 0.  0.
        -12    1    3    3    0    0 -0.12798327982E+02  0.16810725603E+01 -0.34484151947E+02  0.36820917147E+02  0.00000000000E+00 0.  1.
         11    1    4    4    0    0  0.98537591329E+01  0.11614151550E+00  0.24797074208E+01  0.10161643915E+02  0.51100000000E-03 0.  1.
        -11    1    4    4    0    0 -0.12258724888E+02  0.32763371228E+01  0.69625918109E+01  0.14473714306E+02  0.51100000000E-03 0. -1.
        -12    1    4    4    0    0  0.15203293737E+02 -0.50735511986E+01  0.25041852715E+02  0.29731724632E+02  0.00000000000E+00 0.  1.
</event>
<event>
 8    1  0.3146747E-007  0.9118800E+02  0.7816164E-02  0.1184000E+00
        -11   -1    0    0    0    0  0.00000000000E+00  0.00000000000E+00  0.45593999997E+02  0.45594000000E+02  0.51100000000E-03 0. -1.
         11   -1    0    0    0    0 -0.00000000000E+00 -0.00000000000E+00 -0.45593999997E+02  0.45594000000E+02  0.51100000000E-03 0.  1.
         23    2    1    2    0    0  0.35527136788E-14  0.00000000000E+00  0.00000000000E+00  0.91188000000E+02  0.91188000000E+02 0.  0.
    9900012    2    3    3    0    0 -0.22083888471E+02 -0.19209742968E+02 -0.22339801744E+02  0.54367094296E+02  0.40000023067E+02 0.  0.
         12    1    3    3    0    0  0.22083888471E+02  0.19209742968E+02  0.22339801744E+02  0.36820905704E+02  0.00000000000E+00 0. -1.
         11    1    4    4    0    0 -0.14821042064E+02 -0.40263589043E+01 -0.17042438353E+02  0.22941655545E+02  0.51100000000E-03 0. -1.
        -11    1    4    4    0    0 -0.11092122572E+02 -0.15367015627E+02  0.56905491685E+01  0.19787943363E+02  0.51100000000E-03 0.  1.
         12    1    4    4    0    0  0.38292761644E+01  0.18363156321E+00 -0.10987912559E+02  0.11637495388E+02  0.00000000000E+00 0. -1.
</event>
<event>
 8    1  0.3146747E-007  0.9118800E+02  0.7816164E-02  0.1184000E+00
        -11   -1    0    0    0    0  0.00000000000E+00  0.00000000000E+00  0.45593999997E+02  0.45594000000E+02  0.51100000000E-03 0.  1.
         11   -1    0    0    0    0 -0.00000000000E+00 -0.00000000000E+00 -0.45593999997E+02  0.45594000000E+02  0.51100000000E-03 0. -1.
         23    2    1    2    0    0 -0.71054273576E-14  0.88817841970E-15 -0.17763568394E-14  0.91188000000E+02  0.91188000000E+02 0.  0.
    9900012    2    3    3    0    0  0.33992194213E+02  0.92335095360E+00  0.14122955451E+02  0.54367085901E+02  0.40000003929E+02 0.  0.
        -12    1    3    3    0    0 -0.33992194213E+02 -0.92335095360E+00 -0.14122955451E+02  0.36820914099E+02  0.00000000000E+00 0.  1.
         11    1    4    4    0    0  0.14444231529E+01  0.10863658071E+02  0.83432288203E+01  0.13773702928E+02  0.51100000000E-03 0. -1.
        -11    1    4    4    0    0  0.27092242570E+02 -0.13528565957E+02  0.11015715341E+02  0.32223557983E+02  0.51100000000E-03 0.  1.
         12    1    4    4    0    0  0.54555284901E+01  0.35882588397E+01 -0.52359887102E+01  0.83698249910E+01  0.00000000000E+00 0. -1.
</event>
<event>
 8    1  0.3146747E-007  0.9118800E+02  0.7816164E-02  0.1184000E+00
        -11   -1    0    0    0    0  0.00000000000E+00  0.00000000000E+00  0.45593999997E+02  0.45594000000E+02  0.51100000000E-03 0. -1.
         11   -1    0    0    0    0 -0.00000000000E+00 -0.00000000000E+00 -0.45593999997E+02  0.45594000000E+02  0.51100000000E-03 0.  1.
         23    2    1    2    0    0  0.35527136788E-14 -0.35527136788E-14  0.35527136788E-14  0.91188000000E+02  0.91188000000E+02 0.  0.
    9900012    2    3    3    0    0 -0.22506455800E+02  0.22213963000E+02 -0.18862051533E+02  0.54367113361E+02  0.40000066530E+02 0.  0.
         12    1    3    3    0    0  0.22506455800E+02 -0.22213963000E+02  0.18862051533E+02  0.36820886639E+02  0.00000000000E+00 0. -1.
         11    1    4    4    0    0 -0.31505430530E+02  0.18022089082E+02 -0.95051859773E+01  0.37519813546E+02  0.51100000000E-03 0. -1.
        -11    1    4    4    0    0  0.93201877204E+00 -0.28407243776E+01 -0.36520271683E+01  0.47197115039E+01  0.51100000000E-03 0.  1.
        -12    1    4    4    0    0  0.80669559588E+01  0.70325982954E+01 -0.57048383873E+01  0.12127588311E+02  0.00000000000E+00 0.  1.
</event>
<event>
 8    1  0.3146747E-007  0.9118800E+02  0.7816164E-02  0.1184000E+00
        -11   -1    0    0    0    0  0.00000000000E+00  0.00000000000E+00  0.45593999997E+02  0.45594000000E+02  0.51100000000E-03 0.  1.
         11   -1    0    0    0    0 -0.00000000000E+00 -0.00000000000E+00 -0.45593999997E+02  0.45594000000E+02  0.51100000000E-03 0. -1.
         23    2    1    2    0    0 -0.17763568394E-14  0.35527136788E-14  0.00000000000E+00  0.91188000000E+02  0.91188000000E+02 0.  0.
    9900012    2    3    3    0    0 -0.11385145265E+02 -0.30022753432E+02  0.18022049210E+02  0.54367061472E+02  0.39999948238E+02 0.  0.
         12    1    3    3    0    0  0.11385145265E+02  0.30022753432E+02 -0.18022049210E+02  0.36820938528E+02  0.00000000000E+00 0. -1.
         11    1    4    4    0    0  0.48218283441E+01  0.44452600980E+01 -0.23645436204E+01  0.69714727793E+01  0.51100000000E-03 0. -1.
        -11    1    4    4    0    0 -0.91091154860E+01 -0.65902131346E+01  0.13950658173E+02  0.17917247495E+02  0.51100000000E-03 0.  1.
        -12    1    4    4    0    0 -0.70978581233E+01 -0.27877800395E+02  0.64359346579E+01  0.29478341197E+02  0.00000000000E+00 0.  1.
</event>
<event>
 8    1  0.3146747E-007  0.9118800E+02  0.7816164E-02  0.1184000E+00
        -11   -1    0    0    0    0  0.00000000000E+00  0.00000000000E+00  0.45593999997E+02  0.45594000000E+02  0.51100000000E-03 0. -1.
         11   -1    0    0    0    0 -0.00000000000E+00 -0.00000000000E+00 -0.45593999997E+02  0.45594000000E+02  0.51100000000E-03 0.  1.
         23    2    1    2    0    0  0.00000000000E+00  0.17763568394E-14  0.00000000000E+00  0.91188000000E+02  0.91188000000E+02 0.  0.
    9900012    2    3    3    0    0 -0.35110873807E+02  0.72174254539E+01 -0.84211322238E+01  0.54367079892E+02  0.39999990229E+02 0.  0.
         12    1    3    3    0    0  0.35110873807E+02 -0.72174254539E+01  0.84211322238E+01  0.36820920108E+02  0.00000000000E+00 0. -1.
         11    1    4    4    0    0  0.33034487430E+01 -0.52757764043E+01 -0.99246140570E+00  0.63032983563E+01  0.51100000000E-03 0. -1.
        -11    1    4    4    0    0 -0.12163398815E+02  0.13146907566E+02 -0.11793086418E+02  0.21444494324E+02  0.51100000000E-03 0.  1.
         12    1    4    4    0    0 -0.26250923735E+02 -0.65370570784E+00  0.43644156002E+01  0.26619287212E+02  0.00000000000E+00 0. -1.
</event>
<event>
 8    1  0.3146747E-007  0.9118800E+02  0.7816164E-02  0.1184000E+00
        -11   -1    0    0    0    0  0.00000000000E+00  0.00000000000E+00  0.45593999997E+02  0.45594000000E+02  0.51100000000E-03 0. -1.
         11   -1    0    0    0    0 -0.00000000000E+00 -0.00000000000E+00 -0.45593999997E+02  0.45594000000E+02  0.51100000000E-03 0.  1.
         23    2    1    2    0    0  0.00000000000E+00  0.00000000000E+00  0.35527136788E-14  0.91188000000E+02  0.91188000000E+02 0.  0.
    9900012    2    3    3    0    0 -0.11438413421E+02 -0.18830074804E+02 -0.29502036186E+02  0.54367093468E+02  0.40000021179E+02 0.  0.
         12    1    3    3    0    0  0.11438413421E+02  0.18830074804E+02  0.29502036186E+02  0.36820906532E+02  0.00000000000E+00 0. -1.
         11    1    4    4    0    0 -0.36729899818E+01 -0.27656409705E+02 -0.13129658596E+02  0.30834328082E+02  0.51100000000E-03 0. -1.
        -11    1    4    4    0    0 -0.50266558037E+01  0.98870499657E+01 -0.57133618310E+01  0.12476519117E+02  0.51100000000E-03 0.  1.
        -12    1    4    4    0    0 -0.27387676354E+01 -0.10607150649E+01 -0.10659015759E+02  0.11056246269E+02  0.00000000000E+00 0.  1.
</event>
<event>
 8    1  0.3146747E-007  0.9118800E+02  0.7816164E-02  0.1184000E+00
        -11   -1    0    0    0    0  0.00000000000E+00  0.00000000000E+00  0.45593999997E+02  0.45594000000E+02  0.51100000000E-03 0.  1.
         11   -1    0    0    0    0 -0.00000000000E+00 -0.00000000000E+00 -0.45593999997E+02  0.45594000000E+02  0.51100000000E-03 0. -1.
         23    2    1    2    0    0 -0.71054273576E-14 -0.17763568394E-14  0.44408920985E-15  0.91188000000E+02  0.91188000000E+02 0.  0.
    9900012    2    3    3    0    0 -0.34240571996E+02  0.13143387424E+02  0.32579839320E+01  0.54367083894E+02  0.39999999353E+02 0.  0.
        -12    1    3    3    0    0  0.34240571996E+02 -0.13143387424E+02 -0.32579839320E+01  0.36820916106E+02  0.00000000000E+00 0.  1.
         11    1    4    4    0    0 -0.79574114893E+01 -0.57154666080E+01  0.62627479779E+01  0.11627939140E+02  0.51100000000E-03 0. -1.
        -11    1    4    4    0    0 -0.14545077067E+01  0.24229599766E+01  0.98938739196E+01  0.10289561172E+02  0.51100000000E-03 0.  1.
         12    1    4    4    0    0 -0.24828652800E+02  0.16435894055E+02 -0.12898637966E+02  0.32449583582E+02  0.00000000000E+00 0. -1.
</event>
<event>
 8    1  0.3146747E-007  0.9118800E+02  0.7816164E-02  0.1184000E+00
        -11   -1    0    0    0    0  0.00000000000E+00  0.00000000000E+00  0.45593999997E+02  0.45594000000E+02  0.51100000000E-03 0.  1.
         11   -1    0    0    0    0 -0.00000000000E+00 -0.00000000000E+00 -0.45593999997E+02  0.45594000000E+02  0.51100000000E-03 0. -1.
         23    2    1    2    0    0 -0.17763568394E-14  0.35527136788E-14  0.00000000000E+00  0.91188000000E+02  0.91188000000E+02 0.  0.
    9900012    2    3    3    0    0 -0.11756798754E+02  0.30281516973E+02 -0.17337440900E+02  0.54367089581E+02  0.40000012318E+02 0.  0.
        -12    1    3    3    0    0  0.11756798754E+02 -0.30281516973E+02  0.17337440900E+02  0.36820910419E+02  0.00000000000E+00 0.  1.
         11    1    4    4    0    0  0.48782481288E+01  0.25947372694E+01  0.44691479902E+01  0.71065638900E+01  0.51100000000E-03 0. -1.
        -11    1    4    4    0    0 -0.10656450178E+01 -0.79755204678E+00  0.49919044126E+01  0.51663138210E+01  0.51100000000E-03 0.  1.
        -12    1    4    4    0    0 -0.15569401865E+02  0.28484331750E+02 -0.26798493303E+02  0.42094211870E+02  0.00000000000E+00 0.  1.
</event>
<event>
 8    1  0.3146747E-007  0.9118800E+02  0.7816164E-02  0.1184000E+00
        -11   -1    0    0    0    0  0.00000000000E+00  0.00000000000E+00  0.45593999997E+02  0.45594000000E+02  0.51100000000E-03 0.  1.
         11   -1    0    0    0    0 -0.00000000000E+00 -0.00000000000E+00 -0.45593999997E+02  0.45594000000E+02  0.51100000000E-03 0. -1.
         23    2    1    2    0    0  0.00000000000E+00 -0.35527136788E-14 -0.35527136788E-14  0.91188000000E+02  0.91188000000E+02 0.  0.
    9900012    2    3    3    0    0  0.25455187755E+01  0.24311270082E+02  0.27536565672E+02  0.54367082469E+02  0.39999996104E+02 0.  0.
         12    1    3    3    0    0 -0.25455187755E+01 -0.24311270082E+02 -0.27536565672E+02  0.36820917531E+02  0.00000000000E+00 0. -1.
         11    1    4    4    0    0 -0.54361480604E+01  0.93204839769E+01  0.47301385236E+00  0.10800318035E+02  0.51100000000E-03 0. -1.
        -11    1    4    4    0    0 -0.11274803803E+02  0.65203575887E+01  0.11809668798E+02  0.17581369152E+02  0.51100000000E-03 0.  1.
         12    1    4    4    0    0  0.19256470639E+02  0.84704285162E+01  0.15253883021E+02  0.25985395281E+02  0.00000000000E+00 0. -1.
</event>
<event>
 8    1  0.3146747E-007  0.9118800E+02  0.7816164E-02  0.1184000E+00
        -11   -1    0    0    0    0  0.00000000000E+00  0.00000000000E+00  0.45593999997E+02  0.45594000000E+02  0.51100000000E-03 0.  1.
         11   -1    0    0    0    0 -0.00000000000E+00 -0.00000000000E+00 -0.45593999997E+02  0.45594000000E+02  0.51100000000E-03 0. -1.
         23    2    1    2    0    0  0.35527136788E-14  0.17763568394E-14  0.00000000000E+00  0.91188000000E+02  0.91188000000E+02 0.  0.
    9900012    2    3    3    0    0 -0.20544625590E+02 -0.10375840690E+02  0.28740865560E+02  0.54367121904E+02  0.40000086004E+02 0.  0.
         12    1    3    3    0    0  0.20544625590E+02  0.10375840690E+02 -0.28740865560E+02  0.36820878096E+02  0.00000000000E+00 0. -1.
         11    1    4    4    0    0 -0.46805624365E+01 -0.33859122947E+01  0.23632415089E+02  0.24328236886E+02  0.51100000000E-03 0. -1.
        -11    1    4    4    0    0 -0.14311159648E+02 -0.10295180515E+01  0.13452159565E+02  0.19667989097E+02  0.51100000000E-03 0.  1.
         12    1    4    4    0    0 -0.15529035056E+01 -0.59604103435E+01 -0.83437090941E+01  0.10370895921E+02  0.00000000000E+00 0. -1.
</event>
<event>
 8    1  0.3146747E-007  0.9118800E+02  0.7816164E-02  0.1184000E+00
        -11   -1    0    0    0    0  0.00000000000E+00  0.00000000000E+00  0.45593999997E+02  0.45594000000E+02  0.51100000000E-03 0.  1.
         11   -1    0    0    0    0 -0.00000000000E+00 -0.00000000000E+00 -0.45593999997E+02  0.45594000000E+02  0.51100000000E-03 0. -1.
         23    2    1    2    0    0  0.17763568394E-14 -0.35527136788E-14  0.00000000000E+00  0.91188000000E+02  0.91188000000E+02 0.  0.
    9900012    2    3    3    0    0 -0.10948723633E+02  0.30285059169E+02 -0.17852752891E+02  0.54367080079E+02  0.39999990656E+02 0.  0.
         12    1    3    3    0    0  0.10948723633E+02 -0.30285059169E+02  0.17852752891E+02  0.36820919921E+02  0.00000000000E+00 0. -1.
         11    1    4    4    0    0 -0.12060209786E+02  0.24495554953E+02 -0.19573381301E+02  0.33594614573E+02  0.51100000000E-03 0.  1.
        -11    1    4    4    0    0  0.82982340149E+01 -0.25706865371E+01 -0.23840988752E+01  0.90084984735E+01  0.51100000000E-03 0. -1.
        -12    1    4    4    0    0 -0.71867478620E+01  0.83601907530E+01  0.41047272847E+01  0.11763967032E+02  0.00000000000E+00 0.  1.
</event>
<event>
 8    1  0.3146747E-007  0.9118800E+02  0.7816164E-02  0.1184000E+00
        -11   -1    0    0    0    0  0.00000000000E+00  0.00000000000E+00  0.45593999997E+02  0.45594000000E+02  0.51100000000E-03 0. -1.
         11   -1    0    0    0    0 -0.00000000000E+00 -0.00000000000E+00 -0.45593999997E+02  0.45594000000E+02  0.51100000000E-03 0.  1.
         23    2    1    2    0    0  0.00000000000E+00 -0.71054273576E-14  0.00000000000E+00  0.91188000000E+02  0.91188000000E+02 0.  0.
    9900012    2    3    3    0    0  0.15607909157E+02 -0.32164107005E+02  0.88115435587E+01  0.54367083287E+02  0.39999997970E+02 0.  0.
        -12    1    3    3    0    0 -0.15607909157E+02  0.32164107005E+02 -0.88115435587E+01  0.36820916713E+02  0.00000000000E+00 0.  1.
         11    1    4    4    0    0  0.18999248078E+02 -0.49802532908E+01  0.14797876768E+02  0.24591695905E+02  0.51100000000E-03 0. -1.
        -11    1    4    4    0    0  0.27247504579E+01 -0.16665714322E+02 -0.21817420457E+01  0.17027339708E+02  0.51100000000E-03 0.  1.
         12    1    4    4    0    0 -0.61160893793E+01 -0.10518139392E+02 -0.38045911639E+01  0.12748047674E+02  0.00000000000E+00 0. -1.
</event>
<event>
 8    1  0.3146747E-007  0.9118800E+02  0.7816164E-02  0.1184000E+00
        -11   -1    0    0    0    0  0.00000000000E+00  0.00000000000E+00  0.45593999997E+02  0.45594000000E+02  0.51100000000E-03 0. -1.
         11   -1    0    0    0    0 -0.00000000000E+00 -0.00000000000E+00 -0.45593999997E+02  0.45594000000E+02  0.51100000000E-03 0.  1.
         23    2    1    2    0    0 -0.35527136788E-14  0.44408920985E-15  0.00000000000E+00  0.91188000000E+02  0.91188000000E+02 0.  0.
    9900012    2    3    3    0    0 -0.31027861519E+02  0.34279286531E+01  0.19526916930E+02  0.54367090586E+02  0.40000014608E+02 0.  0.
        -12    1    3    3    0    0  0.31027861519E+02 -0.34279286531E+01 -0.19526916930E+02  0.36820909414E+02  0.00000000000E+00 0.  1.
         11    1    4    4    0    0 -0.14100623619E+02 -0.63136579386E+01 -0.17038745459E+01  0.15543263870E+02  0.51100000000E-03 0.  1.
        -11    1    4    4    0    0 -0.72875428746E+01  0.49350999156E+01  0.25697464285E+02  0.27162900494E+02  0.51100000000E-03 0. -1.
         12    1    4    4    0    0 -0.96396950257E+01  0.48064866762E+01 -0.44666728089E+01  0.11660926221E+02  0.00000000000E+00 0. -1.
</event>
<event>
 8    1  0.3146747E-007  0.9118800E+02  0.7816164E-02  0.1184000E+00
        -11   -1    0    0    0    0  0.00000000000E+00  0.00000000000E+00  0.45593999997E+02  0.45594000000E+02  0.51100000000E-03 0. -1.
         11   -1    0    0    0    0 -0.00000000000E+00 -0.00000000000E+00 -0.45593999997E+02  0.45594000000E+02  0.51100000000E-03 0.  1.
         23    2    1    2    0    0  0.00000000000E+00  0.17763568394E-14  0.00000000000E+00  0.91188000000E+02  0.91188000000E+02 0.  0.
    9900012    2    3    3    0    0 -0.31721199949E+02  0.10548150510E+02 -0.15436352031E+02  0.54367096027E+02  0.40000027012E+02 0.  0.
         12    1    3    3    0    0  0.31721199949E+02 -0.10548150510E+02  0.15436352031E+02  0.36820903973E+02  0.00000000000E+00 0. -1.
         11    1    4    4    0    0 -0.42729659426E+01 -0.42526599208E+01  0.20076132666E+01  0.63540432512E+01  0.51100000000E-03 0. -1.
        -11    1    4    4    0    0 -0.12601618558E+01  0.15884816532E+02  0.99606340293E+00  0.15965824336E+02  0.51100000000E-03 0.  1.
         12    1    4    4    0    0 -0.26188072150E+02 -0.10840061013E+01 -0.18440028701E+02  0.32047228440E+02  0.00000000000E+00 0. -1.
</event>
<event>
 8    1  0.3146747E-007  0.9118800E+02  0.7816164E-02  0.1184000E+00
        -11   -1    0    0    0    0  0.00000000000E+00  0.00000000000E+00  0.45593999997E+02  0.45594000000E+02  0.51100000000E-03 0. -1.
         11   -1    0    0    0    0 -0.00000000000E+00 -0.00000000000E+00 -0.45593999997E+02  0.45594000000E+02  0.51100000000E-03 0.  1.
         23    2    1    2    0    0  0.17763568394E-14  0.00000000000E+00 -0.17763568394E-14  0.91188000000E+02  0.91188000000E+02 0.  0.
    9900012    2    3    3    0    0  0.12557937489E+02 -0.34478871195E+02  0.30471677646E+01  0.54367087678E+02  0.40000007980E+02 0.  0.
        -12    1    3    3    0    0 -0.12557937489E+02  0.34478871195E+02 -0.30471677646E+01  0.36820912322E+02  0.00000000000E+00 0.  1.
         11    1    4    4    0    0  0.13177500278E+02 -0.10334232977E+02  0.11938493077E+02  0.20566246669E+02  0.51100000000E-03 0. -1.
        -11    1    4    4    0    0 -0.18598274843E+01  0.11270868357E+01  0.46279270533E+01  0.51134129579E+01  0.51100000000E-03 0.  1.
         12    1    4    4    0    0  0.12402646950E+01 -0.25271725053E+02 -0.13519252366E+02  0.28687428052E+02  0.00000000000E+00 0. -1.
</event>
<event>
 8    1  0.3146747E-007  0.9118800E+02  0.7816164E-02  0.1184000E+00
        -11   -1    0    0    0    0  0.00000000000E+00  0.00000000000E+00  0.45593999997E+02  0.45594000000E+02  0.51100000000E-03 0.  1.
         11   -1    0    0    0    0 -0.00000000000E+00 -0.00000000000E+00 -0.45593999997E+02  0.45594000000E+02  0.51100000000E-03 0. -1.
         23    2    1    2    0    0  0.17763568394E-14  0.00000000000E+00  0.00000000000E+00  0.91188000000E+02  0.91188000000E+02 0.  0.
    9900012    2    3    3    0    0 -0.10348162711E+02 -0.31090567424E+02  0.16795016978E+02  0.54367075927E+02  0.39999981191E+02 0.  0.
         12    1    3    3    0    0  0.10348162711E+02  0.31090567424E+02 -0.16795016978E+02  0.36820924073E+02  0.00000000000E+00 0. -1.
         11    1    4    4    0    0 -0.17373921579E+01 -0.25231587062E+01 -0.94013463140E+01  0.98878801644E+01  0.51100000000E-03 0. -1.
        -11    1    4    4    0    0  0.54476919514E+01 -0.86072011877E+01  0.13644472828E+02  0.17027416096E+02  0.51100000000E-03 0.  1.
        -12    1    4    4    0    0 -0.14058462505E+02 -0.19960207530E+02  0.12551890464E+02  0.27451779667E+02  0.00000000000E+00 0.  1.
</event>
<event>
 8    1  0.3146747E-007  0.9118800E+02  0.7816164E-02  0.1184000E+00
        -11   -1    0    0    0    0  0.00000000000E+00  0.00000000000E+00  0.45593999997E+02  0.45594000000E+02  0.51100000000E-03 0.  1.
         11   -1    0    0    0    0 -0.00000000000E+00 -0.00000000000E+00 -0.45593999997E+02  0.45594000000E+02  0.51100000000E-03 0. -1.
         23    2    1    2    0    0  0.35527136788E-14  0.00000000000E+00  0.00000000000E+00  0.91188000000E+02  0.91188000000E+02 0.  0.
    9900012    2    3    3    0    0  0.11446861101E+02  0.12522953044E+02 -0.32679118590E+02  0.54367085104E+02  0.40000002111E+02 0.  0.
        -12    1    3    3    0    0 -0.11446861101E+02 -0.12522953044E+02  0.32679118590E+02  0.36820914896E+02  0.00000000000E+00 0.  1.
         11    1    4    4    0    0 -0.87367744211E+01  0.85704917561E+01 -0.12404241037E+02  0.17425548835E+02  0.51100000000E-03 0. -1.
        -11    1    4    4    0    0  0.19632354413E+01 -0.71771266397E+01 -0.11842390130E+02  0.13985980282E+02  0.51100000000E-03 0.  1.
        -12    1    4    4    0    0  0.18220400081E+02  0.11129587928E+02 -0.84324874227E+01  0.22955555987E+02  0.00000000000E+00 0.  1.
</event>
<event>
 8    1  0.3146747E-007  0.9118800E+02  0.7816164E-02  0.1184000E+00
        -11   -1    0    0    0    0  0.00000000000E+00  0.00000000000E+00  0.45593999997E+02  0.45594000000E+02  0.51100000000E-03 0. -1.
         11   -1    0    0    0    0 -0.00000000000E+00 -0.00000000000E+00 -0.45593999997E+02  0.45594000000E+02  0.51100000000E-03 0.  1.
         23    2    1    2    0    0  0.88817841970E-15  0.22204460493E-15  0.00000000000E+00  0.91188000000E+02  0.91188000000E+02 0.  0.
    9900012    2    3    3    0    0 -0.40470600805E+01  0.16552292366E+01  0.36560376926E+02  0.54367086919E+02  0.40000006250E+02 0.  0.
        -12    1    3    3    0    0  0.40470600805E+01 -0.16552292366E+01 -0.36560376926E+02  0.36820913081E+02  0.00000000000E+00 0.  1.
         11    1    4    4    0    0 -0.82638805886E-02 -0.56203705841E+01 -0.13003749318E+01  0.57688481536E+01  0.51100000000E-03 0. -1.
        -11    1    4    4    0    0  0.77756464863E+01 -0.66485793380E+01  0.22571374850E+02  0.24781671621E+02  0.51100000000E-03 0.  1.
         12    1    4    4    0    0 -0.11814442686E+02  0.13924179159E+02  0.15289377008E+02  0.23816567144E+02  0.00000000000E+00 0. -1.
</event>
<event>
 8    1  0.3146747E-007  0.9118800E+02  0.7816164E-02  0.1184000E+00
        -11   -1    0    0    0    0  0.00000000000E+00  0.00000000000E+00  0.45593999997E+02  0.45594000000E+02  0.51100000000E-03 0. -1.
         11   -1    0    0    0    0 -0.00000000000E+00 -0.00000000000E+00 -0.45593999997E+02  0.45594000000E+02  0.51100000000E-03 0.  1.
         23    2    1    2    0    0  0.00000000000E+00  0.00000000000E+00  0.00000000000E+00  0.91188000000E+02  0.91188000000E+02 0.  0.
    9900012    2    3    3    0    0  0.65010541374E+01  0.34874959170E+02 -0.98616881245E+01  0.54367090524E+02  0.40000014467E+02 0.  0.
        -12    1    3    3    0    0 -0.65010541374E+01 -0.34874959170E+02  0.98616881245E+01  0.36820909476E+02  0.00000000000E+00 0.  1.
         11    1    4    4    0    0  0.91197488122E+01  0.11204850567E+02 -0.13592979549E+02  0.19836521568E+02  0.51100000000E-03 0. -1.
        -11    1    4    4    0    0 -0.66064263168E+01  0.58789030829E+00  0.83415790341E+01  0.10657036396E+02  0.51100000000E-03 0.  1.
         12    1    4    4    0    0  0.39877316419E+01  0.23082218295E+02 -0.46102876091E+01  0.23873532560E+02  0.00000000000E+00 0. -1.
</event>
<event>
 8    1  0.3146747E-007  0.9118800E+02  0.7816164E-02  0.1184000E+00
        -11   -1    0    0    0    0  0.00000000000E+00  0.00000000000E+00  0.45593999997E+02  0.45594000000E+02  0.51100000000E-03 0. -1.
         11   -1    0    0    0    0 -0.00000000000E+00 -0.00000000000E+00 -0.45593999997E+02  0.45594000000E+02  0.51100000000E-03 0.  1.
         23    2    1    2    0    0  0.35527136788E-14  0.35527136788E-14 -0.35527136788E-14  0.91188000000E+02  0.91188000000E+02 0.  0.
    9900012    2    3    3    0    0 -0.23832191520E+02  0.18092129146E+02 -0.21458795260E+02  0.54367103980E+02  0.40000045144E+02 0.  0.
         12    1    3    3    0    0  0.23832191520E+02 -0.18092129146E+02  0.21458795260E+02  0.36820896020E+02  0.00000000000E+00 0. -1.
         11    1    4    4    0    0  0.56011825074E+01  0.16341292880E+02 -0.14873063977E+02  0.22795155863E+02  0.51100000000E-03 0. -1.
        -11    1    4    4    0    0 -0.18824827527E+02 -0.20193646941E+01 -0.72983576508E+01  0.20290835120E+02  0.51100000000E-03 0.  1.
         12    1    4    4    0    0 -0.10608546500E+02  0.37702009594E+01  0.71262636802E+00  0.11281112998E+02  0.00000000000E+00 0. -1.
</event>
<event>
 8    1  0.3146747E-007  0.9118800E+02  0.7816164E-02  0.1184000E+00
        -11   -1    0    0    0    0  0.00000000000E+00  0.00000000000E+00  0.45593999997E+02  0.45594000000E+02  0.51100000000E-03 0. -1.
         11   -1    0    0    0    0 -0.00000000000E+00 -0.00000000000E+00 -0.45593999997E+02  0.45594000000E+02  0.51100000000E-03 0.  1.
         23    2    1    2    0    0  0.17763568394E-14  0.71054273576E-14 -0.17763568394E-14  0.91188000000E+02  0.91188000000E+02 0.  0.
    9900012    2    3    3    0    0 -0.54136759846E+01 -0.35228508753E+02  0.92425798502E+01  0.54367068468E+02  0.39999964186E+02 0.  0.
         12    1    3    3    0    0  0.54136759846E+01  0.35228508753E+02 -0.92425798502E+01  0.36820931532E+02  0.00000000000E+00 0. -1.
         11    1    4    4    0    0 -0.59335724982E+01 -0.27155679056E+02  0.95336294189E+01  0.29385851660E+02  0.51100000000E-03 0. -1.
        -11    1    4    4    0    0 -0.66201367071E+01  0.52440823535E+01  0.38970666426E+01  0.93012761721E+01  0.51100000000E-03 0.  1.
        -12    1    4    4    0    0  0.71400332207E+01 -0.13316912050E+02 -0.41881162113E+01  0.15679940636E+02  0.00000000000E+00 0.  1.
</event>
<event>
 8    1  0.3146747E-007  0.9118800E+02  0.7816164E-02  0.1184000E+00
        -11   -1    0    0    0    0  0.00000000000E+00  0.00000000000E+00  0.45593999997E+02  0.45594000000E+02  0.51100000000E-03 0.  1.
         11   -1    0    0    0    0 -0.00000000000E+00 -0.00000000000E+00 -0.45593999997E+02  0.45594000000E+02  0.51100000000E-03 0. -1.
         23    2    1    2    0    0  0.00000000000E+00  0.00000000000E+00  0.17763568394E-14  0.91188000000E+02  0.91188000000E+02 0.  0.
    9900012    2    3    3    0    0 -0.29083887834E+02  0.19037054487E+02 -0.12144791039E+02  0.54367110216E+02  0.40000059359E+02 0.  0.
        -12    1    3    3    0    0  0.29083887834E+02 -0.19037054487E+02  0.12144791039E+02  0.36820889784E+02  0.00000000000E+00 0.  1.
         11    1    4    4    0    0 -0.63934758151E+01  0.10319107048E+02 -0.51165610607E+01  0.13173446801E+02  0.51100000000E-03 0. -1.
        -11    1    4    4    0    0 -0.25800176885E+01 -0.11743745376E+00 -0.16911034809E+02  0.17107114935E+02  0.51100000000E-03 0.  1.
         12    1    4    4    0    0 -0.20110394331E+02  0.88353848935E+01  0.98828048312E+01  0.24086548480E+02  0.00000000000E+00 0. -1.
</event>
<event>
 8    1  0.3146747E-007  0.9118800E+02  0.7816164E-02  0.1184000E+00
        -11   -1    0    0    0    0  0.00000000000E+00  0.00000000000E+00  0.45593999997E+02  0.45594000000E+02  0.51100000000E-03 0.  1.
         11   -1    0    0    0    0 -0.00000000000E+00 -0.00000000000E+00 -0.45593999997E+02  0.45594000000E+02  0.51100000000E-03 0. -1.
         23    2    1    2    0    0  0.00000000000E+00  0.00000000000E+00 -0.35527136788E-14  0.91188000000E+02  0.91188000000E+02 0.  0.
    9900012    2    3    3    0    0  0.12293927581E+02 -0.24060237010E+02 -0.25014888388E+02  0.54367077939E+02  0.39999985777E+02 0.  0.
        -12    1    3    3    0    0 -0.12293927581E+02  0.24060237010E+02  0.25014888388E+02  0.36820922061E+02  0.00000000000E+00 0.  1.
         11    1    4    4    0    0  0.70140649802E+01 -0.85996385323E+01 -0.43074024633E+01  0.11903974407E+02  0.51100000000E-03 0. -1.
        -11    1    4    4    0    0  0.15252047246E+02 -0.34099535005E+01  0.10532035932E+01  0.15664034159E+02  0.51100000000E-03 0.  1.
         12    1    4    4    0    0 -0.99721846449E+01 -0.12050644977E+02 -0.21760689518E+02  0.26799069373E+02  0.00000000000E+00 0. -1.
</event>
<event>
 8    1  0.3146747E-007  0.9118800E+02  0.7816164E-02  0.1184000E+00
        -11   -1    0    0    0    0  0.00000000000E+00  0.00000000000E+00  0.45593999997E+02  0.45594000000E+02  0.51100000000E-03 0. -1.
         11   -1    0    0    0    0 -0.00000000000E+00 -0.00000000000E+00 -0.45593999997E+02  0.45594000000E+02  0.51100000000E-03 0.  1.
         23    2    1    2    0    0  0.44408920985E-15  0.00000000000E+00 -0.35527136788E-14  0.91188000000E+02  0.91188000000E+02 0.  0.
    9900012    2    3    3    0    0  0.38983771667E+01  0.20824519543E+02  0.30115141527E+02  0.54367085998E+02  0.40000004150E+02 0.  0.
        -12    1    3    3    0    0 -0.38983771667E+01 -0.20824519543E+02 -0.30115141527E+02  0.36820914002E+02  0.00000000000E+00 0.  1.
         11    1    4    4    0    0 -0.11540792047E+01  0.57138165416E+01  0.36060924957E+02  0.36529028283E+02  0.51100000000E-03 0. -1.
        -11    1    4    4    0    0 -0.94465757169E+00  0.64918445874E+00 -0.21354503306E+00  0.11659417359E+01  0.51100000000E-03 0.  1.
         12    1    4    4    0    0  0.59971139431E+01  0.14461518542E+02 -0.57322383963E+01  0.16672115979E+02  0.00000000000E+00 0. -1.
</event>
<event>
 8    1  0.3146747E-007  0.9118800E+02  0.7816164E-02  0.1184000E+00
        -11   -1    0    0    0    0  0.00000000000E+00  0.00000000000E+00  0.45593999997E+02  0.45594000000E+02  0.51100000000E-03 0.  1.
         11   -1    0    0    0    0 -0.00000000000E+00 -0.00000000000E+00 -0.45593999997E+02  0.45594000000E+02  0.51100000000E-03 0. -1.
         23    2    1    2    0    0  0.17763568394E-14  0.00000000000E+00 -0.17763568394E-14  0.91188000000E+02  0.91188000000E+02 0.  0.
    9900012    2    3    3    0    0 -0.83902985367E+01  0.35558854185E+02 -0.45752907783E+01  0.54367319585E+02  0.40000536655E+02 0.  0.
        -12    1    3    3    0    0  0.83902985367E+01 -0.35558854185E+02  0.45752907783E+01  0.36820680415E+02  0.00000000000E+00 0.  1.
         11    1    4    4    0    0 -0.29273855310E+00  0.87371921158E+00  0.76742369607E+01  0.77293592432E+01  0.51100000000E-03 0. -1.
        -11    1    4    4    0    0  0.74580552025E+01  0.15065059348E+02  0.33458534209E+01  0.17139817267E+02  0.51100000000E-03 0.  1.
         12    1    4    4    0    0 -0.15555615186E+02  0.19620075625E+02 -0.15595381160E+02  0.29498143075E+02  0.00000000000E+00 0. -1.
</event>
<event>
 8    1  0.3146747E-007  0.9118800E+02  0.7816164E-02  0.1184000E+00
        -11   -1    0    0    0    0  0.00000000000E+00  0.00000000000E+00  0.45593999997E+02  0.45594000000E+02  0.51100000000E-03 0.  1.
         11   -1    0    0    0    0 -0.00000000000E+00 -0.00000000000E+00 -0.45593999997E+02  0.45594000000E+02  0.51100000000E-03 0. -1.
         23    2    1    2    0    0 -0.35527136788E-14 -0.17763568394E-14  0.00000000000E+00  0.91188000000E+02  0.91188000000E+02 0.  0.
    9900012    2    3    3    0    0 -0.31624160840E+02 -0.13786915628E+02 -0.12869063013E+02  0.54367090530E+02  0.40000014480E+02 0.  0.
        -12    1    3    3    0    0  0.31624160840E+02  0.13786915628E+02  0.12869063013E+02  0.36820909470E+02  0.00000000000E+00 0.  1.
         11    1    4    4    0    0 -0.42438701948E+01 -0.33448160777E+01  0.13178593489E+02  0.14243368824E+02  0.51100000000E-03 0. -1.
        -11    1    4    4    0    0 -0.18317484358E+02 -0.25357583633E+01 -0.15684899580E+02  0.24248224240E+02  0.51100000000E-03 0.  1.
        -12    1    4    4    0    0 -0.90628062870E+01 -0.79063411873E+01 -0.10362756922E+02  0.15875497466E+02  0.00000000000E+00 0.  1.
</event>
<event>
 8    1  0.3146747E-007  0.9118800E+02  0.7816164E-02  0.1184000E+00
        -11   -1    0    0    0    0  0.00000000000E+00  0.00000000000E+00  0.45593999997E+02  0.45594000000E+02  0.51100000000E-03 0. -1.
         11   -1    0    0    0    0 -0.00000000000E+00 -0.00000000000E+00 -0.45593999997E+02  0.45594000000E+02  0.51100000000E-03 0.  1.
         23    2    1    2    0    0  0.00000000000E+00  0.11102230246E-14  0.00000000000E+00  0.91188000000E+02  0.91188000000E+02 0.  0.
    9900012    2    3    3    0    0 -0.12259829566E+02 -0.15760185426E+01  0.34684381888E+02  0.54366897323E+02  0.39999574024E+02 0.  0.
        -12    1    3    3    0    0  0.12259829566E+02  0.15760185426E+01 -0.34684381888E+02  0.36821102677E+02  0.00000000000E+00 0.  1.
         11    1    4    4    0    0 -0.85229840781E+01 -0.16397817818E+01  0.15011016734E+02  0.17339572242E+02  0.51100000000E-03 0. -1.
        -11    1    4    4    0    0  0.25716773496E+01  0.14965790099E+02  0.96724941993E+01  0.18004042378E+02  0.51100000000E-03 0.  1.
         12    1    4    4    0    0 -0.63085228379E+01 -0.14902026860E+02  0.10000870955E+02  0.19023282702E+02  0.00000000000E+00 0. -1.
</event>
<event>
 8    1  0.3146747E-007  0.9118800E+02  0.7816164E-02  0.1184000E+00
        -11   -1    0    0    0    0  0.00000000000E+00  0.00000000000E+00  0.45593999997E+02  0.45594000000E+02  0.51100000000E-03 0. -1.
         11   -1    0    0    0    0 -0.00000000000E+00 -0.00000000000E+00 -0.45593999997E+02  0.45594000000E+02  0.51100000000E-03 0.  1.
         23    2    1    2    0    0  0.00000000000E+00 -0.17763568394E-14 -0.71054273576E-14  0.91188000000E+02  0.91188000000E+02 0.  0.
    9900012    2    3    3    0    0 -0.25908118325E+02  0.57197293508E+01  0.25531055316E+02  0.54367072736E+02  0.39999973917E+02 0.  0.
        -12    1    3    3    0    0  0.25908118325E+02 -0.57197293508E+01 -0.25531055316E+02  0.36820927264E+02  0.00000000000E+00 0.  1.
         11    1    4    4    0    0 -0.19133960374E+02  0.64866462043E+01  0.16566756609E+02  0.26127427033E+02  0.51100000000E-03 0. -1.
        -11    1    4    4    0    0  0.90854743368E+00 -0.12388288603E+01 -0.87718067003E+01  0.89053213549E+01  0.51100000000E-03 0.  1.
        -12    1    4    4    0    0 -0.76827053852E+01  0.47191200677E+00  0.17736105408E+02  0.19334324349E+02  0.00000000000E+00 0.  1.
</event>
<event>
 8    1  0.3146747E-007  0.9118800E+02  0.7816164E-02  0.1184000E+00
        -11   -1    0    0    0    0  0.00000000000E+00  0.00000000000E+00  0.45593999997E+02  0.45594000000E+02  0.51100000000E-03 0. -1.
         11   -1    0    0    0    0 -0.00000000000E+00 -0.00000000000E+00 -0.45593999997E+02  0.45594000000E+02  0.51100000000E-03 0.  1.
         23    2    1    2    0    0  0.00000000000E+00  0.00000000000E+00 -0.88817841970E-15  0.91188000000E+02  0.91188000000E+02 0.  0.
    9900012    2    3    3    0    0 -0.32641836845E+02  0.16765706158E+02 -0.30330846468E+01  0.54367108945E+02  0.40000056462E+02 0.  0.
        -12    1    3    3    0    0  0.32641836845E+02 -0.16765706158E+02  0.30330846468E+01  0.36820891055E+02  0.00000000000E+00 0.  1.
         11    1    4    4    0    0 -0.66844126077E+01 -0.49541763911E+01  0.81204203445E+01  0.11626111235E+02  0.51100000000E-03 0. -1.
        -11    1    4    4    0    0 -0.29379710392E+01  0.15471471173E+02 -0.10408712445E+02  0.18876953915E+02  0.51100000000E-03 0.  1.
        -12    1    4    4    0    0 -0.23019453198E+02  0.62484113757E+01 -0.74479254599E+00  0.23864043794E+02  0.00000000000E+00 0.  1.
</event>
<event>
 8    1  0.3146747E-007  0.9118800E+02  0.7816164E-02  0.1184000E+00
        -11   -1    0    0    0    0  0.00000000000E+00  0.00000000000E+00  0.45593999997E+02  0.45594000000E+02  0.51100000000E-03 0. -1.
         11   -1    0    0    0    0 -0.00000000000E+00 -0.00000000000E+00 -0.45593999997E+02  0.45594000000E+02  0.51100000000E-03 0.  1.
         23    2    1    2    0    0 -0.35527136788E-14  0.00000000000E+00 -0.17763568394E-14  0.91188000000E+02  0.91188000000E+02 0.  0.
    9900012    2    3    3    0    0 -0.31839501886E+02 -0.16047812662E+02  0.91920669933E+01  0.54367078403E+02  0.39999986836E+02 0.  0.
        -12    1    3    3    0    0  0.31839501886E+02  0.16047812662E+02 -0.91920669933E+01  0.36820921597E+02  0.00000000000E+00 0.  1.
         11    1    4    4    0    0 -0.20106438558E+02 -0.78244512062E+01 -0.12616543537E+02  0.24993360704E+02  0.51100000000E-03 0. -1.
        -11    1    4    4    0    0 -0.17721975203E+01 -0.81495256156E+01  0.46910036481E+01  0.95687495159E+01  0.51100000000E-03 0.  1.
         12    1    4    4    0    0 -0.99608658076E+01 -0.73835840408E-01  0.17117606883E+02  0.19804968184E+02  0.00000000000E+00 0. -1.
</event>
<event>
 8    1  0.3146747E-007  0.9118800E+02  0.7816164E-02  0.1184000E+00
        -11   -1    0    0    0    0  0.00000000000E+00  0.00000000000E+00  0.45593999997E+02  0.45594000000E+02  0.51100000000E-03 0.  1.
         11   -1    0    0    0    0 -0.00000000000E+00 -0.00000000000E+00 -0.45593999997E+02  0.45594000000E+02  0.51100000000E-03 0. -1.
         23    2    1    2    0    0  0.22204460493E-14  0.00000000000E+00  0.00000000000E+00  0.91188000000E+02  0.91188000000E+02 0.  0.
    9900012    2    3    3    0    0  0.25963588681E+01  0.20737351747E+02  0.30315337707E+02  0.54366830312E+02  0.39999421259E+02 0.  0.
         12    1    3    3    0    0 -0.25963588681E+01 -0.20737351747E+02 -0.30315337707E+02  0.36821169688E+02  0.00000000000E+00 0. -1.
         11    1    4    4    0    0  0.52333941030E+01  0.22634387207E+02  0.21588238299E+02  0.31713655279E+02  0.51100000000E-03 0. -1.
        -11    1    4    4    0    0  0.61418496471E+01 -0.78216612934E+01  0.21140934075E+01  0.10167108422E+02  0.51100000000E-03 0.  1.
        -12    1    4    4    0    0 -0.87788848820E+01  0.59246258335E+01  0.66130060013E+01  0.12486066611E+02  0.00000000000E+00 0.  1.
</event>
<event>
 8    1  0.3146747E-007  0.9118800E+02  0.7816164E-02  0.1184000E+00
        -11   -1    0    0    0    0  0.00000000000E+00  0.00000000000E+00  0.45593999997E+02  0.45594000000E+02  0.51100000000E-03 0. -1.
         11   -1    0    0    0    0 -0.00000000000E+00 -0.00000000000E+00 -0.45593999997E+02  0.45594000000E+02  0.51100000000E-03 0.  1.
         23    2    1    2    0    0  0.35527136788E-14  0.35527136788E-14  0.35527136788E-14  0.91188000000E+02  0.91188000000E+02 0.  0.
    9900012    2    3    3    0    0  0.26796610183E+02  0.12541992553E+02  0.21918489434E+02  0.54367081033E+02  0.39999992832E+02 0.  0.
         12    1    3    3    0    0 -0.26796610183E+02 -0.12541992553E+02 -0.21918489434E+02  0.36820918967E+02  0.00000000000E+00 0. -1.
         11    1    4    4    0    0  0.11809702121E+02  0.11542435182E+02  0.20803101004E+02  0.26560607782E+02  0.51100000000E-03 0. -1.
        -11    1    4    4    0    0 -0.30605885786E+01  0.62428387040E+01 -0.43903705330E+01  0.82228700105E+01  0.51100000000E-03 0.  1.
         12    1    4    4    0    0  0.18047496641E+02 -0.52432813330E+01  0.55057589627E+01  0.19583603241E+02  0.00000000000E+00 0. -1.
</event>
<event>
 8    1  0.3146747E-007  0.9118800E+02  0.7816164E-02  0.1184000E+00
        -11   -1    0    0    0    0  0.00000000000E+00  0.00000000000E+00  0.45593999997E+02  0.45594000000E+02  0.51100000000E-03 0. -1.
         11   -1    0    0    0    0 -0.00000000000E+00 -0.00000000000E+00 -0.45593999997E+02  0.45594000000E+02  0.51100000000E-03 0.  1.
         23    2    1    2    0    0  0.00000000000E+00  0.00000000000E+00 -0.17763568394E-14  0.91188000000E+02  0.91188000000E+02 0.  0.
    9900012    2    3    3    0    0  0.34674633246E+02 -0.26362471414E+01  0.12103720807E+02  0.54367081393E+02  0.39999993651E+02 0.  0.
         12    1    3    3    0    0 -0.34674633246E+02  0.26362471414E+01 -0.12103720807E+02  0.36820918607E+02  0.00000000000E+00 0. -1.
         11    1    4    4    0    0  0.27183736554E+02 -0.19150408092E+02  0.10475534493E+02  0.34863024629E+02  0.51100000000E-03 0.  1.
        -11    1    4    4    0    0  0.55456478283E+00  0.96410402816E+01  0.43764312462E+00  0.96668884123E+01  0.51100000000E-03 0. -1.
        -12    1    4    4    0    0  0.69363319089E+01  0.68731206691E+01  0.11905431897E+01  0.98371683512E+01  0.00000000000E+00 0.  1.
</event>
<event>
 8    1  0.3146747E-007  0.9118800E+02  0.7816164E-02  0.1184000E+00
        -11   -1    0    0    0    0  0.00000000000E+00  0.00000000000E+00  0.45593999997E+02  0.45594000000E+02  0.51100000000E-03 0. -1.
         11   -1    0    0    0    0 -0.00000000000E+00 -0.00000000000E+00 -0.45593999997E+02  0.45594000000E+02  0.51100000000E-03 0.  1.
         23    2    1    2    0    0 -0.20816681712E-15  0.00000000000E+00  0.00000000000E+00  0.91188000000E+02  0.91188000000E+02 0.  0.
    9900012    2    3    3    0    0 -0.10068463627E+00 -0.31924435125E+02  0.18346683811E+02  0.54367075211E+02  0.39999979559E+02 0.  0.
        -12    1    3    3    0    0  0.10068463627E+00  0.31924435125E+02 -0.18346683811E+02  0.36820924789E+02  0.00000000000E+00 0.  1.
         11    1    4    4    0    0 -0.34209564872E+01 -0.37913466776E+01  0.58129210155E+00  0.51395674610E+01  0.51100000000E-03 0. -1.
        -11    1    4    4    0    0 -0.90812831535E+01 -0.89870287628E+01  0.22551475238E+02  0.25919209582E+02  0.51100000000E-03 0.  1.
        -12    1    4    4    0    0  0.12401555004E+02 -0.19146059684E+02 -0.47860835283E+01  0.23308298168E+02  0.00000000000E+00 0.  1.
</event>
<event>
 8    1  0.3146747E-007  0.9118800E+02  0.7816164E-02  0.1184000E+00
        -11   -1    0    0    0    0  0.00000000000E+00  0.00000000000E+00  0.45593999997E+02  0.45594000000E+02  0.51100000000E-03 0. -1.
         11   -1    0    0    0    0 -0.00000000000E+00 -0.00000000000E+00 -0.45593999997E+02  0.45594000000E+02  0.51100000000E-03 0.  1.
         23    2    1    2    0    0  0.00000000000E+00  0.00000000000E+00  0.00000000000E+00  0.91188000000E+02  0.91188000000E+02 0.  0.
    9900012    2    3    3    0    0 -0.11702350887E+02 -0.18206208158E+02  0.29788719431E+02  0.54367097823E+02  0.40000031108E+02 0.  0.
        -12    1    3    3    0    0  0.11702350887E+02  0.18206208158E+02 -0.29788719431E+02  0.36820902177E+02  0.00000000000E+00 0.  1.
         11    1    4    4    0    0  0.11551797867E+02  0.46667203532E+01  0.93641328590E+01  0.15585547706E+02  0.51100000000E-03 0.  1.
        -11    1    4    4    0    0 -0.13655936131E+02 -0.12755141531E+02  0.89376415261E+01  0.20713755415E+02  0.51100000000E-03 0. -1.
        -12    1    4    4    0    0 -0.95982126227E+01 -0.10117786980E+02  0.11486945046E+02  0.18067794703E+02  0.00000000000E+00 0.  1.
</event>
<event>
 8    1  0.3146747E-007  0.9118800E+02  0.7816164E-02  0.1184000E+00
        -11   -1    0    0    0    0  0.00000000000E+00  0.00000000000E+00  0.45593999997E+02  0.45594000000E+02  0.51100000000E-03 0.  1.
         11   -1    0    0    0    0 -0.00000000000E+00 -0.00000000000E+00 -0.45593999997E+02  0.45594000000E+02  0.51100000000E-03 0. -1.
         23    2    1    2    0    0 -0.35527136788E-14  0.35527136788E-14  0.00000000000E+00  0.91188000000E+02  0.91188000000E+02 0.  0.
    9900012    2    3    3    0    0  0.19021558250E+02 -0.24468371538E+02  0.19881122807E+02  0.54367083009E+02  0.39999997336E+02 0.  0.
        -12    1    3    3    0    0 -0.19021558250E+02  0.24468371538E+02 -0.19881122807E+02  0.36820916991E+02  0.00000000000E+00 0.  1.
         11    1    4    4    0    0  0.23457297516E+01 -0.22264398650E+01 -0.10791560684E+02  0.11265756290E+02  0.51100000000E-03 0. -1.
        -11    1    4    4    0    0  0.17108522658E+02 -0.14326449604E+02  0.21658400453E+02  0.31097186629E+02  0.51100000000E-03 0.  1.
         12    1    4    4    0    0 -0.43269415957E+00 -0.79154820692E+01  0.90142830376E+01  0.12004140090E+02  0.00000000000E+00 0. -1.
</event>
<event>
 8    1  0.3146747E-007  0.9118800E+02  0.7816164E-02  0.1184000E+00
        -11   -1    0    0    0    0  0.00000000000E+00  0.00000000000E+00  0.45593999997E+02  0.45594000000E+02  0.51100000000E-03 0.  1.
         11   -1    0    0    0    0 -0.00000000000E+00 -0.00000000000E+00 -0.45593999997E+02  0.45594000000E+02  0.51100000000E-03 0. -1.
         23    2    1    2    0    0  0.00000000000E+00  0.22204460493E-15  0.00000000000E+00  0.91188000000E+02  0.91188000000E+02 0.  0.
    9900012    2    3    3    0    0  0.35925605907E+02  0.19420101987E+01 -0.78327735708E+01  0.54367178375E+02  0.40000214740E+02 0.  0.
         12    1    3    3    0    0 -0.35925605907E+02 -0.19420101987E+01  0.78327735708E+01  0.36820821625E+02  0.00000000000E+00 0. -1.
         11    1    4    4    0    0  0.10525574717E+02 -0.97561027681E+00 -0.13286595069E+02  0.16978608521E+02  0.51100000000E-03 0. -1.
        -11    1    4    4    0    0  0.80869413866E+01  0.10666037386E+02  0.11324403768E+02  0.17532971667E+02  0.51100000000E-03 0.  1.
         12    1    4    4    0    0  0.17313089803E+02 -0.77484169103E+01 -0.58705822702E+01  0.19855598187E+02  0.00000000000E+00 0. -1.
</event>
<event>
 8    1  0.3146747E-007  0.9118800E+02  0.7816164E-02  0.1184000E+00
        -11   -1    0    0    0    0  0.00000000000E+00  0.00000000000E+00  0.45593999997E+02  0.45594000000E+02  0.51100000000E-03 0.  1.
         11   -1    0    0    0    0 -0.00000000000E+00 -0.00000000000E+00 -0.45593999997E+02  0.45594000000E+02  0.51100000000E-03 0. -1.
         23    2    1    2    0    0  0.00000000000E+00  0.00000000000E+00 -0.71054273576E-14  0.91188000000E+02  0.91188000000E+02 0.  0.
    9900012    2    3    3    0    0  0.24728411208E+02 -0.12279708289E+02 -0.24361742557E+02  0.54367081259E+02  0.39999993346E+02 0.  0.
        -12    1    3    3    0    0 -0.24728411208E+02  0.12279708289E+02  0.24361742557E+02  0.36820918741E+02  0.00000000000E+00 0.  1.
         11    1    4    4    0    0 -0.54602432062E+01 -0.62328261245E+01 -0.42219559688E+01  0.92998542909E+01  0.51100000000E-03 0. -1.
        -11    1    4    4    0    0  0.33844587977E+02 -0.96399115703E+01 -0.17540990145E+02  0.39320101297E+02  0.51100000000E-03 0.  1.
        -12    1    4    4    0    0 -0.36559335633E+01  0.35930294058E+01 -0.25987964428E+01  0.57471256713E+01  0.00000000000E+00 0.  1.
</event>
<event>
 8    1  0.3146747E-007  0.9118800E+02  0.7816164E-02  0.1184000E+00
        -11   -1    0    0    0    0  0.00000000000E+00  0.00000000000E+00  0.45593999997E+02  0.45594000000E+02  0.51100000000E-03 0.  1.
         11   -1    0    0    0    0 -0.00000000000E+00 -0.00000000000E+00 -0.45593999997E+02  0.45594000000E+02  0.51100000000E-03 0. -1.
         23    2    1    2    0    0  0.00000000000E+00  0.00000000000E+00 -0.35527136788E-14  0.91188000000E+02  0.91188000000E+02 0.  0.
    9900012    2    3    3    0    0 -0.58674988603E+01 -0.27108088144E+02  0.24217831526E+02  0.54367090865E+02  0.40000015245E+02 0.  0.
         12    1    3    3    0    0  0.58674988603E+01  0.27108088144E+02 -0.24217831526E+02  0.36820909135E+02  0.00000000000E+00 0. -1.
         11    1    4    4    0    0 -0.54141690894E+01 -0.41476526182E+00 -0.51812600247E+01  0.75053789282E+01  0.51100000000E-03 0. -1.
        -11    1    4    4    0    0 -0.10087734388E+01 -0.26495664422E+01 -0.44874587343E+01  0.53080233925E+01  0.51100000000E-03 0.  1.
        -12    1    4    4    0    0  0.55544366792E+00 -0.24043756440E+02  0.33886550285E+02  0.41553688544E+02  0.00000000000E+00 0.  1.
</event>
<event>
 8    1  0.3146747E-007  0.9118800E+02  0.7816164E-02  0.1184000E+00
        -11   -1    0    0    0    0  0.00000000000E+00  0.00000000000E+00  0.45593999997E+02  0.45594000000E+02  0.51100000000E-03 0.  1.
         11   -1    0    0    0    0 -0.00000000000E+00 -0.00000000000E+00 -0.45593999997E+02  0.45594000000E+02  0.51100000000E-03 0. -1.
         23    2    1    2    0    0 -0.71054273576E-14  0.17763568394E-14 -0.88817841970E-15  0.91188000000E+02  0.91188000000E+02 0.  0.
    9900012    2    3    3    0    0 -0.35203217269E+02  0.86908567628E+01 -0.64018206018E+01  0.54367071109E+02  0.39999970208E+02 0.  0.
        -12    1    3    3    0    0  0.35203217269E+02 -0.86908567628E+01  0.64018206018E+01  0.36820928891E+02  0.00000000000E+00 0.  1.
         11    1    4    4    0    0  0.10009597399E+01  0.64884958822E+01 -0.20500976173E+01  0.68778920983E+01  0.51100000000E-03 0. -1.
        -11    1    4    4    0    0 -0.34242846163E+02 -0.92240417784E+01 -0.52985087336E+01  0.35857072595E+02  0.51100000000E-03 0.  1.
        -12    1    4    4    0    0 -0.19613308460E+01  0.11426402659E+02  0.94678574921E+00  0.11632106416E+02  0.00000000000E+00 0.  1.
</event>
<event>
 8    1  0.3146747E-007  0.9118800E+02  0.7816164E-02  0.1184000E+00
        -11   -1    0    0    0    0  0.00000000000E+00  0.00000000000E+00  0.45593999997E+02  0.45594000000E+02  0.51100000000E-03 0.  1.
         11   -1    0    0    0    0 -0.00000000000E+00 -0.00000000000E+00 -0.45593999997E+02  0.45594000000E+02  0.51100000000E-03 0. -1.
         23    2    1    2    0    0 -0.71054273576E-14  0.00000000000E+00  0.17763568394E-14  0.91188000000E+02  0.91188000000E+02 0.  0.
    9900012    2    3    3    0    0 -0.34915977105E+02 -0.73842570446E+01 -0.90624107695E+01  0.54367082056E+02  0.39999995162E+02 0.  0.
         12    1    3    3    0    0  0.34915977105E+02  0.73842570446E+01  0.90624107695E+01  0.36820917944E+02  0.00000000000E+00 0. -1.
         11    1    4    4    0    0 -0.79674933331E+00 -0.10453130557E+02 -0.69185544630E+01  0.12560618777E+02  0.51100000000E-03 0. -1.
        -11    1    4    4    0    0 -0.25139548194E+02  0.91971492752E+01 -0.98032811395E+01  0.28507696497E+02  0.51100000000E-03 0.  1.
        -12    1    4    4    0    0 -0.89796795776E+01 -0.61282757625E+01  0.76594248329E+01  0.13298766782E+02  0.00000000000E+00 0.  1.
</event>
<event>
 8    1  0.3146747E-007  0.9118800E+02  0.7816164E-02  0.1184000E+00
        -11   -1    0    0    0    0  0.00000000000E+00  0.00000000000E+00  0.45593999997E+02  0.45594000000E+02  0.51100000000E-03 0. -1.
         11   -1    0    0    0    0 -0.00000000000E+00 -0.00000000000E+00 -0.45593999997E+02  0.45594000000E+02  0.51100000000E-03 0.  1.
         23    2    1    2    0    0 -0.17763568394E-14  0.35527136788E-14  0.00000000000E+00  0.91188000000E+02  0.91188000000E+02 0.  0.
    9900012    2    3    3    0    0  0.52330175876E+01 -0.17089071649E+02 -0.32192512799E+02  0.54367099370E+02  0.40000034635E+02 0.  0.
         12    1    3    3    0    0 -0.52330175876E+01  0.17089071649E+02  0.32192512799E+02  0.36820900630E+02  0.00000000000E+00 0. -1.
         11    1    4    4    0    0  0.17250231476E+02 -0.38095525710E+01 -0.66582355746E+01  0.18878963901E+02  0.51100000000E-03 0. -1.
        -11    1    4    4    0    0 -0.47661589695E+01 -0.12656165433E+02 -0.24703521037E+02  0.28163074170E+02  0.51100000000E-03 0.  1.
         12    1    4    4    0    0 -0.72510549186E+01 -0.62335364467E+00 -0.83075618695E+00  0.73250612994E+01  0.00000000000E+00 0. -1.
</event>
<event>
 8    1  0.3146747E-007  0.9118800E+02  0.7816164E-02  0.1184000E+00
        -11   -1    0    0    0    0  0.00000000000E+00  0.00000000000E+00  0.45593999997E+02  0.45594000000E+02  0.51100000000E-03 0.  1.
         11   -1    0    0    0    0 -0.00000000000E+00 -0.00000000000E+00 -0.45593999997E+02  0.45594000000E+02  0.51100000000E-03 0. -1.
         23    2    1    2    0    0  0.00000000000E+00  0.00000000000E+00 -0.35527136788E-14  0.91188000000E+02  0.91188000000E+02 0.  0.
    9900012    2    3    3    0    0 -0.27172511700E+02 -0.18459789563E+02  0.16633409454E+02  0.54367088375E+02  0.40000009569E+02 0.  0.
         12    1    3    3    0    0  0.27172511700E+02  0.18459789563E+02 -0.16633409454E+02  0.36820911625E+02  0.00000000000E+00 0. -1.
         11    1    4    4    0    0 -0.56324169653E+01 -0.35535029847E+01  0.16994684202E+02  0.18252966765E+02  0.51100000000E-03 0. -1.
        -11    1    4    4    0    0 -0.21764171167E+02 -0.19184981045E+02 -0.53883204547E+01  0.29508924783E+02  0.51100000000E-03 0.  1.
         12    1    4    4    0    0  0.22407643227E+00  0.42786944666E+01  0.50270457071E+01  0.66051968273E+01  0.00000000000E+00 0. -1.
</event>
<event>
 8    1  0.3146747E-007  0.9118800E+02  0.7816164E-02  0.1184000E+00
        -11   -1    0    0    0    0  0.00000000000E+00  0.00000000000E+00  0.45593999997E+02  0.45594000000E+02  0.51100000000E-03 0.  1.
         11   -1    0    0    0    0 -0.00000000000E+00 -0.00000000000E+00 -0.45593999997E+02  0.45594000000E+02  0.51100000000E-03 0. -1.
         23    2    1    2    0    0  0.00000000000E+00 -0.17763568394E-14  0.00000000000E+00  0.91188000000E+02  0.91188000000E+02 0.  0.
    9900012    2    3    3    0    0  0.16905998819E+01 -0.13196619191E+02 -0.34333281230E+02  0.54367040126E+02  0.39999899575E+02 0.  0.
        -12    1    3    3    0    0 -0.16905998819E+01  0.13196619191E+02  0.34333281230E+02  0.36820959874E+02  0.00000000000E+00 0.  1.
         11    1    4    4    0    0  0.73455618660E+01 -0.17354011009E+02 -0.10463537851E+02  0.21554688627E+02  0.51100000000E-03 0. -1.
        -11    1    4    4    0    0 -0.52463139084E+00 -0.28994299942E+01 -0.23906756485E+02  0.24087651157E+02  0.51100000000E-03 0.  1.
        -12    1    4    4    0    0 -0.51303305933E+01  0.70568218118E+01  0.37013105379E-01  0.87247003415E+01  0.00000000000E+00 0.  1.
</event>
<event>
 8    1  0.3146747E-007  0.9118800E+02  0.7816164E-02  0.1184000E+00
        -11   -1    0    0    0    0  0.00000000000E+00  0.00000000000E+00  0.45593999997E+02  0.45594000000E+02  0.51100000000E-03 0.  1.
         11   -1    0    0    0    0 -0.00000000000E+00 -0.00000000000E+00 -0.45593999997E+02  0.45594000000E+02  0.51100000000E-03 0. -1.
         23    2    1    2    0    0 -0.35527136788E-14 -0.35527136788E-14  0.00000000000E+00  0.91188000000E+02  0.91188000000E+02 0.  0.
    9900012    2    3    3    0    0 -0.24609559291E+02  0.85631875867E+01  0.26015796965E+02  0.54367078204E+02  0.39999986382E+02 0.  0.
         12    1    3    3    0    0  0.24609559291E+02 -0.85631875867E+01 -0.26015796965E+02  0.36820921796E+02  0.00000000000E+00 0. -1.
         11    1    4    4    0    0  0.44493124404E+01 -0.36321019110E+01  0.28940684851E-01  0.57436385078E+01  0.51100000000E-03 0. -1.
        -11    1    4    4    0    0 -0.17388125215E+02  0.19471003490E+02  0.11131023216E+02  0.28378980840E+02  0.51100000000E-03 0.  1.
        -12    1    4    4    0    0 -0.11670746516E+02 -0.72757139928E+01  0.14855833064E+02  0.20244458856E+02  0.00000000000E+00 0.  1.
</event>
<event>
 8    1  0.3146747E-007  0.9118800E+02  0.7816164E-02  0.1184000E+00
        -11   -1    0    0    0    0  0.00000000000E+00  0.00000000000E+00  0.45593999997E+02  0.45594000000E+02  0.51100000000E-03 0.  1.
         11   -1    0    0    0    0 -0.00000000000E+00 -0.00000000000E+00 -0.45593999997E+02  0.45594000000E+02  0.51100000000E-03 0. -1.
         23    2    1    2    0    0  0.00000000000E+00 -0.26645352591E-14  0.71054273576E-14  0.91188000000E+02  0.91188000000E+02 0.  0.
    9900012    2    3    3    0    0 -0.24384427125E+01 -0.77091706100E+01  0.35922174555E+02  0.54367082859E+02  0.39999996993E+02 0.  0.
         12    1    3    3    0    0  0.24384427125E+01  0.77091706100E+01 -0.35922174555E+02  0.36820917141E+02  0.00000000000E+00 0. -1.
         11    1    4    4    0    0  0.12326115376E+01  0.14624724168E+02  0.68477409712E+01  0.16195476062E+02  0.51100000000E-03 0.  1.
        -11    1    4    4    0    0 -0.10679699336E+01 -0.10249005414E+02  0.58173498474E+01  0.11833183480E+02  0.51100000000E-03 0. -1.
        -12    1    4    4    0    0 -0.26030843166E+01 -0.12084889364E+02  0.23257083737E+02  0.26338423317E+02  0.00000000000E+00 0.  1.
</event>
<event>
 8    1  0.3146747E-007  0.9118800E+02  0.7816164E-02  0.1184000E+00
        -11   -1    0    0    0    0  0.00000000000E+00  0.00000000000E+00  0.45593999997E+02  0.45594000000E+02  0.51100000000E-03 0.  1.
         11   -1    0    0    0    0 -0.00000000000E+00 -0.00000000000E+00 -0.45593999997E+02  0.45594000000E+02  0.51100000000E-03 0. -1.
         23    2    1    2    0    0  0.00000000000E+00 -0.35527136788E-14  0.00000000000E+00  0.91188000000E+02  0.91188000000E+02 0.  0.
    9900012    2    3    3    0    0  0.11701518345E+02 -0.30840226794E+02  0.16362605788E+02  0.54367082189E+02  0.39999995465E+02 0.  0.
         12    1    3    3    0    0 -0.11701518345E+02  0.30840226794E+02 -0.16362605788E+02  0.36820917811E+02  0.00000000000E+00 0. -1.
         11    1    4    4    0    0 -0.72497658075E+01 -0.70228092743E+01  0.14736619684E+02  0.17861884400E+02  0.51100000000E-03 0. -1.
        -11    1    4    4    0    0  0.57126563883E+01  0.30336488229E+01  0.11147632258E+01  0.65635482402E+01  0.51100000000E-03 0.  1.
        -12    1    4    4    0    0  0.13238627764E+02 -0.26851066343E+02  0.51122287873E+00  0.29941649548E+02  0.00000000000E+00 0.  1.
</event>
<event>
 8    1  0.3146747E-007  0.9118800E+02  0.7816164E-02  0.1184000E+00
        -11   -1    0    0    0    0  0.00000000000E+00  0.00000000000E+00  0.45593999997E+02  0.45594000000E+02  0.51100000000E-03 0.  1.
         11   -1    0    0    0    0 -0.00000000000E+00 -0.00000000000E+00 -0.45593999997E+02  0.45594000000E+02  0.51100000000E-03 0. -1.
         23    2    1    2    0    0  0.17763568394E-14  0.17763568394E-14  0.00000000000E+00  0.91188000000E+02  0.91188000000E+02 0.  0.
    9900012    2    3    3    0    0 -0.40204027300E+01  0.10517163970E+02 -0.35057139045E+02  0.54367117690E+02  0.40000076398E+02 0.  0.
        -12    1    3    3    0    0  0.40204027300E+01 -0.10517163970E+02  0.35057139045E+02  0.36820882310E+02  0.00000000000E+00 0.  1.
         11    1    4    4    0    0 -0.15358754962E+02  0.43449009262E+01  0.96100180642E+00  0.15990404710E+02  0.51100000000E-03 0. -1.
        -11    1    4    4    0    0  0.65168213986E+01  0.45903354949E+01 -0.18640501597E+02  0.20273343117E+02  0.51100000000E-03 0.  1.
         12    1    4    4    0    0  0.48215308337E+01  0.15819275489E+01 -0.17377639254E+02  0.18103369863E+02  0.00000000000E+00 0. -1.
</event>
<event>
 8    1  0.3146747E-007  0.9118800E+02  0.7816164E-02  0.1184000E+00
        -11   -1    0    0    0    0  0.00000000000E+00  0.00000000000E+00  0.45593999997E+02  0.45594000000E+02  0.51100000000E-03 0. -1.
         11   -1    0    0    0    0 -0.00000000000E+00 -0.00000000000E+00 -0.45593999997E+02  0.45594000000E+02  0.51100000000E-03 0.  1.
         23    2    1    2    0    0  0.00000000000E+00  0.00000000000E+00 -0.35527136788E-14  0.91188000000E+02  0.91188000000E+02 0.  0.
    9900012    2    3    3    0    0  0.62840457563E+01 -0.18454754839E+02  0.31236356099E+02  0.54367120739E+02  0.40000083349E+02 0.  0.
        -12    1    3    3    0    0 -0.62840457563E+01  0.18454754839E+02 -0.31236356099E+02  0.36820879261E+02  0.00000000000E+00 0.  1.
         11    1    4    4    0    0  0.93819820874E+01 -0.14574269588E+02  0.11452877823E+02  0.20774968895E+02  0.51100000000E-03 0. -1.
        -11    1    4    4    0    0 -0.44232243434E+01 -0.25217363896E+01 -0.59258841287E+01  0.78128209361E+01  0.51100000000E-03 0.  1.
        -12    1    4    4    0    0  0.13252880123E+01 -0.13587488610E+01  0.25709362405E+02  0.25779330908E+02  0.00000000000E+00 0.  1.
</event>
<event>
 8    1  0.3146747E-007  0.9118800E+02  0.7816164E-02  0.1184000E+00
        -11   -1    0    0    0    0  0.00000000000E+00  0.00000000000E+00  0.45593999997E+02  0.45594000000E+02  0.51100000000E-03 0. -1.
         11   -1    0    0    0    0 -0.00000000000E+00 -0.00000000000E+00 -0.45593999997E+02  0.45594000000E+02  0.51100000000E-03 0.  1.
         23    2    1    2    0    0  0.00000000000E+00  0.00000000000E+00  0.35527136788E-14  0.91188000000E+02  0.91188000000E+02 0.  0.
    9900012    2    3    3    0    0 -0.22800422541E+02 -0.14834697865E+02  0.24816376838E+02  0.54367080835E+02  0.39999992379E+02 0.  0.
         12    1    3    3    0    0  0.22800422541E+02  0.14834697865E+02 -0.24816376838E+02  0.36820919165E+02  0.00000000000E+00 0. -1.
         11    1    4    4    0    0 -0.17084224664E+02  0.46882791177E+01  0.26508331203E+01  0.17913056968E+02  0.51100000000E-03 0. -1.
        -11    1    4    4    0    0 -0.26911489586E+01 -0.13923476732E+02  0.84776478512E+00  0.14206484168E+02  0.51100000000E-03 0.  1.
        -12    1    4    4    0    0 -0.30250489186E+01 -0.55995002509E+01  0.21317778933E+02  0.22247539699E+02  0.00000000000E+00 0.  1.
</event>
<event>
 8    1  0.3146747E-007  0.9118800E+02  0.7816164E-02  0.1184000E+00
        -11   -1    0    0    0    0  0.00000000000E+00  0.00000000000E+00  0.45593999997E+02  0.45594000000E+02  0.51100000000E-03 0.  1.
         11   -1    0    0    0    0 -0.00000000000E+00 -0.00000000000E+00 -0.45593999997E+02  0.45594000000E+02  0.51100000000E-03 0. -1.
         23    2    1    2    0    0  0.00000000000E+00  0.00000000000E+00  0.00000000000E+00  0.91188000000E+02  0.91188000000E+02 0.  0.
    9900012    2    3    3    0    0 -0.17314046046E+02 -0.30094679019E+02  0.12260248644E+02  0.54367087565E+02  0.40000007721E+02 0.  0.
         12    1    3    3    0    0  0.17314046046E+02  0.30094679019E+02 -0.12260248644E+02  0.36820912435E+02  0.00000000000E+00 0. -1.
         11    1    4    4    0    0 -0.25411512263E+02 -0.25362574325E+02  0.14011617006E+02  0.38539986290E+02  0.51100000000E-03 0.  1.
        -11    1    4    4    0    0  0.83796310718E+01  0.17365364999E+01 -0.32962552395E+01  0.91705547695E+01  0.51100000000E-03 0. -1.
         12    1    4    4    0    0 -0.28216485491E+00 -0.64686411942E+01  0.15448868781E+01  0.66565465048E+01  0.00000000000E+00 0. -1.
</event>
<event>
 8    1  0.3146747E-007  0.9118800E+02  0.7816164E-02  0.1184000E+00
        -11   -1    0    0    0    0  0.00000000000E+00  0.00000000000E+00  0.45593999997E+02  0.45594000000E+02  0.51100000000E-03 0.  1.
         11   -1    0    0    0    0 -0.00000000000E+00 -0.00000000000E+00 -0.45593999997E+02  0.45594000000E+02  0.51100000000E-03 0. -1.
         23    2    1    2    0    0  0.71054273576E-14  0.00000000000E+00  0.11102230246E-14  0.91188000000E+02  0.91188000000E+02 0.  0.
    9900012    2    3    3    0    0 -0.33749023651E+02  0.14663747038E+02 -0.13261159645E+01  0.54367073095E+02  0.39999974734E+02 0.  0.
        -12    1    3    3    0    0  0.33749023651E+02 -0.14663747038E+02  0.13261159645E+01  0.36820926905E+02  0.00000000000E+00 0.  1.
         11    1    4    4    0    0  0.31123916493E+01 -0.12464639849E+01 -0.53234112636E+01  0.62912130775E+01  0.51100000000E-03 0. -1.
        -11    1    4    4    0    0  0.31439776071E+01  0.38544722172E+00 -0.32701531494E+01  0.45526988300E+01  0.51100000000E-03 0.  1.
        -12    1    4    4    0    0 -0.40005392908E+02  0.15524763801E+02  0.72674484485E+01  0.43523161187E+02  0.00000000000E+00 0.  1.
</event>
<event>
 8    1  0.3146747E-007  0.9118800E+02  0.7816164E-02  0.1184000E+00
        -11   -1    0    0    0    0  0.00000000000E+00  0.00000000000E+00  0.45593999997E+02  0.45594000000E+02  0.51100000000E-03 0.  1.
         11   -1    0    0    0    0 -0.00000000000E+00 -0.00000000000E+00 -0.45593999997E+02  0.45594000000E+02  0.51100000000E-03 0. -1.
         23    2    1    2    0    0 -0.88817841970E-15  0.00000000000E+00  0.00000000000E+00  0.91188000000E+02  0.91188000000E+02 0.  0.
    9900012    2    3    3    0    0  0.58329467735E+01  0.18198457141E+02  0.31473367036E+02  0.54367082807E+02  0.39999996875E+02 0.  0.
         12    1    3    3    0    0 -0.58329467735E+01 -0.18198457141E+02 -0.31473367036E+02  0.36820917193E+02  0.00000000000E+00 0. -1.
         11    1    4    4    0    0  0.48932528304E+01  0.99123626972E+00 -0.35976986256E+01  0.61538531235E+01  0.51100000000E-03 0. -1.
        -11    1    4    4    0    0  0.28747597718E+01  0.14278602134E+02  0.17067541981E+01  0.14664778648E+02  0.51100000000E-03 0.  1.
        -12    1    4    4    0    0 -0.19350658288E+01  0.29286187381E+01  0.33364311463E+02  0.33548451035E+02  0.00000000000E+00 0.  1.
</event>
<event>
 8    1  0.3146747E-007  0.9118800E+02  0.7816164E-02  0.1184000E+00
        -11   -1    0    0    0    0  0.00000000000E+00  0.00000000000E+00  0.45593999997E+02  0.45594000000E+02  0.51100000000E-03 0.  1.
         11   -1    0    0    0    0 -0.00000000000E+00 -0.00000000000E+00 -0.45593999997E+02  0.45594000000E+02  0.51100000000E-03 0. -1.
         23    2    1    2    0    0 -0.44408920985E-15  0.00000000000E+00  0.00000000000E+00  0.91188000000E+02  0.91188000000E+02 0.  0.
    9900012    2    3    3    0    0 -0.17666529380E+01  0.36776928838E+02 -0.34052235270E+00  0.54367088647E+02  0.40000010189E+02 0.  0.
         12    1    3    3    0    0  0.17666529380E+01 -0.36776928838E+02  0.34052235270E+00  0.36820911353E+02  0.00000000000E+00 0. -1.
         11    1    4    4    0    0 -0.10036067039E+01  0.28877208095E+02 -0.10088676980E+01  0.28912249793E+02  0.51100000000E-03 0. -1.
        -11    1    4    4    0    0 -0.93267302588E+01  0.12537437943E+02  0.13990895002E+01  0.15688616866E+02  0.51100000000E-03 0.  1.
         12    1    4    4    0    0  0.85636840246E+01 -0.46377171999E+01 -0.73074415490E+00  0.97662219880E+01  0.00000000000E+00 0. -1.
</event>
<event>
 8    1  0.3146747E-007  0.9118800E+02  0.7816164E-02  0.1184000E+00
        -11   -1    0    0    0    0  0.00000000000E+00  0.00000000000E+00  0.45593999997E+02  0.45594000000E+02  0.51100000000E-03 0. -1.
         11   -1    0    0    0    0 -0.00000000000E+00 -0.00000000000E+00 -0.45593999997E+02  0.45594000000E+02  0.51100000000E-03 0.  1.
         23    2    1    2    0    0  0.00000000000E+00  0.00000000000E+00 -0.44408920985E-15  0.91188000000E+02  0.91188000000E+02 0.  0.
    9900012    2    3    3    0    0  0.26611877733E+02 -0.25270007959E+02  0.30022887154E+01  0.54367094576E+02  0.40000023704E+02 0.  0.
        -12    1    3    3    0    0 -0.26611877733E+02  0.25270007959E+02 -0.30022887154E+01  0.36820905424E+02  0.00000000000E+00 0.  1.
         11    1    4    4    0    0  0.20587275447E+02  0.42301375162E+01 -0.34043073615E+01  0.21291295935E+02  0.51100000000E-03 0. -1.
        -11    1    4    4    0    0  0.83944494760E+01 -0.25978878561E+02  0.26891644632E+01  0.27433565555E+02  0.51100000000E-03 0.  1.
        -12    1    4    4    0    0 -0.23698471900E+01 -0.35212669140E+01  0.37174316137E+01  0.56422330851E+01  0.00000000000E+00 0.  1.
</event>
<event>
 8    1  0.3146747E-007  0.9118800E+02  0.7816164E-02  0.1184000E+00
        -11   -1    0    0    0    0  0.00000000000E+00  0.00000000000E+00  0.45593999997E+02  0.45594000000E+02  0.51100000000E-03 0.  1.
         11   -1    0    0    0    0 -0.00000000000E+00 -0.00000000000E+00 -0.45593999997E+02  0.45594000000E+02  0.51100000000E-03 0. -1.
         23    2    1    2    0    0 -0.35527136788E-14  0.00000000000E+00  0.00000000000E+00  0.91188000000E+02  0.91188000000E+02 0.  0.
    9900012    2    3    3    0    0 -0.26240284883E+02  0.17288500830E+02 -0.19192081514E+02  0.54367071107E+02  0.39999970203E+02 0.  0.
        -12    1    3    3    0    0  0.26240284883E+02 -0.17288500830E+02  0.19192081514E+02  0.36820928893E+02  0.00000000000E+00 0.  1.
         11    1    4    4    0    0 -0.58434798579E+01 -0.15402071049E+01 -0.17255976632E+02  0.18283523308E+02  0.51100000000E-03 0. -1.
        -11    1    4    4    0    0 -0.22305440309E+02  0.17902456308E+02 -0.79672123856E+01  0.29690184956E+02  0.51100000000E-03 0.  1.
         12    1    4    4    0    0  0.19086352839E+01  0.92625162644E+00  0.60311075039E+01  0.63933628433E+01  0.00000000000E+00 0. -1.
</event>
<event>
 8    1  0.3146747E-007  0.9118800E+02  0.7816164E-02  0.1184000E+00
        -11   -1    0    0    0    0  0.00000000000E+00  0.00000000000E+00  0.45593999997E+02  0.45594000000E+02  0.51100000000E-03 0. -1.
         11   -1    0    0    0    0 -0.00000000000E+00 -0.00000000000E+00 -0.45593999997E+02  0.45594000000E+02  0.51100000000E-03 0.  1.
         23    2    1    2    0    0  0.00000000000E+00  0.00000000000E+00 -0.35527136788E-14  0.91188000000E+02  0.91188000000E+02 0.  0.
    9900012    2    3    3    0    0 -0.24481696516E+02 -0.18743255373E+02  0.20127515269E+02  0.54367082614E+02  0.39999996435E+02 0.  0.
        -12    1    3    3    0    0  0.24481696516E+02  0.18743255373E+02 -0.20127515269E+02  0.36820917386E+02  0.00000000000E+00 0.  1.
         11    1    4    4    0    0 -0.30443241672E+02 -0.10370452585E+02  0.19394838794E+02  0.37556584275E+02  0.51100000000E-03 0. -1.
        -11    1    4    4    0    0  0.44822277889E+01 -0.40186736670E+01  0.68745810790E+01  0.91378317596E+01  0.51100000000E-03 0.  1.
        -12    1    4    4    0    0  0.14793173669E+01 -0.43541291206E+01 -0.61419046041E+01  0.76726665793E+01  0.00000000000E+00 0.  1.
</event>
<event>
 8    1  0.3146747E-007  0.9118800E+02  0.7816164E-02  0.1184000E+00
        -11   -1    0    0    0    0  0.00000000000E+00  0.00000000000E+00  0.45593999997E+02  0.45594000000E+02  0.51100000000E-03 0.  1.
         11   -1    0    0    0    0 -0.00000000000E+00 -0.00000000000E+00 -0.45593999997E+02  0.45594000000E+02  0.51100000000E-03 0. -1.
         23    2    1    2    0    0  0.00000000000E+00  0.00000000000E+00 -0.35527136788E-14  0.91188000000E+02  0.91188000000E+02 0.  0.
    9900012    2    3    3    0    0  0.18548600391E+02  0.20954855658E+02  0.23929542715E+02  0.54367087916E+02  0.40000008523E+02 0.  0.
         12    1    3    3    0    0 -0.18548600391E+02 -0.20954855658E+02 -0.23929542715E+02  0.36820912084E+02  0.00000000000E+00 0. -1.
         11    1    4    4    0    0 -0.30920818425E+01  0.20692245231E+01  0.57296078216E+01  0.68316225231E+01  0.51100000000E-03 0. -1.
        -11    1    4    4    0    0  0.28600909805E+02  0.10364844506E+02  0.58194352223E+01  0.30972695554E+02  0.51100000000E-03 0.  1.
         12    1    4    4    0    0 -0.69602275715E+01  0.85207866293E+01  0.12380499671E+02  0.16562769839E+02  0.00000000000E+00 0. -1.
</event>
<event>
 8    1  0.3146747E-007  0.9118800E+02  0.7816164E-02  0.1184000E+00
        -11   -1    0    0    0    0  0.00000000000E+00  0.00000000000E+00  0.45593999997E+02  0.45594000000E+02  0.51100000000E-03 0.  1.
         11   -1    0    0    0    0 -0.00000000000E+00 -0.00000000000E+00 -0.45593999997E+02  0.45594000000E+02  0.51100000000E-03 0. -1.
         23    2    1    2    0    0  0.44408920985E-15  0.00000000000E+00  0.00000000000E+00  0.91188000000E+02  0.91188000000E+02 0.  0.
    9900012    2    3    3    0    0 -0.39754300089E+01  0.30138808535E+02  0.20775778465E+02  0.54367016926E+02  0.39999846687E+02 0.  0.
         12    1    3    3    0    0  0.39754300089E+01 -0.30138808535E+02 -0.20775778465E+02  0.36820983074E+02  0.00000000000E+00 0. -1.
         11    1    4    4    0    0  0.32617129056E+01 -0.26180033410E+01  0.57088159995E+01  0.70769550620E+01  0.51100000000E-03 0. -1.
        -11    1    4    4    0    0  0.60916283338E+01  0.44749102721E+01 -0.59481332103E+01  0.96183702699E+01  0.51100000000E-03 0.  1.
        -12    1    4    4    0    0 -0.13328771248E+02  0.28281901604E+02  0.21015095676E+02  0.37671691595E+02  0.00000000000E+00 0.  1.
</event>
<event>
 8    1  0.3146747E-007  0.9118800E+02  0.7816164E-02  0.1184000E+00
        -11   -1    0    0    0    0  0.00000000000E+00  0.00000000000E+00  0.45593999997E+02  0.45594000000E+02  0.51100000000E-03 0.  1.
         11   -1    0    0    0    0 -0.00000000000E+00 -0.00000000000E+00 -0.45593999997E+02  0.45594000000E+02  0.51100000000E-03 0. -1.
         23    2    1    2    0    0  0.00000000000E+00  0.00000000000E+00  0.00000000000E+00  0.91188000000E+02  0.91188000000E+02 0.  0.
    9900012    2    3    3    0    0 -0.18743747759E+02 -0.26100305614E+02  0.17978441353E+02  0.54367103940E+02  0.40000045053E+02 0.  0.
        -12    1    3    3    0    0  0.18743747759E+02  0.26100305614E+02 -0.17978441353E+02  0.36820896060E+02  0.00000000000E+00 0.  1.
         11    1    4    4    0    0  0.15740303081E+01  0.36307333843E+01  0.12145439538E+02  0.12773859955E+02  0.51100000000E-03 0. -1.
        -11    1    4    4    0    0 -0.22403575768E+02 -0.26711195854E+02  0.97750453690E+01  0.36207177512E+02  0.51100000000E-03 0.  1.
         12    1    4    4    0    0  0.20857977016E+01 -0.30198431441E+01 -0.39420435548E+01  0.53860664733E+01  0.00000000000E+00 0. -1.
</event>
<event>
 8    1  0.3146747E-007  0.9118800E+02  0.7816164E-02  0.1184000E+00
        -11   -1    0    0    0    0  0.00000000000E+00  0.00000000000E+00  0.45593999997E+02  0.45594000000E+02  0.51100000000E-03 0. -1.
         11   -1    0    0    0    0 -0.00000000000E+00 -0.00000000000E+00 -0.45593999997E+02  0.45594000000E+02  0.51100000000E-03 0.  1.
         23    2    1    2    0    0  0.17763568394E-14  0.00000000000E+00  0.00000000000E+00  0.91188000000E+02  0.91188000000E+02 0.  0.
    9900012    2    3    3    0    0  0.13487114415E+02 -0.32802151887E+02 -0.98941767218E+01  0.54367107063E+02  0.40000052171E+02 0.  0.
         12    1    3    3    0    0 -0.13487114415E+02  0.32802151887E+02  0.98941767218E+01  0.36820892937E+02  0.00000000000E+00 0. -1.
         11    1    4    4    0    0  0.79380968597E+01 -0.17093830012E+02  0.50574675464E+01  0.19513851093E+02  0.51100000000E-03 0. -1.
        -11    1    4    4    0    0  0.14861176814E+02 -0.27608717300E+01 -0.10114648457E+02  0.18187443544E+02  0.51100000000E-03 0.  1.
         12    1    4    4    0    0 -0.93121592583E+01 -0.12947450146E+02 -0.48369958109E+01  0.16665812425E+02  0.00000000000E+00 0. -1.
</event>
<event>
 8    1  0.3146747E-007  0.9118800E+02  0.7816164E-02  0.1184000E+00
        -11   -1    0    0    0    0  0.00000000000E+00  0.00000000000E+00  0.45593999997E+02  0.45594000000E+02  0.51100000000E-03 0. -1.
         11   -1    0    0    0    0 -0.00000000000E+00 -0.00000000000E+00 -0.45593999997E+02  0.45594000000E+02  0.51100000000E-03 0.  1.
         23    2    1    2    0    0 -0.35527136788E-14 -0.17763568394E-14 -0.35527136788E-14  0.91188000000E+02  0.91188000000E+02 0.  0.
    9900012    2    3    3    0    0 -0.13058236209E+02 -0.14040988290E+02 -0.31434284398E+02  0.54367066815E+02  0.39999960417E+02 0.  0.
         12    1    3    3    0    0  0.13058236209E+02  0.14040988290E+02  0.31434284398E+02  0.36820933185E+02  0.00000000000E+00 0. -1.
         11    1    4    4    0    0 -0.22621186275E+02 -0.18768330064E+02 -0.11179392655E+02  0.31447529351E+02  0.51100000000E-03 0.  1.
        -11    1    4    4    0    0  0.58041699141E+01  0.28512623709E+01 -0.13420710213E+02  0.14897434288E+02  0.51100000000E-03 0. -1.
        -12    1    4    4    0    0  0.37587801523E+01  0.18760794039E+01 -0.68341815303E+01  0.80221031751E+01  0.00000000000E+00 0.  1.
</event>
<event>
 8    1  0.3146747E-007  0.9118800E+02  0.7816164E-02  0.1184000E+00
        -11   -1    0    0    0    0  0.00000000000E+00  0.00000000000E+00  0.45593999997E+02  0.45594000000E+02  0.51100000000E-03 0.  1.
         11   -1    0    0    0    0 -0.00000000000E+00 -0.00000000000E+00 -0.45593999997E+02  0.45594000000E+02  0.51100000000E-03 0. -1.
         23    2    1    2    0    0  0.00000000000E+00  0.17763568394E-14  0.00000000000E+00  0.91188000000E+02  0.91188000000E+02 0.  0.
    9900012    2    3    3    0    0 -0.28906812578E+02 -0.44751833604E+01 -0.22364021418E+02  0.54367074787E+02  0.39999978593E+02 0.  0.
        -12    1    3    3    0    0  0.28906812578E+02  0.44751833604E+01  0.22364021418E+02  0.36820925213E+02  0.00000000000E+00 0.  1.
         11    1    4    4    0    0  0.14447559025E+01 -0.22948578716E+01  0.53998664718E+01  0.60425367557E+01  0.51100000000E-03 0.  1.
        -11    1    4    4    0    0 -0.21580693935E+02 -0.90322334533E+01 -0.64304580835E+01  0.24262283143E+02  0.51100000000E-03 0. -1.
        -12    1    4    4    0    0 -0.87708745459E+01  0.68519079645E+01 -0.21333429806E+02  0.24062254889E+02  0.00000000000E+00 0.  1.
</event>
<event>
 8    1  0.3146747E-007  0.9118800E+02  0.7816164E-02  0.1184000E+00
        -11   -1    0    0    0    0  0.00000000000E+00  0.00000000000E+00  0.45593999997E+02  0.45594000000E+02  0.51100000000E-03 0. -1.
         11   -1    0    0    0    0 -0.00000000000E+00 -0.00000000000E+00 -0.45593999997E+02  0.45594000000E+02  0.51100000000E-03 0.  1.
         23    2    1    2    0    0  0.17763568394E-14  0.00000000000E+00 -0.44408920985E-15  0.91188000000E+02  0.91188000000E+02 0.  0.
    9900012    2    3    3    0    0  0.13879678118E+02 -0.33899997894E+02  0.37321246518E+01  0.54367026679E+02  0.39999868921E+02 0.  0.
         12    1    3    3    0    0 -0.13879678118E+02  0.33899997894E+02 -0.37321246518E+01  0.36820973321E+02  0.00000000000E+00 0. -1.
         11    1    4    4    0    0  0.11636909097E+02 -0.10917629805E+01  0.99335260319E+01  0.15338987562E+02  0.51100000000E-03 0. -1.
        -11    1    4    4    0    0 -0.89372720876E+01 -0.13785794149E+02 -0.35078131629E+01  0.16799634107E+02  0.51100000000E-03 0.  1.
        -12    1    4    4    0    0  0.11180041108E+02 -0.19022440764E+02 -0.26935882173E+01  0.22228405010E+02  0.00000000000E+00 0.  1.
</event>
<event>
 8    1  0.3146747E-007  0.9118800E+02  0.7816164E-02  0.1184000E+00
        -11   -1    0    0    0    0  0.00000000000E+00  0.00000000000E+00  0.45593999997E+02  0.45594000000E+02  0.51100000000E-03 0.  1.
         11   -1    0    0    0    0 -0.00000000000E+00 -0.00000000000E+00 -0.45593999997E+02  0.45594000000E+02  0.51100000000E-03 0. -1.
         23    2    1    2    0    0  0.00000000000E+00  0.00000000000E+00  0.00000000000E+00  0.91188000000E+02  0.91188000000E+02 0.  0.
    9900012    2    3    3    0    0 -0.33476673259E+02  0.30589582584E+01 -0.15024505864E+02  0.54367073144E+02  0.39999974845E+02 0.  0.
        -12    1    3    3    0    0  0.33476673259E+02 -0.30589582584E+01  0.15024505864E+02  0.36820926856E+02  0.00000000000E+00 0.  1.
         11    1    4    4    0    0 -0.22158195270E+02 -0.82939124776E+01  0.19257586142E+01  0.23737799988E+02  0.51100000000E-03 0. -1.
        -11    1    4    4    0    0 -0.14261457200E+02  0.97762807442E+01 -0.46798115774E+01  0.17912717921E+02  0.51100000000E-03 0.  1.
        -12    1    4    4    0    0  0.29429792107E+01  0.15765899918E+01 -0.12270452900E+02  0.12716555234E+02  0.00000000000E+00 0.  1.
</event>
<event>
 8    1  0.3146747E-007  0.9118800E+02  0.7816164E-02  0.1184000E+00
        -11   -1    0    0    0    0  0.00000000000E+00  0.00000000000E+00  0.45593999997E+02  0.45594000000E+02  0.51100000000E-03 0. -1.
         11   -1    0    0    0    0 -0.00000000000E+00 -0.00000000000E+00 -0.45593999997E+02  0.45594000000E+02  0.51100000000E-03 0.  1.
         23    2    1    2    0    0 -0.44408920985E-15 -0.35527136788E-14  0.35527136788E-14  0.91188000000E+02  0.91188000000E+02 0.  0.
    9900012    2    3    3    0    0  0.32219087805E+01  0.19718147389E+02 -0.30928943976E+02  0.54367005878E+02  0.39999821500E+02 0.  0.
         12    1    3    3    0    0 -0.32219087805E+01 -0.19718147389E+02  0.30928943976E+02  0.36820994122E+02  0.00000000000E+00 0. -1.
         11    1    4    4    0    0 -0.28612797176E+01  0.52452584663E+01 -0.20416412564E+02  0.21272742189E+02  0.51100000000E-03 0. -1.
        -11    1    4    4    0    0  0.16606782876E+01  0.56339535045E+01  0.92734452076E+01  0.10977070226E+02  0.51100000000E-03 0.  1.
        -12    1    4    4    0    0  0.44225102105E+01  0.88389354180E+01 -0.19785976620E+02  0.22117193463E+02  0.00000000000E+00 0.  1.
</event>
<event>
 8    1  0.3146747E-007  0.9118800E+02  0.7816164E-02  0.1184000E+00
        -11   -1    0    0    0    0  0.00000000000E+00  0.00000000000E+00  0.45593999997E+02  0.45594000000E+02  0.51100000000E-03 0. -1.
         11   -1    0    0    0    0 -0.00000000000E+00 -0.00000000000E+00 -0.45593999997E+02  0.45594000000E+02  0.51100000000E-03 0.  1.
         23    2    1    2    0    0  0.00000000000E+00 -0.88817841970E-15  0.00000000000E+00  0.91188000000E+02  0.91188000000E+02 0.  0.
    9900012    2    3    3    0    0 -0.25391629512E+02 -0.48188829080E+01  0.26226384605E+02  0.54367085682E+02  0.40000003429E+02 0.  0.
        -12    1    3    3    0    0  0.25391629512E+02  0.48188829080E+01 -0.26226384605E+02  0.36820914318E+02  0.00000000000E+00 0.  1.
         11    1    4    4    0    0 -0.16630505288E+01 -0.17880395301E+01 -0.55765597747E+01  0.60877616251E+01  0.51100000000E-03 0.  1.
        -11    1    4    4    0    0  0.10038986387E+01 -0.42403164844E+01 -0.31977777167E+01  0.54049864895E+01  0.51100000000E-03 0. -1.
         12    1    4    4    0    0 -0.24732477622E+02  0.12094731066E+01  0.35000722097E+02  0.42874337567E+02  0.00000000000E+00 0. -1.
</event>
<event>
 8    1  0.3146747E-007  0.9118800E+02  0.7816164E-02  0.1184000E+00
        -11   -1    0    0    0    0  0.00000000000E+00  0.00000000000E+00  0.45593999997E+02  0.45594000000E+02  0.51100000000E-03 0. -1.
         11   -1    0    0    0    0 -0.00000000000E+00 -0.00000000000E+00 -0.45593999997E+02  0.45594000000E+02  0.51100000000E-03 0.  1.
         23    2    1    2    0    0  0.00000000000E+00 -0.35527136788E-14  0.00000000000E+00  0.91188000000E+02  0.91188000000E+02 0.  0.
    9900012    2    3    3    0    0  0.85716300182E+01 -0.20642433207E+02 -0.29260839995E+02  0.54367086824E+02  0.40000006033E+02 0.  0.
         12    1    3    3    0    0 -0.85716300182E+01  0.20642433207E+02  0.29260839995E+02  0.36820913176E+02  0.00000000000E+00 0. -1.
         11    1    4    4    0    0  0.32429712441E+01  0.66859921268E+01 -0.13358869185E+02  0.15286554202E+02  0.51100000000E-03 0. -1.
        -11    1    4    4    0    0  0.13388777574E+02 -0.16790267702E+02 -0.14103394350E+02  0.25691986823E+02  0.51100000000E-03 0.  1.
        -12    1    4    4    0    0 -0.80601188003E+01 -0.10538157632E+02 -0.17985764602E+01  0.13388545800E+02  0.00000000000E+00 0.  1.
</event>
<event>
 8    1  0.3146747E-007  0.9118800E+02  0.7816164E-02  0.1184000E+00
        -11   -1    0    0    0    0  0.00000000000E+00  0.00000000000E+00  0.45593999997E+02  0.45594000000E+02  0.51100000000E-03 0.  1.
         11   -1    0    0    0    0 -0.00000000000E+00 -0.00000000000E+00 -0.45593999997E+02  0.45594000000E+02  0.51100000000E-03 0. -1.
         23    2    1    2    0    0 -0.88817841970E-15 -0.13322676296E-14  0.00000000000E+00  0.91188000000E+02  0.91188000000E+02 0.  0.
    9900012    2    3    3    0    0 -0.59423090919E+01 -0.17463430701E+01 -0.36296265430E+02  0.54367086980E+02  0.40000006388E+02 0.  0.
        -12    1    3    3    0    0  0.59423090919E+01  0.17463430701E+01  0.36296265430E+02  0.36820913020E+02  0.00000000000E+00 0.  1.
         11    1    4    4    0    0  0.99098074193E+01  0.47614958718E+01 -0.73303984794E-01  0.10994612306E+02  0.51100000000E-03 0. -1.
        -11    1    4    4    0    0 -0.11384643660E+02 -0.82648878919E+01 -0.35903388292E+02  0.38561272985E+02  0.51100000000E-03 0.  1.
        -12    1    4    4    0    0 -0.44674728514E+01  0.17570489501E+01 -0.31957315329E+00  0.48112016889E+01  0.00000000000E+00 0.  1.
</event>
<event>
 8    1  0.3146747E-007  0.9118800E+02  0.7816164E-02  0.1184000E+00
        -11   -1    0    0    0    0  0.00000000000E+00  0.00000000000E+00  0.45593999997E+02  0.45594000000E+02  0.51100000000E-03 0.  1.
         11   -1    0    0    0    0 -0.00000000000E+00 -0.00000000000E+00 -0.45593999997E+02  0.45594000000E+02  0.51100000000E-03 0. -1.
         23    2    1    2    0    0  0.00000000000E+00  0.00000000000E+00  0.88817841970E-15  0.91188000000E+02  0.91188000000E+02 0.  0.
    9900012    2    3    3    0    0 -0.18630117119E+02  0.30740913609E+02 -0.79810141235E+01  0.54367060036E+02  0.39999944964E+02 0.  0.
         12    1    3    3    0    0  0.18630117119E+02 -0.30740913609E+02  0.79810141235E+01  0.36820939964E+02  0.00000000000E+00 0. -1.
         11    1    4    4    0    0 -0.63713678190E+00  0.28011114727E+02 -0.90585256362E+01  0.29446313496E+02  0.51100000000E-03 0. -1.
        -11    1    4    4    0    0 -0.12339795746E+02  0.19579577075E+01 -0.75344994669E+01  0.14590162436E+02  0.51100000000E-03 0.  1.
        -12    1    4    4    0    0 -0.56531845916E+01  0.77184117449E+00  0.86120109797E+01  0.10330584104E+02  0.00000000000E+00 0.  1.
</event>
<event>
 8    1  0.3146747E-007  0.9118800E+02  0.7816164E-02  0.1184000E+00
        -11   -1    0    0    0    0  0.00000000000E+00  0.00000000000E+00  0.45593999997E+02  0.45594000000E+02  0.51100000000E-03 0. -1.
         11   -1    0    0    0    0 -0.00000000000E+00 -0.00000000000E+00 -0.45593999997E+02  0.45594000000E+02  0.51100000000E-03 0.  1.
         23    2    1    2    0    0  0.00000000000E+00  0.22204460493E-15  0.00000000000E+00  0.91188000000E+02  0.91188000000E+02 0.  0.
    9900012    2    3    3    0    0  0.29524445955E+01 -0.12979336734E+01  0.36679411816E+02  0.54367071004E+02  0.39999969969E+02 0.  0.
        -12    1    3    3    0    0 -0.29524445955E+01  0.12979336734E+01 -0.36679411816E+02  0.36820928996E+02  0.00000000000E+00 0.  1.
         11    1    4    4    0    0  0.13306125030E+02 -0.33010088037E+01  0.15759571731E+02  0.20888123991E+02  0.51100000000E-03 0. -1.
        -11    1    4    4    0    0 -0.15074822838E+01 -0.69424962777E+01 -0.19587870084E+01  0.73693693222E+01  0.51100000000E-03 0.  1.
        -12    1    4    4    0    0 -0.88461981510E+01  0.89455714081E+01  0.22878627094E+02  0.26109577691E+02  0.00000000000E+00 0.  1.
</event>
<event>
 8    1  0.3146747E-007  0.9118800E+02  0.7816164E-02  0.1184000E+00
        -11   -1    0    0    0    0  0.00000000000E+00  0.00000000000E+00  0.45593999997E+02  0.45594000000E+02  0.51100000000E-03 0.  1.
         11   -1    0    0    0    0 -0.00000000000E+00 -0.00000000000E+00 -0.45593999997E+02  0.45594000000E+02  0.51100000000E-03 0. -1.
         23    2    1    2    0    0  0.00000000000E+00  0.35527136788E-14  0.88817841970E-15  0.91188000000E+02  0.91188000000E+02 0.  0.
    9900012    2    3    3    0    0  0.31135493717E+02  0.19638969215E+02  0.81881500805E+00  0.54367101874E+02  0.40000040341E+02 0.  0.
        -12    1    3    3    0    0 -0.31135493717E+02 -0.19638969215E+02 -0.81881500805E+00  0.36820898126E+02  0.00000000000E+00 0.  1.
         11    1    4    4    0    0  0.67965822556E+01  0.85199251677E+00 -0.55577127957E+01  0.88208612610E+01  0.51100000000E-03 0. -1.
        -11    1    4    4    0    0  0.24381268019E+02  0.53053238946E+01  0.15401741491E+02  0.29322454417E+02  0.51100000000E-03 0.  1.
        -12    1    4    4    0    0 -0.42356558067E-01  0.13481652804E+02 -0.90252136873E+01  0.16223786195E+02  0.00000000000E+00 0.  1.
</event>
<event>
 8    1  0.3146747E-007  0.9118800E+02  0.7816164E-02  0.1184000E+00
        -11   -1    0    0    0    0  0.00000000000E+00  0.00000000000E+00  0.45593999997E+02  0.45594000000E+02  0.51100000000E-03 0. -1.
         11   -1    0    0    0    0 -0.00000000000E+00 -0.00000000000E+00 -0.45593999997E+02  0.45594000000E+02  0.51100000000E-03 0.  1.
         23    2    1    2    0    0  0.35527136788E-14  0.00000000000E+00  0.00000000000E+00  0.91188000000E+02  0.91188000000E+02 0.  0.
    9900012    2    3    3    0    0 -0.14207391094E+02 -0.14271151627E+01  0.33939550016E+02  0.54367086449E+02  0.40000005179E+02 0.  0.
        -12    1    3    3    0    0  0.14207391094E+02  0.14271151627E+01 -0.33939550016E+02  0.36820913551E+02  0.00000000000E+00 0.  1.
         11    1    4    4    0    0 -0.13708046753E+02  0.38914367324E+01  0.12721429710E+02  0.19102057474E+02  0.51100000000E-03 0. -1.
        -11    1    4    4    0    0 -0.13874709940E+02 -0.99731256180E+00  0.84519160298E+01  0.16276888311E+02  0.51100000000E-03 0.  1.
         12    1    4    4    0    0  0.13375365598E+02 -0.43212393333E+01  0.12766204277E+02  0.18988140664E+02  0.00000000000E+00 0. -1.
</event>
<event>
 8    1  0.3146747E-007  0.9118800E+02  0.7816164E-02  0.1184000E+00
        -11   -1    0    0    0    0  0.00000000000E+00  0.00000000000E+00  0.45593999997E+02  0.45594000000E+02  0.51100000000E-03 0. -1.
         11   -1    0    0    0    0 -0.00000000000E+00 -0.00000000000E+00 -0.45593999997E+02  0.45594000000E+02  0.51100000000E-03 0.  1.
         23    2    1    2    0    0  0.00000000000E+00 -0.22204460493E-15  0.00000000000E+00  0.91188000000E+02  0.91188000000E+02 0.  0.
    9900012    2    3    3    0    0 -0.23081867436E+02  0.41969198979E-01 -0.28688061768E+02  0.54367092166E+02  0.40000018210E+02 0.  0.
        -12    1    3    3    0    0  0.23081867436E+02 -0.41969198979E-01  0.28688061768E+02  0.36820907834E+02  0.00000000000E+00 0.  1.
         11    1    4    4    0    0 -0.23493562208E+02  0.66778572423E-01 -0.10781970364E+02  0.25849619142E+02  0.51100000000E-03 0.  1.
        -11    1    4    4    0    0 -0.42241471764E+01  0.45691479083E+01 -0.20553235995E+02  0.21474544048E+02  0.51100000000E-03 0. -1.
        -12    1    4    4    0    0  0.46358419476E+01 -0.45939572817E+01  0.26471445907E+01  0.70429289755E+01  0.00000000000E+00 0.  1.
</event>
<event>
 8    1  0.3146747E-007  0.9118800E+02  0.7816164E-02  0.1184000E+00
        -11   -1    0    0    0    0  0.00000000000E+00  0.00000000000E+00  0.45593999997E+02  0.45594000000E+02  0.51100000000E-03 0. -1.
         11   -1    0    0    0    0 -0.00000000000E+00 -0.00000000000E+00 -0.45593999997E+02  0.45594000000E+02  0.51100000000E-03 0.  1.
         23    2    1    2    0    0 -0.35527136788E-14 -0.44408920985E-15  0.00000000000E+00  0.91188000000E+02  0.91188000000E+02 0.  0.
    9900012    2    3    3    0    0  0.29377250992E+02  0.32313803610E+01  0.21961597185E+02  0.54367130296E+02  0.40000105135E+02 0.  0.
        -12    1    3    3    0    0 -0.29377250992E+02 -0.32313803610E+01 -0.21961597185E+02  0.36820869704E+02  0.00000000000E+00 0.  1.
         11    1    4    4    0    0  0.42228468206E+01 -0.79428814224E+01 -0.12266049120E+01  0.90788964325E+01  0.51100000000E-03 0. -1.
        -11    1    4    4    0    0  0.11374387186E+02  0.13588950756E+01  0.25744318726E+02  0.28177885417E+02  0.51100000000E-03 0.  1.
         12    1    4    4    0    0  0.13780016985E+02  0.98153667078E+01 -0.25561166289E+01  0.17110348446E+02  0.00000000000E+00 0. -1.
</event>
<event>
 8    1  0.3146747E-007  0.9118800E+02  0.7816164E-02  0.1184000E+00
        -11   -1    0    0    0    0  0.00000000000E+00  0.00000000000E+00  0.45593999997E+02  0.45594000000E+02  0.51100000000E-03 0. -1.
         11   -1    0    0    0    0 -0.00000000000E+00 -0.00000000000E+00 -0.45593999997E+02  0.45594000000E+02  0.51100000000E-03 0.  1.
         23    2    1    2    0    0  0.35527136788E-14  0.00000000000E+00  0.00000000000E+00  0.91188000000E+02  0.91188000000E+02 0.  0.
    9900012    2    3    3    0    0  0.18538706783E+02  0.10421867686E+02 -0.30057947633E+02  0.54367093016E+02  0.40000020148E+02 0.  0.
         12    1    3    3    0    0 -0.18538706783E+02 -0.10421867686E+02  0.30057947633E+02  0.36820906984E+02  0.00000000000E+00 0. -1.
         11    1    4    4    0    0  0.63787494137E+01  0.11799808288E+02 -0.36846082015E+02  0.39211703353E+02  0.51100000000E-03 0.  1.
        -11    1    4    4    0    0  0.88028372186E+01  0.14546510710E+01  0.31833246183E+01  0.94730939361E+01  0.51100000000E-03 0. -1.
        -12    1    4    4    0    0  0.33571201507E+01 -0.28325916728E+01  0.36048097641E+01  0.56822957267E+01  0.00000000000E+00 0.  1.
</event>
<event>
 8    1  0.3146747E-007  0.9118800E+02  0.7816164E-02  0.1184000E+00
        -11   -1    0    0    0    0  0.00000000000E+00  0.00000000000E+00  0.45593999997E+02  0.45594000000E+02  0.51100000000E-03 0. -1.
         11   -1    0    0    0    0 -0.00000000000E+00 -0.00000000000E+00 -0.45593999997E+02  0.45594000000E+02  0.51100000000E-03 0.  1.
         23    2    1    2    0    0  0.00000000000E+00 -0.17763568394E-14 -0.88817841970E-15  0.91188000000E+02  0.91188000000E+02 0.  0.
    9900012    2    3    3    0    0 -0.34846470800E+02 -0.94321080929E+01 -0.72483552429E+01  0.54367084150E+02  0.39999999937E+02 0.  0.
         12    1    3    3    0    0  0.34846470800E+02  0.94321080929E+01  0.72483552429E+01  0.36820915850E+02  0.00000000000E+00 0. -1.
         11    1    4    4    0    0 -0.25406281808E+02  0.12397995667E+02 -0.68527055557E+00  0.28278243366E+02  0.51100000000E-03 0. -1.
        -11    1    4    4    0    0 -0.58192307857E+01 -0.78422308566E+01 -0.63308587160E+01  0.11638032655E+02  0.51100000000E-03 0.  1.
        -12    1    4    4    0    0 -0.36209582062E+01 -0.13987872903E+02 -0.23222597135E+00  0.14450808129E+02  0.00000000000E+00 0.  1.
</event>
<event>
 8    1  0.3146747E-007  0.9118800E+02  0.7816164E-02  0.1184000E+00
        -11   -1    0    0    0    0  0.00000000000E+00  0.00000000000E+00  0.45593999997E+02  0.45594000000E+02  0.51100000000E-03 0.  1.
         11   -1    0    0    0    0 -0.00000000000E+00 -0.00000000000E+00 -0.45593999997E+02  0.45594000000E+02  0.51100000000E-03 0. -1.
         23    2    1    2    0    0  0.00000000000E+00  0.00000000000E+00 -0.10547118734E-14  0.91188000000E+02  0.91188000000E+02 0.  0.
    9900012    2    3    3    0    0 -0.22094521051E+02  0.29451021669E+02 -0.49723347319E+00  0.54367112192E+02  0.40000063865E+02 0.  0.
        -12    1    3    3    0    0  0.22094521051E+02 -0.29451021669E+02  0.49723347319E+00  0.36820887808E+02  0.00000000000E+00 0.  1.
         11    1    4    4    0    0  0.19140408729E+01  0.10656190585E+02 -0.13712246665E+01  0.10913212524E+02  0.51100000000E-03 0. -1.
        -11    1    4    4    0    0 -0.58070408120E+01  0.20672077055E+02  0.91882019826E+01  0.23355503606E+02  0.51100000000E-03 0.  1.
        -12    1    4    4    0    0 -0.18201521112E+02 -0.18772459711E+01 -0.83142107892E+01  0.20098396062E+02  0.00000000000E+00 0.  1.
</event>
<event>
 8    1  0.3146747E-007  0.9118800E+02  0.7816164E-02  0.1184000E+00
        -11   -1    0    0    0    0  0.00000000000E+00  0.00000000000E+00  0.45593999997E+02  0.45594000000E+02  0.51100000000E-03 0. -1.
         11   -1    0    0    0    0 -0.00000000000E+00 -0.00000000000E+00 -0.45593999997E+02  0.45594000000E+02  0.51100000000E-03 0.  1.
         23    2    1    2    0    0 -0.35527136788E-14  0.00000000000E+00  0.00000000000E+00  0.91188000000E+02  0.91188000000E+02 0.  0.
    9900012    2    3    3    0    0 -0.24788762861E+02 -0.24971778143E+02 -0.10849339060E+02  0.54367073533E+02  0.39999975734E+02 0.  0.
        -12    1    3    3    0    0  0.24788762861E+02  0.24971778143E+02  0.10849339060E+02  0.36820926467E+02  0.00000000000E+00 0.  1.
         11    1    4    4    0    0 -0.31000918964E+02 -0.14110370276E+02 -0.10701828132E+02  0.35702782127E+02  0.51100000000E-03 0. -1.
        -11    1    4    4    0    0  0.30340273240E+01 -0.24696470574E+01 -0.65580584297E+01  0.76362693130E+01  0.51100000000E-03 0.  1.
         12    1    4    4    0    0  0.31781287791E+01 -0.83917608095E+01  0.64105475017E+01  0.11028022093E+02  0.00000000000E+00 0. -1.
</event>
<event>
 8    1  0.3146747E-007  0.9118800E+02  0.7816164E-02  0.1184000E+00
        -11   -1    0    0    0    0  0.00000000000E+00  0.00000000000E+00  0.45593999997E+02  0.45594000000E+02  0.51100000000E-03 0.  1.
         11   -1    0    0    0    0 -0.00000000000E+00 -0.00000000000E+00 -0.45593999997E+02  0.45594000000E+02  0.51100000000E-03 0. -1.
         23    2    1    2    0    0  0.00000000000E+00  0.00000000000E+00  0.00000000000E+00  0.91188000000E+02  0.91188000000E+02 0.  0.
    9900012    2    3    3    0    0 -0.34569258615E+02  0.98681956197E+01 -0.79603031403E+01  0.54367063672E+02  0.39999953254E+02 0.  0.
        -12    1    3    3    0    0  0.34569258615E+02 -0.98681956197E+01  0.79603031403E+01  0.36820936328E+02  0.00000000000E+00 0.  1.
         11    1    4    4    0    0  0.54353475146E+01 -0.69050850072E+01 -0.63923381672E+01  0.10866700928E+02  0.51100000000E-03 0.  1.
        -11    1    4    4    0    0 -0.20356281875E+02  0.99647459722E+01 -0.28280648423E+00  0.22666149956E+02  0.51100000000E-03 0. -1.
        -12    1    4    4    0    0 -0.19648324254E+02  0.68085346547E+01 -0.12851584889E+01  0.20834212788E+02  0.00000000000E+00 0.  1.
</event>
<event>
 8    1  0.3146747E-007  0.9118800E+02  0.7816164E-02  0.1184000E+00
        -11   -1    0    0    0    0  0.00000000000E+00  0.00000000000E+00  0.45593999997E+02  0.45594000000E+02  0.51100000000E-03 0.  1.
         11   -1    0    0    0    0 -0.00000000000E+00 -0.00000000000E+00 -0.45593999997E+02  0.45594000000E+02  0.51100000000E-03 0. -1.
         23    2    1    2    0    0  0.17763568394E-14 -0.10658141036E-13  0.71054273576E-14  0.91188000000E+02  0.91188000000E+02 0.  0.
    9900012    2    3    3    0    0  0.10538537043E+02 -0.30744432263E+02  0.17306045440E+02  0.54367080852E+02  0.39999992418E+02 0.  0.
         12    1    3    3    0    0 -0.10538537043E+02  0.30744432263E+02 -0.17306045440E+02  0.36820919148E+02  0.00000000000E+00 0. -1.
         11    1    4    4    0    0  0.12449575472E+02 -0.38248628065E+02  0.21420412777E+02  0.45571740828E+02  0.51100000000E-03 0.  1.
        -11    1    4    4    0    0 -0.15244696615E+01  0.52007138245E+01 -0.25934761597E+01  0.60081237408E+01  0.51100000000E-03 0. -1.
        -12    1    4    4    0    0 -0.38656876776E+00  0.23034819779E+01 -0.15208911773E+01  0.27872162830E+01  0.00000000000E+00 0.  1.
</event>
<event>
 8    1  0.3146747E-007  0.9118800E+02  0.7816164E-02  0.1184000E+00
        -11   -1    0    0    0    0  0.00000000000E+00  0.00000000000E+00  0.45593999997E+02  0.45594000000E+02  0.51100000000E-03 0. -1.
         11   -1    0    0    0    0 -0.00000000000E+00 -0.00000000000E+00 -0.45593999997E+02  0.45594000000E+02  0.51100000000E-03 0.  1.
         23    2    1    2    0    0  0.00000000000E+00  0.00000000000E+00  0.00000000000E+00  0.91188000000E+02  0.91188000000E+02 0.  0.
    9900012    2    3    3    0    0  0.12874695903E+02  0.23669273830E+02 -0.25095432017E+02  0.54367176730E+02  0.40000210990E+02 0.  0.
         12    1    3    3    0    0 -0.12874695903E+02 -0.23669273830E+02  0.25095432017E+02  0.36820823270E+02  0.00000000000E+00 0. -1.
         11    1    4    4    0    0  0.47383521974E+01  0.17778521127E+02 -0.59055516766E+01  0.19323647064E+02  0.51100000000E-03 0. -1.
        -11    1    4    4    0    0 -0.79773381994E+01 -0.52491319499E+01 -0.44917302111E+01  0.10553054133E+02  0.51100000000E-03 0.  1.
         12    1    4    4    0    0  0.16113681905E+02  0.11139884653E+02 -0.14698150129E+02  0.24490475533E+02  0.00000000000E+00 0. -1.
</event>
<event>
 8    1  0.3146747E-007  0.9118800E+02  0.7816164E-02  0.1184000E+00
        -11   -1    0    0    0    0  0.00000000000E+00  0.00000000000E+00  0.45593999997E+02  0.45594000000E+02  0.51100000000E-03 0.  1.
         11   -1    0    0    0    0 -0.00000000000E+00 -0.00000000000E+00 -0.45593999997E+02  0.45594000000E+02  0.51100000000E-03 0. -1.
         23    2    1    2    0    0 -0.26645352591E-14  0.00000000000E+00 -0.35527136788E-14  0.91188000000E+02  0.91188000000E+02 0.  0.
    9900012    2    3    3    0    0  0.20098073235E+01 -0.31012673699E+02 -0.19747258895E+02  0.54367088967E+02  0.40000010919E+02 0.  0.
        -12    1    3    3    0    0 -0.20098073235E+01  0.31012673699E+02  0.19747258895E+02  0.36820911033E+02  0.00000000000E+00 0.  1.
         11    1    4    4    0    0 -0.86003503257E+01  0.11531884266E+01 -0.86404456246E+01  0.12245536743E+02  0.51100000000E-03 0. -1.
        -11    1    4    4    0    0 -0.58943323604E+01 -0.22461594303E+01 -0.30888225082E+01  0.70234757000E+01  0.51100000000E-03 0.  1.
        -12    1    4    4    0    0  0.16504490010E+02 -0.29919702695E+02 -0.80179907621E+01  0.35098076524E+02  0.00000000000E+00 0.  1.
</event>
<event>
 8    1  0.3146747E-007  0.9118800E+02  0.7816164E-02  0.1184000E+00
        -11   -1    0    0    0    0  0.00000000000E+00  0.00000000000E+00  0.45593999997E+02  0.45594000000E+02  0.51100000000E-03 0.  1.
         11   -1    0    0    0    0 -0.00000000000E+00 -0.00000000000E+00 -0.45593999997E+02  0.45594000000E+02  0.51100000000E-03 0. -1.
         23    2    1    2    0    0  0.00000000000E+00  0.00000000000E+00  0.10658141036E-13  0.91188000000E+02  0.91188000000E+02 0.  0.
    9900012    2    3    3    0    0 -0.75275753001E+01 -0.19614159074E+02 -0.30239050606E+02  0.54367084644E+02  0.40000001064E+02 0.  0.
        -12    1    3    3    0    0  0.75275753001E+01  0.19614159074E+02  0.30239050606E+02  0.36820915356E+02  0.00000000000E+00 0.  1.
         11    1    4    4    0    0  0.30769336061E+01  0.43223099555E+01 -0.13150712900E+01  0.54661958003E+01  0.51100000000E-03 0.  1.
        -11    1    4    4    0    0 -0.99925187206E+01 -0.15688666594E+02 -0.34312488543E+02  0.39029880351E+02  0.51100000000E-03 0. -1.
         12    1    4    4    0    0 -0.61199018564E+00 -0.82478024347E+01  0.53885092272E+01  0.98710084936E+01  0.00000000000E+00 0. -1.
</event>
<event>
 8    1  0.3146747E-007  0.9118800E+02  0.7816164E-02  0.1184000E+00
        -11   -1    0    0    0    0  0.00000000000E+00  0.00000000000E+00  0.45593999997E+02  0.45594000000E+02  0.51100000000E-03 0. -1.
         11   -1    0    0    0    0 -0.00000000000E+00 -0.00000000000E+00 -0.45593999997E+02  0.45594000000E+02  0.51100000000E-03 0.  1.
         23    2    1    2    0    0  0.00000000000E+00  0.35527136788E-14 -0.35527136788E-14  0.91188000000E+02  0.91188000000E+02 0.  0.
    9900012    2    3    3    0    0 -0.20354542129E+02 -0.19677812296E+02 -0.23542641927E+02  0.54367086501E+02  0.40000005296E+02 0.  0.
         12    1    3    3    0    0  0.20354542129E+02  0.19677812296E+02  0.23542641927E+02  0.36820913499E+02  0.00000000000E+00 0. -1.
         11    1    4    4    0    0  0.19553707256E+01  0.26437018555E+01 -0.44492307737E+01  0.55324758394E+01  0.51100000000E-03 0. -1.
        -11    1    4    4    0    0 -0.11143696159E+02  0.51865523392E+01 -0.14141051529E+02  0.18736371790E+02  0.51100000000E-03 0.  1.
        -12    1    4    4    0    0 -0.11166216696E+02 -0.27508066490E+02 -0.49523596240E+01  0.30098238872E+02  0.00000000000E+00 0.  1.
</event>
<event>
 8    1  0.3146747E-007  0.9118800E+02  0.7816164E-02  0.1184000E+00
        -11   -1    0    0    0    0  0.00000000000E+00  0.00000000000E+00  0.45593999997E+02  0.45594000000E+02  0.51100000000E-03 0.  1.
         11   -1    0    0    0    0 -0.00000000000E+00 -0.00000000000E+00 -0.45593999997E+02  0.45594000000E+02  0.51100000000E-03 0. -1.
         23    2    1    2    0    0  0.00000000000E+00 -0.71054273576E-14  0.20816681712E-15  0.91188000000E+02  0.91188000000E+02 0.  0.
    9900012    2    3    3    0    0 -0.16979344027E+02 -0.32672219606E+02  0.87672103578E-01  0.54367085509E+02  0.40000003035E+02 0.  0.
         12    1    3    3    0    0  0.16979344027E+02  0.32672219606E+02 -0.87672103578E-01  0.36820914491E+02  0.00000000000E+00 0. -1.
         11    1    4    4    0    0 -0.10053905762E+02 -0.34297565604E+02  0.17030307384E+01  0.35781340688E+02  0.51100000000E-03 0. -1.
        -11    1    4    4    0    0 -0.10360726201E+02 -0.27785026197E+01  0.32184177067E+01  0.11199238234E+02  0.51100000000E-03 0.  1.
         12    1    4    4    0    0  0.34352879352E+01  0.44038486184E+01 -0.48337763415E+01  0.73865065878E+01  0.00000000000E+00 0. -1.
</event>
<event>
 8    1  0.3146747E-007  0.9118800E+02  0.7816164E-02  0.1184000E+00
        -11   -1    0    0    0    0  0.00000000000E+00  0.00000000000E+00  0.45593999997E+02  0.45594000000E+02  0.51100000000E-03 0.  1.
         11   -1    0    0    0    0 -0.00000000000E+00 -0.00000000000E+00 -0.45593999997E+02  0.45594000000E+02  0.51100000000E-03 0. -1.
         23    2    1    2    0    0 -0.71054273576E-14  0.88817841970E-15 -0.17763568394E-14  0.91188000000E+02  0.91188000000E+02 0.  0.
    9900012    2    3    3    0    0  0.34376406307E+02  0.55326741187E+01  0.11976530677E+02  0.54367013043E+02  0.39999837833E+02 0.  0.
        -12    1    3    3    0    0 -0.34376406307E+02 -0.55326741187E+01 -0.11976530677E+02  0.36820986957E+02  0.00000000000E+00 0.  1.
         11    1    4    4    0    0  0.43315265008E+01  0.43711475107E+01  0.14718148969E+02  0.15952835539E+02  0.51100000000E-03 0.  1.
        -11    1    4    4    0    0  0.14313492694E+02  0.49366711552E+01  0.97206435938E+01  0.17992712617E+02  0.51100000000E-03 0. -1.
         12    1    4    4    0    0  0.15731387112E+02 -0.37751445472E+01 -0.12462261886E+02  0.20421464887E+02  0.00000000000E+00 0. -1.
</event>
<event>
 8    1  0.3146747E-007  0.9118800E+02  0.7816164E-02  0.1184000E+00
        -11   -1    0    0    0    0  0.00000000000E+00  0.00000000000E+00  0.45593999997E+02  0.45594000000E+02  0.51100000000E-03 0.  1.
         11   -1    0    0    0    0 -0.00000000000E+00 -0.00000000000E+00 -0.45593999997E+02  0.45594000000E+02  0.51100000000E-03 0. -1.
         23    2    1    2    0    0  0.00000000000E+00  0.00000000000E+00  0.00000000000E+00  0.91188000000E+02  0.91188000000E+02 0.  0.
    9900012    2    3    3    0    0 -0.34453475058E+02 -0.87075128785E+01 -0.96393622294E+01  0.54367081648E+02  0.39999994232E+02 0.  0.
        -12    1    3    3    0    0  0.34453475058E+02  0.87075128785E+01  0.96393622294E+01  0.36820918352E+02  0.00000000000E+00 0.  1.
         11    1    4    4    0    0 -0.36413480104E+02 -0.60185464449E+01 -0.64948847733E+01  0.37474630926E+02  0.51100000000E-03 0. -1.
        -11    1    4    4    0    0 -0.23490297879E+01  0.55846227077E+01 -0.43891173935E+01  0.74813303287E+01  0.51100000000E-03 0.  1.
        -12    1    4    4    0    0  0.43090348333E+01 -0.82735891413E+01  0.12446399374E+01  0.94111203928E+01  0.00000000000E+00 0.  1.
</event>
<event>
 8    1  0.3146747E-007  0.9118800E+02  0.7816164E-02  0.1184000E+00
        -11   -1    0    0    0    0  0.00000000000E+00  0.00000000000E+00  0.45593999997E+02  0.45594000000E+02  0.51100000000E-03 0.  1.
         11   -1    0    0    0    0 -0.00000000000E+00 -0.00000000000E+00 -0.45593999997E+02  0.45594000000E+02  0.51100000000E-03 0. -1.
         23    2    1    2    0    0  0.00000000000E+00  0.35527136788E-14  0.35527136788E-14  0.91188000000E+02  0.91188000000E+02 0.  0.
    9900012    2    3    3    0    0 -0.73383893880E+01  0.29399268432E+02 -0.20919153389E+02  0.54367083096E+02  0.39999997533E+02 0.  0.
        -12    1    3    3    0    0  0.73383893880E+01 -0.29399268432E+02  0.20919153389E+02  0.36820916904E+02  0.00000000000E+00 0.  1.
         11    1    4    4    0    0  0.41781197420E+01  0.13499857013E+02  0.58006160513E+01  0.15275796895E+02  0.51100000000E-03 0. -1.
        -11    1    4    4    0    0 -0.54006736297E+01  0.15541345435E+02 -0.28326243123E+02  0.32757850102E+02  0.51100000000E-03 0.  1.
         12    1    4    4    0    0 -0.61158355003E+01  0.35806598439E+00  0.16064736826E+01  0.63334360981E+01  0.00000000000E+00 0. -1.
</event>
<event>
 8    1  0.3146747E-007  0.9118800E+02  0.7816164E-02  0.1184000E+00
        -11   -1    0    0    0    0  0.00000000000E+00  0.00000000000E+00  0.45593999997E+02  0.45594000000E+02  0.51100000000E-03 0.  1.
         11   -1    0    0    0    0 -0.00000000000E+00 -0.00000000000E+00 -0.45593999997E+02  0.45594000000E+02  0.51100000000E-03 0. -1.
         23    2    1    2    0    0  0.00000000000E+00  0.00000000000E+00 -0.22204460493E-15  0.91188000000E+02  0.91188000000E+02 0.  0.
    9900012    2    3    3    0    0 -0.17071325949E+02 -0.32592224842E+02  0.14482052703E+01  0.54367074043E+02  0.39999976895E+02 0.  0.
        -12    1    3    3    0    0  0.17071325949E+02  0.32592224842E+02 -0.14482052703E+01  0.36820925957E+02  0.00000000000E+00 0.  1.
         11    1    4    4    0    0 -0.16938063991E+01 -0.30920311370E+02  0.35150880151E+01  0.31165533516E+02  0.51100000000E-03 0. -1.
        -11    1    4    4    0    0 -0.62766674949E+01  0.77650520255E+01 -0.48936821487E+00  0.99966028886E+01  0.51100000000E-03 0.  1.
         12    1    4    4    0    0 -0.91008520550E+01 -0.94369654984E+01 -0.15775145300E+01  0.13204937639E+02  0.00000000000E+00 0. -1.
</event>
<event>
 8    1  0.3146747E-007  0.9118800E+02  0.7816164E-02  0.1184000E+00
        -11   -1    0    0    0    0  0.00000000000E+00  0.00000000000E+00  0.45593999997E+02  0.45594000000E+02  0.51100000000E-03 0. -1.
         11   -1    0    0    0    0 -0.00000000000E+00 -0.00000000000E+00 -0.45593999997E+02  0.45594000000E+02  0.51100000000E-03 0.  1.
         23    2    1    2    0    0 -0.71054273576E-14  0.00000000000E+00  0.00000000000E+00  0.91188000000E+02  0.91188000000E+02 0.  0.
    9900012    2    3    3    0    0  0.23850138968E+02  0.15456278587E+02 -0.23410546765E+02  0.54367090500E+02  0.40000014413E+02 0.  0.
         12    1    3    3    0    0 -0.23850138968E+02 -0.15456278587E+02  0.23410546765E+02  0.36820909500E+02  0.00000000000E+00 0. -1.
         11    1    4    4    0    0  0.43014994482E+01  0.34599410230E+01  0.70086674684E+01  0.89216315396E+01  0.51100000000E-03 0. -1.
        -11    1    4    4    0    0  0.24013866718E+02  0.40385166918E+01 -0.19370386276E+02  0.31115707875E+02  0.51100000000E-03 0.  1.
         12    1    4    4    0    0 -0.44652271975E+01  0.79578208721E+01 -0.11048827957E+02  0.14329751086E+02  0.00000000000E+00 0. -1.
</event>
<event>
 8    1  0.3146747E-007  0.9118800E+02  0.7816164E-02  0.1184000E+00
        -11   -1    0    0    0    0  0.00000000000E+00  0.00000000000E+00  0.45593999997E+02  0.45594000000E+02  0.51100000000E-03 0.  1.
         11   -1    0    0    0    0 -0.00000000000E+00 -0.00000000000E+00 -0.45593999997E+02  0.45594000000E+02  0.51100000000E-03 0. -1.
         23    2    1    2    0    0  0.88817841970E-15  0.35527136788E-14  0.35527136788E-14  0.91188000000E+02  0.91188000000E+02 0.  0.
    9900012    2    3    3    0    0 -0.75775387358E+01 -0.30550170217E+02 -0.19106233944E+02  0.54367079736E+02  0.39999989874E+02 0.  0.
        -12    1    3    3    0    0  0.75775387358E+01  0.30550170217E+02  0.19106233944E+02  0.36820920264E+02  0.00000000000E+00 0.  1.
         11    1    4    4    0    0 -0.14794925469E+02  0.55181305282E+00 -0.16551240865E+02  0.22206708259E+02  0.51100000000E-03 0. -1.
        -11    1    4    4    0    0  0.46095000492E+01 -0.24862956120E+02 -0.16886288102E+01  0.25342958494E+02  0.51100000000E-03 0.  1.
         12    1    4    4    0    0  0.26078866838E+01 -0.62390271496E+01 -0.86636426939E+00  0.68174129826E+01  0.00000000000E+00 0. -1.
</event>
<event>
 8    1  0.3146747E-007  0.9118800E+02  0.7816164E-02  0.1184000E+00
        -11   -1    0    0    0    0  0.00000000000E+00  0.00000000000E+00  0.45593999997E+02  0.45594000000E+02  0.51100000000E-03 0. -1.
         11   -1    0    0    0    0 -0.00000000000E+00 -0.00000000000E+00 -0.45593999997E+02  0.45594000000E+02  0.51100000000E-03 0.  1.
         23    2    1    2    0    0  0.00000000000E+00  0.00000000000E+00 -0.88817841970E-15  0.91188000000E+02  0.91188000000E+02 0.  0.
    9900012    2    3    3    0    0 -0.11501570997E+02  0.34221449351E+02  0.72372082944E+01  0.54367205399E+02  0.40000276348E+02 0.  0.
        -12    1    3    3    0    0  0.11501570997E+02 -0.34221449351E+02 -0.72372082944E+01  0.36820794601E+02  0.00000000000E+00 0.  1.
         11    1    4    4    0    0 -0.11756004905E+02  0.88040646815E+01  0.11192731968E+02  0.18465981030E+02  0.51100000000E-03 0. -1.
        -11    1    4    4    0    0 -0.43207328466E+01 -0.30539545320E+01  0.32087296576E+01  0.61879978096E+01  0.51100000000E-03 0.  1.
         12    1    4    4    0    0  0.45751667544E+01  0.28471339202E+02 -0.71642533311E+01  0.29713226559E+02  0.00000000000E+00 0. -1.
</event>
<event>
 8    1  0.3146747E-007  0.9118800E+02  0.7816164E-02  0.1184000E+00
        -11   -1    0    0    0    0  0.00000000000E+00  0.00000000000E+00  0.45593999997E+02  0.45594000000E+02  0.51100000000E-03 0. -1.
         11   -1    0    0    0    0 -0.00000000000E+00 -0.00000000000E+00 -0.45593999997E+02  0.45594000000E+02  0.51100000000E-03 0.  1.
         23    2    1    2    0    0  0.71054273576E-14  0.00000000000E+00  0.11102230246E-15  0.91188000000E+02  0.91188000000E+02 0.  0.
    9900012    2    3    3    0    0 -0.36308158580E+02 -0.61122266310E+01  0.37036324750E+00  0.54367097475E+02  0.40000030314E+02 0.  0.
         12    1    3    3    0    0  0.36308158580E+02  0.61122266310E+01 -0.37036324750E+00  0.36820902525E+02  0.00000000000E+00 0. -1.
         11    1    4    4    0    0 -0.25863418754E+02 -0.65011482765E+01 -0.12811124679E+02  0.29585575445E+02  0.51100000000E-03 0. -1.
        -11    1    4    4    0    0 -0.34887768737E+01  0.91363802658E+01  0.55008795292E+01  0.11220725658E+02  0.51100000000E-03 0.  1.
         12    1    4    4    0    0 -0.69559629514E+01 -0.87474586203E+01  0.76806083976E+01  0.13560796372E+02  0.00000000000E+00 0. -1.
</event>
<event>
 8    1  0.3146747E-007  0.9118800E+02  0.7816164E-02  0.1184000E+00
        -11   -1    0    0    0    0  0.00000000000E+00  0.00000000000E+00  0.45593999997E+02  0.45594000000E+02  0.51100000000E-03 0.  1.
         11   -1    0    0    0    0 -0.00000000000E+00 -0.00000000000E+00 -0.45593999997E+02  0.45594000000E+02  0.51100000000E-03 0. -1.
         23    2    1    2    0    0  0.00000000000E+00  0.17763568394E-14  0.17763568394E-14  0.91188000000E+02  0.91188000000E+02 0.  0.
    9900012    2    3    3    0    0 -0.34677417841E+02 -0.93646340989E+01  0.80970351952E+01  0.54367059506E+02  0.39999943755E+02 0.  0.
         12    1    3    3    0    0  0.34677417841E+02  0.93646340989E+01 -0.80970351952E+01  0.36820940494E+02  0.00000000000E+00 0. -1.
         11    1    4    4    0    0 -0.32710917653E+02 -0.16783238884E+02  0.13644519344E+02  0.39215483544E+02  0.51100000000E-03 0. -1.
        -11    1    4    4    0    0  0.16425829440E+01  0.17138442831E+01  0.32736790675E+01  0.40437996801E+01  0.51100000000E-03 0.  1.
         12    1    4    4    0    0 -0.36090831316E+01  0.57047605021E+01 -0.88211632165E+01  0.11107776282E+02  0.00000000000E+00 0. -1.
</event>
<event>
 8    1  0.3146747E-007  0.9118800E+02  0.7816164E-02  0.1184000E+00
        -11   -1    0    0    0    0  0.00000000000E+00  0.00000000000E+00  0.45593999997E+02  0.45594000000E+02  0.51100000000E-03 0.  1.
         11   -1    0    0    0    0 -0.00000000000E+00 -0.00000000000E+00 -0.45593999997E+02  0.45594000000E+02  0.51100000000E-03 0. -1.
         23    2    1    2    0    0 -0.17763568394E-14  0.00000000000E+00  0.00000000000E+00  0.91188000000E+02  0.91188000000E+02 0.  0.
    9900012    2    3    3    0    0  0.14890522641E+02  0.22415814977E+02  0.25131314245E+02  0.54367090434E+02  0.40000014262E+02 0.  0.
         12    1    3    3    0    0 -0.14890522641E+02 -0.22415814977E+02 -0.25131314245E+02  0.36820909566E+02  0.00000000000E+00 0. -1.
         11    1    4    4    0    0 -0.51439010618E+01 -0.36365568839E+01  0.28155976482E+01  0.69001343814E+01  0.51100000000E-03 0. -1.
        -11    1    4    4    0    0  0.19631554749E+02  0.66435583434E+01  0.46968658446E+01  0.21250773123E+02  0.51100000000E-03 0.  1.
        -12    1    4    4    0    0  0.40286895444E+00  0.19408813517E+02  0.17618850752E+02  0.26216182929E+02  0.00000000000E+00 0.  1.
</event>
<event>
 8    1  0.3146747E-007  0.9118800E+02  0.7816164E-02  0.1184000E+00
        -11   -1    0    0    0    0  0.00000000000E+00  0.00000000000E+00  0.45593999997E+02  0.45594000000E+02  0.51100000000E-03 0.  1.
         11   -1    0    0    0    0 -0.00000000000E+00 -0.00000000000E+00 -0.45593999997E+02  0.45594000000E+02  0.51100000000E-03 0. -1.
         23    2    1    2    0    0  0.35527136788E-14  0.53290705182E-14  0.00000000000E+00  0.91188000000E+02  0.91188000000E+02 0.  0.
    9900012    2    3    3    0    0  0.26620333664E+02  0.15078344482E+02 -0.20488584489E+02  0.54367072105E+02  0.39999972477E+02 0.  0.
        -12    1    3    3    0    0 -0.26620333664E+02 -0.15078344482E+02  0.20488584489E+02  0.36820927895E+02  0.00000000000E+00 0.  1.
         11    1    4    4    0    0  0.96117466009E+01  0.71344807669E+01  0.26132791614E+01  0.12252171920E+02  0.51100000000E-03 0. -1.
        -11    1    4    4    0    0  0.18703277015E+01  0.17310432410E+02 -0.11515076704E+02  0.20874534431E+02  0.51100000000E-03 0.  1.
         12    1    4    4    0    0  0.15138259362E+02 -0.93665686944E+01 -0.11586786946E+02  0.21240365754E+02  0.00000000000E+00 0. -1.
</event>
<event>
 8    1  0.3146747E-007  0.9118800E+02  0.7816164E-02  0.1184000E+00
        -11   -1    0    0    0    0  0.00000000000E+00  0.00000000000E+00  0.45593999997E+02  0.45594000000E+02  0.51100000000E-03 0.  1.
         11   -1    0    0    0    0 -0.00000000000E+00 -0.00000000000E+00 -0.45593999997E+02  0.45594000000E+02  0.51100000000E-03 0. -1.
         23    2    1    2    0    0  0.00000000000E+00  0.88817841970E-15  0.00000000000E+00  0.91188000000E+02  0.91188000000E+02 0.  0.
    9900012    2    3    3    0    0  0.82574791632E+01 -0.56239380188E+01  0.35439600756E+02  0.54367082810E+02  0.39999996881E+02 0.  0.
         12    1    3    3    0    0 -0.82574791632E+01  0.56239380188E+01 -0.35439600756E+02  0.36820917190E+02  0.00000000000E+00 0. -1.
         11    1    4    4    0    0  0.13577584211E+02 -0.56619042454E+01  0.29333435839E+02  0.32815520887E+02  0.51100000000E-03 0. -1.
        -11    1    4    4    0    0 -0.44504598354E+00  0.57597243995E+01 -0.53339849192E+01  0.78628167005E+01  0.51100000000E-03 0.  1.
        -12    1    4    4    0    0 -0.48750590645E+01 -0.57217581729E+01  0.11440149837E+02  0.13688745222E+02  0.00000000000E+00 0.  1.
</event>
<event>
 8    1  0.3146747E-007  0.9118800E+02  0.7816164E-02  0.1184000E+00
        -11   -1    0    0    0    0  0.00000000000E+00  0.00000000000E+00  0.45593999997E+02  0.45594000000E+02  0.51100000000E-03 0.  1.
         11   -1    0    0    0    0 -0.00000000000E+00 -0.00000000000E+00 -0.45593999997E+02  0.45594000000E+02  0.51100000000E-03 0. -1.
         23    2    1    2    0    0  0.88817841970E-15  0.00000000000E+00  0.35527136788E-14  0.91188000000E+02  0.91188000000E+02 0.  0.
    9900012    2    3    3    0    0 -0.65022920162E+01 -0.23092273393E+02 -0.27932828917E+02  0.54367138750E+02  0.40000124407E+02 0.  0.
        -12    1    3    3    0    0  0.65022920162E+01  0.23092273393E+02  0.27932828917E+02  0.36820861250E+02  0.00000000000E+00 0.  1.
         11    1    4    4    0    0  0.10898732225E+02 -0.48158511113E+01  0.29160096594E+01  0.12266943328E+02  0.51100000000E-03 0. -1.
        -11    1    4    4    0    0 -0.98294949823E+01 -0.21166980635E+01 -0.15940577109E+02  0.18846787024E+02  0.51100000000E-03 0.  1.
        -12    1    4    4    0    0 -0.75715292584E+01 -0.16159724218E+02 -0.14908261468E+02  0.23253408397E+02  0.00000000000E+00 0.  1.
</event>
<event>
 8    1  0.3146747E-007  0.9118800E+02  0.7816164E-02  0.1184000E+00
        -11   -1    0    0    0    0  0.00000000000E+00  0.00000000000E+00  0.45593999997E+02  0.45594000000E+02  0.51100000000E-03 0.  1.
         11   -1    0    0    0    0 -0.00000000000E+00 -0.00000000000E+00 -0.45593999997E+02  0.45594000000E+02  0.51100000000E-03 0. -1.
         23    2    1    2    0    0  0.35527136788E-14  0.35527136788E-14 -0.35527136788E-14  0.91188000000E+02  0.91188000000E+02 0.  0.
    9900012    2    3    3    0    0  0.22313489975E+02  0.17922762175E+02 -0.23165941591E+02  0.54367107987E+02  0.40000054277E+02 0.  0.
         12    1    3    3    0    0 -0.22313489975E+02 -0.17922762175E+02  0.23165941591E+02  0.36820892013E+02  0.00000000000E+00 0. -1.
         11    1    4    4    0    0  0.11610919142E+02  0.11198307324E+02 -0.15001310161E+02  0.22028500563E+02  0.51100000000E-03 0. -1.
        -11    1    4    4    0    0  0.16010713818E+02  0.78444932577E+01 -0.15217681506E+02  0.23440496200E+02  0.51100000000E-03 0.  1.
         12    1    4    4    0    0 -0.53081429842E+01 -0.11200384066E+01  0.70530500761E+01  0.88981112237E+01  0.00000000000E+00 0. -1.
</event>
<event>
 8    1  0.3146747E-007  0.9118800E+02  0.7816164E-02  0.1184000E+00
        -11   -1    0    0    0    0  0.00000000000E+00  0.00000000000E+00  0.45593999997E+02  0.45594000000E+02  0.51100000000E-03 0.  1.
         11   -1    0    0    0    0 -0.00000000000E+00 -0.00000000000E+00 -0.45593999997E+02  0.45594000000E+02  0.51100000000E-03 0. -1.
         23    2    1    2    0    0  0.35527136788E-14 -0.44408920985E-15  0.71054273576E-14  0.91188000000E+02  0.91188000000E+02 0.  0.
    9900012    2    3    3    0    0  0.19858519761E+02 -0.20856453353E+01  0.30936536597E+02  0.54367081758E+02  0.39999994484E+02 0.  0.
         12    1    3    3    0    0 -0.19858519761E+02  0.20856453353E+01 -0.30936536597E+02  0.36820918242E+02  0.00000000000E+00 0. -1.
         11    1    4    4    0    0 -0.26704425093E+00 -0.58121047069E+01 -0.10557442129E+01  0.59132452901E+01  0.51100000000E-03 0. -1.
        -11    1    4    4    0    0  0.12010290122E+02 -0.87104613106E+01  0.30002884006E+02  0.33470767156E+02  0.51100000000E-03 0.  1.
         12    1    4    4    0    0  0.81152738895E+01  0.12436920682E+02  0.19893968039E+01  0.14983069312E+02  0.00000000000E+00 0. -1.
</event>
<event>
 8    1  0.3146747E-007  0.9118800E+02  0.7816164E-02  0.1184000E+00
        -11   -1    0    0    0    0  0.00000000000E+00  0.00000000000E+00  0.45593999997E+02  0.45594000000E+02  0.51100000000E-03 0. -1.
         11   -1    0    0    0    0 -0.00000000000E+00 -0.00000000000E+00 -0.45593999997E+02  0.45594000000E+02  0.51100000000E-03 0.  1.
         23    2    1    2    0    0  0.00000000000E+00  0.13322676296E-14  0.88817841970E-15  0.91188000000E+02  0.91188000000E+02 0.  0.
    9900012    2    3    3    0    0 -0.36523903841E+02  0.13480614704E+01  0.44683243560E+01  0.54367099087E+02  0.40000033989E+02 0.  0.
         12    1    3    3    0    0  0.36523903841E+02 -0.13480614704E+01 -0.44683243560E+01  0.36820900913E+02  0.00000000000E+00 0. -1.
         11    1    4    4    0    0 -0.95552863444E+01 -0.94348622625E+01  0.19845074716E+00  0.13429799179E+02  0.51100000000E-03 0. -1.
        -11    1    4    4    0    0 -0.96077486582E+01  0.89132110371E+01 -0.11479844353E+02  0.17422427842E+02  0.51100000000E-03 0.  1.
         12    1    4    4    0    0 -0.17360868838E+02  0.18697126958E+01  0.15749717962E+02  0.23514872066E+02  0.00000000000E+00 0. -1.
</event>
<event>
 8    1  0.3146747E-007  0.9118800E+02  0.7816164E-02  0.1184000E+00
        -11   -1    0    0    0    0  0.00000000000E+00  0.00000000000E+00  0.45593999997E+02  0.45594000000E+02  0.51100000000E-03 0. -1.
         11   -1    0    0    0    0 -0.00000000000E+00 -0.00000000000E+00 -0.45593999997E+02  0.45594000000E+02  0.51100000000E-03 0.  1.
         23    2    1    2    0    0  0.00000000000E+00  0.35527136788E-14  0.00000000000E+00  0.91188000000E+02  0.91188000000E+02 0.  0.
    9900012    2    3    3    0    0  0.91799493000E+01  0.11725399107E+02  0.33675242878E+02  0.54367103266E+02  0.40000043516E+02 0.  0.
        -12    1    3    3    0    0 -0.91799493000E+01 -0.11725399107E+02 -0.33675242878E+02  0.36820896734E+02  0.00000000000E+00 0.  1.
         11    1    4    4    0    0 -0.13845328976E+01  0.45602309696E+01  0.11749447341E+02  0.12679201509E+02  0.51100000000E-03 0.  1.
        -11    1    4    4    0    0  0.18522042387E+02  0.13717161957E+02  0.21263819209E+02  0.31358835979E+02  0.51100000000E-03 0. -1.
        -12    1    4    4    0    0 -0.79575601896E+01 -0.65519938201E+01  0.66197632888E+00  0.10329065778E+02  0.00000000000E+00 0.  1.
</event>
<event>
 8    1  0.3146747E-007  0.9118800E+02  0.7816164E-02  0.1184000E+00
        -11   -1    0    0    0    0  0.00000000000E+00  0.00000000000E+00  0.45593999997E+02  0.45594000000E+02  0.51100000000E-03 0. -1.
         11   -1    0    0    0    0 -0.00000000000E+00 -0.00000000000E+00 -0.45593999997E+02  0.45594000000E+02  0.51100000000E-03 0.  1.
         23    2    1    2    0    0  0.71054273576E-14  0.00000000000E+00  0.00000000000E+00  0.91188000000E+02  0.91188000000E+02 0.  0.
    9900012    2    3    3    0    0 -0.35672679756E+02 -0.24939026799E+01  0.87755545271E+01  0.54367217976E+02  0.40000305019E+02 0.  0.
         12    1    3    3    0    0  0.35672679756E+02  0.24939026799E+01 -0.87755545271E+01  0.36820782024E+02  0.00000000000E+00 0. -1.
         11    1    4    4    0    0 -0.33940400273E+02 -0.69937712730E+01  0.13682376452E+02  0.37256825320E+02  0.51100000000E-03 0. -1.
        -11    1    4    4    0    0 -0.37474663335E+01  0.97253614342E+01 -0.14343028763E+01  0.10520617090E+02  0.51100000000E-03 0.  1.
        -12    1    4    4    0    0  0.20151868503E+01 -0.52254928411E+01 -0.34725190482E+01  0.65897755663E+01  0.00000000000E+00 0.  1.
</event>
<event>
 8    1  0.3146747E-007  0.9118800E+02  0.7816164E-02  0.1184000E+00
        -11   -1    0    0    0    0  0.00000000000E+00  0.00000000000E+00  0.45593999997E+02  0.45594000000E+02  0.51100000000E-03 0. -1.
         11   -1    0    0    0    0 -0.00000000000E+00 -0.00000000000E+00 -0.45593999997E+02  0.45594000000E+02  0.51100000000E-03 0.  1.
         23    2    1    2    0    0  0.88817841970E-15  0.00000000000E+00  0.71054273576E-14  0.91188000000E+02  0.91188000000E+02 0.  0.
    9900012    2    3    3    0    0 -0.75504195865E+01  0.67627438138E+01  0.35398182087E+02  0.54367152170E+02  0.40000155002E+02 0.  0.
        -12    1    3    3    0    0  0.75504195865E+01 -0.67627438138E+01 -0.35398182087E+02  0.36820847830E+02  0.00000000000E+00 0.  1.
         11    1    4    4    0    0  0.13182178462E+02 -0.53641571869E+01  0.10910669825E+02  0.17932839363E+02  0.51100000000E-03 0. -1.
        -11    1    4    4    0    0 -0.10885890212E+02  0.13140669669E+02  0.14900277470E+02  0.22653875474E+02  0.51100000000E-03 0.  1.
         12    1    4    4    0    0 -0.98467078368E+01 -0.10137686680E+01  0.95872347925E+01  0.13780437333E+02  0.00000000000E+00 0. -1.
</event>
<event>
 8    1  0.3146747E-007  0.9118800E+02  0.7816164E-02  0.1184000E+00
        -11   -1    0    0    0    0  0.00000000000E+00  0.00000000000E+00  0.45593999997E+02  0.45594000000E+02  0.51100000000E-03 0. -1.
         11   -1    0    0    0    0 -0.00000000000E+00 -0.00000000000E+00 -0.45593999997E+02  0.45594000000E+02  0.51100000000E-03 0.  1.
         23    2    1    2    0    0 -0.11102230246E-14 -0.88817841970E-15  0.00000000000E+00  0.91188000000E+02  0.91188000000E+02 0.  0.
    9900012    2    3    3    0    0 -0.12089276403E+01 -0.62812316213E+01  0.36261047918E+02  0.54367095981E+02  0.40000026907E+02 0.  0.
        -12    1    3    3    0    0  0.12089276403E+01  0.62812316213E+01 -0.36261047918E+02  0.36820904019E+02  0.00000000000E+00 0.  1.
         11    1    4    4    0    0  0.75255649281E+01  0.37575176259E+01  0.11939259905E+02  0.14604759277E+02  0.51100000000E-03 0. -1.
        -11    1    4    4    0    0  0.10244534125E+02 -0.56993158714E+01  0.66991932128E+01  0.13502291317E+02  0.51100000000E-03 0.  1.
        -12    1    4    4    0    0 -0.18979026693E+02 -0.43394333759E+01  0.17622594800E+02  0.26260045387E+02  0.00000000000E+00 0.  1.
</event>
<event>
 8    1  0.3146747E-007  0.9118800E+02  0.7816164E-02  0.1184000E+00
        -11   -1    0    0    0    0  0.00000000000E+00  0.00000000000E+00  0.45593999997E+02  0.45594000000E+02  0.51100000000E-03 0.  1.
         11   -1    0    0    0    0 -0.00000000000E+00 -0.00000000000E+00 -0.45593999997E+02  0.45594000000E+02  0.51100000000E-03 0. -1.
         23    2    1    2    0    0  0.00000000000E+00  0.44408920985E-15  0.35527136788E-14  0.91188000000E+02  0.91188000000E+02 0.  0.
    9900012    2    3    3    0    0 -0.19901185930E+02  0.26668416584E+01  0.30864359466E+02  0.54367110126E+02  0.40000059155E+02 0.  0.
         12    1    3    3    0    0  0.19901185930E+02 -0.26668416584E+01 -0.30864359466E+02  0.36820889874E+02  0.00000000000E+00 0. -1.
         11    1    4    4    0    0  0.14007263520E+01 -0.40665733683E+01  0.12077845327E+02  0.12820819056E+02  0.51100000000E-03 0. -1.
        -11    1    4    4    0    0  0.43462330129E+01 -0.26076218832E+01 -0.36224955271E+01  0.62299203361E+01  0.51100000000E-03 0.  1.
        -12    1    4    4    0    0 -0.25648145295E+02  0.93410369098E+01  0.22409009666E+02  0.35316370734E+02  0.00000000000E+00 0.  1.
</event>
<event>
 8    1  0.3146747E-007  0.9118800E+02  0.7816164E-02  0.1184000E+00
        -11   -1    0    0    0    0  0.00000000000E+00  0.00000000000E+00  0.45593999997E+02  0.45594000000E+02  0.51100000000E-03 0.  1.
         11   -1    0    0    0    0 -0.00000000000E+00 -0.00000000000E+00 -0.45593999997E+02  0.45594000000E+02  0.51100000000E-03 0. -1.
         23    2    1    2    0    0  0.00000000000E+00  0.00000000000E+00  0.00000000000E+00  0.91188000000E+02  0.91188000000E+02 0.  0.
    9900012    2    3    3    0    0 -0.23667925350E+02  0.18178070575E+02  0.21567696340E+02  0.54367102868E+02  0.40000042608E+02 0.  0.
         12    1    3    3    0    0  0.23667925350E+02 -0.18178070575E+02 -0.21567696340E+02  0.36820897132E+02  0.00000000000E+00 0. -1.
         11    1    4    4    0    0  0.71518547040E+01  0.25036947991E+01  0.73026373103E+01  0.10523593745E+02  0.51100000000E-03 0. -1.
        -11    1    4    4    0    0 -0.66772250351E+01 -0.57842290540E+01  0.53785204062E+01  0.10342684465E+02  0.51100000000E-03 0.  1.
        -12    1    4    4    0    0 -0.24142555019E+02  0.21458604830E+02  0.88865386237E+01  0.33500824658E+02  0.00000000000E+00 0.  1.
</event>
<event>
 8    1  0.3146747E-007  0.9118800E+02  0.7816164E-02  0.1184000E+00
        -11   -1    0    0    0    0  0.00000000000E+00  0.00000000000E+00  0.45593999997E+02  0.45594000000E+02  0.51100000000E-03 0.  1.
         11   -1    0    0    0    0 -0.00000000000E+00 -0.00000000000E+00 -0.45593999997E+02  0.45594000000E+02  0.51100000000E-03 0. -1.
         23    2    1    2    0    0  0.00000000000E+00  0.00000000000E+00 -0.35527136788E-14  0.91188000000E+02  0.91188000000E+02 0.  0.
    9900012    2    3    3    0    0 -0.99883316378E+01  0.27944828417E+02  0.21796784634E+02  0.54367081699E+02  0.39999994349E+02 0.  0.
         12    1    3    3    0    0  0.99883316378E+01 -0.27944828417E+02 -0.21796784634E+02  0.36820918301E+02  0.00000000000E+00 0. -1.
         11    1    4    4    0    0 -0.68793386827E+01 -0.83701253912E+00  0.15811444862E+02  0.17263478201E+02  0.51100000000E-03 0. -1.
        -11    1    4    4    0    0  0.37810756969E+01  0.18969467641E+02  0.12912430676E+02  0.23256571162E+02  0.51100000000E-03 0.  1.
         12    1    4    4    0    0 -0.68900686520E+01  0.98123733150E+01 -0.69270909040E+01  0.13847032335E+02  0.00000000000E+00 0. -1.
</event>
<event>
 8    1  0.3146747E-007  0.9118800E+02  0.7816164E-02  0.1184000E+00
        -11   -1    0    0    0    0  0.00000000000E+00  0.00000000000E+00  0.45593999997E+02  0.45594000000E+02  0.51100000000E-03 0. -1.
         11   -1    0    0    0    0 -0.00000000000E+00 -0.00000000000E+00 -0.45593999997E+02  0.45594000000E+02  0.51100000000E-03 0.  1.
         23    2    1    2    0    0  0.35527136788E-14  0.00000000000E+00  0.00000000000E+00  0.91188000000E+02  0.91188000000E+02 0.  0.
    9900012    2    3    3    0    0  0.29134440473E+02 -0.16418881468E+02 -0.15407303773E+02  0.54367077959E+02  0.39999985824E+02 0.  0.
         12    1    3    3    0    0 -0.29134440473E+02  0.16418881468E+02  0.15407303773E+02  0.36820922041E+02  0.00000000000E+00 0. -1.
         11    1    4    4    0    0  0.25192814377E+02 -0.23250413499E+01 -0.43145893057E+01  0.25665139677E+02  0.51100000000E-03 0. -1.
        -11    1    4    4    0    0  0.64165000444E+01  0.25202718014E+01  0.22483783073E+01  0.72510997818E+01  0.51100000000E-03 0.  1.
        -12    1    4    4    0    0 -0.24748739476E+01 -0.16614111920E+02 -0.13341092775E+02  0.21450838501E+02  0.00000000000E+00 0.  1.
</event>
<event>
 8    1  0.3146747E-007  0.9118800E+02  0.7816164E-02  0.1184000E+00
        -11   -1    0    0    0    0  0.00000000000E+00  0.00000000000E+00  0.45593999997E+02  0.45594000000E+02  0.51100000000E-03 0. -1.
         11   -1    0    0    0    0 -0.00000000000E+00 -0.00000000000E+00 -0.45593999997E+02  0.45594000000E+02  0.51100000000E-03 0.  1.
         23    2    1    2    0    0  0.71054273576E-14 -0.12212453271E-14  0.88817841970E-15  0.91188000000E+02  0.91188000000E+02 0.  0.
    9900012    2    3    3    0    0 -0.36761627410E+02  0.37316516110E+00  0.20546857863E+01  0.54367105990E+02  0.40000049725E+02 0.  0.
        -12    1    3    3    0    0  0.36761627410E+02 -0.37316516110E+00 -0.20546857863E+01  0.36820894010E+02  0.00000000000E+00 0.  1.
         11    1    4    4    0    0 -0.19945902230E+02  0.13277978149E+02  0.86210443268E+01  0.25464998037E+02  0.51100000000E-03 0. -1.
        -11    1    4    4    0    0 -0.16461189792E+02 -0.36108182540E+01 -0.92469494070E+01  0.19222769089E+02  0.51100000000E-03 0.  1.
         12    1    4    4    0    0 -0.35453538762E+00 -0.92939947337E+01  0.26805908664E+01  0.96793388640E+01  0.00000000000E+00 0. -1.
</event>
<event>
 8    1  0.3146747E-007  0.9118800E+02  0.7816164E-02  0.1184000E+00
        -11   -1    0    0    0    0  0.00000000000E+00  0.00000000000E+00  0.45593999997E+02  0.45594000000E+02  0.51100000000E-03 0.  1.
         11   -1    0    0    0    0 -0.00000000000E+00 -0.00000000000E+00 -0.45593999997E+02  0.45594000000E+02  0.51100000000E-03 0. -1.
         23    2    1    2    0    0  0.00000000000E+00  0.00000000000E+00 -0.71054273576E-14  0.91188000000E+02  0.91188000000E+02 0.  0.
    9900012    2    3    3    0    0  0.21718505159E+02  0.23095275336E+01  0.29643758626E+02  0.54367084623E+02  0.40000001014E+02 0.  0.
         12    1    3    3    0    0 -0.21718505159E+02 -0.23095275336E+01 -0.29643758626E+02  0.36820915377E+02  0.00000000000E+00 0. -1.
         11    1    4    4    0    0 -0.62192565421E+01 -0.67980858200E+01  0.19603534792E+02  0.21660833302E+02  0.51100000000E-03 0. -1.
        -11    1    4    4    0    0  0.50583736231E+01  0.49226611174E+00 -0.19911670714E+01  0.54584078451E+01  0.51100000000E-03 0.  1.
        -12    1    4    4    0    0  0.22879388078E+02  0.86153472419E+01  0.12031390905E+02  0.27247843475E+02  0.00000000000E+00 0.  1.
</event>
<event>
 8    1  0.3146747E-007  0.9118800E+02  0.7816164E-02  0.1184000E+00
        -11   -1    0    0    0    0  0.00000000000E+00  0.00000000000E+00  0.45593999997E+02  0.45594000000E+02  0.51100000000E-03 0. -1.
         11   -1    0    0    0    0 -0.00000000000E+00 -0.00000000000E+00 -0.45593999997E+02  0.45594000000E+02  0.51100000000E-03 0.  1.
         23    2    1    2    0    0 -0.71054273576E-14 -0.22204460493E-15  0.88817841970E-15  0.91188000000E+02  0.91188000000E+02 0.  0.
    9900012    2    3    3    0    0  0.36629482315E+02  0.69472670303E+00 -0.36848592501E+01  0.54367084645E+02  0.40000001065E+02 0.  0.
         12    1    3    3    0    0 -0.36629482315E+02 -0.69472670303E+00  0.36848592501E+01  0.36820915355E+02  0.00000000000E+00 0. -1.
         11    1    4    4    0    0  0.32991141687E+02  0.82453011270E+01  0.12266911926E+02  0.36150761388E+02  0.51100000000E-03 0. -1.
        -11    1    4    4    0    0  0.12745195750E+01 -0.42008369928E+01 -0.10612254624E+02  0.11484397244E+02  0.51100000000E-03 0.  1.
         12    1    4    4    0    0  0.23638210539E+01 -0.33497374312E+01 -0.53395165522E+01  0.67319260130E+01  0.00000000000E+00 0. -1.
</event>
<event>
 8    1  0.3146747E-007  0.9118800E+02  0.7816164E-02  0.1184000E+00
        -11   -1    0    0    0    0  0.00000000000E+00  0.00000000000E+00  0.45593999997E+02  0.45594000000E+02  0.51100000000E-03 0. -1.
         11   -1    0    0    0    0 -0.00000000000E+00 -0.00000000000E+00 -0.45593999997E+02  0.45594000000E+02  0.51100000000E-03 0.  1.
         23    2    1    2    0    0  0.00000000000E+00  0.00000000000E+00  0.35527136788E-14  0.91188000000E+02  0.91188000000E+02 0.  0.
    9900012    2    3    3    0    0 -0.34856837235E+01  0.18754590225E+02 -0.31494367496E+02  0.54367084347E+02  0.40000000385E+02 0.  0.
         12    1    3    3    0    0  0.34856837235E+01 -0.18754590225E+02  0.31494367496E+02  0.36820915653E+02  0.00000000000E+00 0. -1.
         11    1    4    4    0    0  0.12897396411E+02  0.27644403653E+01 -0.10437796531E+02  0.16820599317E+02  0.51100000000E-03 0. -1.
        -11    1    4    4    0    0 -0.68353882894E+01  0.63836429777E+01 -0.22064522698E+02  0.23964903356E+02  0.51100000000E-03 0.  1.
        -12    1    4    4    0    0 -0.95476918449E+01  0.96065068825E+01  0.10079517326E+01  0.13581581673E+02  0.00000000000E+00 0.  1.
</event>
<event>
 8    1  0.3146747E-007  0.9118800E+02  0.7816164E-02  0.1184000E+00
        -11   -1    0    0    0    0  0.00000000000E+00  0.00000000000E+00  0.45593999997E+02  0.45594000000E+02  0.51100000000E-03 0.  1.
         11   -1    0    0    0    0 -0.00000000000E+00 -0.00000000000E+00 -0.45593999997E+02  0.45594000000E+02  0.51100000000E-03 0. -1.
         23    2    1    2    0    0  0.00000000000E+00 -0.16653345369E-14  0.00000000000E+00  0.91188000000E+02  0.91188000000E+02 0.  0.
    9900012    2    3    3    0    0  0.31414441376E+02 -0.80549351099E+00  0.19190188041E+02  0.54367092029E+02  0.40000017898E+02 0.  0.
         12    1    3    3    0    0 -0.31414441376E+02  0.80549351099E+00 -0.19190188041E+02  0.36820907971E+02  0.00000000000E+00 0. -1.
         11    1    4    4    0    0  0.10852521386E+02  0.11746729024E+02 -0.77164715291E+01  0.17756880253E+02  0.51100000000E-03 0. -1.
        -11    1    4    4    0    0  0.87446062686E+01 -0.20227772698E+01  0.10499156019E+02  0.13812749330E+02  0.51100000000E-03 0.  1.
         12    1    4    4    0    0  0.11817313721E+02 -0.10529445265E+02  0.16407503551E+02  0.22797462446E+02  0.00000000000E+00 0. -1.
</event>
<event>
 8    1  0.3146747E-007  0.9118800E+02  0.7816164E-02  0.1184000E+00
        -11   -1    0    0    0    0  0.00000000000E+00  0.00000000000E+00  0.45593999997E+02  0.45594000000E+02  0.51100000000E-03 0.  1.
         11   -1    0    0    0    0 -0.00000000000E+00 -0.00000000000E+00 -0.45593999997E+02  0.45594000000E+02  0.51100000000E-03 0. -1.
         23    2    1    2    0    0  0.00000000000E+00  0.35527136788E-14  0.00000000000E+00  0.91188000000E+02  0.91188000000E+02 0.  0.
    9900012    2    3    3    0    0 -0.61004524714E+01  0.28786315431E+02 -0.22133975095E+02  0.54367077552E+02  0.39999984895E+02 0.  0.
        -12    1    3    3    0    0  0.61004524714E+01 -0.28786315431E+02  0.22133975095E+02  0.36820922448E+02  0.00000000000E+00 0.  1.
         11    1    4    4    0    0  0.18134930446E+01 -0.39174571938E+01  0.32698548030E+01  0.54154573751E+01  0.51100000000E-03 0.  1.
        -11    1    4    4    0    0  0.18412769274E-01  0.26112897030E+02 -0.28030517183E+02  0.38309184593E+02  0.51100000000E-03 0. -1.
        -12    1    4    4    0    0 -0.79323582853E+01  0.65908755944E+01  0.26266872849E+01  0.10642435584E+02  0.00000000000E+00 0.  1.
</event>
<event>
 8    1  0.3146747E-007  0.9118800E+02  0.7816164E-02  0.1184000E+00
        -11   -1    0    0    0    0  0.00000000000E+00  0.00000000000E+00  0.45593999997E+02  0.45594000000E+02  0.51100000000E-03 0.  1.
         11   -1    0    0    0    0 -0.00000000000E+00 -0.00000000000E+00 -0.45593999997E+02  0.45594000000E+02  0.51100000000E-03 0. -1.
         23    2    1    2    0    0  0.00000000000E+00  0.00000000000E+00  0.00000000000E+00  0.91188000000E+02  0.91188000000E+02 0.  0.
    9900012    2    3    3    0    0 -0.64708939857E+01 -0.29762032614E+02  0.20691245052E+02  0.54367100010E+02  0.40000036093E+02 0.  0.
        -12    1    3    3    0    0  0.64708939857E+01  0.29762032614E+02 -0.20691245052E+02  0.36820899990E+02  0.00000000000E+00 0.  1.
         11    1    4    4    0    0  0.84245444604E+00  0.26698827870E+00 -0.34311152074E+01  0.35431009105E+01  0.51100000000E-03 0. -1.
        -11    1    4    4    0    0  0.11776953443E+02 -0.68714648721E+01  0.25698486061E+01  0.13875077802E+02  0.51100000000E-03 0.  1.
         12    1    4    4    0    0 -0.19090301875E+02 -0.23157556020E+02  0.21552511653E+02  0.36948921298E+02  0.00000000000E+00 0. -1.
</event>
<event>
 8    1  0.3146747E-007  0.9118800E+02  0.7816164E-02  0.1184000E+00
        -11   -1    0    0    0    0  0.00000000000E+00  0.00000000000E+00  0.45593999997E+02  0.45594000000E+02  0.51100000000E-03 0.  1.
         11   -1    0    0    0    0 -0.00000000000E+00 -0.00000000000E+00 -0.45593999997E+02  0.45594000000E+02  0.51100000000E-03 0. -1.
         23    2    1    2    0    0  0.00000000000E+00 -0.88817841970E-15 -0.35527136788E-14  0.91188000000E+02  0.91188000000E+02 0.  0.
    9900012    2    3    3    0    0 -0.18153309882E+02  0.20967635362E+01  0.31966282174E+02  0.54367051166E+02  0.39999924744E+02 0.  0.
         12    1    3    3    0    0  0.18153309882E+02 -0.20967635362E+01 -0.31966282174E+02  0.36820948834E+02  0.00000000000E+00 0. -1.
         11    1    4    4    0    0 -0.59577467704E+01 -0.13545224191E+02  0.41740261924E+00  0.14803447915E+02  0.51100000000E-03 0. -1.
        -11    1    4    4    0    0  0.58133055163E+00 -0.12799183117E+01 -0.16382730219E+00  0.14152652547E+01  0.51100000000E-03 0.  1.
        -12    1    4    4    0    0 -0.12776893663E+02  0.16921906039E+02  0.31712706857E+02  0.38148337996E+02  0.00000000000E+00 0.  1.
</event>
<event>
 8    1  0.3146747E-007  0.9118800E+02  0.7816164E-02  0.1184000E+00
        -11   -1    0    0    0    0  0.00000000000E+00  0.00000000000E+00  0.45593999997E+02  0.45594000000E+02  0.51100000000E-03 0.  1.
         11   -1    0    0    0    0 -0.00000000000E+00 -0.00000000000E+00 -0.45593999997E+02  0.45594000000E+02  0.51100000000E-03 0. -1.
         23    2    1    2    0    0 -0.88817841970E-15  0.00000000000E+00  0.00000000000E+00  0.91188000000E+02  0.91188000000E+02 0.  0.
    9900012    2    3    3    0    0 -0.78896976191E+01 -0.99372252448E+01 -0.34565656598E+02  0.54367076734E+02  0.39999983031E+02 0.  0.
        -12    1    3    3    0    0  0.78896976191E+01  0.99372252448E+01  0.34565656598E+02  0.36820923266E+02  0.00000000000E+00 0.  1.
         11    1    4    4    0    0  0.22166033034E+01  0.34460752808E+01  0.59642111369E+01  0.72360610688E+01  0.51100000000E-03 0. -1.
        -11    1    4    4    0    0 -0.23092906770E+01 -0.14150628805E+02 -0.16515191309E+02  0.21870634724E+02  0.51100000000E-03 0.  1.
         12    1    4    4    0    0 -0.77970102455E+01  0.76732827952E+00 -0.24014676426E+02  0.25260380941E+02  0.00000000000E+00 0. -1.
</event>
<event>
 8    1  0.3146747E-007  0.9118800E+02  0.7816164E-02  0.1184000E+00
        -11   -1    0    0    0    0  0.00000000000E+00  0.00000000000E+00  0.45593999997E+02  0.45594000000E+02  0.51100000000E-03 0.  1.
         11   -1    0    0    0    0 -0.00000000000E+00 -0.00000000000E+00 -0.45593999997E+02  0.45594000000E+02  0.51100000000E-03 0. -1.
         23    2    1    2    0    0  0.71054273576E-14  0.35527136788E-14 -0.88817841970E-15  0.91188000000E+02  0.91188000000E+02 0.  0.
    9900012    2    3    3    0    0  0.33399430543E+02  0.15115417142E+02 -0.34325414205E+01  0.54367080178E+02  0.39999990881E+02 0.  0.
        -12    1    3    3    0    0 -0.33399430543E+02 -0.15115417142E+02  0.34325414205E+01  0.36820919822E+02  0.00000000000E+00 0.  1.
         11    1    4    4    0    0  0.49087642906E+01  0.12563625321E+02 -0.60419964373E+01  0.14779931302E+02  0.51100000000E-03 0. -1.
        -11    1    4    4    0    0  0.99452320443E+01 -0.11627870164E+02  0.50550936555E+01  0.16114247643E+02  0.51100000000E-03 0.  1.
         12    1    4    4    0    0  0.18545434208E+02  0.14179661985E+02 -0.24456386386E+01  0.23472901233E+02  0.00000000000E+00 0. -1.
</event>
<event>
 8    1  0.3146747E-007  0.9118800E+02  0.7816164E-02  0.1184000E+00
        -11   -1    0    0    0    0  0.00000000000E+00  0.00000000000E+00  0.45593999997E+02  0.45594000000E+02  0.51100000000E-03 0. -1.
         11   -1    0    0    0    0 -0.00000000000E+00 -0.00000000000E+00 -0.45593999997E+02  0.45594000000E+02  0.51100000000E-03 0.  1.
         23    2    1    2    0    0  0.88817841970E-15  0.71054273576E-14  0.17763568394E-14  0.91188000000E+02  0.91188000000E+02 0.  0.
    9900012    2    3    3    0    0 -0.42454651989E+01 -0.33178922557E+02  0.15392045680E+02  0.54367082751E+02  0.39999996748E+02 0.  0.
        -12    1    3    3    0    0  0.42454651989E+01  0.33178922557E+02 -0.15392045680E+02  0.36820917249E+02  0.00000000000E+00 0.  1.
         11    1    4    4    0    0  0.53753450544E+01 -0.33196383832E+02 -0.79605656505E-02  0.33628771872E+02  0.51100000000E-03 0. -1.
        -11    1    4    4    0    0 -0.91562399137E+01 -0.35309455029E+01  0.85754636666E+01  0.13032378250E+02  0.51100000000E-03 0.  1.
        -12    1    4    4    0    0 -0.46457033957E+00  0.35484067780E+01  0.68245425791E+01  0.77059326286E+01  0.00000000000E+00 0.  1.
</event>
<event>
 8    1  0.3146747E-007  0.9118800E+02  0.7816164E-02  0.1184000E+00
        -11   -1    0    0    0    0  0.00000000000E+00  0.00000000000E+00  0.45593999997E+02  0.45594000000E+02  0.51100000000E-03 0. -1.
         11   -1    0    0    0    0 -0.00000000000E+00 -0.00000000000E+00 -0.45593999997E+02  0.45594000000E+02  0.51100000000E-03 0.  1.
         23    2    1    2    0    0 -0.44408920985E-15  0.00000000000E+00  0.35527136788E-14  0.91188000000E+02  0.91188000000E+02 0.  0.
    9900012    2    3    3    0    0 -0.28256499051E+01 -0.23681014122E+02  0.28053500058E+02  0.54367169038E+02  0.40000193456E+02 0.  0.
        -12    1    3    3    0    0  0.28256499051E+01  0.23681014122E+02 -0.28053500058E+02  0.36820830962E+02  0.00000000000E+00 0.  1.
         11    1    4    4    0    0 -0.11883645302E+02 -0.45496151607E+00  0.19671665220E+01  0.12053952050E+02  0.51100000000E-03 0. -1.
        -11    1    4    4    0    0 -0.52566682886E+01 -0.24694144217E+00  0.86054224544E+01  0.10086963738E+02  0.51100000000E-03 0.  1.
        -12    1    4    4    0    0  0.14314663685E+02 -0.22979111163E+02  0.17480911082E+02  0.32226253250E+02  0.00000000000E+00 0.  1.
</event>
<event>
 8    1  0.3146747E-007  0.9118800E+02  0.7816164E-02  0.1184000E+00
        -11   -1    0    0    0    0  0.00000000000E+00  0.00000000000E+00  0.45593999997E+02  0.45594000000E+02  0.51100000000E-03 0.  1.
         11   -1    0    0    0    0 -0.00000000000E+00 -0.00000000000E+00 -0.45593999997E+02  0.45594000000E+02  0.51100000000E-03 0. -1.
         23    2    1    2    0    0  0.35527136788E-14 -0.35527136788E-14  0.00000000000E+00  0.91188000000E+02  0.91188000000E+02 0.  0.
    9900012    2    3    3    0    0 -0.27905450383E+02  0.18876435135E+02  0.14857508094E+02  0.54367088669E+02  0.40000010238E+02 0.  0.
         12    1    3    3    0    0  0.27905450383E+02 -0.18876435135E+02 -0.14857508094E+02  0.36820911331E+02  0.00000000000E+00 0. -1.
         11    1    4    4    0    0 -0.21687229310E+01  0.18818471937E+02  0.12620097541E+01  0.18985018148E+02  0.51100000000E-03 0. -1.
        -11    1    4    4    0    0 -0.12364033478E+02  0.11138718568E+01 -0.41925560350E+01  0.13102959999E+02  0.51100000000E-03 0.  1.
        -12    1    4    4    0    0 -0.13372693974E+02 -0.10559086581E+01  0.17788054375E+02  0.22279110522E+02  0.00000000000E+00 0.  1.
</event>
<event>
 8    1  0.3146747E-007  0.9118800E+02  0.7816164E-02  0.1184000E+00
        -11   -1    0    0    0    0  0.00000000000E+00  0.00000000000E+00  0.45593999997E+02  0.45594000000E+02  0.51100000000E-03 0. -1.
         11   -1    0    0    0    0 -0.00000000000E+00 -0.00000000000E+00 -0.45593999997E+02  0.45594000000E+02  0.51100000000E-03 0.  1.
         23    2    1    2    0    0  0.00000000000E+00  0.44408920985E-15  0.00000000000E+00  0.91188000000E+02  0.91188000000E+02 0.  0.
    9900012    2    3    3    0    0 -0.23145766300E+02  0.93491649097E+00  0.28621268042E+02  0.54367115290E+02  0.40000070926E+02 0.  0.
        -12    1    3    3    0    0  0.23145766300E+02 -0.93491649097E+00 -0.28621268042E+02  0.36820884710E+02  0.00000000000E+00 0.  1.
         11    1    4    4    0    0 -0.21141265570E+02 -0.38797568409E+01  0.18737174691E+02  0.28514686369E+02  0.51100000000E-03 0. -1.
        -11    1    4    4    0    0  0.72745973285E+01 -0.50885029877E+01  0.83629098972E+01  0.12196347452E+02  0.51100000000E-03 0.  1.
        -12    1    4    4    0    0 -0.92790980587E+01  0.99031763196E+01  0.15211834539E+01  0.13656081469E+02  0.00000000000E+00 0.  1.
</event>
<event>
 8    1  0.3146747E-007  0.9118800E+02  0.7816164E-02  0.1184000E+00
        -11   -1    0    0    0    0  0.00000000000E+00  0.00000000000E+00  0.45593999997E+02  0.45594000000E+02  0.51100000000E-03 0. -1.
         11   -1    0    0    0    0 -0.00000000000E+00 -0.00000000000E+00 -0.45593999997E+02  0.45594000000E+02  0.51100000000E-03 0.  1.
         23    2    1    2    0    0  0.00000000000E+00  0.35527136788E-14  0.00000000000E+00  0.91188000000E+02  0.91188000000E+02 0.  0.
    9900012    2    3    3    0    0 -0.27196631089E+02  0.21425879187E+02  0.12532427956E+02  0.54366989802E+02  0.39999784852E+02 0.  0.
         12    1    3    3    0    0  0.27196631089E+02 -0.21425879187E+02 -0.12532427956E+02  0.36821010198E+02  0.00000000000E+00 0. -1.
         11    1    4    4    0    0 -0.21982836978E+02  0.60802894873E+01  0.10002213412E+02  0.24905005827E+02  0.51100000000E-03 0. -1.
        -11    1    4    4    0    0  0.20404102761E-02  0.43478671341E+01 -0.10660745150E+02  0.11513272349E+02  0.51100000000E-03 0.  1.
         12    1    4    4    0    0 -0.52158345213E+01  0.10997722565E+02  0.13190959694E+02  0.17948711626E+02  0.00000000000E+00 0. -1.
</event>
<event>
 8    1  0.3146747E-007  0.9118800E+02  0.7816164E-02  0.1184000E+00
        -11   -1    0    0    0    0  0.00000000000E+00  0.00000000000E+00  0.45593999997E+02  0.45594000000E+02  0.51100000000E-03 0. -1.
         11   -1    0    0    0    0 -0.00000000000E+00 -0.00000000000E+00 -0.45593999997E+02  0.45594000000E+02  0.51100000000E-03 0.  1.
         23    2    1    2    0    0  0.35527136788E-14 -0.35527136788E-14 -0.35527136788E-14  0.91188000000E+02  0.91188000000E+02 0.  0.
    9900012    2    3    3    0    0 -0.20150722947E+02  0.25312092677E+02  0.17579125235E+02  0.54367091334E+02  0.40000016314E+02 0.  0.
        -12    1    3    3    0    0  0.20150722947E+02 -0.25312092677E+02 -0.17579125235E+02  0.36820908666E+02  0.00000000000E+00 0.  1.
         11    1    4    4    0    0  0.66511131289E+01  0.13273270364E+02  0.23494947586E+01  0.15031205470E+02  0.51100000000E-03 0. -1.
        -11    1    4    4    0    0 -0.80919130237E+01 -0.58603398381E+01  0.17458926398E+01  0.10142523393E+02  0.51100000000E-03 0.  1.
        -12    1    4    4    0    0 -0.18709923052E+02  0.17899162151E+02  0.13483737836E+02  0.29193362471E+02  0.00000000000E+00 0.  1.
</event>
<event>
 8    1  0.3146747E-007  0.9118800E+02  0.7816164E-02  0.1184000E+00
        -11   -1    0    0    0    0  0.00000000000E+00  0.00000000000E+00  0.45593999997E+02  0.45594000000E+02  0.51100000000E-03 0.  1.
         11   -1    0    0    0    0 -0.00000000000E+00 -0.00000000000E+00 -0.45593999997E+02  0.45594000000E+02  0.51100000000E-03 0. -1.
         23    2    1    2    0    0 -0.17763568394E-14 -0.35527136788E-14  0.00000000000E+00  0.91188000000E+02  0.91188000000E+02 0.  0.
    9900012    2    3    3    0    0 -0.95395206288E+01 -0.20723755771E+02  0.28901564529E+02  0.54367123594E+02  0.40000089856E+02 0.  0.
         12    1    3    3    0    0  0.95395206288E+01  0.20723755771E+02 -0.28901564529E+02  0.36820876406E+02  0.00000000000E+00 0. -1.
         11    1    4    4    0    0  0.90312568287E+01 -0.74733187711E+01 -0.39905909283E+01  0.12383008906E+02  0.51100000000E-03 0. -1.
        -11    1    4    4    0    0 -0.79005404146E+01 -0.53495631772E+01  0.43116840875E+01  0.10470290586E+02  0.51100000000E-03 0.  1.
         12    1    4    4    0    0 -0.10670237043E+02 -0.79008738232E+01  0.28580471370E+02  0.31513824101E+02  0.00000000000E+00 0. -1.
</event>
<event>
 8    1  0.3146747E-007  0.9118800E+02  0.7816164E-02  0.1184000E+00
        -11   -1    0    0    0    0  0.00000000000E+00  0.00000000000E+00  0.45593999997E+02  0.45594000000E+02  0.51100000000E-03 0.  1.
         11   -1    0    0    0    0 -0.00000000000E+00 -0.00000000000E+00 -0.45593999997E+02  0.45594000000E+02  0.51100000000E-03 0. -1.
         23    2    1    2    0    0  0.17763568394E-14 -0.35527136788E-14  0.00000000000E+00  0.91188000000E+02  0.91188000000E+02 0.  0.
    9900012    2    3    3    0    0  0.15890232591E+02  0.21972226034E+02  0.24909863777E+02  0.54367088522E+02  0.40000009904E+02 0.  0.
         12    1    3    3    0    0 -0.15890232591E+02 -0.21972226034E+02 -0.24909863777E+02  0.36820911478E+02  0.00000000000E+00 0. -1.
         11    1    4    4    0    0 -0.46852267229E+01  0.98131905507E+01 -0.23350825605E+01  0.11122170159E+02  0.51100000000E-03 0. -1.
        -11    1    4    4    0    0  0.79294692825E+01  0.10812179554E+02  0.25702395303E+00  0.13410658872E+02  0.51100000000E-03 0.  1.
        -12    1    4    4    0    0  0.12645990031E+02  0.13468559293E+01  0.26987922384E+02  0.29834259491E+02  0.00000000000E+00 0.  1.
</event>
<event>
 8    1  0.3146747E-007  0.9118800E+02  0.7816164E-02  0.1184000E+00
        -11   -1    0    0    0    0  0.00000000000E+00  0.00000000000E+00  0.45593999997E+02  0.45594000000E+02  0.51100000000E-03 0. -1.
         11   -1    0    0    0    0 -0.00000000000E+00 -0.00000000000E+00 -0.45593999997E+02  0.45594000000E+02  0.51100000000E-03 0.  1.
         23    2    1    2    0    0  0.35527136788E-14  0.00000000000E+00  0.17763568394E-14  0.91188000000E+02  0.91188000000E+02 0.  0.
    9900012    2    3    3    0    0  0.30715558232E+02  0.15912178729E+02 -0.12615021999E+02  0.54367058547E+02  0.39999941570E+02 0.  0.
        -12    1    3    3    0    0 -0.30715558232E+02 -0.15912178729E+02  0.12615021999E+02  0.36820941453E+02  0.00000000000E+00 0.  1.
         11    1    4    4    0    0  0.11618348471E+02  0.20651974065E+00 -0.14506977492E+02  0.18587121020E+02  0.51100000000E-03 0. -1.
        -11    1    4    4    0    0  0.25058980902E+02  0.10519972984E+02  0.43088130321E+01  0.27517053357E+02  0.51100000000E-03 0.  1.
         12    1    4    4    0    0 -0.59617711403E+01  0.51856860039E+01 -0.24168575394E+01  0.82628841712E+01  0.00000000000E+00 0. -1.
</event>
<event>
 8    1  0.3146747E-007  0.9118800E+02  0.7816164E-02  0.1184000E+00
        -11   -1    0    0    0    0  0.00000000000E+00  0.00000000000E+00  0.45593999997E+02  0.45594000000E+02  0.51100000000E-03 0.  1.
         11   -1    0    0    0    0 -0.00000000000E+00 -0.00000000000E+00 -0.45593999997E+02  0.45594000000E+02  0.51100000000E-03 0. -1.
         23    2    1    2    0    0  0.35527136788E-14  0.88817841970E-15  0.00000000000E+00  0.91188000000E+02  0.91188000000E+02 0.  0.
    9900012    2    3    3    0    0 -0.26251778725E+02 -0.78733535206E+01 -0.24589317434E+02  0.54367080487E+02  0.39999991586E+02 0.  0.
         12    1    3    3    0    0  0.26251778725E+02  0.78733535206E+01  0.24589317434E+02  0.36820919513E+02  0.00000000000E+00 0. -1.
         11    1    4    4    0    0 -0.19601283322E+02 -0.36441593972E+01 -0.19295431790E+02  0.27745340037E+02  0.51100000000E-03 0. -1.
        -11    1    4    4    0    0 -0.75943065211E+00  0.39028221492E+01 -0.13235148291E+02  0.13819475612E+02  0.51100000000E-03 0.  1.
        -12    1    4    4    0    0 -0.58910647508E+01 -0.81320162726E+01  0.79412626461E+01  0.12802264838E+02  0.00000000000E+00 0.  1.
</event>
<event>
 8    1  0.3146747E-007  0.9118800E+02  0.7816164E-02  0.1184000E+00
        -11   -1    0    0    0    0  0.00000000000E+00  0.00000000000E+00  0.45593999997E+02  0.45594000000E+02  0.51100000000E-03 0. -1.
         11   -1    0    0    0    0 -0.00000000000E+00 -0.00000000000E+00 -0.45593999997E+02  0.45594000000E+02  0.51100000000E-03 0.  1.
         23    2    1    2    0    0  0.00000000000E+00 -0.88817841970E-15 -0.44408920985E-15  0.91188000000E+02  0.91188000000E+02 0.  0.
    9900012    2    3    3    0    0 -0.36076150388E+02 -0.68689530359E+01 -0.26657133492E+01  0.54367120458E+02  0.40000082708E+02 0.  0.
         12    1    3    3    0    0  0.36076150388E+02  0.68689530359E+01  0.26657133492E+01  0.36820879542E+02  0.00000000000E+00 0. -1.
         11    1    4    4    0    0 -0.26783152515E+02 -0.54331487582E+01  0.20768055055E+01  0.27407471343E+02  0.51100000000E-03 0. -1.
        -11    1    4    4    0    0 -0.19819263357E+01  0.25505561400E+01 -0.14081537405E+02  0.14447251108E+02  0.51100000000E-03 0.  1.
         12    1    4    4    0    0 -0.73110715369E+01 -0.39863604176E+01  0.93390185502E+01  0.12512398007E+02  0.00000000000E+00 0. -1.
</event>
<event>
 8    1  0.3146747E-007  0.9118800E+02  0.7816164E-02  0.1184000E+00
        -11   -1    0    0    0    0  0.00000000000E+00  0.00000000000E+00  0.45593999997E+02  0.45594000000E+02  0.51100000000E-03 0. -1.
         11   -1    0    0    0    0 -0.00000000000E+00 -0.00000000000E+00 -0.45593999997E+02  0.45594000000E+02  0.51100000000E-03 0.  1.
         23    2    1    2    0    0 -0.15543122345E-14  0.88817841970E-15  0.00000000000E+00  0.91188000000E+02  0.91188000000E+02 0.  0.
    9900012    2    3    3    0    0 -0.16623574935E+01 -0.48126636176E+01 -0.36467166602E+02  0.54367090131E+02  0.40000013573E+02 0.  0.
         12    1    3    3    0    0  0.16623574935E+01  0.48126636176E+01  0.36467166602E+02  0.36820909869E+02  0.00000000000E+00 0. -1.
         11    1    4    4    0    0 -0.10643035777E+01  0.70128259783E+01 -0.32557268611E+02  0.33320987530E+02  0.51100000000E-03 0. -1.
        -11    1    4    4    0    0  0.71765901891E+01 -0.58203869899E+01 -0.59802683787E+01  0.11006541764E+02  0.51100000000E-03 0.  1.
         12    1    4    4    0    0 -0.77746441049E+01 -0.60051026059E+01  0.20703703875E+01  0.10039560837E+02  0.00000000000E+00 0. -1.
</event>
<event>
 8    1  0.3146747E-007  0.9118800E+02  0.7816164E-02  0.1184000E+00
        -11   -1    0    0    0    0  0.00000000000E+00  0.00000000000E+00  0.45593999997E+02  0.45594000000E+02  0.51100000000E-03 0.  1.
         11   -1    0    0    0    0 -0.00000000000E+00 -0.00000000000E+00 -0.45593999997E+02  0.45594000000E+02  0.51100000000E-03 0. -1.
         23    2    1    2    0    0 -0.35527136788E-14  0.00000000000E+00  0.00000000000E+00  0.91188000000E+02  0.91188000000E+02 0.  0.
    9900012    2    3    3    0    0 -0.16309824803E+02  0.25871309501E+02 -0.20504690818E+02  0.54367117528E+02  0.40000076029E+02 0.  0.
         12    1    3    3    0    0  0.16309824803E+02 -0.25871309501E+02  0.20504690818E+02  0.36820882472E+02  0.00000000000E+00 0. -1.
         11    1    4    4    0    0 -0.14013783354E+01 -0.92422123406E+00  0.46492104490E+01  0.49429954672E+01  0.51100000000E-03 0. -1.
        -11    1    4    4    0    0  0.18926689675E+01  0.24855856227E+02 -0.10510771108E+02  0.27053134646E+02  0.51100000000E-03 0.  1.
         12    1    4    4    0    0 -0.16801115435E+02  0.19396745080E+01 -0.14643130160E+02  0.22370987416E+02  0.00000000000E+00 0. -1.
</event>
<event>
 8    1  0.3146747E-007  0.9118800E+02  0.7816164E-02  0.1184000E+00
        -11   -1    0    0    0    0  0.00000000000E+00  0.00000000000E+00  0.45593999997E+02  0.45594000000E+02  0.51100000000E-03 0.  1.
         11   -1    0    0    0    0 -0.00000000000E+00 -0.00000000000E+00 -0.45593999997E+02  0.45594000000E+02  0.51100000000E-03 0. -1.
         23    2    1    2    0    0  0.00000000000E+00 -0.35527136788E-14  0.00000000000E+00  0.91188000000E+02  0.91188000000E+02 0.  0.
    9900012    2    3    3    0    0  0.26639391311E+01  0.27833501874E+02 -0.23957952936E+02  0.54367028976E+02  0.39999874157E+02 0.  0.
        -12    1    3    3    0    0 -0.26639391311E+01 -0.27833501874E+02  0.23957952936E+02  0.36820971024E+02  0.00000000000E+00 0.  1.
         11    1    4    4    0    0 -0.21382500699E+01  0.48888026222E+01 -0.72271777771E+01  0.89835740840E+01  0.51100000000E-03 0. -1.
        -11    1    4    4    0    0  0.53377220041E+01  0.20616696619E+02  0.63159190033E+01  0.22213290814E+02  0.51100000000E-03 0.  1.
        -12    1    4    4    0    0 -0.53553280318E+00  0.23280026332E+01 -0.23046694162E+02  0.23170164079E+02  0.00000000000E+00 0.  1.
</event>
<event>
 8    1  0.3146747E-007  0.9118800E+02  0.7816164E-02  0.1184000E+00
        -11   -1    0    0    0    0  0.00000000000E+00  0.00000000000E+00  0.45593999997E+02  0.45594000000E+02  0.51100000000E-03 0. -1.
         11   -1    0    0    0    0 -0.00000000000E+00 -0.00000000000E+00 -0.45593999997E+02  0.45594000000E+02  0.51100000000E-03 0.  1.
         23    2    1    2    0    0 -0.71054273576E-14 -0.88817841970E-15  0.00000000000E+00  0.91188000000E+02  0.91188000000E+02 0.  0.
    9900012    2    3    3    0    0 -0.23797991757E+02 -0.30939383092E+01 -0.27926052551E+02  0.54367064691E+02  0.39999955575E+02 0.  0.
         12    1    3    3    0    0  0.23797991757E+02  0.30939383092E+01  0.27926052551E+02  0.36820935309E+02  0.00000000000E+00 0. -1.
         11    1    4    4    0    0  0.13806988777E+01  0.42004033629E+01 -0.23621980153E+02  0.24032221379E+02  0.51100000000E-03 0. -1.
        -11    1    4    4    0    0 -0.18812617034E+02 -0.47346440475E+01 -0.96214709630E+01  0.21654193998E+02  0.51100000000E-03 0.  1.
         12    1    4    4    0    0 -0.63660736007E+01 -0.25596976245E+01  0.53173985645E+01  0.86806493140E+01  0.00000000000E+00 0. -1.
</event>
<event>
 8    1  0.3146747E-007  0.9118800E+02  0.7816164E-02  0.1184000E+00
        -11   -1    0    0    0    0  0.00000000000E+00  0.00000000000E+00  0.45593999997E+02  0.45594000000E+02  0.51100000000E-03 0.  1.
         11   -1    0    0    0    0 -0.00000000000E+00 -0.00000000000E+00 -0.45593999997E+02  0.45594000000E+02  0.51100000000E-03 0. -1.
         23    2    1    2    0    0  0.17763568394E-14  0.00000000000E+00  0.35527136788E-14  0.91188000000E+02  0.91188000000E+02 0.  0.
    9900012    2    3    3    0    0 -0.96054455111E+01  0.16595906508E+02 -0.31433932415E+02  0.54367071123E+02  0.39999970239E+02 0.  0.
        -12    1    3    3    0    0  0.96054455111E+01 -0.16595906508E+02  0.31433932415E+02  0.36820928877E+02  0.00000000000E+00 0.  1.
         11    1    4    4    0    0  0.56568662235E+00  0.40782530310E+01  0.26753287687E+01  0.49101459675E+01  0.51100000000E-03 0. -1.
        -11    1    4    4    0    0  0.32108826631E+01  0.11097693696E+01 -0.31496610369E+02  0.31679296402E+02  0.51100000000E-03 0.  1.
        -12    1    4    4    0    0 -0.13382014797E+02  0.11407884108E+02 -0.26126508149E+01  0.17777628754E+02  0.00000000000E+00 0.  1.
</event>
<event>
 8    1  0.3146747E-007  0.9118800E+02  0.7816164E-02  0.1184000E+00
        -11   -1    0    0    0    0  0.00000000000E+00  0.00000000000E+00  0.45593999997E+02  0.45594000000E+02  0.51100000000E-03 0.  1.
         11   -1    0    0    0    0 -0.00000000000E+00 -0.00000000000E+00 -0.45593999997E+02  0.45594000000E+02  0.51100000000E-03 0. -1.
         23    2    1    2    0    0 -0.88817841970E-15 -0.71054273576E-14  0.00000000000E+00  0.91188000000E+02  0.91188000000E+02 0.  0.
    9900012    2    3    3    0    0 -0.67422133677E+01 -0.32931399693E+02 -0.15028065566E+02  0.54367118947E+02  0.40000079264E+02 0.  0.
        -12    1    3    3    0    0  0.67422133677E+01  0.32931399693E+02  0.15028065566E+02  0.36820881053E+02  0.00000000000E+00 0.  1.
         11    1    4    4    0    0 -0.66423372217E+01  0.21965454736E+01  0.31028655908E+01  0.76533150281E+01  0.51100000000E-03 0. -1.
        -11    1    4    4    0    0 -0.78278167003E+01 -0.32094865440E+02 -0.87254392297E+01  0.34168529262E+02  0.51100000000E-03 0.  1.
         12    1    4    4    0    0  0.77279405543E+01 -0.30330797265E+01 -0.94054919270E+01  0.12545274657E+02  0.00000000000E+00 0. -1.
</event>
<event>
 8    1  0.3146747E-007  0.9118800E+02  0.7816164E-02  0.1184000E+00
        -11   -1    0    0    0    0  0.00000000000E+00  0.00000000000E+00  0.45593999997E+02  0.45594000000E+02  0.51100000000E-03 0.  1.
         11   -1    0    0    0    0 -0.00000000000E+00 -0.00000000000E+00 -0.45593999997E+02  0.45594000000E+02  0.51100000000E-03 0. -1.
         23    2    1    2    0    0  0.00000000000E+00  0.00000000000E+00  0.00000000000E+00  0.91188000000E+02  0.91188000000E+02 0.  0.
    9900012    2    3    3    0    0 -0.47680569299E+01  0.11161872091E+02  0.34762882766E+02  0.54367085106E+02  0.40000002116E+02 0.  0.
         12    1    3    3    0    0  0.47680569299E+01 -0.11161872091E+02 -0.34762882766E+02  0.36820914894E+02  0.00000000000E+00 0. -1.
         11    1    4    4    0    0  0.78666573172E+01  0.11149902255E+02  0.16482675442E+02  0.21398205710E+02  0.51100000000E-03 0. -1.
        -11    1    4    4    0    0  0.36280459034E+01  0.65428352651E+01 -0.22154008910E+00  0.74846837379E+01  0.51100000000E-03 0.  1.
         12    1    4    4    0    0 -0.16262760150E+02 -0.65308654292E+01  0.18501747413E+02  0.25484195658E+02  0.00000000000E+00 0. -1.
</event>
<event>
 8    1  0.3146747E-007  0.9118800E+02  0.7816164E-02  0.1184000E+00
        -11   -1    0    0    0    0  0.00000000000E+00  0.00000000000E+00  0.45593999997E+02  0.45594000000E+02  0.51100000000E-03 0.  1.
         11   -1    0    0    0    0 -0.00000000000E+00 -0.00000000000E+00 -0.45593999997E+02  0.45594000000E+02  0.51100000000E-03 0. -1.
         23    2    1    2    0    0 -0.35527136788E-14  0.17763568394E-14 -0.35527136788E-14  0.91188000000E+02  0.91188000000E+02 0.  0.
    9900012    2    3    3    0    0 -0.16262161979E+02  0.88366056304E+01  0.31831364921E+02  0.54367091483E+02  0.40000016653E+02 0.  0.
         12    1    3    3    0    0  0.16262161979E+02 -0.88366056304E+01 -0.31831364921E+02  0.36820908517E+02  0.00000000000E+00 0. -1.
         11    1    4    4    0    0 -0.26235366045E+01 -0.35984553660E+01  0.20245102688E+01  0.48918776994E+01  0.51100000000E-03 0. -1.
        -11    1    4    4    0    0 -0.15588049288E+02  0.10243309836E+02  0.37149036897E+02  0.41568781791E+02  0.51100000000E-03 0.  1.
        -12    1    4    4    0    0  0.19494239131E+01  0.21917511605E+01 -0.73421822441E+01  0.79064319923E+01  0.00000000000E+00 0.  1.
</event>
<event>
 8    1  0.3146747E-007  0.9118800E+02  0.7816164E-02  0.1184000E+00
        -11   -1    0    0    0    0  0.00000000000E+00  0.00000000000E+00  0.45593999997E+02  0.45594000000E+02  0.51100000000E-03 0. -1.
         11   -1    0    0    0    0 -0.00000000000E+00 -0.00000000000E+00 -0.45593999997E+02  0.45594000000E+02  0.51100000000E-03 0.  1.
         23    2    1    2    0    0  0.35527136788E-14  0.00000000000E+00  0.00000000000E+00  0.91188000000E+02  0.91188000000E+02 0.  0.
    9900012    2    3    3    0    0 -0.23727934422E+02  0.25635277572E+02  0.11644790343E+02  0.54367034908E+02  0.39999887680E+02 0.  0.
        -12    1    3    3    0    0  0.23727934422E+02 -0.25635277572E+02 -0.11644790343E+02  0.36820965092E+02  0.00000000000E+00 0.  1.
         11    1    4    4    0    0 -0.17053660293E+02 -0.38953130898E+01  0.30900664911E+01  0.17763707514E+02  0.51100000000E-03 0. -1.
        -11    1    4    4    0    0 -0.24902442993E+01  0.82492105148E+01 -0.59853753545E+01  0.10491687623E+02  0.51100000000E-03 0.  1.
        -12    1    4    4    0    0 -0.41840298293E+01  0.21281380148E+02  0.14540099207E+02  0.26111639771E+02  0.00000000000E+00 0.  1.
</event>
<event>
 8    1  0.3146747E-007  0.9118800E+02  0.7816164E-02  0.1184000E+00
        -11   -1    0    0    0    0  0.00000000000E+00  0.00000000000E+00  0.45593999997E+02  0.45594000000E+02  0.51100000000E-03 0. -1.
         11   -1    0    0    0    0 -0.00000000000E+00 -0.00000000000E+00 -0.45593999997E+02  0.45594000000E+02  0.51100000000E-03 0.  1.
         23    2    1    2    0    0  0.71054273576E-14  0.17763568394E-14 -0.17763568394E-14  0.91188000000E+02  0.91188000000E+02 0.  0.
    9900012    2    3    3    0    0 -0.34946973449E+02 -0.88445790158E+01 -0.75007285927E+01  0.54367102935E+02  0.40000042761E+02 0.  0.
         12    1    3    3    0    0  0.34946973449E+02  0.88445790158E+01  0.75007285927E+01  0.36820897065E+02  0.00000000000E+00 0. -1.
         11    1    4    4    0    0 -0.65951830074E+01 -0.76513776985E+01 -0.11817231408E+02  0.15546285022E+02  0.51100000000E-03 0. -1.
        -11    1    4    4    0    0 -0.13486374264E+02  0.10756630207E+02 -0.44712070233E+01  0.17820748489E+02  0.51100000000E-03 0.  1.
         12    1    4    4    0    0 -0.14865416178E+02 -0.11949831524E+02  0.87877098384E+01  0.21000069424E+02  0.00000000000E+00 0. -1.
</event>
<event>
 8    1  0.3146747E-007  0.9118800E+02  0.7816164E-02  0.1184000E+00
        -11   -1    0    0    0    0  0.00000000000E+00  0.00000000000E+00  0.45593999997E+02  0.45594000000E+02  0.51100000000E-03 0. -1.
         11   -1    0    0    0    0 -0.00000000000E+00 -0.00000000000E+00 -0.45593999997E+02  0.45594000000E+02  0.51100000000E-03 0.  1.
         23    2    1    2    0    0  0.88817841970E-15  0.00000000000E+00  0.00000000000E+00  0.91188000000E+02  0.91188000000E+02 0.  0.
    9900012    2    3    3    0    0 -0.75126262791E+01 -0.10058005069E+02 -0.34614698559E+02  0.54367076928E+02  0.39999983473E+02 0.  0.
         12    1    3    3    0    0  0.75126262791E+01  0.10058005069E+02  0.34614698559E+02  0.36820923072E+02  0.00000000000E+00 0. -1.
         11    1    4    4    0    0 -0.78843749266E+01 -0.15288201642E+01 -0.13527183857E+02  0.15731667504E+02  0.51100000000E-03 0. -1.
        -11    1    4    4    0    0 -0.15037444038E+02 -0.27516987368E+01 -0.63826518022E+01  0.16566074171E+02  0.51100000000E-03 0.  1.
        -12    1    4    4    0    0  0.15409192686E+02 -0.57774861680E+01 -0.14704862899E+02  0.22069335254E+02  0.00000000000E+00 0.  1.
</event>
<event>
 8    1  0.3146747E-007  0.9118800E+02  0.7816164E-02  0.1184000E+00
        -11   -1    0    0    0    0  0.00000000000E+00  0.00000000000E+00  0.45593999997E+02  0.45594000000E+02  0.51100000000E-03 0. -1.
         11   -1    0    0    0    0 -0.00000000000E+00 -0.00000000000E+00 -0.45593999997E+02  0.45594000000E+02  0.51100000000E-03 0.  1.
         23    2    1    2    0    0  0.44408920985E-15  0.00000000000E+00 -0.26645352591E-14  0.91188000000E+02  0.91188000000E+02 0.  0.
    9900012    2    3    3    0    0  0.20759526401E+01  0.36279531250E+02  0.59386798315E+01  0.54367056432E+02  0.39999936748E+02 0.  0.
        -12    1    3    3    0    0 -0.20759526401E+01 -0.36279531250E+02 -0.59386798315E+01  0.36820943568E+02  0.00000000000E+00 0.  1.
         11    1    4    4    0    0  0.56947694732E+00  0.13805787037E+02  0.12900864612E+02  0.18903871765E+02  0.51100000000E-03 0. -1.
        -11    1    4    4    0    0 -0.51381921306E+00 -0.60260293784E+01 -0.25057393717E+01  0.65464318765E+01  0.51100000000E-03 0.  1.
        -12    1    4    4    0    0  0.20202949058E+01  0.28499773592E+02 -0.44564454085E+01  0.28916752791E+02  0.00000000000E+00 0.  1.
</event>
<event>
 8    1  0.3146747E-007  0.9118800E+02  0.7816164E-02  0.1184000E+00
        -11   -1    0    0    0    0  0.00000000000E+00  0.00000000000E+00  0.45593999997E+02  0.45594000000E+02  0.51100000000E-03 0. -1.
         11   -1    0    0    0    0 -0.00000000000E+00 -0.00000000000E+00 -0.45593999997E+02  0.45594000000E+02  0.51100000000E-03 0.  1.
         23    2    1    2    0    0  0.47184478547E-15  0.44408920985E-15  0.00000000000E+00  0.91188000000E+02  0.91188000000E+02 0.  0.
    9900012    2    3    3    0    0 -0.23616141772E+00 -0.38991769616E+01  0.36613111322E+02  0.54367091892E+02  0.40000017587E+02 0.  0.
        -12    1    3    3    0    0  0.23616141772E+00  0.38991769616E+01 -0.36613111322E+02  0.36820908108E+02  0.00000000000E+00 0.  1.
         11    1    4    4    0    0 -0.96450716708E+01 -0.13966424907E+02  0.19342534815E+02  0.25733676099E+02  0.51100000000E-03 0. -1.
        -11    1    4    4    0    0 -0.39906133961E+01  0.75501800841E+01  0.10107951682E+02  0.13232569745E+02  0.51100000000E-03 0.  1.
        -12    1    4    4    0    0  0.13399523649E+02  0.25170678613E+01  0.71626248243E+01  0.15400846049E+02  0.00000000000E+00 0.  1.
</event>
<event>
 8    1  0.3146747E-007  0.9118800E+02  0.7816164E-02  0.1184000E+00
        -11   -1    0    0    0    0  0.00000000000E+00  0.00000000000E+00  0.45593999997E+02  0.45594000000E+02  0.51100000000E-03 0. -1.
         11   -1    0    0    0    0 -0.00000000000E+00 -0.00000000000E+00 -0.45593999997E+02  0.45594000000E+02  0.51100000000E-03 0.  1.
         23    2    1    2    0    0  0.35527136788E-14  0.00000000000E+00  0.00000000000E+00  0.91188000000E+02  0.91188000000E+02 0.  0.
    9900012    2    3    3    0    0  0.46653387381E+01 -0.34154435648E+02 -0.12941704913E+02  0.54367101233E+02  0.40000038880E+02 0.  0.
         12    1    3    3    0    0 -0.46653387381E+01  0.34154435648E+02  0.12941704913E+02  0.36820898767E+02  0.00000000000E+00 0. -1.
         11    1    4    4    0    0  0.11217606642E+02  0.80865328427E-01 -0.14504076983E+02  0.18336016126E+02  0.51100000000E-03 0.  1.
        -11    1    4    4    0    0  0.12829594586E+01 -0.35653395141E+01  0.21772679836E+01  0.43701403818E+01  0.51100000000E-03 0. -1.
         12    1    4    4    0    0 -0.78352273626E+01 -0.30669961462E+02 -0.61489591393E+00  0.31660944725E+02  0.00000000000E+00 0. -1.
</event>
<event>
 8    1  0.3146747E-007  0.9118800E+02  0.7816164E-02  0.1184000E+00
        -11   -1    0    0    0    0  0.00000000000E+00  0.00000000000E+00  0.45593999997E+02  0.45594000000E+02  0.51100000000E-03 0. -1.
         11   -1    0    0    0    0 -0.00000000000E+00 -0.00000000000E+00 -0.45593999997E+02  0.45594000000E+02  0.51100000000E-03 0.  1.
         23    2    1    2    0    0  0.88817841970E-15  0.00000000000E+00  0.14432899320E-14  0.91188000000E+02  0.91188000000E+02 0.  0.
    9900012    2    3    3    0    0 -0.23656107174E+01 -0.36734185877E+02 -0.88521201766E+00  0.54367080315E+02  0.39999991195E+02 0.  0.
        -12    1    3    3    0    0  0.23656107174E+01  0.36734185877E+02  0.88521201766E+00  0.36820919685E+02  0.00000000000E+00 0.  1.
         11    1    4    4    0    0  0.88461530692E+01 -0.14887952544E+02  0.74584312762E+01  0.18855602681E+02  0.51100000000E-03 0. -1.
        -11    1    4    4    0    0  0.64639009912E+01 -0.71625246473E+01  0.26966688536E+01  0.10017774130E+02  0.51100000000E-03 0.  1.
        -12    1    4    4    0    0 -0.17675664778E+02 -0.14683708685E+02 -0.11040312147E+02  0.25493703505E+02  0.00000000000E+00 0.  1.
</event>
<event>
 8    1  0.3146747E-007  0.9118800E+02  0.7816164E-02  0.1184000E+00
        -11   -1    0    0    0    0  0.00000000000E+00  0.00000000000E+00  0.45593999997E+02  0.45594000000E+02  0.51100000000E-03 0.  1.
         11   -1    0    0    0    0 -0.00000000000E+00 -0.00000000000E+00 -0.45593999997E+02  0.45594000000E+02  0.51100000000E-03 0. -1.
         23    2    1    2    0    0 -0.35527136788E-14  0.88817841970E-15  0.35527136788E-14  0.91188000000E+02  0.91188000000E+02 0.  0.
    9900012    2    3    3    0    0  0.20600374258E+02 -0.62121565358E+01 -0.29880049940E+02  0.54367031887E+02  0.39999880793E+02 0.  0.
        -12    1    3    3    0    0 -0.20600374258E+02  0.62121565358E+01  0.29880049940E+02  0.36820968113E+02  0.00000000000E+00 0.  1.
         11    1    4    4    0    0 -0.84078420495E+00 -0.14763806994E+02 -0.13010112015E+02  0.19696190747E+02  0.51100000000E-03 0. -1.
        -11    1    4    4    0    0  0.27309927195E+01  0.61140705252E+01 -0.14088155187E+02  0.15598599183E+02  0.51100000000E-03 0.  1.
        -12    1    4    4    0    0  0.18710165743E+02  0.24375799332E+01 -0.27817827365E+01  0.19072241957E+02  0.00000000000E+00 0.  1.
</event>
<event>
 8    1  0.3146747E-007  0.9118800E+02  0.7816164E-02  0.1184000E+00
        -11   -1    0    0    0    0  0.00000000000E+00  0.00000000000E+00  0.45593999997E+02  0.45594000000E+02  0.51100000000E-03 0.  1.
         11   -1    0    0    0    0 -0.00000000000E+00 -0.00000000000E+00 -0.45593999997E+02  0.45594000000E+02  0.51100000000E-03 0. -1.
         23    2    1    2    0    0  0.00000000000E+00 -0.17763568394E-14  0.00000000000E+00  0.91188000000E+02  0.91188000000E+02 0.  0.
    9900012    2    3    3    0    0 -0.31849750198E+02 -0.13533457695E+02 -0.12578489966E+02  0.54367089166E+02  0.40000011371E+02 0.  0.
        -12    1    3    3    0    0  0.31849750198E+02  0.13533457695E+02  0.12578489966E+02  0.36820910834E+02  0.00000000000E+00 0.  1.
         11    1    4    4    0    0 -0.21929759158E+02  0.20510655282E+01 -0.44716132709E+01  0.22474797709E+02  0.51100000000E-03 0. -1.
        -11    1    4    4    0    0 -0.17938254849E+02 -0.10939658152E+02 -0.27533013527E+01  0.21190511464E+02  0.51100000000E-03 0.  1.
        -12    1    4    4    0    0  0.80182638103E+01 -0.46448650708E+01 -0.53535753428E+01  0.10701779993E+02  0.00000000000E+00 0.  1.
</event>
<event>
 8    1  0.3146747E-007  0.9118800E+02  0.7816164E-02  0.1184000E+00
        -11   -1    0    0    0    0  0.00000000000E+00  0.00000000000E+00  0.45593999997E+02  0.45594000000E+02  0.51100000000E-03 0. -1.
         11   -1    0    0    0    0 -0.00000000000E+00 -0.00000000000E+00 -0.45593999997E+02  0.45594000000E+02  0.51100000000E-03 0.  1.
         23    2    1    2    0    0  0.00000000000E+00  0.35527136788E-14  0.00000000000E+00  0.91188000000E+02  0.91188000000E+02 0.  0.
    9900012    2    3    3    0    0  0.20486386362E+02  0.96878702320E+01 -0.29021261236E+02  0.54367075792E+02  0.39999980883E+02 0.  0.
         12    1    3    3    0    0 -0.20486386362E+02 -0.96878702320E+01  0.29021261236E+02  0.36820924208E+02  0.00000000000E+00 0. -1.
         11    1    4    4    0    0  0.81831329501E+01  0.88757377596E+01 -0.12340096060E+02  0.17263266107E+02  0.51100000000E-03 0. -1.
        -11    1    4    4    0    0  0.12142261831E+01  0.13388289640E+02 -0.15169398923E+02  0.20268974040E+02  0.51100000000E-03 0.  1.
        -12    1    4    4    0    0  0.11089027229E+02 -0.12576157167E+02 -0.15117662531E+01  0.16834835644E+02  0.00000000000E+00 0.  1.
</event>
<event>
 8    1  0.3146747E-007  0.9118800E+02  0.7816164E-02  0.1184000E+00
        -11   -1    0    0    0    0  0.00000000000E+00  0.00000000000E+00  0.45593999997E+02  0.45594000000E+02  0.51100000000E-03 0.  1.
         11   -1    0    0    0    0 -0.00000000000E+00 -0.00000000000E+00 -0.45593999997E+02  0.45594000000E+02  0.51100000000E-03 0. -1.
         23    2    1    2    0    0  0.00000000000E+00 -0.44408920985E-15  0.00000000000E+00  0.91188000000E+02  0.91188000000E+02 0.  0.
    9900012    2    3    3    0    0 -0.11191750667E+02  0.32187310678E+01 -0.34930864825E+02  0.54367070760E+02  0.39999969412E+02 0.  0.
        -12    1    3    3    0    0  0.11191750667E+02 -0.32187310678E+01  0.34930864825E+02  0.36820929240E+02  0.00000000000E+00 0.  1.
         11    1    4    4    0    0  0.11383300120E+00  0.45458243598E+01  0.35365714964E+01  0.57606262917E+01  0.51100000000E-03 0. -1.
        -11    1    4    4    0    0 -0.39477039451E+01 -0.11919773301E+02 -0.31581085027E+02  0.33985736622E+02  0.51100000000E-03 0.  1.
         12    1    4    4    0    0 -0.73578797229E+01  0.10592680009E+02 -0.68863512938E+01  0.14620707846E+02  0.00000000000E+00 0. -1.
</event>
<event>
 8    1  0.3146747E-007  0.9118800E+02  0.7816164E-02  0.1184000E+00
        -11   -1    0    0    0    0  0.00000000000E+00  0.00000000000E+00  0.45593999997E+02  0.45594000000E+02  0.51100000000E-03 0.  1.
         11   -1    0    0    0    0 -0.00000000000E+00 -0.00000000000E+00 -0.45593999997E+02  0.45594000000E+02  0.51100000000E-03 0. -1.
         23    2    1    2    0    0  0.17763568394E-14  0.00000000000E+00  0.00000000000E+00  0.91188000000E+02  0.91188000000E+02 0.  0.
    9900012    2    3    3    0    0  0.49699047215E+01  0.16477710092E+02  0.32550952348E+02  0.54367090430E+02  0.40000014252E+02 0.  0.
         12    1    3    3    0    0 -0.49699047215E+01 -0.16477710092E+02 -0.32550952348E+02  0.36820909570E+02  0.00000000000E+00 0. -1.
         11    1    4    4    0    0  0.32660159175E+01 -0.35523382717E+01  0.77197146183E+01  0.91038432114E+01  0.51100000000E-03 0.  1.
        -11    1    4    4    0    0  0.13181955408E+02  0.71904174595E+01 -0.34803411543E-01  0.15015567360E+02  0.51100000000E-03 0. -1.
         12    1    4    4    0    0 -0.11478066604E+02  0.12839630904E+02  0.24866041141E+02  0.30247679858E+02  0.00000000000E+00 0. -1.
</event>
<event>
 8    1  0.3146747E-007  0.9118800E+02  0.7816164E-02  0.1184000E+00
        -11   -1    0    0    0    0  0.00000000000E+00  0.00000000000E+00  0.45593999997E+02  0.45594000000E+02  0.51100000000E-03 0.  1.
         11   -1    0    0    0    0 -0.00000000000E+00 -0.00000000000E+00 -0.45593999997E+02  0.45594000000E+02  0.51100000000E-03 0. -1.
         23    2    1    2    0    0 -0.44408920985E-15  0.17763568394E-14  0.71054273576E-14  0.91188000000E+02  0.91188000000E+02 0.  0.
    9900012    2    3    3    0    0  0.36494606909E+01 -0.14962034861E+02 -0.33445477596E+02  0.54367068152E+02  0.39999963467E+02 0.  0.
        -12    1    3    3    0    0 -0.36494606909E+01  0.14962034861E+02  0.33445477596E+02  0.36820931848E+02  0.00000000000E+00 0.  1.
         11    1    4    4    0    0  0.33859604522E+01 -0.49728755865E+01 -0.41031888169E+02  0.41470592795E+02  0.51100000000E-03 0. -1.
        -11    1    4    4    0    0 -0.11981943974E+01 -0.31183401152E+01  0.31281294835E+01  0.45765608501E+01  0.51100000000E-03 0.  1.
         12    1    4    4    0    0  0.14616946362E+01 -0.68708191590E+01  0.44582810900E+01  0.83199145070E+01  0.00000000000E+00 0. -1.
</event>
<event>
 8    1  0.3146747E-007  0.9118800E+02  0.7816164E-02  0.1184000E+00
        -11   -1    0    0    0    0  0.00000000000E+00  0.00000000000E+00  0.45593999997E+02  0.45594000000E+02  0.51100000000E-03 0.  1.
         11   -1    0    0    0    0 -0.00000000000E+00 -0.00000000000E+00 -0.45593999997E+02  0.45594000000E+02  0.51100000000E-03 0. -1.
         23    2    1    2    0    0  0.00000000000E+00  0.17763568394E-14  0.35527136788E-14  0.91188000000E+02  0.91188000000E+02 0.  0.
    9900012    2    3    3    0    0 -0.24809309980E+02  0.33254282194E+01 -0.27004082915E+02  0.54367070780E+02  0.39999969458E+02 0.  0.
        -12    1    3    3    0    0  0.24809309980E+02 -0.33254282194E+01  0.27004082915E+02  0.36820929220E+02  0.00000000000E+00 0.  1.
         11    1    4    4    0    0  0.28386681053E+01  0.14238757706E+01 -0.27305701125E+01  0.41882540781E+01  0.51100000000E-03 0. -1.
        -11    1    4    4    0    0 -0.41474091550E+00  0.14031332265E+02 -0.64891271060E+01  0.15464768541E+02  0.51100000000E-03 0.  1.
         12    1    4    4    0    0 -0.27233237170E+02 -0.12129779817E+02 -0.17784385696E+02  0.34714048161E+02  0.00000000000E+00 0. -1.
</event>
<event>
 8    1  0.3146747E-007  0.9118800E+02  0.7816164E-02  0.1184000E+00
        -11   -1    0    0    0    0  0.00000000000E+00  0.00000000000E+00  0.45593999997E+02  0.45594000000E+02  0.51100000000E-03 0.  1.
         11   -1    0    0    0    0 -0.00000000000E+00 -0.00000000000E+00 -0.45593999997E+02  0.45594000000E+02  0.51100000000E-03 0. -1.
         23    2    1    2    0    0  0.35527136788E-14  0.00000000000E+00  0.35527136788E-14  0.91188000000E+02  0.91188000000E+02 0.  0.
    9900012    2    3    3    0    0  0.31607047378E+02 -0.96818750024E+01  0.16218380328E+02  0.54367081923E+02  0.39999994861E+02 0.  0.
        -12    1    3    3    0    0 -0.31607047378E+02  0.96818750024E+01 -0.16218380328E+02  0.36820918077E+02  0.00000000000E+00 0.  1.
         11    1    4    4    0    0  0.13230589140E+02 -0.18130324543E+02  0.50009732183E+01  0.22994931842E+02  0.51100000000E-03 0. -1.
        -11    1    4    4    0    0  0.13538658207E+02  0.13239312078E+01  0.16410653401E+02  0.21315665723E+02  0.51100000000E-03 0.  1.
         12    1    4    4    0    0  0.48378000308E+01  0.71245183327E+01 -0.51932462911E+01  0.10056484358E+02  0.00000000000E+00 0. -1.
</event>
<event>
 8    1  0.3146747E-007  0.9118800E+02  0.7816164E-02  0.1184000E+00
        -11   -1    0    0    0    0  0.00000000000E+00  0.00000000000E+00  0.45593999997E+02  0.45594000000E+02  0.51100000000E-03 0.  1.
         11   -1    0    0    0    0 -0.00000000000E+00 -0.00000000000E+00 -0.45593999997E+02  0.45594000000E+02  0.51100000000E-03 0. -1.
         23    2    1    2    0    0 -0.35527136788E-14  0.88817841970E-15  0.00000000000E+00  0.91188000000E+02  0.91188000000E+02 0.  0.
    9900012    2    3    3    0    0 -0.31986825234E+02  0.56884969250E+01 -0.17328153424E+02  0.54367069989E+02  0.39999967653E+02 0.  0.
        -12    1    3    3    0    0  0.31986825234E+02 -0.56884969250E+01  0.17328153424E+02  0.36820930011E+02  0.00000000000E+00 0.  1.
         11    1    4    4    0    0 -0.30350660203E+02  0.63766937583E+01  0.29860719842E+01  0.31156723580E+02  0.51100000000E-03 0.  1.
        -11    1    4    4    0    0  0.35261090392E+00  0.52332756801E+00  0.13137061612E+01  0.14574053424E+01  0.51100000000E-03 0. -1.
         12    1    4    4    0    0 -0.19887759344E+01 -0.12115244013E+01 -0.21627931569E+02  0.21752941067E+02  0.00000000000E+00 0. -1.
</event>
<event>
 8    1  0.3146747E-007  0.9118800E+02  0.7816164E-02  0.1184000E+00
        -11   -1    0    0    0    0  0.00000000000E+00  0.00000000000E+00  0.45593999997E+02  0.45594000000E+02  0.51100000000E-03 0.  1.
         11   -1    0    0    0    0 -0.00000000000E+00 -0.00000000000E+00 -0.45593999997E+02  0.45594000000E+02  0.51100000000E-03 0. -1.
         23    2    1    2    0    0 -0.71054273576E-14  0.00000000000E+00  0.18041124150E-15  0.91188000000E+02  0.91188000000E+02 0.  0.
    9900012    2    3    3    0    0 -0.36734278260E+02 -0.25237613757E+01  0.42443784448E-01  0.54367104136E+02  0.40000045498E+02 0.  0.
         12    1    3    3    0    0  0.36734278260E+02  0.25237613757E+01 -0.42443784448E-01  0.36820895864E+02  0.00000000000E+00 0. -1.
         11    1    4    4    0    0  0.35925945031E+01 -0.10706246778E+02  0.12109136894E+01  0.11357674390E+02  0.51100000000E-03 0. -1.
        -11    1    4    4    0    0 -0.18755130779E+02  0.96625719947E+01  0.18432227690E+01  0.21178236435E+02  0.51100000000E-03 0.  1.
         12    1    4    4    0    0 -0.21571741985E+02 -0.14800865927E+01 -0.30116926739E+01  0.21831193310E+02  0.00000000000E+00 0. -1.
</event>
<event>
 8    1  0.3146747E-007  0.9118800E+02  0.7816164E-02  0.1184000E+00
        -11   -1    0    0    0    0  0.00000000000E+00  0.00000000000E+00  0.45593999997E+02  0.45594000000E+02  0.51100000000E-03 0.  1.
         11   -1    0    0    0    0 -0.00000000000E+00 -0.00000000000E+00 -0.45593999997E+02  0.45594000000E+02  0.51100000000E-03 0. -1.
         23    2    1    2    0    0 -0.35527136788E-14  0.35527136788E-14  0.00000000000E+00  0.91188000000E+02  0.91188000000E+02 0.  0.
    9900012    2    3    3    0    0 -0.29864618851E+02  0.20940234807E+02 -0.50389556887E+01  0.54367082476E+02  0.39999996121E+02 0.  0.
        -12    1    3    3    0    0  0.29864618851E+02 -0.20940234807E+02  0.50389556887E+01  0.36820917524E+02  0.00000000000E+00 0.  1.
         11    1    4    4    0    0 -0.24463479087E+02 -0.10591237710E+01 -0.18378789950E+01  0.24555271362E+02  0.51100000000E-03 0. -1.
        -11    1    4    4    0    0 -0.99793215113E+01  0.22606471512E+02 -0.10933053424E+01  0.24735293184E+02  0.51100000000E-03 0.  1.
         12    1    4    4    0    0  0.45781817473E+01 -0.60711293463E+00 -0.21077713513E+01  0.50765179302E+01  0.00000000000E+00 0. -1.
</event>
<event>
 8    1  0.3146747E-007  0.9118800E+02  0.7816164E-02  0.1184000E+00
        -11   -1    0    0    0    0  0.00000000000E+00  0.00000000000E+00  0.45593999997E+02  0.45594000000E+02  0.51100000000E-03 0. -1.
         11   -1    0    0    0    0 -0.00000000000E+00 -0.00000000000E+00 -0.45593999997E+02  0.45594000000E+02  0.51100000000E-03 0.  1.
         23    2    1    2    0    0  0.88817841970E-15  0.00000000000E+00  0.00000000000E+00  0.91188000000E+02  0.91188000000E+02 0.  0.
    9900012    2    3    3    0    0 -0.48578512770E+01 -0.28027124777E+02  0.23380796212E+02  0.54367081030E+02  0.39999992825E+02 0.  0.
        -12    1    3    3    0    0  0.48578512770E+01  0.28027124777E+02 -0.23380796212E+02  0.36820918970E+02  0.00000000000E+00 0.  1.
         11    1    4    4    0    0 -0.67645556664E+01 -0.26928366943E+01  0.12740124186E+01  0.73914606628E+01  0.51100000000E-03 0. -1.
        -11    1    4    4    0    0  0.51651692097E+01 -0.18216050900E+01  0.22578749772E+02  0.23233535237E+02  0.51100000000E-03 0.  1.
         12    1    4    4    0    0 -0.32584648203E+01 -0.23512682992E+02 -0.47196597896E+00  0.23742085131E+02  0.00000000000E+00 0. -1.
</event>
<event>
 8    1  0.3146747E-007  0.9118800E+02  0.7816164E-02  0.1184000E+00
        -11   -1    0    0    0    0  0.00000000000E+00  0.00000000000E+00  0.45593999997E+02  0.45594000000E+02  0.51100000000E-03 0.  1.
         11   -1    0    0    0    0 -0.00000000000E+00 -0.00000000000E+00 -0.45593999997E+02  0.45594000000E+02  0.51100000000E-03 0. -1.
         23    2    1    2    0    0  0.00000000000E+00  0.00000000000E+00  0.00000000000E+00  0.91188000000E+02  0.91188000000E+02 0.  0.
    9900012    2    3    3    0    0 -0.13363834665E+02  0.30025864393E+02  0.16602268811E+02  0.54367082858E+02  0.39999996991E+02 0.  0.
         12    1    3    3    0    0  0.13363834665E+02 -0.30025864393E+02 -0.16602268811E+02  0.36820917142E+02  0.00000000000E+00 0. -1.
         11    1    4    4    0    0 -0.48594343627E+01 -0.37436120351E+01  0.51970260133E+01  0.80397644890E+01  0.51100000000E-03 0. -1.
        -11    1    4    4    0    0  0.68702389543E+00  0.77624774633E+01 -0.90825715187E+01  0.11967504496E+02  0.51100000000E-03 0.  1.
        -12    1    4    4    0    0 -0.91914241975E+01  0.26006998965E+02  0.20487814316E+02  0.34359813873E+02  0.00000000000E+00 0.  1.
</event>
<event>
 8    1  0.3146747E-007  0.9118800E+02  0.7816164E-02  0.1184000E+00
        -11   -1    0    0    0    0  0.00000000000E+00  0.00000000000E+00  0.45593999997E+02  0.45594000000E+02  0.51100000000E-03 0.  1.
         11   -1    0    0    0    0 -0.00000000000E+00 -0.00000000000E+00 -0.45593999997E+02  0.45594000000E+02  0.51100000000E-03 0. -1.
         23    2    1    2    0    0  0.00000000000E+00  0.00000000000E+00  0.35527136788E-14  0.91188000000E+02  0.91188000000E+02 0.  0.
    9900012    2    3    3    0    0 -0.21526698226E+01 -0.21545567615E+02  0.29781433609E+02  0.54367092094E+02  0.40000018047E+02 0.  0.
         12    1    3    3    0    0  0.21526698226E+01  0.21545567615E+02 -0.29781433609E+02  0.36820907906E+02  0.00000000000E+00 0. -1.
         11    1    4    4    0    0  0.66002316218E+01 -0.45295845831E+01 -0.59892337735E+01  0.99975554718E+01  0.51100000000E-03 0. -1.
        -11    1    4    4    0    0 -0.66217386647E+01 -0.14283477386E+02  0.10642073106E+02  0.19003127886E+02  0.51100000000E-03 0.  1.
         12    1    4    4    0    0 -0.21311627798E+01 -0.27325056455E+01  0.25128594276E+02  0.25366408736E+02  0.00000000000E+00 0. -1.
</event>
<event>
 8    1  0.3146747E-007  0.9118800E+02  0.7816164E-02  0.1184000E+00
        -11   -1    0    0    0    0  0.00000000000E+00  0.00000000000E+00  0.45593999997E+02  0.45594000000E+02  0.51100000000E-03 0. -1.
         11   -1    0    0    0    0 -0.00000000000E+00 -0.00000000000E+00 -0.45593999997E+02  0.45594000000E+02  0.51100000000E-03 0.  1.
         23    2    1    2    0    0  0.00000000000E+00  0.00000000000E+00 -0.35527136788E-14  0.91188000000E+02  0.91188000000E+02 0.  0.
    9900012    2    3    3    0    0  0.11457823386E+02  0.20608746035E+02  0.28280353631E+02  0.54367074816E+02  0.39999978659E+02 0.  0.
        -12    1    3    3    0    0 -0.11457823386E+02 -0.20608746035E+02 -0.28280353631E+02  0.36820925184E+02  0.00000000000E+00 0.  1.
         11    1    4    4    0    0  0.54134714241E+01 -0.10251258372E+02  0.22411018627E+01  0.11807476821E+02  0.51100000000E-03 0. -1.
        -11    1    4    4    0    0 -0.16864194575E+01  0.11583263044E+00  0.27312015572E+01  0.32119915928E+01  0.51100000000E-03 0.  1.
         12    1    4    4    0    0  0.77307714194E+01  0.30744171776E+02  0.23308050211E+02  0.39347606402E+02  0.00000000000E+00 0. -1.
</event>
<event>
 8    1  0.3146747E-007  0.9118800E+02  0.7816164E-02  0.1184000E+00
        -11   -1    0    0    0    0  0.00000000000E+00  0.00000000000E+00  0.45593999997E+02  0.45594000000E+02  0.51100000000E-03 0. -1.
         11   -1    0    0    0    0 -0.00000000000E+00 -0.00000000000E+00 -0.45593999997E+02  0.45594000000E+02  0.51100000000E-03 0.  1.
         23    2    1    2    0    0  0.17763568394E-14  0.00000000000E+00  0.00000000000E+00  0.91188000000E+02  0.91188000000E+02 0.  0.
    9900012    2    3    3    0    0 -0.14771177232E+02 -0.33246106774E+02  0.56823641511E+01  0.54367074498E+02  0.39999977933E+02 0.  0.
        -12    1    3    3    0    0  0.14771177232E+02  0.33246106774E+02 -0.56823641511E+01  0.36820925502E+02  0.00000000000E+00 0.  1.
         11    1    4    4    0    0  0.43207054167E+01 -0.39361224339E+01 -0.15579035529E+01  0.60488526891E+01  0.51100000000E-03 0. -1.
        -11    1    4    4    0    0 -0.78267847353E+01 -0.34489075060E+02  0.57494700738E+01  0.35830312086E+02  0.51100000000E-03 0.  1.
         12    1    4    4    0    0 -0.11265097913E+02  0.51790907196E+01  0.14907976302E+01  0.12487909723E+02  0.00000000000E+00 0. -1.
</event>
<event>
 8    1  0.3146747E-007  0.9118800E+02  0.7816164E-02  0.1184000E+00
        -11   -1    0    0    0    0  0.00000000000E+00  0.00000000000E+00  0.45593999997E+02  0.45594000000E+02  0.51100000000E-03 0. -1.
         11   -1    0    0    0    0 -0.00000000000E+00 -0.00000000000E+00 -0.45593999997E+02  0.45594000000E+02  0.51100000000E-03 0.  1.
         23    2    1    2    0    0  0.00000000000E+00 -0.10547118734E-14  0.00000000000E+00  0.91188000000E+02  0.91188000000E+02 0.  0.
    9900012    2    3    3    0    0  0.36642381811E+02  0.46254899303E+00 -0.35918868471E+01  0.54367085461E+02  0.40000002925E+02 0.  0.
         12    1    3    3    0    0 -0.36642381811E+02 -0.46254899303E+00  0.35918868471E+01  0.36820914539E+02  0.00000000000E+00 0. -1.
         11    1    4    4    0    0  0.12686696240E+02  0.15713624900E+02 -0.99657319827E+01  0.22520792241E+02  0.51100000000E-03 0.  1.
        -11    1    4    4    0    0  0.27818155164E+01 -0.26678025662E+01  0.60980979653E+01  0.72140465174E+01  0.51100000000E-03 0. -1.
        -12    1    4    4    0    0  0.21173870055E+02 -0.12583273341E+02  0.27574717032E+00  0.24632246702E+02  0.00000000000E+00 0.  1.
</event>
<event>
 8    1  0.3146747E-007  0.9118800E+02  0.7816164E-02  0.1184000E+00
        -11   -1    0    0    0    0  0.00000000000E+00  0.00000000000E+00  0.45593999997E+02  0.45594000000E+02  0.51100000000E-03 0.  1.
         11   -1    0    0    0    0 -0.00000000000E+00 -0.00000000000E+00 -0.45593999997E+02  0.45594000000E+02  0.51100000000E-03 0. -1.
         23    2    1    2    0    0  0.35527136788E-14  0.00000000000E+00  0.00000000000E+00  0.91188000000E+02  0.91188000000E+02 0.  0.
    9900012    2    3    3    0    0  0.30074512587E+02 -0.98481494942E+01 -0.18823311409E+02  0.54367090068E+02  0.40000013428E+02 0.  0.
        -12    1    3    3    0    0 -0.30074512587E+02  0.98481494942E+01  0.18823311409E+02  0.36820909932E+02  0.00000000000E+00 0.  1.
         11    1    4    4    0    0 -0.38504604928E+01 -0.60866776723E+01 -0.33788316163E+01  0.79555134621E+01  0.51100000000E-03 0. -1.
        -11    1    4    4    0    0  0.61296418552E+01  0.57477090699E+00  0.77875587129E+01  0.99271819686E+01  0.51100000000E-03 0.  1.
         12    1    4    4    0    0  0.27795331225E+02 -0.43362427289E+01 -0.23232038506E+02  0.36484394637E+02  0.00000000000E+00 0. -1.
</event>
<event>
 8    1  0.3146747E-007  0.9118800E+02  0.7816164E-02  0.1184000E+00
        -11   -1    0    0    0    0  0.00000000000E+00  0.00000000000E+00  0.45593999997E+02  0.45594000000E+02  0.51100000000E-03 0.  1.
         11   -1    0    0    0    0 -0.00000000000E+00 -0.00000000000E+00 -0.45593999997E+02  0.45594000000E+02  0.51100000000E-03 0. -1.
         23    2    1    2    0    0 -0.71054273576E-14 -0.71054273576E-14 -0.88817841970E-15  0.91188000000E+02  0.91188000000E+02 0.  0.
    9900012    2    3    3    0    0 -0.15982504655E+02 -0.32601548730E+02 -0.61220780404E+01  0.54367064730E+02  0.39999955665E+02 0.  0.
         12    1    3    3    0    0  0.15982504655E+02  0.32601548730E+02  0.61220780404E+01  0.36820935270E+02  0.00000000000E+00 0. -1.
         11    1    4    4    0    0 -0.16363253828E+02 -0.21663509199E+02  0.57951243791E+01  0.27760532658E+02  0.51100000000E-03 0.  1.
        -11    1    4    4    0    0 -0.10355433086E+02 -0.59366761108E+01 -0.63263456411E+01  0.13509321488E+02  0.51100000000E-03 0. -1.
         12    1    4    4    0    0  0.10736182259E+02 -0.50013634205E+01 -0.55908567785E+01  0.13097210584E+02  0.00000000000E+00 0. -1.
</event>
<event>
 8    1  0.3146747E-007  0.9118800E+02  0.7816164E-02  0.1184000E+00
        -11   -1    0    0    0    0  0.00000000000E+00  0.00000000000E+00  0.45593999997E+02  0.45594000000E+02  0.51100000000E-03 0.  1.
         11   -1    0    0    0    0 -0.00000000000E+00 -0.00000000000E+00 -0.45593999997E+02  0.45594000000E+02  0.51100000000E-03 0. -1.
         23    2    1    2    0    0  0.35527136788E-14  0.00000000000E+00 -0.17763568394E-14  0.91188000000E+02  0.91188000000E+02 0.  0.
    9900012    2    3    3    0    0 -0.16282849969E+02  0.29275914157E+02  0.15282985808E+02  0.54367081923E+02  0.39999994859E+02 0.  0.
         12    1    3    3    0    0  0.16282849969E+02 -0.29275914157E+02 -0.15282985808E+02  0.36820918077E+02  0.00000000000E+00 0. -1.
         11    1    4    4    0    0  0.22006233552E+01  0.20402582118E+02  0.42650196580E+01  0.20959448781E+02  0.51100000000E-03 0. -1.
        -11    1    4    4    0    0 -0.24228677221E+01  0.14253774184E+02  0.34975252949E+01  0.14875249576E+02  0.51100000000E-03 0.  1.
         12    1    4    4    0    0 -0.16060605602E+02 -0.53804421456E+01  0.75204408555E+01  0.18532383566E+02  0.00000000000E+00 0. -1.
</event>
<event>
 8    1  0.3146747E-007  0.9118800E+02  0.7816164E-02  0.1184000E+00
        -11   -1    0    0    0    0  0.00000000000E+00  0.00000000000E+00  0.45593999997E+02  0.45594000000E+02  0.51100000000E-03 0. -1.
         11   -1    0    0    0    0 -0.00000000000E+00 -0.00000000000E+00 -0.45593999997E+02  0.45594000000E+02  0.51100000000E-03 0.  1.
         23    2    1    2    0    0 -0.35527136788E-14  0.00000000000E+00  0.00000000000E+00  0.91188000000E+02  0.91188000000E+02 0.  0.
    9900012    2    3    3    0    0  0.23182610019E+02 -0.17746619694E+02 -0.22436645750E+02  0.54367095742E+02  0.40000026363E+02 0.  0.
         12    1    3    3    0    0 -0.23182610019E+02  0.17746619694E+02  0.22436645750E+02  0.36820904258E+02  0.00000000000E+00 0. -1.
         11    1    4    4    0    0  0.33364757246E+01  0.68161121018E+01 -0.10572314735E+02  0.13014042168E+02  0.51100000000E-03 0. -1.
        -11    1    4    4    0    0  0.60983569770E+01 -0.14906365370E+02  0.56650872796E+01  0.17072870307E+02  0.51100000000E-03 0.  1.
        -12    1    4    4    0    0  0.13747777317E+02 -0.96563664257E+01 -0.17529418295E+02  0.24280183267E+02  0.00000000000E+00 0.  1.
</event>
<event>
 8    1  0.3146747E-007  0.9118800E+02  0.7816164E-02  0.1184000E+00
        -11   -1    0    0    0    0  0.00000000000E+00  0.00000000000E+00  0.45593999997E+02  0.45594000000E+02  0.51100000000E-03 0. -1.
         11   -1    0    0    0    0 -0.00000000000E+00 -0.00000000000E+00 -0.45593999997E+02  0.45594000000E+02  0.51100000000E-03 0.  1.
         23    2    1    2    0    0  0.35527136788E-14  0.88817841970E-15  0.00000000000E+00  0.91188000000E+02  0.91188000000E+02 0.  0.
    9900012    2    3    3    0    0 -0.26956811554E+02  0.75230356711E+01 -0.23927266604E+02  0.54367084177E+02  0.39999999998E+02 0.  0.
         12    1    3    3    0    0  0.26956811554E+02 -0.75230356711E+01  0.23927266604E+02  0.36820915823E+02  0.00000000000E+00 0. -1.
         11    1    4    4    0    0 -0.17700127808E+01  0.14734787981E+01 -0.18283769984E+01  0.29405862888E+01  0.51100000000E-03 0. -1.
        -11    1    4    4    0    0  0.92061376505E+01 -0.30227145023E+01 -0.98242504535E+01  0.13798756126E+02  0.51100000000E-03 0.  1.
        -12    1    4    4    0    0 -0.34392936424E+02  0.90722713753E+01 -0.12274639152E+02  0.37627741762E+02  0.00000000000E+00 0.  1.
</event>
<event>
 8    1  0.3146747E-007  0.9118800E+02  0.7816164E-02  0.1184000E+00
        -11   -1    0    0    0    0  0.00000000000E+00  0.00000000000E+00  0.45593999997E+02  0.45594000000E+02  0.51100000000E-03 0.  1.
         11   -1    0    0    0    0 -0.00000000000E+00 -0.00000000000E+00 -0.45593999997E+02  0.45594000000E+02  0.51100000000E-03 0. -1.
         23    2    1    2    0    0  0.44408920985E-15  0.00000000000E+00  0.00000000000E+00  0.91188000000E+02  0.91188000000E+02 0.  0.
    9900012    2    3    3    0    0  0.38958729092E+01  0.78660091653E+01 -0.35759296662E+02  0.54367092574E+02  0.40000019140E+02 0.  0.
        -12    1    3    3    0    0 -0.38958729092E+01 -0.78660091653E+01  0.35759296662E+02  0.36820907426E+02  0.00000000000E+00 0.  1.
         11    1    4    4    0    0  0.42257669742E+01  0.13553758050E+02 -0.15003460014E+02  0.20655877528E+02  0.51100000000E-03 0.  1.
        -11    1    4    4    0    0 -0.23239378518E+01 -0.17979678829E+01 -0.26405243031E+02  0.26568218522E+02  0.51100000000E-03 0. -1.
        -12    1    4    4    0    0  0.19940437869E+01 -0.38897810019E+01  0.56494063823E+01  0.71429965237E+01  0.00000000000E+00 0.  1.
</event>
<event>
 8    1  0.3146747E-007  0.9118800E+02  0.7816164E-02  0.1184000E+00
        -11   -1    0    0    0    0  0.00000000000E+00  0.00000000000E+00  0.45593999997E+02  0.45594000000E+02  0.51100000000E-03 0.  1.
         11   -1    0    0    0    0 -0.00000000000E+00 -0.00000000000E+00 -0.45593999997E+02  0.45594000000E+02  0.51100000000E-03 0. -1.
         23    2    1    2    0    0  0.17763568394E-14  0.88817841970E-15  0.00000000000E+00  0.91188000000E+02  0.91188000000E+02 0.  0.
    9900012    2    3    3    0    0 -0.13564012448E+02  0.31311405889E+01  0.34088000485E+02  0.54367105767E+02  0.40000049217E+02 0.  0.
         12    1    3    3    0    0  0.13564012448E+02 -0.31311405889E+01 -0.34088000485E+02  0.36820894233E+02  0.00000000000E+00 0. -1.
         11    1    4    4    0    0 -0.20501821328E+02 -0.11143545657E+02  0.22850373261E+02  0.32659498557E+02  0.51100000000E-03 0.  1.
        -11    1    4    4    0    0  0.49191249838E+01  0.48332853662E+01  0.97446851629E+01  0.11938062122E+02  0.51100000000E-03 0. -1.
        -12    1    4    4    0    0  0.20186838959E+01  0.94414008792E+01  0.14929420605E+01  0.97695450882E+01  0.00000000000E+00 0.  1.
</event>
<event>
 8    1  0.3146747E-007  0.9118800E+02  0.7816164E-02  0.1184000E+00
        -11   -1    0    0    0    0  0.00000000000E+00  0.00000000000E+00  0.45593999997E+02  0.45594000000E+02  0.51100000000E-03 0.  1.
         11   -1    0    0    0    0 -0.00000000000E+00 -0.00000000000E+00 -0.45593999997E+02  0.45594000000E+02  0.51100000000E-03 0. -1.
         23    2    1    2    0    0  0.35527136788E-14 -0.35527136788E-14  0.35527136788E-14  0.91188000000E+02  0.91188000000E+02 0.  0.
    9900012    2    3    3    0    0 -0.24914586377E+02  0.16903390618E+02 -0.21197103509E+02  0.54367103408E+02  0.40000043839E+02 0.  0.
        -12    1    3    3    0    0  0.24914586377E+02 -0.16903390618E+02  0.21197103509E+02  0.36820896592E+02  0.00000000000E+00 0.  1.
         11    1    4    4    0    0  0.19477073976E+01  0.83134034940E+01 -0.31808295678E+00  0.85444378861E+01  0.51100000000E-03 0.  1.
        -11    1    4    4    0    0 -0.15918671518E+02 -0.32845446387E+01 -0.24377835465E+02  0.29299679155E+02  0.51100000000E-03 0. -1.
         12    1    4    4    0    0 -0.10943622256E+02  0.11874531762E+02  0.34988149132E+01  0.16522986366E+02  0.00000000000E+00 0. -1.
</event>
<event>
 8    1  0.3146747E-007  0.9118800E+02  0.7816164E-02  0.1184000E+00
        -11   -1    0    0    0    0  0.00000000000E+00  0.00000000000E+00  0.45593999997E+02  0.45594000000E+02  0.51100000000E-03 0.  1.
         11   -1    0    0    0    0 -0.00000000000E+00 -0.00000000000E+00 -0.45593999997E+02  0.45594000000E+02  0.51100000000E-03 0. -1.
         23    2    1    2    0    0  0.35527136788E-14 -0.17763568394E-14 -0.35527136788E-14  0.91188000000E+02  0.91188000000E+02 0.  0.
    9900012    2    3    3    0    0 -0.29745186340E+02  0.12942342876E+02  0.17421082303E+02  0.54367157287E+02  0.40000166666E+02 0.  0.
        -12    1    3    3    0    0  0.29745186340E+02 -0.12942342876E+02 -0.17421082303E+02  0.36820842713E+02  0.00000000000E+00 0.  1.
         11    1    4    4    0    0 -0.32686424596E+02  0.22061149962E+02  0.16592135331E+02  0.42783123373E+02  0.51100000000E-03 0. -1.
        -11    1    4    4    0    0  0.36290544093E+01 -0.31934033363E+01  0.24261680277E+01  0.54087107829E+01  0.51100000000E-03 0.  1.
        -12    1    4    4    0    0 -0.68781615365E+00 -0.59254037501E+01 -0.15972210553E+01  0.61753231302E+01  0.00000000000E+00 0.  1.
</event>
<event>
 8    1  0.3146747E-007  0.9118800E+02  0.7816164E-02  0.1184000E+00
        -11   -1    0    0    0    0  0.00000000000E+00  0.00000000000E+00  0.45593999997E+02  0.45594000000E+02  0.51100000000E-03 0.  1.
         11   -1    0    0    0    0 -0.00000000000E+00 -0.00000000000E+00 -0.45593999997E+02  0.45594000000E+02  0.51100000000E-03 0. -1.
         23    2    1    2    0    0  0.35527136788E-14  0.00000000000E+00  0.00000000000E+00  0.91188000000E+02  0.91188000000E+02 0.  0.
    9900012    2    3    3    0    0 -0.16018883297E+02 -0.15811529963E+02 -0.29140543699E+02  0.54367076751E+02  0.39999983069E+02 0.  0.
        -12    1    3    3    0    0  0.16018883297E+02  0.15811529963E+02  0.29140543699E+02  0.36820923249E+02  0.00000000000E+00 0.  1.
         11    1    4    4    0    0  0.45203166546E+01  0.49151469416E+00 -0.16783652730E+02  0.17388670121E+02  0.51100000000E-03 0. -1.
        -11    1    4    4    0    0 -0.98217319911E+01 -0.34278206013E+01  0.60946909311E+01  0.12056601146E+02  0.51100000000E-03 0.  1.
         12    1    4    4    0    0 -0.10717467960E+02 -0.12875224056E+02 -0.18451581901E+02  0.24921805484E+02  0.00000000000E+00 0. -1.
</event>
<event>
 8    1  0.3146747E-007  0.9118800E+02  0.7816164E-02  0.1184000E+00
        -11   -1    0    0    0    0  0.00000000000E+00  0.00000000000E+00  0.45593999997E+02  0.45594000000E+02  0.51100000000E-03 0.  1.
         11   -1    0    0    0    0 -0.00000000000E+00 -0.00000000000E+00 -0.45593999997E+02  0.45594000000E+02  0.51100000000E-03 0. -1.
         23    2    1    2    0    0  0.00000000000E+00  0.00000000000E+00  0.00000000000E+00  0.91188000000E+02  0.91188000000E+02 0.  0.
    9900012    2    3    3    0    0  0.24307492816E+02  0.26998024775E+02 -0.60017475545E+01  0.54367237889E+02  0.40000350413E+02 0.  0.
        -12    1    3    3    0    0 -0.24307492816E+02 -0.26998024775E+02  0.60017475545E+01  0.36820762111E+02  0.00000000000E+00 0.  1.
         11    1    4    4    0    0  0.12294422572E+02  0.67331056195E+01  0.59997250414E+01  0.15247433833E+02  0.51100000000E-03 0.  1.
        -11    1    4    4    0    0  0.10896540918E+02 -0.22573242428E+01  0.36036544418E+01  0.11696856087E+02  0.51100000000E-03 0. -1.
         12    1    4    4    0    0  0.11165293255E+01  0.22522243398E+02 -0.15605127038E+02  0.27422947969E+02  0.00000000000E+00 0. -1.
</event>
<event>
 8    1  0.3146747E-007  0.9118800E+02  0.7816164E-02  0.1184000E+00
        -11   -1    0    0    0    0  0.00000000000E+00  0.00000000000E+00  0.45593999997E+02  0.45594000000E+02  0.51100000000E-03 0. -1.
         11   -1    0    0    0    0 -0.00000000000E+00 -0.00000000000E+00 -0.45593999997E+02  0.45594000000E+02  0.51100000000E-03 0.  1.
         23    2    1    2    0    0  0.00000000000E+00  0.00000000000E+00 -0.35527136788E-14  0.91188000000E+02  0.91188000000E+02 0.  0.
    9900012    2    3    3    0    0  0.16101822144E+02  0.16470698293E+02 -0.28726806658E+02  0.54367054882E+02  0.39999933215E+02 0.  0.
         12    1    3    3    0    0 -0.16101822144E+02 -0.16470698293E+02  0.28726806658E+02  0.36820945118E+02  0.00000000000E+00 0. -1.
         11    1    4    4    0    0 -0.45449112391E+01 -0.30202881261E+01 -0.22077396894E+01  0.58866351453E+01  0.51100000000E-03 0. -1.
        -11    1    4    4    0    0 -0.30576604266E+01  0.14955169687E+02 -0.16121343892E+02  0.22201444025E+02  0.51100000000E-03 0.  1.
         12    1    4    4    0    0  0.23704393809E+02  0.45358167325E+01 -0.10397723076E+02  0.26278975712E+02  0.00000000000E+00 0. -1.
</event>
<event>
 8    1  0.3146747E-007  0.9118800E+02  0.7816164E-02  0.1184000E+00
        -11   -1    0    0    0    0  0.00000000000E+00  0.00000000000E+00  0.45593999997E+02  0.45594000000E+02  0.51100000000E-03 0. -1.
         11   -1    0    0    0    0 -0.00000000000E+00 -0.00000000000E+00 -0.45593999997E+02  0.45594000000E+02  0.51100000000E-03 0.  1.
         23    2    1    2    0    0 -0.17763568394E-14  0.00000000000E+00  0.00000000000E+00  0.91188000000E+02  0.91188000000E+02 0.  0.
    9900012    2    3    3    0    0 -0.10751970649E+02 -0.13357327490E+02 -0.32584608862E+02  0.54367084677E+02  0.40000001139E+02 0.  0.
         12    1    3    3    0    0  0.10751970649E+02  0.13357327490E+02  0.32584608862E+02  0.36820915323E+02  0.00000000000E+00 0. -1.
         11    1    4    4    0    0 -0.11789123249E+02 -0.10808482754E+02  0.20941641495E+01  0.16130475820E+02  0.51100000000E-03 0. -1.
        -11    1    4    4    0    0 -0.47765310943E+01 -0.71798202823E+01 -0.17111078194E+02  0.19161264724E+02  0.51100000000E-03 0.  1.
         12    1    4    4    0    0  0.58136836947E+01  0.46309755468E+01 -0.17567694817E+02  0.19075344133E+02  0.00000000000E+00 0. -1.
</event>
<event>
 8    1  0.3146747E-007  0.9118800E+02  0.7816164E-02  0.1184000E+00
        -11   -1    0    0    0    0  0.00000000000E+00  0.00000000000E+00  0.45593999997E+02  0.45594000000E+02  0.51100000000E-03 0.  1.
         11   -1    0    0    0    0 -0.00000000000E+00 -0.00000000000E+00 -0.45593999997E+02  0.45594000000E+02  0.51100000000E-03 0. -1.
         23    2    1    2    0    0 -0.35527136788E-14  0.00000000000E+00  0.35527136788E-14  0.91188000000E+02  0.91188000000E+02 0.  0.
    9900012    2    3    3    0    0  0.28247263276E+02  0.12885792256E+02 -0.19794647385E+02  0.54367087603E+02  0.40000007809E+02 0.  0.
        -12    1    3    3    0    0 -0.28247263276E+02 -0.12885792256E+02  0.19794647385E+02  0.36820912397E+02  0.00000000000E+00 0.  1.
         11    1    4    4    0    0  0.58469628097E+01 -0.71542038005E+01 -0.43740080860E+01  0.10222600115E+02  0.51100000000E-03 0. -1.
        -11    1    4    4    0    0 -0.18205038001E+01  0.16192268957E+02 -0.96952004736E+01  0.18960504227E+02  0.51100000000E-03 0.  1.
         12    1    4    4    0    0  0.24220804266E+02  0.38477270996E+01 -0.57254388256E+01  0.25183983261E+02  0.00000000000E+00 0. -1.
</event>
<event>
 8    1  0.3146747E-007  0.9118800E+02  0.7816164E-02  0.1184000E+00
        -11   -1    0    0    0    0  0.00000000000E+00  0.00000000000E+00  0.45593999997E+02  0.45594000000E+02  0.51100000000E-03 0. -1.
         11   -1    0    0    0    0 -0.00000000000E+00 -0.00000000000E+00 -0.45593999997E+02  0.45594000000E+02  0.51100000000E-03 0.  1.
         23    2    1    2    0    0  0.00000000000E+00  0.00000000000E+00  0.00000000000E+00  0.91188000000E+02  0.91188000000E+02 0.  0.
    9900012    2    3    3    0    0  0.12657982947E+02 -0.30003019868E+02  0.17186446494E+02  0.54367086424E+02  0.40000005121E+02 0.  0.
        -12    1    3    3    0    0 -0.12657982947E+02  0.30003019868E+02 -0.17186446494E+02  0.36820913576E+02  0.00000000000E+00 0.  1.
         11    1    4    4    0    0  0.41280351161E+01  0.49189702717E+01  0.65745161349E+01  0.91902777500E+01  0.51100000000E-03 0. -1.
        -11    1    4    4    0    0  0.11342636336E+02 -0.13265625374E+02 -0.52038573204E+01  0.18212971940E+02  0.51100000000E-03 0.  1.
         12    1    4    4    0    0 -0.28126885052E+01 -0.21656364766E+02  0.15815787680E+02  0.26963836734E+02  0.00000000000E+00 0. -1.
</event>
<event>
 8    1  0.3146747E-007  0.9118800E+02  0.7816164E-02  0.1184000E+00
        -11   -1    0    0    0    0  0.00000000000E+00  0.00000000000E+00  0.45593999997E+02  0.45594000000E+02  0.51100000000E-03 0.  1.
         11   -1    0    0    0    0 -0.00000000000E+00 -0.00000000000E+00 -0.45593999997E+02  0.45594000000E+02  0.51100000000E-03 0. -1.
         23    2    1    2    0    0  0.00000000000E+00  0.00000000000E+00  0.00000000000E+00  0.91188000000E+02  0.91188000000E+02 0.  0.
    9900012    2    3    3    0    0  0.31672663070E+02 -0.15876719433E+02  0.10027489368E+02  0.54367104452E+02  0.40000046220E+02 0.  0.
         12    1    3    3    0    0 -0.31672663070E+02  0.15876719433E+02 -0.10027489368E+02  0.36820895548E+02  0.00000000000E+00 0. -1.
         11    1    4    4    0    0  0.69528831437E+01 -0.21121213859E+01 -0.11341641658E+02  0.13469835802E+02  0.51100000000E-03 0. -1.
        -11    1    4    4    0    0  0.17407046867E+02 -0.11424591587E+02  0.24889935899E+02  0.32450508207E+02  0.51100000000E-03 0.  1.
         12    1    4    4    0    0  0.73127330593E+01 -0.23400064601E+01 -0.35208048730E+01  0.84467604431E+01  0.00000000000E+00 0. -1.
</event>
<event>
 8    1  0.3146747E-007  0.9118800E+02  0.7816164E-02  0.1184000E+00
        -11   -1    0    0    0    0  0.00000000000E+00  0.00000000000E+00  0.45593999997E+02  0.45594000000E+02  0.51100000000E-03 0. -1.
         11   -1    0    0    0    0 -0.00000000000E+00 -0.00000000000E+00 -0.45593999997E+02  0.45594000000E+02  0.51100000000E-03 0.  1.
         23    2    1    2    0    0  0.00000000000E+00  0.00000000000E+00  0.00000000000E+00  0.91188000000E+02  0.91188000000E+02 0.  0.
    9900012    2    3    3    0    0 -0.29674180955E+02  0.86283429316E+01  0.20019349323E+02  0.54367086589E+02  0.40000005497E+02 0.  0.
        -12    1    3    3    0    0  0.29674180955E+02 -0.86283429316E+01 -0.20019349323E+02  0.36820913411E+02  0.00000000000E+00 0.  1.
         11    1    4    4    0    0 -0.20483841947E+02  0.33549138750E+01  0.29239380738E+01  0.20961694639E+02  0.51100000000E-03 0. -1.
        -11    1    4    4    0    0 -0.24958445414E+01 -0.93425289115E+01 -0.35752366516E+00  0.96767716657E+01  0.51100000000E-03 0.  1.
         12    1    4    4    0    0 -0.66944944671E+01  0.14615957968E+02  0.17452934914E+02  0.23728620285E+02  0.00000000000E+00 0. -1.
</event>
<event>
 8    1  0.3146747E-007  0.9118800E+02  0.7816164E-02  0.1184000E+00
        -11   -1    0    0    0    0  0.00000000000E+00  0.00000000000E+00  0.45593999997E+02  0.45594000000E+02  0.51100000000E-03 0.  1.
         11   -1    0    0    0    0 -0.00000000000E+00 -0.00000000000E+00 -0.45593999997E+02  0.45594000000E+02  0.51100000000E-03 0. -1.
         23    2    1    2    0    0  0.17763568394E-14 -0.22204460493E-15 -0.71054273576E-14  0.91188000000E+02  0.91188000000E+02 0.  0.
    9900012    2    3    3    0    0  0.84115307435E+01  0.10593941926E+01 -0.35831615851E+02  0.54367070354E+02  0.39999968485E+02 0.  0.
        -12    1    3    3    0    0 -0.84115307435E+01 -0.10593941926E+01  0.35831615851E+02  0.36820929646E+02  0.00000000000E+00 0.  1.
         11    1    4    4    0    0 -0.11797772136E+02 -0.39874823643E+01 -0.18479403022E+02  0.22283980329E+02  0.51100000000E-03 0. -1.
        -11    1    4    4    0    0  0.16442943443E+02  0.18163538360E+01 -0.20396299894E+02  0.26261732235E+02  0.51100000000E-03 0.  1.
        -12    1    4    4    0    0  0.37663594369E+01  0.32305227209E+01  0.30440870652E+01  0.58213577899E+01  0.00000000000E+00 0.  1.
</event>
<event>
 8    1  0.3146747E-007  0.9118800E+02  0.7816164E-02  0.1184000E+00
        -11   -1    0    0    0    0  0.00000000000E+00  0.00000000000E+00  0.45593999997E+02  0.45594000000E+02  0.51100000000E-03 0. -1.
         11   -1    0    0    0    0 -0.00000000000E+00 -0.00000000000E+00 -0.45593999997E+02  0.45594000000E+02  0.51100000000E-03 0.  1.
         23    2    1    2    0    0  0.71054273576E-14 -0.35527136788E-14 -0.44408920985E-15  0.91188000000E+02  0.91188000000E+02 0.  0.
    9900012    2    3    3    0    0 -0.34584077438E+02  0.12524549459E+02  0.16903485242E+01  0.54367081631E+02  0.39999994195E+02 0.  0.
        -12    1    3    3    0    0  0.34584077438E+02 -0.12524549459E+02 -0.16903485242E+01  0.36820918369E+02  0.00000000000E+00 0.  1.
         11    1    4    4    0    0  0.15281795401E+01  0.51223870302E+01  0.88966453596E+01  0.10379040443E+02  0.51100000000E-03 0. -1.
        -11    1    4    4    0    0 -0.37306927864E+02  0.15701028216E+01 -0.72369748171E+01  0.38034798466E+02  0.51100000000E-03 0.  1.
        -12    1    4    4    0    0  0.11946708865E+01  0.58320596067E+01  0.30677981715E-01  0.59532427232E+01  0.00000000000E+00 0.  1.
</event>
<event>
 8    1  0.3146747E-007  0.9118800E+02  0.7816164E-02  0.1184000E+00
        -11   -1    0    0    0    0  0.00000000000E+00  0.00000000000E+00  0.45593999997E+02  0.45594000000E+02  0.51100000000E-03 0.  1.
         11   -1    0    0    0    0 -0.00000000000E+00 -0.00000000000E+00 -0.45593999997E+02  0.45594000000E+02  0.51100000000E-03 0. -1.
         23    2    1    2    0    0  0.35527136788E-14  0.17763568394E-14  0.35527136788E-14  0.91188000000E+02  0.91188000000E+02 0.  0.
    9900012    2    3    3    0    0  0.19740353944E+02 -0.12691058970E+02 -0.28373088614E+02  0.54367126720E+02  0.40000096984E+02 0.  0.
        -12    1    3    3    0    0 -0.19740353944E+02  0.12691058970E+02  0.28373088614E+02  0.36820873280E+02  0.00000000000E+00 0.  1.
         11    1    4    4    0    0  0.40576550447E+01  0.67588243150E+01 -0.19315188437E+02  0.20861993557E+02  0.51100000000E-03 0.  1.
        -11    1    4    4    0    0 -0.39290023564E+01 -0.57354183787E+01 -0.63597727803E+01  0.94222499210E+01  0.51100000000E-03 0. -1.
        -12    1    4    4    0    0  0.19611701256E+02 -0.13714464906E+02 -0.26981273968E+01  0.24082883242E+02  0.00000000000E+00 0.  1.
</event>
<event>
 8    1  0.3146747E-007  0.9118800E+02  0.7816164E-02  0.1184000E+00
        -11   -1    0    0    0    0  0.00000000000E+00  0.00000000000E+00  0.45593999997E+02  0.45594000000E+02  0.51100000000E-03 0.  1.
         11   -1    0    0    0    0 -0.00000000000E+00 -0.00000000000E+00 -0.45593999997E+02  0.45594000000E+02  0.51100000000E-03 0. -1.
         23    2    1    2    0    0 -0.35527136788E-14  0.00000000000E+00 -0.35527136788E-14  0.91188000000E+02  0.91188000000E+02 0.  0.
    9900012    2    3    3    0    0  0.20677621051E+02  0.21488050941E+02  0.21598144998E+02  0.54367079141E+02  0.39999988518E+02 0.  0.
        -12    1    3    3    0    0 -0.20677621051E+02 -0.21488050941E+02 -0.21598144998E+02  0.36820920859E+02  0.00000000000E+00 0.  1.
         11    1    4    4    0    0 -0.47590540291E+01  0.16023426284E+01 -0.12489737009E+01  0.51745562822E+01  0.51100000000E-03 0. -1.
        -11    1    4    4    0    0  0.12710137244E+02  0.90123893781E+01 -0.52884265938E+01  0.16454124320E+02  0.51100000000E-03 0.  1.
        -12    1    4    4    0    0  0.12726537837E+02  0.10873318934E+02  0.28135545292E+02  0.32738398538E+02  0.00000000000E+00 0.  1.
</event>
<event>
 8    1  0.3146747E-007  0.9118800E+02  0.7816164E-02  0.1184000E+00
        -11   -1    0    0    0    0  0.00000000000E+00  0.00000000000E+00  0.45593999997E+02  0.45594000000E+02  0.51100000000E-03 0. -1.
         11   -1    0    0    0    0 -0.00000000000E+00 -0.00000000000E+00 -0.45593999997E+02  0.45594000000E+02  0.51100000000E-03 0.  1.
         23    2    1    2    0    0  0.00000000000E+00  0.00000000000E+00  0.71054273576E-14  0.91188000000E+02  0.91188000000E+02 0.  0.
    9900012    2    3    3    0    0 -0.13664820412E+01 -0.11551836940E+02  0.34935193736E+02  0.54367082423E+02  0.39999995999E+02 0.  0.
        -12    1    3    3    0    0  0.13664820412E+01  0.11551836940E+02 -0.34935193736E+02  0.36820917577E+02  0.00000000000E+00 0.  1.
         11    1    4    4    0    0 -0.73609852865E+01 -0.21018313760E+01  0.58370052601E-01  0.76554037676E+01  0.51100000000E-03 0. -1.
        -11    1    4    4    0    0  0.17378507386E+02 -0.81738149294E+01  0.25408358932E+02  0.31849779801E+02  0.51100000000E-03 0.  1.
        -12    1    4    4    0    0 -0.11384004141E+02 -0.12761906347E+01  0.94684647511E+01  0.14861898854E+02  0.00000000000E+00 0.  1.
</event>
<event>
 8    1  0.3146747E-007  0.9118800E+02  0.7816164E-02  0.1184000E+00
        -11   -1    0    0    0    0  0.00000000000E+00  0.00000000000E+00  0.45593999997E+02  0.45594000000E+02  0.51100000000E-03 0. -1.
         11   -1    0    0    0    0 -0.00000000000E+00 -0.00000000000E+00 -0.45593999997E+02  0.45594000000E+02  0.51100000000E-03 0.  1.
         23    2    1    2    0    0  0.00000000000E+00  0.00000000000E+00  0.22204460493E-14  0.91188000000E+02  0.91188000000E+02 0.  0.
    9900012    2    3    3    0    0  0.10293813326E+02  0.35263565666E+02 -0.25094692985E+01  0.54367094356E+02  0.40000023203E+02 0.  0.
         12    1    3    3    0    0 -0.10293813326E+02 -0.35263565666E+02  0.25094692985E+01  0.36820905644E+02  0.00000000000E+00 0. -1.
         11    1    4    4    0    0  0.15685436969E+02  0.19801916869E+02 -0.13149639163E+02  0.28479147722E+02  0.51100000000E-03 0. -1.
        -11    1    4    4    0    0 -0.99039069294E+01  0.43888878630E+01  0.17159331410E+01  0.10967868341E+02  0.51100000000E-03 0.  1.
         12    1    4    4    0    0  0.45122832868E+01  0.11072760934E+02  0.89242367235E+01  0.14920078293E+02  0.00000000000E+00 0. -1.
</event>
<event>
 8    1  0.3146747E-007  0.9118800E+02  0.7816164E-02  0.1184000E+00
        -11   -1    0    0    0    0  0.00000000000E+00  0.00000000000E+00  0.45593999997E+02  0.45594000000E+02  0.51100000000E-03 0. -1.
         11   -1    0    0    0    0 -0.00000000000E+00 -0.00000000000E+00 -0.45593999997E+02  0.45594000000E+02  0.51100000000E-03 0.  1.
         23    2    1    2    0    0  0.00000000000E+00 -0.11102230246E-14  0.00000000000E+00  0.91188000000E+02  0.91188000000E+02 0.  0.
    9900012    2    3    3    0    0 -0.10663312732E+02  0.95526972476E+00  0.35230104546E+02  0.54367095000E+02  0.40000024672E+02 0.  0.
        -12    1    3    3    0    0  0.10663312732E+02 -0.95526972476E+00 -0.35230104546E+02  0.36820905000E+02  0.00000000000E+00 0.  1.
         11    1    4    4    0    0 -0.13732607305E+02  0.86728527504E+01  0.97216578927E+01  0.18929170893E+02  0.51100000000E-03 0. -1.
        -11    1    4    4    0    0 -0.22963655403E+00 -0.59305936863E+01 -0.30231963853E+01  0.66606599571E+01  0.51100000000E-03 0.  1.
         12    1    4    4    0    0  0.32989311279E+01 -0.17869893393E+01  0.28531643039E+02  0.28777264150E+02  0.00000000000E+00 0. -1.
</event>
<event>
 8    1  0.3146747E-007  0.9118800E+02  0.7816164E-02  0.1184000E+00
        -11   -1    0    0    0    0  0.00000000000E+00  0.00000000000E+00  0.45593999997E+02  0.45594000000E+02  0.51100000000E-03 0. -1.
         11   -1    0    0    0    0 -0.00000000000E+00 -0.00000000000E+00 -0.45593999997E+02  0.45594000000E+02  0.51100000000E-03 0.  1.
         23    2    1    2    0    0  0.14432899320E-14  0.35527136788E-14  0.35527136788E-14  0.91188000000E+02  0.91188000000E+02 0.  0.
    9900012    2    3    3    0    0  0.84042355983E+00  0.28654757094E+02  0.23107965418E+02  0.54367089071E+02  0.40000011156E+02 0.  0.
        -12    1    3    3    0    0 -0.84042355983E+00 -0.28654757094E+02 -0.23107965418E+02  0.36820910929E+02  0.00000000000E+00 0.  1.
         11    1    4    4    0    0  0.82802199662E+01 -0.39231851549E+01 -0.37599387758E+01  0.99040680686E+01  0.51100000000E-03 0. -1.
        -11    1    4    4    0    0 -0.68518790763E+01  0.12725313473E+02  0.16911308910E+02  0.22245768568E+02  0.51100000000E-03 0.  1.
        -12    1    4    4    0    0 -0.58791733009E+00  0.19852628776E+02  0.99565952834E+01  0.22217252435E+02  0.00000000000E+00 0.  1.
</event>
<event>
 8    1  0.3146747E-007  0.9118800E+02  0.7816164E-02  0.1184000E+00
        -11   -1    0    0    0    0  0.00000000000E+00  0.00000000000E+00  0.45593999997E+02  0.45594000000E+02  0.51100000000E-03 0. -1.
         11   -1    0    0    0    0 -0.00000000000E+00 -0.00000000000E+00 -0.45593999997E+02  0.45594000000E+02  0.51100000000E-03 0.  1.
         23    2    1    2    0    0  0.00000000000E+00 -0.17763568394E-14 -0.35527136788E-14  0.91188000000E+02  0.91188000000E+02 0.  0.
    9900012    2    3    3    0    0  0.13452534252E+02  0.13992227275E+02  0.31289390787E+02  0.54367094556E+02  0.40000023659E+02 0.  0.
        -12    1    3    3    0    0 -0.13452534252E+02 -0.13992227275E+02 -0.31289390787E+02  0.36820905444E+02  0.00000000000E+00 0.  1.
         11    1    4    4    0    0 -0.15576072747E+01 -0.35780222039E+01  0.73092771530E+01  0.82857658713E+01  0.51100000000E-03 0. -1.
        -11    1    4    4    0    0  0.19329271667E+02  0.45395660603E+01  0.25445602462E+02  0.32275487419E+02  0.51100000000E-03 0.  1.
         12    1    4    4    0    0 -0.43191301408E+01  0.13030683419E+02 -0.14654888288E+01  0.13805841266E+02  0.00000000000E+00 0. -1.
</event>
<event>
 8    1  0.3146747E-007  0.9118800E+02  0.7816164E-02  0.1184000E+00
        -11   -1    0    0    0    0  0.00000000000E+00  0.00000000000E+00  0.45593999997E+02  0.45594000000E+02  0.51100000000E-03 0.  1.
         11   -1    0    0    0    0 -0.00000000000E+00 -0.00000000000E+00 -0.45593999997E+02  0.45594000000E+02  0.51100000000E-03 0. -1.
         23    2    1    2    0    0  0.00000000000E+00 -0.17763568394E-14  0.00000000000E+00  0.91188000000E+02  0.91188000000E+02 0.  0.
    9900012    2    3    3    0    0 -0.76534399939E+01 -0.13139528533E+02  0.33534396895E+02  0.54367107440E+02  0.40000053032E+02 0.  0.
         12    1    3    3    0    0  0.76534399939E+01  0.13139528533E+02 -0.33534396895E+02  0.36820892560E+02  0.00000000000E+00 0. -1.
         11    1    4    4    0    0  0.11975281524E+02 -0.10440192645E+02  0.12836434574E+02  0.20424961270E+02  0.51100000000E-03 0. -1.
        -11    1    4    4    0    0 -0.42785339331E+01  0.72492198641E+01  0.46983719569E+01  0.96401110243E+01  0.51100000000E-03 0.  1.
        -12    1    4    4    0    0 -0.15350187585E+02 -0.99485557520E+01  0.15999590364E+02  0.24302035146E+02  0.00000000000E+00 0.  1.
</event>
<event>
 8    1  0.3146747E-007  0.9118800E+02  0.7816164E-02  0.1184000E+00
        -11   -1    0    0    0    0  0.00000000000E+00  0.00000000000E+00  0.45593999997E+02  0.45594000000E+02  0.51100000000E-03 0. -1.
         11   -1    0    0    0    0 -0.00000000000E+00 -0.00000000000E+00 -0.45593999997E+02  0.45594000000E+02  0.51100000000E-03 0.  1.
         23    2    1    2    0    0 -0.26645352591E-14 -0.22204460493E-15  0.00000000000E+00  0.91188000000E+02  0.91188000000E+02 0.  0.
    9900012    2    3    3    0    0  0.39480353563E+01  0.11457942804E+01  0.36590706662E+02  0.54367086897E+02  0.40000006198E+02 0.  0.
        -12    1    3    3    0    0 -0.39480353563E+01 -0.11457942804E+01 -0.36590706662E+02  0.36820913103E+02  0.00000000000E+00 0.  1.
         11    1    4    4    0    0 -0.75549699349E+01 -0.29030257672E+01  0.51466181845E+01  0.95912881471E+01  0.51100000000E-03 0. -1.
        -11    1    4    4    0    0 -0.62741566483E+01 -0.72403165655E+01  0.16044007603E+02  0.18686824392E+02  0.51100000000E-03 0.  1.
        -12    1    4    4    0    0  0.17777161939E+02  0.11289136613E+02  0.15400080875E+02  0.26088974358E+02  0.00000000000E+00 0.  1.
</event>
<event>
 8    1  0.3146747E-007  0.9118800E+02  0.7816164E-02  0.1184000E+00
        -11   -1    0    0    0    0  0.00000000000E+00  0.00000000000E+00  0.45593999997E+02  0.45594000000E+02  0.51100000000E-03 0. -1.
         11   -1    0    0    0    0 -0.00000000000E+00 -0.00000000000E+00 -0.45593999997E+02  0.45594000000E+02  0.51100000000E-03 0.  1.
         23    2    1    2    0    0  0.00000000000E+00 -0.17763568394E-14  0.00000000000E+00  0.91188000000E+02  0.91188000000E+02 0.  0.
    9900012    2    3    3    0    0 -0.50936741857E+01  0.15309556991E+02  0.33097600534E+02  0.54367092718E+02  0.40000019469E+02 0.  0.
        -12    1    3    3    0    0  0.50936741857E+01 -0.15309556991E+02 -0.33097600534E+02  0.36820907282E+02  0.00000000000E+00 0.  1.
         11    1    4    4    0    0 -0.12930190436E+01 -0.37358396283E+01  0.10129961572E+02  0.10874029505E+02  0.51100000000E-03 0. -1.
        -11    1    4    4    0    0  0.87740335042E+01  0.15677359984E+02  0.10442008256E+01  0.17995933863E+02  0.51100000000E-03 0.  1.
        -12    1    4    4    0    0 -0.12574688646E+02  0.33680366351E+01  0.21923438137E+02  0.25497129349E+02  0.00000000000E+00 0.  1.
</event>
<event>
 8    1  0.3146747E-007  0.9118800E+02  0.7816164E-02  0.1184000E+00
        -11   -1    0    0    0    0  0.00000000000E+00  0.00000000000E+00  0.45593999997E+02  0.45594000000E+02  0.51100000000E-03 0.  1.
         11   -1    0    0    0    0 -0.00000000000E+00 -0.00000000000E+00 -0.45593999997E+02  0.45594000000E+02  0.51100000000E-03 0. -1.
         23    2    1    2    0    0 -0.71054273576E-14  0.44408920985E-15 -0.17763568394E-14  0.91188000000E+02  0.91188000000E+02 0.  0.
    9900012    2    3    3    0    0 -0.35408265814E+02  0.10157230537E+01 -0.10050029964E+02  0.54367080897E+02  0.39999992522E+02 0.  0.
         12    1    3    3    0    0  0.35408265814E+02 -0.10157230537E+01  0.10050029964E+02  0.36820919103E+02  0.00000000000E+00 0. -1.
         11    1    4    4    0    0 -0.71370074057E+01  0.42105260564E+01  0.18471661146E+01  0.84898425955E+01  0.51100000000E-03 0. -1.
        -11    1    4    4    0    0 -0.45236763518E+01 -0.14656184338E+01  0.11531232495E+02  0.12473211625E+02  0.51100000000E-03 0.  1.
         12    1    4    4    0    0 -0.23747582056E+02 -0.17291845689E+01 -0.23428428574E+02  0.33404026677E+02  0.00000000000E+00 0. -1.
</event>
<event>
 8    1  0.3146747E-007  0.9118800E+02  0.7816164E-02  0.1184000E+00
        -11   -1    0    0    0    0  0.00000000000E+00  0.00000000000E+00  0.45593999997E+02  0.45594000000E+02  0.51100000000E-03 0. -1.
         11   -1    0    0    0    0 -0.00000000000E+00 -0.00000000000E+00 -0.45593999997E+02  0.45594000000E+02  0.51100000000E-03 0.  1.
         23    2    1    2    0    0  0.00000000000E+00 -0.35527136788E-14  0.00000000000E+00  0.91188000000E+02  0.91188000000E+02 0.  0.
    9900012    2    3    3    0    0  0.11518930683E+02  0.22496595157E+02  0.26776791100E+02  0.54367094262E+02  0.40000022990E+02 0.  0.
        -12    1    3    3    0    0 -0.11518930683E+02 -0.22496595157E+02 -0.26776791100E+02  0.36820905738E+02  0.00000000000E+00 0.  1.
         11    1    4    4    0    0  0.54786036993E+01  0.29536176672E+01  0.27620081019E+00  0.62301880362E+01  0.51100000000E-03 0. -1.
        -11    1    4    4    0    0 -0.39478249592E+01  0.22313302406E+02  0.35262534201E+01  0.22932580526E+02  0.51100000000E-03 0.  1.
        -12    1    4    4    0    0  0.99881519427E+01 -0.27703249159E+01  0.22974336870E+02  0.25204325700E+02  0.00000000000E+00 0.  1.
</event>
<event>
 8    1  0.3146747E-007  0.9118800E+02  0.7816164E-02  0.1184000E+00
        -11   -1    0    0    0    0  0.00000000000E+00  0.00000000000E+00  0.45593999997E+02  0.45594000000E+02  0.51100000000E-03 0.  1.
         11   -1    0    0    0    0 -0.00000000000E+00 -0.00000000000E+00 -0.45593999997E+02  0.45594000000E+02  0.51100000000E-03 0. -1.
         23    2    1    2    0    0 -0.88817841970E-15 -0.88817841970E-15  0.00000000000E+00  0.91188000000E+02  0.91188000000E+02 0.  0.
    9900012    2    3    3    0    0  0.87413238835E+00 -0.51916004513E+01  0.36442599073E+02  0.54367084071E+02  0.39999999757E+02 0.  0.
         12    1    3    3    0    0 -0.87413238835E+00  0.51916004513E+01 -0.36442599073E+02  0.36820915929E+02  0.00000000000E+00 0. -1.
         11    1    4    4    0    0 -0.47894782255E+01  0.79224778124E+01 -0.21753239528E+01  0.95098260195E+01  0.51100000000E-03 0. -1.
        -11    1    4    4    0    0  0.11531450616E+02 -0.48934583984E+01  0.24253068066E+02  0.27297098734E+02  0.51100000000E-03 0.  1.
         12    1    4    4    0    0 -0.58678400020E+01 -0.82206198654E+01  0.14364854959E+02  0.17560159318E+02  0.00000000000E+00 0. -1.
</event>
<event>
 8    1  0.3146747E-007  0.9118800E+02  0.7816164E-02  0.1184000E+00
        -11   -1    0    0    0    0  0.00000000000E+00  0.00000000000E+00  0.45593999997E+02  0.45594000000E+02  0.51100000000E-03 0. -1.
         11   -1    0    0    0    0 -0.00000000000E+00 -0.00000000000E+00 -0.45593999997E+02  0.45594000000E+02  0.51100000000E-03 0.  1.
         23    2    1    2    0    0  0.35527136788E-14  0.00000000000E+00  0.00000000000E+00  0.91188000000E+02  0.91188000000E+02 0.  0.
    9900012    2    3    3    0    0  0.23878598448E+02 -0.27983337607E+02  0.15888005920E+01  0.54367096496E+02  0.40000028083E+02 0.  0.
         12    1    3    3    0    0 -0.23878598448E+02  0.27983337607E+02 -0.15888005920E+01  0.36820903504E+02  0.00000000000E+00 0. -1.
         11    1    4    4    0    0 -0.35982741161E+01 -0.11236691017E+02 -0.40818827661E+01  0.12484893624E+02  0.51100000000E-03 0.  1.
        -11    1    4    4    0    0 -0.47456223669E+01 -0.64769838776E+00  0.32346690413E+01  0.57795786108E+01  0.51100000000E-03 0. -1.
         12    1    4    4    0    0  0.32222494931E+02 -0.16098948202E+02  0.24360143168E+01  0.36102624261E+02  0.00000000000E+00 0. -1.
</event>
<event>
 8    1  0.3146747E-007  0.9118800E+02  0.7816164E-02  0.1184000E+00
        -11   -1    0    0    0    0  0.00000000000E+00  0.00000000000E+00  0.45593999997E+02  0.45594000000E+02  0.51100000000E-03 0. -1.
         11   -1    0    0    0    0 -0.00000000000E+00 -0.00000000000E+00 -0.45593999997E+02  0.45594000000E+02  0.51100000000E-03 0.  1.
         23    2    1    2    0    0  0.00000000000E+00 -0.88817841970E-15  0.00000000000E+00  0.91188000000E+02  0.91188000000E+02 0.  0.
    9900012    2    3    3    0    0  0.18455233253E+02 -0.77084498322E+01 -0.30915382214E+02  0.54367126971E+02  0.40000097555E+02 0.  0.
         12    1    3    3    0    0 -0.18455233253E+02  0.77084498322E+01  0.30915382214E+02  0.36820873029E+02  0.00000000000E+00 0. -1.
         11    1    4    4    0    0  0.11991885954E+02 -0.68470759041E+00 -0.82579058382E+00  0.12039770910E+02  0.51100000000E-03 0. -1.
        -11    1    4    4    0    0  0.15841744557E+02  0.26210950328E+00 -0.24560223142E+02  0.29227284052E+02  0.51100000000E-03 0.  1.
         12    1    4    4    0    0 -0.93783972576E+01 -0.72858517451E+01 -0.55293684878E+01  0.13100072009E+02  0.00000000000E+00 0. -1.
</event>
<event>
 8    1  0.3146747E-007  0.9118800E+02  0.7816164E-02  0.1184000E+00
        -11   -1    0    0    0    0  0.00000000000E+00  0.00000000000E+00  0.45593999997E+02  0.45594000000E+02  0.51100000000E-03 0.  1.
         11   -1    0    0    0    0 -0.00000000000E+00 -0.00000000000E+00 -0.45593999997E+02  0.45594000000E+02  0.51100000000E-03 0. -1.
         23    2    1    2    0    0 -0.35527136788E-14  0.00000000000E+00 -0.35527136788E-14  0.91188000000E+02  0.91188000000E+02 0.  0.
    9900012    2    3    3    0    0  0.14478521510E+02 -0.24215249029E+02  0.23659546758E+02  0.54367081713E+02  0.39999994382E+02 0.  0.
         12    1    3    3    0    0 -0.14478521510E+02  0.24215249029E+02 -0.23659546758E+02  0.36820918287E+02  0.00000000000E+00 0. -1.
         11    1    4    4    0    0  0.82740243427E+01 -0.10920255557E+02 -0.65857924687E+01  0.15201451344E+02  0.51100000000E-03 0. -1.
        -11    1    4    4    0    0  0.87475061227E+01 -0.14011560608E+02  0.11244602660E+02  0.19982086560E+02  0.51100000000E-03 0.  1.
         12    1    4    4    0    0 -0.25430089551E+01  0.71656713592E+00  0.19000736567E+02  0.19183543809E+02  0.00000000000E+00 0. -1.
</event>
<event>
 8    1  0.3146747E-007  0.9118800E+02  0.7816164E-02  0.1184000E+00
        -11   -1    0    0    0    0  0.00000000000E+00  0.00000000000E+00  0.45593999997E+02  0.45594000000E+02  0.51100000000E-03 0.  1.
         11   -1    0    0    0    0 -0.00000000000E+00 -0.00000000000E+00 -0.45593999997E+02  0.45594000000E+02  0.51100000000E-03 0. -1.
         23    2    1    2    0    0  0.00000000000E+00  0.00000000000E+00 -0.17763568394E-14  0.91188000000E+02  0.91188000000E+02 0.  0.
    9900012    2    3    3    0    0  0.33076712606E+02 -0.29368472438E+01 -0.15908921355E+02  0.54366976560E+02  0.39999754662E+02 0.  0.
        -12    1    3    3    0    0 -0.33076712606E+02  0.29368472438E+01  0.15908921355E+02  0.36821023440E+02  0.00000000000E+00 0.  1.
         11    1    4    4    0    0  0.11283873584E+02 -0.94638703793E+01 -0.16953371664E+02  0.22456790881E+02  0.51100000000E-03 0.  1.
        -11    1    4    4    0    0  0.25948539466E+02  0.52016744917E+01 -0.20774289408E+01  0.26546182950E+02  0.51100000000E-03 0. -1.
        -12    1    4    4    0    0 -0.41557004451E+01  0.13253486437E+01  0.31218792504E+01  0.53640027285E+01  0.00000000000E+00 0.  1.
</event>
<event>
 8    1  0.3146747E-007  0.9118800E+02  0.7816164E-02  0.1184000E+00
        -11   -1    0    0    0    0  0.00000000000E+00  0.00000000000E+00  0.45593999997E+02  0.45594000000E+02  0.51100000000E-03 0.  1.
         11   -1    0    0    0    0 -0.00000000000E+00 -0.00000000000E+00 -0.45593999997E+02  0.45594000000E+02  0.51100000000E-03 0. -1.
         23    2    1    2    0    0 -0.35527136788E-14  0.00000000000E+00  0.00000000000E+00  0.91188000000E+02  0.91188000000E+02 0.  0.
    9900012    2    3    3    0    0  0.26687319230E+02  0.12785969372E+02 -0.21910811248E+02  0.54367113672E+02  0.40000067237E+02 0.  0.
        -12    1    3    3    0    0 -0.26687319230E+02 -0.12785969372E+02  0.21910811248E+02  0.36820886328E+02  0.00000000000E+00 0.  1.
         11    1    4    4    0    0  0.45727604099E+01 -0.11659961512E+01  0.10595502388E+02  0.11598894598E+02  0.51100000000E-03 0.  1.
        -11    1    4    4    0    0  0.33586962424E+01  0.58166771660E+01 -0.12351438436E+02  0.14059609006E+02  0.51100000000E-03 0. -1.
        -12    1    4    4    0    0  0.18755862577E+02  0.81352883571E+01 -0.20154875200E+02  0.28708610067E+02  0.00000000000E+00 0.  1.
</event>
<event>
 8    1  0.3146747E-007  0.9118800E+02  0.7816164E-02  0.1184000E+00
        -11   -1    0    0    0    0  0.00000000000E+00  0.00000000000E+00  0.45593999997E+02  0.45594000000E+02  0.51100000000E-03 0.  1.
         11   -1    0    0    0    0 -0.00000000000E+00 -0.00000000000E+00 -0.45593999997E+02  0.45594000000E+02  0.51100000000E-03 0. -1.
         23    2    1    2    0    0 -0.17763568394E-14  0.00000000000E+00  0.11102230246E-14  0.91188000000E+02  0.91188000000E+02 0.  0.
    9900012    2    3    3    0    0 -0.54458078330E+01 -0.36386195472E+02  0.14724029920E+01  0.54367081836E+02  0.39999994662E+02 0.  0.
         12    1    3    3    0    0  0.54458078330E+01  0.36386195472E+02 -0.14724029920E+01  0.36820918164E+02  0.00000000000E+00 0. -1.
         11    1    4    4    0    0 -0.14900977844E+02 -0.28239613953E+02  0.11004185480E+02  0.33772874252E+02  0.51100000000E-03 0.  1.
        -11    1    4    4    0    0  0.11121490896E+02 -0.63087603614E+01 -0.11675982848E+02  0.17315212756E+02  0.51100000000E-03 0. -1.
         12    1    4    4    0    0 -0.16663208850E+01 -0.18378211572E+01  0.21442003605E+01  0.32789948282E+01  0.00000000000E+00 0. -1.
</event>
<event>
 8    1  0.3146747E-007  0.9118800E+02  0.7816164E-02  0.1184000E+00
        -11   -1    0    0    0    0  0.00000000000E+00  0.00000000000E+00  0.45593999997E+02  0.45594000000E+02  0.51100000000E-03 0. -1.
         11   -1    0    0    0    0 -0.00000000000E+00 -0.00000000000E+00 -0.45593999997E+02  0.45594000000E+02  0.51100000000E-03 0.  1.
         23    2    1    2    0    0  0.17763568394E-14  0.71054273576E-14  0.22204460493E-15  0.91188000000E+02  0.91188000000E+02 0.  0.
    9900012    2    3    3    0    0 -0.15004380505E+02 -0.33584086983E+02 -0.16604422565E+01  0.54367090162E+02  0.40000013642E+02 0.  0.
        -12    1    3    3    0    0  0.15004380505E+02  0.33584086983E+02  0.16604422565E+01  0.36820909838E+02  0.00000000000E+00 0.  1.
         11    1    4    4    0    0  0.37207700337E+01  0.54773849220E+01 -0.20461256490E+01  0.69305487272E+01  0.51100000000E-03 0. -1.
        -11    1    4    4    0    0 -0.15450328039E+02 -0.17108341779E+02  0.73132624464E+01  0.24184536440E+02  0.51100000000E-03 0.  1.
        -12    1    4    4    0    0 -0.32748224997E+01 -0.21953130126E+02 -0.69275790538E+01  0.23252004995E+02  0.00000000000E+00 0.  1.
</event>
<event>
 8    1  0.3146747E-007  0.9118800E+02  0.7816164E-02  0.1184000E+00
        -11   -1    0    0    0    0  0.00000000000E+00  0.00000000000E+00  0.45593999997E+02  0.45594000000E+02  0.51100000000E-03 0. -1.
         11   -1    0    0    0    0 -0.00000000000E+00 -0.00000000000E+00 -0.45593999997E+02  0.45594000000E+02  0.51100000000E-03 0.  1.
         23    2    1    2    0    0  0.00000000000E+00  0.35527136788E-14 -0.17763568394E-14  0.91188000000E+02  0.91188000000E+02 0.  0.
    9900012    2    3    3    0    0  0.15730872852E+02 -0.30282613078E+02  0.13830449708E+02  0.54367104375E+02  0.40000046043E+02 0.  0.
        -12    1    3    3    0    0 -0.15730872852E+02  0.30282613078E+02 -0.13830449708E+02  0.36820895625E+02  0.00000000000E+00 0.  1.
         11    1    4    4    0    0 -0.13229337432E+01  0.73857843699E+01  0.47371353352E+01  0.88735796549E+01  0.51100000000E-03 0. -1.
        -11    1    4    4    0    0 -0.51701361525E+00 -0.59674264942E+01  0.69649447361E+01  0.91862907356E+01  0.51100000000E-03 0.  1.
         12    1    4    4    0    0  0.17570820210E+02 -0.31700970954E+02  0.21283696367E+01  0.36307233984E+02  0.00000000000E+00 0. -1.
</event>
<event>
 8    1  0.3146747E-007  0.9118800E+02  0.7816164E-02  0.1184000E+00
        -11   -1    0    0    0    0  0.00000000000E+00  0.00000000000E+00  0.45593999997E+02  0.45594000000E+02  0.51100000000E-03 0.  1.
         11   -1    0    0    0    0 -0.00000000000E+00 -0.00000000000E+00 -0.45593999997E+02  0.45594000000E+02  0.51100000000E-03 0. -1.
         23    2    1    2    0    0  0.35527136788E-14  0.35527136788E-14  0.00000000000E+00  0.91188000000E+02  0.91188000000E+02 0.  0.
    9900012    2    3    3    0    0  0.77505895372E+01  0.30207715625E+02 -0.19575553313E+02  0.54367081910E+02  0.39999994830E+02 0.  0.
        -12    1    3    3    0    0 -0.77505895372E+01 -0.30207715625E+02  0.19575553313E+02  0.36820918090E+02  0.00000000000E+00 0.  1.
         11    1    4    4    0    0 -0.19143392461E+01 -0.25431026644E+01  0.45811157227E+01  0.55784126269E+01  0.51100000000E-03 0.  1.
        -11    1    4    4    0    0  0.15317262992E+02  0.26574155973E+02 -0.26007043433E+02  0.40214059974E+02  0.51100000000E-03 0. -1.
         12    1    4    4    0    0 -0.56523342090E+01  0.61766623171E+01  0.18503743966E+01  0.85746093087E+01  0.00000000000E+00 0. -1.
</event>
<event>
 8    1  0.3146747E-007  0.9118800E+02  0.7816164E-02  0.1184000E+00
        -11   -1    0    0    0    0  0.00000000000E+00  0.00000000000E+00  0.45593999997E+02  0.45594000000E+02  0.51100000000E-03 0. -1.
         11   -1    0    0    0    0 -0.00000000000E+00 -0.00000000000E+00 -0.45593999997E+02  0.45594000000E+02  0.51100000000E-03 0.  1.
         23    2    1    2    0    0  0.00000000000E+00  0.88817841970E-15  0.00000000000E+00  0.91188000000E+02  0.91188000000E+02 0.  0.
    9900012    2    3    3    0    0  0.32260100736E+02 -0.54725240728E+01  0.16885404969E+02  0.54367088548E+02  0.40000009962E+02 0.  0.
        -12    1    3    3    0    0 -0.32260100736E+02  0.54725240728E+01 -0.16885404969E+02  0.36820911452E+02  0.00000000000E+00 0.  1.
         11    1    4    4    0    0  0.21357520703E+01  0.66898361537E+01  0.13399398861E+02  0.15128094221E+02  0.51100000000E-03 0. -1.
        -11    1    4    4    0    0  0.22311489857E+02 -0.28837151543E+01 -0.66199944042E+01  0.23450857530E+02  0.51100000000E-03 0.  1.
        -12    1    4    4    0    0  0.78128588087E+01 -0.92786450722E+01  0.10106000512E+02  0.15788136796E+02  0.00000000000E+00 0.  1.
</event>
<event>
 8    1  0.3146747E-007  0.9118800E+02  0.7816164E-02  0.1184000E+00
        -11   -1    0    0    0    0  0.00000000000E+00  0.00000000000E+00  0.45593999997E+02  0.45594000000E+02  0.51100000000E-03 0. -1.
         11   -1    0    0    0    0 -0.00000000000E+00 -0.00000000000E+00 -0.45593999997E+02  0.45594000000E+02  0.51100000000E-03 0.  1.
         23    2    1    2    0    0  0.00000000000E+00  0.00000000000E+00  0.00000000000E+00  0.91188000000E+02  0.91188000000E+02 0.  0.
    9900012    2    3    3    0    0 -0.17227619707E+02 -0.32951254852E+01  0.32374850182E+02  0.54367086689E+02  0.40000005725E+02 0.  0.
        -12    1    3    3    0    0  0.17227619707E+02  0.32951254852E+01 -0.32374850182E+02  0.36820913311E+02  0.00000000000E+00 0.  1.
         11    1    4    4    0    0 -0.15890851251E+02  0.12785082807E+02  0.29725299785E+02  0.36049562320E+02  0.51100000000E-03 0. -1.
        -11    1    4    4    0    0  0.19371796543E+01 -0.16815256004E+01 -0.15100229761E+01  0.29766361900E+01  0.51100000000E-03 0.  1.
         12    1    4    4    0    0 -0.32739481104E+01 -0.14398682691E+02  0.41595733731E+01  0.15340888179E+02  0.00000000000E+00 0. -1.
</event>
<event>
 8    1  0.3146747E-007  0.9118800E+02  0.7816164E-02  0.1184000E+00
        -11   -1    0    0    0    0  0.00000000000E+00  0.00000000000E+00  0.45593999997E+02  0.45594000000E+02  0.51100000000E-03 0.  1.
         11   -1    0    0    0    0 -0.00000000000E+00 -0.00000000000E+00 -0.45593999997E+02  0.45594000000E+02  0.51100000000E-03 0. -1.
         23    2    1    2    0    0  0.00000000000E+00  0.44408920985E-15  0.00000000000E+00  0.91188000000E+02  0.91188000000E+02 0.  0.
    9900012    2    3    3    0    0  0.36398844731E+02  0.32010477835E+01  0.45451475428E+01  0.54367068848E+02  0.39999965054E+02 0.  0.
        -12    1    3    3    0    0 -0.36398844731E+02 -0.32010477835E+01 -0.45451475428E+01  0.36820931152E+02  0.00000000000E+00 0.  1.
         11    1    4    4    0    0  0.76099564590E+01 -0.10908214285E+02  0.14900741274E+02  0.19973298851E+02  0.51100000000E-03 0. -1.
        -11    1    4    4    0    0  0.22631353961E+02  0.77871852225E+01 -0.68164782674E+01  0.24885393548E+02  0.51100000000E-03 0.  1.
        -12    1    4    4    0    0  0.61575343112E+01  0.63220768460E+01 -0.35391154642E+01  0.95083764497E+01  0.00000000000E+00 0.  1.
</event>
<event>
 8    1  0.3146747E-007  0.9118800E+02  0.7816164E-02  0.1184000E+00
        -11   -1    0    0    0    0  0.00000000000E+00  0.00000000000E+00  0.45593999997E+02  0.45594000000E+02  0.51100000000E-03 0.  1.
         11   -1    0    0    0    0 -0.00000000000E+00 -0.00000000000E+00 -0.45593999997E+02  0.45594000000E+02  0.51100000000E-03 0. -1.
         23    2    1    2    0    0  0.00000000000E+00  0.00000000000E+00  0.00000000000E+00  0.91188000000E+02  0.91188000000E+02 0.  0.
    9900012    2    3    3    0    0 -0.11327186976E+02  0.32898030480E+02 -0.12049645283E+02  0.54367088472E+02  0.40000009791E+02 0.  0.
        -12    1    3    3    0    0  0.11327186976E+02 -0.32898030480E+02  0.12049645283E+02  0.36820911528E+02  0.00000000000E+00 0.  1.
         11    1    4    4    0    0 -0.62889882854E+01  0.27993788425E+02 -0.42513704187E-01  0.28691555756E+02  0.51100000000E-03 0. -1.
        -11    1    4    4    0    0  0.51076296500E+01 -0.91194258905E-01  0.37094061982E+01  0.63131522743E+01  0.51100000000E-03 0.  1.
         12    1    4    4    0    0 -0.10145828341E+02  0.49954363145E+01 -0.15716537777E+02  0.19362380442E+02  0.00000000000E+00 0. -1.
</event>
<event>
 8    1  0.3146747E-007  0.9118800E+02  0.7816164E-02  0.1184000E+00
        -11   -1    0    0    0    0  0.00000000000E+00  0.00000000000E+00  0.45593999997E+02  0.45594000000E+02  0.51100000000E-03 0. -1.
         11   -1    0    0    0    0 -0.00000000000E+00 -0.00000000000E+00 -0.45593999997E+02  0.45594000000E+02  0.51100000000E-03 0.  1.
         23    2    1    2    0    0 -0.35527136788E-14 -0.35527136788E-14  0.88817841970E-15  0.91188000000E+02  0.91188000000E+02 0.  0.
    9900012    2    3    3    0    0 -0.26694061042E+02 -0.24351188180E+02  0.70869955549E+01  0.54367098780E+02  0.40000033288E+02 0.  0.
        -12    1    3    3    0    0  0.26694061042E+02  0.24351188180E+02 -0.70869955549E+01  0.36820901220E+02  0.00000000000E+00 0.  1.
         11    1    4    4    0    0 -0.10429998533E+02  0.42587945946E+01 -0.79088908270E+01  0.13764910286E+02  0.51100000000E-03 0. -1.
        -11    1    4    4    0    0 -0.11117148394E+01 -0.19740643126E+02  0.10884545936E+02  0.22569941103E+02  0.51100000000E-03 0.  1.
        -12    1    4    4    0    0 -0.15152347669E+02 -0.88693396481E+01  0.41113404461E+01  0.18032247390E+02  0.00000000000E+00 0.  1.
</event>
<event>
 8    1  0.3146747E-007  0.9118800E+02  0.7816164E-02  0.1184000E+00
        -11   -1    0    0    0    0  0.00000000000E+00  0.00000000000E+00  0.45593999997E+02  0.45594000000E+02  0.51100000000E-03 0. -1.
         11   -1    0    0    0    0 -0.00000000000E+00 -0.00000000000E+00 -0.45593999997E+02  0.45594000000E+02  0.51100000000E-03 0.  1.
         23    2    1    2    0    0 -0.35527136788E-14  0.00000000000E+00  0.71054273576E-14  0.91188000000E+02  0.91188000000E+02 0.  0.
    9900012    2    3    3    0    0 -0.24654150086E+02 -0.19432120105E+02  0.19244351238E+02  0.54367089327E+02  0.40000011738E+02 0.  0.
        -12    1    3    3    0    0  0.24654150086E+02  0.19432120105E+02 -0.19244351238E+02  0.36820910673E+02  0.00000000000E+00 0.  1.
         11    1    4    4    0    0  0.82433440414E+00 -0.12913423260E+02  0.16601927931E+02  0.21048991396E+02  0.51100000000E-03 0. -1.
        -11    1    4    4    0    0 -0.71573014355E+01 -0.56216426580E+01  0.10029583449E+02  0.13543351669E+02  0.51100000000E-03 0.  1.
        -12    1    4    4    0    0 -0.18321183055E+02 -0.89705418693E+00 -0.73871601425E+01  0.19774746262E+02  0.00000000000E+00 0.  1.
</event>
<event>
 8    1  0.3146747E-007  0.9118800E+02  0.7816164E-02  0.1184000E+00
        -11   -1    0    0    0    0  0.00000000000E+00  0.00000000000E+00  0.45593999997E+02  0.45594000000E+02  0.51100000000E-03 0.  1.
         11   -1    0    0    0    0 -0.00000000000E+00 -0.00000000000E+00 -0.45593999997E+02  0.45594000000E+02  0.51100000000E-03 0. -1.
         23    2    1    2    0    0 -0.88817841970E-15  0.00000000000E+00 -0.88817841970E-15  0.91188000000E+02  0.91188000000E+02 0.  0.
    9900012    2    3    3    0    0 -0.64968339968E+01 -0.36204747962E+02 -0.16688305434E+01  0.54367114319E+02  0.40000068712E+02 0.  0.
         12    1    3    3    0    0  0.64968339968E+01  0.36204747962E+02  0.16688305434E+01  0.36820885681E+02  0.00000000000E+00 0. -1.
         11    1    4    4    0    0 -0.11729569818E+02 -0.32573256833E+02  0.54049467518E+01  0.35040167215E+02  0.51100000000E-03 0. -1.
        -11    1    4    4    0    0  0.52901317245E+01 -0.93542368702E+01 -0.71243143551E+00  0.10770088203E+02  0.51100000000E-03 0.  1.
         12    1    4    4    0    0 -0.57395903576E-01  0.57227457409E+01 -0.63613458596E+01  0.85568589009E+01  0.00000000000E+00 0. -1.
</event>
<event>
 8    1  0.3146747E-007  0.9118800E+02  0.7816164E-02  0.1184000E+00
        -11   -1    0    0    0    0  0.00000000000E+00  0.00000000000E+00  0.45593999997E+02  0.45594000000E+02  0.51100000000E-03 0. -1.
         11   -1    0    0    0    0 -0.00000000000E+00 -0.00000000000E+00 -0.45593999997E+02  0.45594000000E+02  0.51100000000E-03 0.  1.
         23    2    1    2    0    0 -0.35527136788E-14  0.17763568394E-14  0.35527136788E-14  0.91188000000E+02  0.91188000000E+02 0.  0.
    9900012    2    3    3    0    0  0.27890265100E+02 -0.13417559085E+02 -0.19946970265E+02  0.54367090153E+02  0.40000013623E+02 0.  0.
         12    1    3    3    0    0 -0.27890265100E+02  0.13417559085E+02  0.19946970265E+02  0.36820909847E+02  0.00000000000E+00 0. -1.
         11    1    4    4    0    0 -0.28311992588E+01 -0.12473940236E+02 -0.45978385309E+01  0.13592460913E+02  0.51100000000E-03 0. -1.
        -11    1    4    4    0    0  0.19178022694E+02  0.95233375617E+01 -0.47607416905E+01  0.21935249588E+02  0.51100000000E-03 0.  1.
        -12    1    4    4    0    0  0.11543441665E+02 -0.10466956411E+02 -0.10588390044E+02  0.18839379653E+02  0.00000000000E+00 0.  1.
</event>
<event>
 8    1  0.3146747E-007  0.9118800E+02  0.7816164E-02  0.1184000E+00
        -11   -1    0    0    0    0  0.00000000000E+00  0.00000000000E+00  0.45593999997E+02  0.45594000000E+02  0.51100000000E-03 0.  1.
         11   -1    0    0    0    0 -0.00000000000E+00 -0.00000000000E+00 -0.45593999997E+02  0.45594000000E+02  0.51100000000E-03 0. -1.
         23    2    1    2    0    0  0.00000000000E+00  0.17763568394E-14 -0.71054273576E-14  0.91188000000E+02  0.91188000000E+02 0.  0.
    9900012    2    3    3    0    0 -0.51065971841E+01  0.10561149359E+02 -0.34902205144E+02  0.54367093785E+02  0.40000021902E+02 0.  0.
        -12    1    3    3    0    0  0.51065971841E+01 -0.10561149359E+02  0.34902205144E+02  0.36820906215E+02  0.00000000000E+00 0.  1.
         11    1    4    4    0    0 -0.10810650964E+02  0.61822515519E+01 -0.19486150023E+02  0.23125752993E+02  0.51100000000E-03 0. -1.
        -11    1    4    4    0    0  0.39488085304E+01 -0.10777959492E+02 -0.94136050047E+01  0.14844980938E+02  0.51100000000E-03 0.  1.
        -12    1    4    4    0    0  0.17552452498E+01  0.15156857299E+02 -0.60024501163E+01  0.16396359854E+02  0.00000000000E+00 0.  1.
</event>
<event>
 8    1  0.3146747E-007  0.9118800E+02  0.7816164E-02  0.1184000E+00
        -11   -1    0    0    0    0  0.00000000000E+00  0.00000000000E+00  0.45593999997E+02  0.45594000000E+02  0.51100000000E-03 0. -1.
         11   -1    0    0    0    0 -0.00000000000E+00 -0.00000000000E+00 -0.45593999997E+02  0.45594000000E+02  0.51100000000E-03 0.  1.
         23    2    1    2    0    0 -0.17763568394E-14  0.27755575616E-15  0.00000000000E+00  0.91188000000E+02  0.91188000000E+02 0.  0.
    9900012    2    3    3    0    0  0.12871188144E+02  0.40391357330E+00  0.34495627675E+02  0.54367096166E+02  0.40000027331E+02 0.  0.
         12    1    3    3    0    0 -0.12871188144E+02 -0.40391357330E+00 -0.34495627675E+02  0.36820903834E+02  0.00000000000E+00 0. -1.
         11    1    4    4    0    0  0.41196724766E+01 -0.19892454762E+01  0.30784615915E+02  0.31122682663E+02  0.51100000000E-03 0. -1.
        -11    1    4    4    0    0  0.71934435905E+01  0.65041310995E+01 -0.68044464266E+01  0.11846933927E+02  0.51100000000E-03 0.  1.
         12    1    4    4    0    0  0.15580720768E+01 -0.41109720500E+01  0.10515458187E+02  0.11397479576E+02  0.00000000000E+00 0. -1.
</event>
<event>
 8    1  0.3146747E-007  0.9118800E+02  0.7816164E-02  0.1184000E+00
        -11   -1    0    0    0    0  0.00000000000E+00  0.00000000000E+00  0.45593999997E+02  0.45594000000E+02  0.51100000000E-03 0. -1.
         11   -1    0    0    0    0 -0.00000000000E+00 -0.00000000000E+00 -0.45593999997E+02  0.45594000000E+02  0.51100000000E-03 0.  1.
         23    2    1    2    0    0 -0.35527136788E-14  0.00000000000E+00 -0.12212453271E-14  0.91188000000E+02  0.91188000000E+02 0.  0.
    9900012    2    3    3    0    0 -0.25455306083E+02 -0.26604102407E+02 -0.17128633725E+00  0.54367079157E+02  0.39999988555E+02 0.  0.
        -12    1    3    3    0    0  0.25455306083E+02  0.26604102407E+02  0.17128633725E+00  0.36820920843E+02  0.00000000000E+00 0.  1.
         11    1    4    4    0    0 -0.23125027459E+02 -0.29458339145E+01  0.23812603704E+01  0.23433207925E+02  0.51100000000E-03 0. -1.
        -11    1    4    4    0    0  0.58873789790E+01 -0.60889008998E+01  0.53188723486E+01  0.10001317350E+02  0.51100000000E-03 0.  1.
        -12    1    4    4    0    0 -0.82176576031E+01 -0.17569367593E+02 -0.78714190563E+01  0.20932553883E+02  0.00000000000E+00 0.  1.
</event>
<event>
 8    1  0.3146747E-007  0.9118800E+02  0.7816164E-02  0.1184000E+00
        -11   -1    0    0    0    0  0.00000000000E+00  0.00000000000E+00  0.45593999997E+02  0.45594000000E+02  0.51100000000E-03 0. -1.
         11   -1    0    0    0    0 -0.00000000000E+00 -0.00000000000E+00 -0.45593999997E+02  0.45594000000E+02  0.51100000000E-03 0.  1.
         23    2    1    2    0    0 -0.35527136788E-14  0.00000000000E+00 -0.17763568394E-14  0.91188000000E+02  0.91188000000E+02 0.  0.
    9900012    2    3    3    0    0 -0.31460191609E+02  0.10970715616E+02 -0.15674151797E+02  0.54367091650E+02  0.40000017034E+02 0.  0.
         12    1    3    3    0    0  0.31460191609E+02 -0.10970715616E+02  0.15674151797E+02  0.36820908350E+02  0.00000000000E+00 0. -1.
         11    1    4    4    0    0 -0.88355071353E+01  0.69942342943E+00 -0.98772882895E+01  0.13270878030E+02  0.51100000000E-03 0. -1.
        -11    1    4    4    0    0 -0.16069995574E+02 -0.10064934005E+02 -0.54403862207E+01  0.19726770054E+02  0.51100000000E-03 0.  1.
         12    1    4    4    0    0 -0.65546888997E+01  0.20336226191E+02 -0.35647728656E+00  0.21369443566E+02  0.00000000000E+00 0. -1.
</event>
<event>
 8    1  0.3146747E-007  0.9118800E+02  0.7816164E-02  0.1184000E+00
        -11   -1    0    0    0    0  0.00000000000E+00  0.00000000000E+00  0.45593999997E+02  0.45594000000E+02  0.51100000000E-03 0.  1.
         11   -1    0    0    0    0 -0.00000000000E+00 -0.00000000000E+00 -0.45593999997E+02  0.45594000000E+02  0.51100000000E-03 0. -1.
         23    2    1    2    0    0 -0.35527136788E-14 -0.17763568394E-14 -0.35527136788E-14  0.91188000000E+02  0.91188000000E+02 0.  0.
    9900012    2    3    3    0    0  0.19660477681E+02 -0.12554071963E+02 -0.28489299833E+02  0.54367091395E+02  0.40000016454E+02 0.  0.
        -12    1    3    3    0    0 -0.19660477681E+02  0.12554071963E+02  0.28489299833E+02  0.36820908605E+02  0.00000000000E+00 0.  1.
         11    1    4    4    0    0  0.37148738581E+01  0.85975109044E+01  0.28405484852E+00  0.93700677133E+01  0.51100000000E-03 0. -1.
        -11    1    4    4    0    0  0.14877379355E+02 -0.16413500770E+02 -0.78266650060E+01  0.23494597451E+02  0.51100000000E-03 0.  1.
         12    1    4    4    0    0  0.10682244681E+01 -0.47380820971E+01 -0.20946689676E+02  0.21502426231E+02  0.00000000000E+00 0. -1.
</event>
<event>
 8    1  0.3146747E-007  0.9118800E+02  0.7816164E-02  0.1184000E+00
        -11   -1    0    0    0    0  0.00000000000E+00  0.00000000000E+00  0.45593999997E+02  0.45594000000E+02  0.51100000000E-03 0.  1.
         11   -1    0    0    0    0 -0.00000000000E+00 -0.00000000000E+00 -0.45593999997E+02  0.45594000000E+02  0.51100000000E-03 0. -1.
         23    2    1    2    0    0  0.88817841970E-15 -0.71054273576E-14  0.17763568394E-14  0.91188000000E+02  0.91188000000E+02 0.  0.
    9900012    2    3    3    0    0 -0.19904559831E+01 -0.36047622537E+02  0.72379651383E+01  0.54367066485E+02  0.39999959665E+02 0.  0.
        -12    1    3    3    0    0  0.19904559831E+01  0.36047622537E+02 -0.72379651383E+01  0.36820933515E+02  0.00000000000E+00 0.  1.
         11    1    4    4    0    0  0.10124506414E+02 -0.32577694341E+02 -0.46101133645E+01  0.34424772246E+02  0.51100000000E-03 0. -1.
        -11    1    4    4    0    0 -0.72194229736E+01 -0.24646005442E+01  0.12755767014E+02  0.14862836751E+02  0.51100000000E-03 0.  1.
        -12    1    4    4    0    0 -0.48955394231E+01 -0.10053276521E+01 -0.90768851162E+00  0.50794574873E+01  0.00000000000E+00 0.  1.
</event>
<event>
 8    1  0.3146747E-007  0.9118800E+02  0.7816164E-02  0.1184000E+00
        -11   -1    0    0    0    0  0.00000000000E+00  0.00000000000E+00  0.45593999997E+02  0.45594000000E+02  0.51100000000E-03 0.  1.
         11   -1    0    0    0    0 -0.00000000000E+00 -0.00000000000E+00 -0.45593999997E+02  0.45594000000E+02  0.51100000000E-03 0. -1.
         23    2    1    2    0    0  0.00000000000E+00 -0.17763568394E-14 -0.17763568394E-14  0.91188000000E+02  0.91188000000E+02 0.  0.
    9900012    2    3    3    0    0 -0.31411426741E+02  0.11650965763E+02 -0.15276016336E+02  0.54367090068E+02  0.40000013429E+02 0.  0.
        -12    1    3    3    0    0  0.31411426741E+02 -0.11650965763E+02  0.15276016336E+02  0.36820909932E+02  0.00000000000E+00 0.  1.
         11    1    4    4    0    0  0.29411261099E+01  0.27794668829E+01  0.44108619235E+01  0.59859303469E+01  0.51100000000E-03 0. -1.
        -11    1    4    4    0    0 -0.18635619963E+02 -0.87433986597E+01 -0.89144775540E+01  0.22432147955E+02  0.51100000000E-03 0.  1.
         12    1    4    4    0    0 -0.15716932888E+02  0.17614897540E+02 -0.10772400705E+02  0.25949011767E+02  0.00000000000E+00 0. -1.
</event>
<event>
 8    1  0.3146747E-007  0.9118800E+02  0.7816164E-02  0.1184000E+00
        -11   -1    0    0    0    0  0.00000000000E+00  0.00000000000E+00  0.45593999997E+02  0.45594000000E+02  0.51100000000E-03 0.  1.
         11   -1    0    0    0    0 -0.00000000000E+00 -0.00000000000E+00 -0.45593999997E+02  0.45594000000E+02  0.51100000000E-03 0. -1.
         23    2    1    2    0    0  0.00000000000E+00  0.00000000000E+00 -0.71054273576E-14  0.91188000000E+02  0.91188000000E+02 0.  0.
    9900012    2    3    3    0    0 -0.13949622771E+02  0.51046851691E+01  0.33691665501E+02  0.54367107692E+02  0.40000053605E+02 0.  0.
         12    1    3    3    0    0  0.13949622771E+02 -0.51046851691E+01 -0.33691665501E+02  0.36820892308E+02  0.00000000000E+00 0. -1.
         11    1    4    4    0    0  0.16821050145E+01 -0.13172977229E+02  0.46030352111E+01  0.14055061002E+02  0.51100000000E-03 0. -1.
        -11    1    4    4    0    0 -0.65477070524E+00  0.11259906484E+02  0.10219006681E+02  0.15219800147E+02  0.51100000000E-03 0.  1.
         12    1    4    4    0    0 -0.14976957080E+02  0.70177559138E+01  0.18869623609E+02  0.25092246543E+02  0.00000000000E+00 0. -1.
</event>
<event>
 8    1  0.3146747E-007  0.9118800E+02  0.7816164E-02  0.1184000E+00
        -11   -1    0    0    0    0  0.00000000000E+00  0.00000000000E+00  0.45593999997E+02  0.45594000000E+02  0.51100000000E-03 0. -1.
         11   -1    0    0    0    0 -0.00000000000E+00 -0.00000000000E+00 -0.45593999997E+02  0.45594000000E+02  0.51100000000E-03 0.  1.
         23    2    1    2    0    0  0.00000000000E+00  0.00000000000E+00  0.00000000000E+00  0.91188000000E+02  0.91188000000E+02 0.  0.
    9900012    2    3    3    0    0 -0.28864290008E+02  0.21625252598E+02  0.74148730349E+01  0.54367093849E+02  0.40000022049E+02 0.  0.
         12    1    3    3    0    0  0.28864290008E+02 -0.21625252598E+02 -0.74148730349E+01  0.36820906151E+02  0.00000000000E+00 0. -1.
         11    1    4    4    0    0 -0.73327730411E+01  0.82346849078E+01  0.18287805661E+02  0.21354705153E+02  0.51100000000E-03 0. -1.
        -11    1    4    4    0    0 -0.14711130173E+02  0.93549613134E+01  0.23552028482E+01  0.17592033221E+02  0.51100000000E-03 0.  1.
        -12    1    4    4    0    0 -0.68203867944E+01  0.40356063770E+01 -0.13228135474E+02  0.15420355475E+02  0.00000000000E+00 0.  1.
</event>
<event>
 8    1  0.3146747E-007  0.9118800E+02  0.7816164E-02  0.1184000E+00
        -11   -1    0    0    0    0  0.00000000000E+00  0.00000000000E+00  0.45593999997E+02  0.45594000000E+02  0.51100000000E-03 0. -1.
         11   -1    0    0    0    0 -0.00000000000E+00 -0.00000000000E+00 -0.45593999997E+02  0.45594000000E+02  0.51100000000E-03 0.  1.
         23    2    1    2    0    0  0.35527136788E-14  0.88817841970E-15 -0.71054273576E-14  0.91188000000E+02  0.91188000000E+02 0.  0.
    9900012    2    3    3    0    0  0.17249430249E+02 -0.26384256816E+01 -0.32423369769E+02  0.54367095052E+02  0.40000024790E+02 0.  0.
         12    1    3    3    0    0 -0.17249430249E+02  0.26384256816E+01  0.32423369769E+02  0.36820904948E+02  0.00000000000E+00 0. -1.
         11    1    4    4    0    0  0.81149812197E+01  0.17267697420E+02 -0.22620382634E+02  0.29592363967E+02  0.51100000000E-03 0. -1.
        -11    1    4    4    0    0  0.65567940153E+01 -0.16221369467E+02 -0.50035960932E+01  0.18197811662E+02  0.51100000000E-03 0.  1.
         12    1    4    4    0    0  0.25776550138E+01 -0.36847536347E+01 -0.47993910427E+01  0.65769194232E+01  0.00000000000E+00 0. -1.
</event>
<event>
 8    1  0.3146747E-007  0.9118800E+02  0.7816164E-02  0.1184000E+00
        -11   -1    0    0    0    0  0.00000000000E+00  0.00000000000E+00  0.45593999997E+02  0.45594000000E+02  0.51100000000E-03 0.  1.
         11   -1    0    0    0    0 -0.00000000000E+00 -0.00000000000E+00 -0.45593999997E+02  0.45594000000E+02  0.51100000000E-03 0. -1.
         23    2    1    2    0    0 -0.88817841970E-15  0.35527136788E-14  0.00000000000E+00  0.91188000000E+02  0.91188000000E+02 0.  0.
    9900012    2    3    3    0    0 -0.32292754566E+01  0.27696963840E+02 -0.24046416654E+02  0.54367079590E+02  0.39999989542E+02 0.  0.
        -12    1    3    3    0    0  0.32292754566E+01 -0.27696963840E+02  0.24046416654E+02  0.36820920410E+02  0.00000000000E+00 0.  1.
         11    1    4    4    0    0 -0.53848882273E+01  0.11382288225E+02  0.11539897539E+01  0.12644571921E+02  0.51100000000E-03 0. -1.
        -11    1    4    4    0    0 -0.12057684008E+02  0.70115703552E+01 -0.39102836763E+01  0.14485861423E+02  0.51100000000E-03 0.  1.
        -12    1    4    4    0    0  0.14213296779E+02  0.93031052596E+01 -0.21290122732E+02  0.27236646246E+02  0.00000000000E+00 0.  1.
</event>
<event>
 8    1  0.3146747E-007  0.9118800E+02  0.7816164E-02  0.1184000E+00
        -11   -1    0    0    0    0  0.00000000000E+00  0.00000000000E+00  0.45593999997E+02  0.45594000000E+02  0.51100000000E-03 0. -1.
         11   -1    0    0    0    0 -0.00000000000E+00 -0.00000000000E+00 -0.45593999997E+02  0.45594000000E+02  0.51100000000E-03 0.  1.
         23    2    1    2    0    0  0.00000000000E+00  0.17763568394E-14  0.00000000000E+00  0.91188000000E+02  0.91188000000E+02 0.  0.
    9900012    2    3    3    0    0  0.38367424001E+01 -0.15056496144E+02 -0.33382047390E+02  0.54367085341E+02  0.40000002653E+02 0.  0.
         12    1    3    3    0    0 -0.38367424001E+01  0.15056496144E+02  0.33382047390E+02  0.36820914659E+02  0.00000000000E+00 0. -1.
         11    1    4    4    0    0 -0.57658551735E+01 -0.22330767524E+02 -0.96672991533E+01  0.25007297681E+02  0.51100000000E-03 0. -1.
        -11    1    4    4    0    0  0.10410610349E+02  0.29091024096E+01 -0.92428547140E+01  0.14222308118E+02  0.51100000000E-03 0.  1.
         12    1    4    4    0    0 -0.80801277547E+00  0.43651689711E+01 -0.14471893522E+02  0.15137479543E+02  0.00000000000E+00 0. -1.
</event>
<event>
 8    1  0.3146747E-007  0.9118800E+02  0.7816164E-02  0.1184000E+00
        -11   -1    0    0    0    0  0.00000000000E+00  0.00000000000E+00  0.45593999997E+02  0.45594000000E+02  0.51100000000E-03 0. -1.
         11   -1    0    0    0    0 -0.00000000000E+00 -0.00000000000E+00 -0.45593999997E+02  0.45594000000E+02  0.51100000000E-03 0.  1.
         23    2    1    2    0    0  0.00000000000E+00  0.00000000000E+00  0.00000000000E+00  0.91188000000E+02  0.91188000000E+02 0.  0.
    9900012    2    3    3    0    0 -0.32808628488E+02 -0.14479505517E+02  0.83497326489E+01  0.54367079064E+02  0.39999988342E+02 0.  0.
         12    1    3    3    0    0  0.32808628488E+02  0.14479505517E+02 -0.83497326489E+01  0.36820920936E+02  0.00000000000E+00 0. -1.
         11    1    4    4    0    0 -0.88521131877E+01 -0.75249993391E+00  0.10341756277E+02  0.13633711424E+02  0.51100000000E-03 0. -1.
        -11    1    4    4    0    0 -0.31026790470E+02 -0.12748091982E+02 -0.18388963408E+01  0.33594004168E+02  0.51100000000E-03 0.  1.
         12    1    4    4    0    0  0.70702751698E+01 -0.97891360098E+00 -0.15312728710E+00  0.71393634717E+01  0.00000000000E+00 0. -1.
</event>
<event>
 8    1  0.3146747E-007  0.9118800E+02  0.7816164E-02  0.1184000E+00
        -11   -1    0    0    0    0  0.00000000000E+00  0.00000000000E+00  0.45593999997E+02  0.45594000000E+02  0.51100000000E-03 0.  1.
         11   -1    0    0    0    0 -0.00000000000E+00 -0.00000000000E+00 -0.45593999997E+02  0.45594000000E+02  0.51100000000E-03 0. -1.
         23    2    1    2    0    0  0.44408920985E-15 -0.17763568394E-14  0.00000000000E+00  0.91188000000E+02  0.91188000000E+02 0.  0.
    9900012    2    3    3    0    0 -0.10407845465E+01  0.15467313346E+02  0.33398484292E+02  0.54367085188E+02  0.40000002302E+02 0.  0.
         12    1    3    3    0    0  0.10407845465E+01 -0.15467313346E+02 -0.33398484292E+02  0.36820914812E+02  0.00000000000E+00 0. -1.
         11    1    4    4    0    0  0.36430353201E+01 -0.74826769331E+01  0.27082704991E+02  0.28332579662E+02  0.51100000000E-03 0. -1.
        -11    1    4    4    0    0 -0.65951514804E+01  0.12896175857E+02  0.10432400297E+01  0.14522249303E+02  0.51100000000E-03 0.  1.
        -12    1    4    4    0    0  0.19113316137E+01  0.10053814422E+02  0.52725392719E+01  0.11512256223E+02  0.00000000000E+00 0.  1.
</event>
<event>
 8    1  0.3146747E-007  0.9118800E+02  0.7816164E-02  0.1184000E+00
        -11   -1    0    0    0    0  0.00000000000E+00  0.00000000000E+00  0.45593999997E+02  0.45594000000E+02  0.51100000000E-03 0. -1.
         11   -1    0    0    0    0 -0.00000000000E+00 -0.00000000000E+00 -0.45593999997E+02  0.45594000000E+02  0.51100000000E-03 0.  1.
         23    2    1    2    0    0  0.00000000000E+00  0.00000000000E+00  0.00000000000E+00  0.91188000000E+02  0.91188000000E+02 0.  0.
    9900012    2    3    3    0    0  0.26141709694E+02  0.24771763013E+02 -0.76649620866E+01  0.54367070187E+02  0.39999968106E+02 0.  0.
        -12    1    3    3    0    0 -0.26141709694E+02 -0.24771763013E+02  0.76649620866E+01  0.36820929813E+02  0.00000000000E+00 0.  1.
         11    1    4    4    0    0  0.22605996696E+02  0.17679059664E+02 -0.70321450860E+00  0.28706702146E+02  0.51100000000E-03 0. -1.
        -11    1    4    4    0    0  0.35687058336E+01 -0.97588167955E+00 -0.14289611454E+02  0.14760792734E+02  0.51100000000E-03 0.  1.
         12    1    4    4    0    0 -0.32992835178E-01  0.80685850280E+01  0.73278638761E+01  0.10899575307E+02  0.00000000000E+00 0. -1.
</event>
<event>
 8    1  0.3146747E-007  0.9118800E+02  0.7816164E-02  0.1184000E+00
        -11   -1    0    0    0    0  0.00000000000E+00  0.00000000000E+00  0.45593999997E+02  0.45594000000E+02  0.51100000000E-03 0.  1.
         11   -1    0    0    0    0 -0.00000000000E+00 -0.00000000000E+00 -0.45593999997E+02  0.45594000000E+02  0.51100000000E-03 0. -1.
         23    2    1    2    0    0  0.00000000000E+00  0.17763568394E-14  0.00000000000E+00  0.91188000000E+02  0.91188000000E+02 0.  0.
    9900012    2    3    3    0    0  0.24622891725E+02  0.14916584080E+02 -0.22956273069E+02  0.54367058258E+02  0.39999940911E+02 0.  0.
        -12    1    3    3    0    0 -0.24622891725E+02 -0.14916584080E+02  0.22956273069E+02  0.36820941742E+02  0.00000000000E+00 0.  1.
         11    1    4    4    0    0  0.25273491501E+02  0.11194888318E+02 -0.82162071336E+01  0.28837145438E+02  0.51100000000E-03 0. -1.
        -11    1    4    4    0    0 -0.90171079444E+01 -0.36085839858E+01 -0.72454495998E+01  0.12117204885E+02  0.51100000000E-03 0.  1.
         12    1    4    4    0    0  0.83665081688E+01  0.73302797484E+01 -0.74946163356E+01  0.13412707935E+02  0.00000000000E+00 0. -1.
</event>
<event>
 8    1  0.3146747E-007  0.9118800E+02  0.7816164E-02  0.1184000E+00
        -11   -1    0    0    0    0  0.00000000000E+00  0.00000000000E+00  0.45593999997E+02  0.45594000000E+02  0.51100000000E-03 0.  1.
         11   -1    0    0    0    0 -0.00000000000E+00 -0.00000000000E+00 -0.45593999997E+02  0.45594000000E+02  0.51100000000E-03 0. -1.
         23    2    1    2    0    0  0.00000000000E+00 -0.44408920985E-15  0.00000000000E+00  0.91188000000E+02  0.91188000000E+02 0.  0.
    9900012    2    3    3    0    0 -0.12133787087E+02 -0.33341193228E+01 -0.34603967739E+02  0.54367085779E+02  0.40000003651E+02 0.  0.
        -12    1    3    3    0    0  0.12133787087E+02  0.33341193228E+01  0.34603967739E+02  0.36820914221E+02  0.00000000000E+00 0.  1.
         11    1    4    4    0    0  0.42610181810E+01 -0.15433249212E+01 -0.35660178720E+02  0.35946995345E+02  0.51100000000E-03 0. -1.
        -11    1    4    4    0    0 -0.78299289128E+01  0.28941022725E+01  0.20834661412E+01  0.86037460542E+01  0.51100000000E-03 0.  1.
         12    1    4    4    0    0 -0.85648763551E+01 -0.46848966740E+01 -0.10272551611E+01  0.98163443802E+01  0.00000000000E+00 0. -1.
</event>
<event>
 8    1  0.3146747E-007  0.9118800E+02  0.7816164E-02  0.1184000E+00
        -11   -1    0    0    0    0  0.00000000000E+00  0.00000000000E+00  0.45593999997E+02  0.45594000000E+02  0.51100000000E-03 0.  1.
         11   -1    0    0    0    0 -0.00000000000E+00 -0.00000000000E+00 -0.45593999997E+02  0.45594000000E+02  0.51100000000E-03 0. -1.
         23    2    1    2    0    0  0.00000000000E+00  0.00000000000E+00  0.00000000000E+00  0.91188000000E+02  0.91188000000E+02 0.  0.
    9900012    2    3    3    0    0 -0.18999489678E+02 -0.25267148110E+02 -0.18877762796E+02  0.54367091404E+02  0.40000016473E+02 0.  0.
        -12    1    3    3    0    0  0.18999489678E+02  0.25267148110E+02  0.18877762796E+02  0.36820908596E+02  0.00000000000E+00 0.  1.
         11    1    4    4    0    0 -0.89789198074E+01 -0.72621810005E+00  0.44204748003E+01  0.10034390433E+02  0.51100000000E-03 0. -1.
        -11    1    4    4    0    0 -0.68721667488E+01  0.11843973035E+01 -0.15928289410E+02  0.17387923297E+02  0.51100000000E-03 0.  1.
         12    1    4    4    0    0 -0.31484031221E+01 -0.25725327314E+02 -0.73699481857E+01  0.26944777674E+02  0.00000000000E+00 0. -1.
</event>
<event>
 8    1  0.3146747E-007  0.9118800E+02  0.7816164E-02  0.1184000E+00
        -11   -1    0    0    0    0  0.00000000000E+00  0.00000000000E+00  0.45593999997E+02  0.45594000000E+02  0.51100000000E-03 0.  1.
         11   -1    0    0    0    0 -0.00000000000E+00 -0.00000000000E+00 -0.45593999997E+02  0.45594000000E+02  0.51100000000E-03 0. -1.
         23    2    1    2    0    0 -0.17763568394E-14  0.00000000000E+00  0.00000000000E+00  0.91188000000E+02  0.91188000000E+02 0.  0.
    9900012    2    3    3    0    0  0.10582021855E+02 -0.18913265321E+02  0.29767229022E+02  0.54367099477E+02  0.40000034878E+02 0.  0.
         12    1    3    3    0    0 -0.10582021855E+02  0.18913265321E+02 -0.29767229022E+02  0.36820900523E+02  0.00000000000E+00 0. -1.
         11    1    4    4    0    0 -0.96044411135E+01  0.65124229858E+01  0.93078042265E+01  0.14875891974E+02  0.51100000000E-03 0. -1.
        -11    1    4    4    0    0  0.39824971335E+00 -0.59700636936E+01  0.28731465343E+01  0.66374117402E+01  0.51100000000E-03 0.  1.
        -12    1    4    4    0    0  0.19788213255E+02 -0.19455624613E+02  0.17586278262E+02  0.32853795763E+02  0.00000000000E+00 0.  1.
</event>
<event>
 8    1  0.3146747E-007  0.9118800E+02  0.7816164E-02  0.1184000E+00
        -11   -1    0    0    0    0  0.00000000000E+00  0.00000000000E+00  0.45593999997E+02  0.45594000000E+02  0.51100000000E-03 0.  1.
         11   -1    0    0    0    0 -0.00000000000E+00 -0.00000000000E+00 -0.45593999997E+02  0.45594000000E+02  0.51100000000E-03 0. -1.
         23    2    1    2    0    0  0.00000000000E+00  0.00000000000E+00 -0.44408920985E-14  0.91188000000E+02  0.91188000000E+02 0.  0.
    9900012    2    3    3    0    0 -0.26187423201E+02  0.25572263556E+02  0.40072507449E+01  0.54367083990E+02  0.39999999573E+02 0.  0.
         12    1    3    3    0    0  0.26187423201E+02 -0.25572263556E+02 -0.40072507449E+01  0.36820916010E+02  0.00000000000E+00 0. -1.
         11    1    4    4    0    0 -0.10206300751E+02  0.87403968004E+01 -0.81275209805E+01  0.15704130310E+02  0.51100000000E-03 0. -1.
        -11    1    4    4    0    0 -0.27989279007E+01  0.13544192675E+01 -0.88889614153E+01  0.94171165570E+01  0.51100000000E-03 0.  1.
        -12    1    4    4    0    0 -0.13182194549E+02  0.15477447488E+02  0.21023733141E+02  0.29245837123E+02  0.00000000000E+00 0.  1.
</event>
<event>
 8    1  0.3146747E-007  0.9118800E+02  0.7816164E-02  0.1184000E+00
        -11   -1    0    0    0    0  0.00000000000E+00  0.00000000000E+00  0.45593999997E+02  0.45594000000E+02  0.51100000000E-03 0.  1.
         11   -1    0    0    0    0 -0.00000000000E+00 -0.00000000000E+00 -0.45593999997E+02  0.45594000000E+02  0.51100000000E-03 0. -1.
         23    2    1    2    0    0  0.00000000000E+00  0.35527136788E-14  0.00000000000E+00  0.91188000000E+02  0.91188000000E+02 0.  0.
    9900012    2    3    3    0    0  0.79679527007E+01  0.21272894793E+02  0.28978531355E+02  0.54367087428E+02  0.40000007409E+02 0.  0.
         12    1    3    3    0    0 -0.79679527007E+01 -0.21272894793E+02 -0.28978531355E+02  0.36820912572E+02  0.00000000000E+00 0. -1.
         11    1    4    4    0    0 -0.14928599369E+01  0.23140987721E+01  0.17598654475E+02  0.17812813464E+02  0.51100000000E-03 0. -1.
        -11    1    4    4    0    0 -0.58285401871E+00  0.23525321875E+02  0.60314035638E+01  0.24293174295E+02  0.51100000000E-03 0.  1.
         12    1    4    4    0    0  0.10043666656E+02 -0.45665258533E+01  0.53484733170E+01  0.12261099669E+02  0.00000000000E+00 0. -1.
</event>
<event>
 8    1  0.3146747E-007  0.9118800E+02  0.7816164E-02  0.1184000E+00
        -11   -1    0    0    0    0  0.00000000000E+00  0.00000000000E+00  0.45593999997E+02  0.45594000000E+02  0.51100000000E-03 0.  1.
         11   -1    0    0    0    0 -0.00000000000E+00 -0.00000000000E+00 -0.45593999997E+02  0.45594000000E+02  0.51100000000E-03 0. -1.
         23    2    1    2    0    0 -0.35527136788E-14 -0.17763568394E-14 -0.17763568394E-14  0.91188000000E+02  0.91188000000E+02 0.  0.
    9900012    2    3    3    0    0  0.29855849154E+02  0.15596760523E+02 -0.14871087313E+02  0.54367083317E+02  0.39999998038E+02 0.  0.
        -12    1    3    3    0    0 -0.29855849154E+02 -0.15596760523E+02  0.14871087313E+02  0.36820916683E+02  0.00000000000E+00 0.  1.
         11    1    4    4    0    0  0.24299969267E+02  0.10204171369E+02 -0.23438545670E+02  0.35270087086E+02  0.51100000000E-03 0. -1.
        -11    1    4    4    0    0  0.92669578308E+01  0.15596849917E+01  0.48154857402E+00  0.94096234782E+01  0.51100000000E-03 0.  1.
         12    1    4    4    0    0 -0.37110779441E+01  0.38329041629E+01  0.80859097830E+01  0.96873727526E+01  0.00000000000E+00 0. -1.
</event>
<event>
 8    1  0.3146747E-007  0.9118800E+02  0.7816164E-02  0.1184000E+00
        -11   -1    0    0    0    0  0.00000000000E+00  0.00000000000E+00  0.45593999997E+02  0.45594000000E+02  0.51100000000E-03 0.  1.
         11   -1    0    0    0    0 -0.00000000000E+00 -0.00000000000E+00 -0.45593999997E+02  0.45594000000E+02  0.51100000000E-03 0. -1.
         23    2    1    2    0    0  0.00000000000E+00  0.00000000000E+00 -0.17763568394E-14  0.91188000000E+02  0.91188000000E+02 0.  0.
    9900012    2    3    3    0    0 -0.45164552660E+01  0.34910091145E+02  0.10801259796E+02  0.54367081419E+02  0.39999993712E+02 0.  0.
        -12    1    3    3    0    0  0.45164552660E+01 -0.34910091145E+02 -0.10801259796E+02  0.36820918581E+02  0.00000000000E+00 0.  1.
         11    1    4    4    0    0 -0.15240825595E+02  0.13140231632E+02  0.11839425831E+02  0.23347814811E+02  0.51100000000E-03 0. -1.
        -11    1    4    4    0    0  0.60076520267E+01  0.19984559752E+02  0.65819177089E+01  0.21881411114E+02  0.51100000000E-03 0.  1.
        -12    1    4    4    0    0  0.47167183026E+01  0.17852997618E+01 -0.76200837436E+01  0.91378554949E+01  0.00000000000E+00 0.  1.
</event>
<event>
 8    1  0.3146747E-007  0.9118800E+02  0.7816164E-02  0.1184000E+00
        -11   -1    0    0    0    0  0.00000000000E+00  0.00000000000E+00  0.45593999997E+02  0.45594000000E+02  0.51100000000E-03 0.  1.
         11   -1    0    0    0    0 -0.00000000000E+00 -0.00000000000E+00 -0.45593999997E+02  0.45594000000E+02  0.51100000000E-03 0. -1.
         23    2    1    2    0    0  0.00000000000E+00  0.00000000000E+00  0.00000000000E+00  0.91188000000E+02  0.91188000000E+02 0.  0.
    9900012    2    3    3    0    0  0.33280461221E+02  0.66489295811E+01  0.14282306378E+02  0.54367059774E+02  0.39999944367E+02 0.  0.
        -12    1    3    3    0    0 -0.33280461221E+02 -0.66489295811E+01 -0.14282306378E+02  0.36820940226E+02  0.00000000000E+00 0.  1.
         11    1    4    4    0    0  0.97957318341E+01 -0.74750249202E+01  0.21982734252E+01  0.12516579646E+02  0.51100000000E-03 0.  1.
        -11    1    4    4    0    0  0.24642731960E+02  0.19537957312E+02  0.35090335314E+01  0.31643472169E+02  0.51100000000E-03 0. -1.
         12    1    4    4    0    0 -0.11580025727E+01 -0.54140028106E+01  0.85749994212E+01  0.10207007959E+02  0.00000000000E+00 0. -1.
</event>
<event>
 8    1  0.3146747E-007  0.9118800E+02  0.7816164E-02  0.1184000E+00
        -11   -1    0    0    0    0  0.00000000000E+00  0.00000000000E+00  0.45593999997E+02  0.45594000000E+02  0.51100000000E-03 0. -1.
         11   -1    0    0    0    0 -0.00000000000E+00 -0.00000000000E+00 -0.45593999997E+02  0.45594000000E+02  0.51100000000E-03 0.  1.
         23    2    1    2    0    0 -0.17763568394E-14  0.17763568394E-14  0.00000000000E+00  0.91188000000E+02  0.91188000000E+02 0.  0.
    9900012    2    3    3    0    0 -0.13094934960E+02 -0.46652991062E+01  0.34095947410E+02  0.54367136795E+02  0.40000119951E+02 0.  0.
        -12    1    3    3    0    0  0.13094934960E+02  0.46652991062E+01 -0.34095947410E+02  0.36820863205E+02  0.00000000000E+00 0.  1.
         11    1    4    4    0    0 -0.90818382395E+01  0.71530335157E+01  0.17326601563E+02  0.20829229373E+02  0.51100000000E-03 0. -1.
        -11    1    4    4    0    0 -0.13711061873E+02 -0.19659536807E+00  0.60366619296E+01  0.14982428205E+02  0.51100000000E-03 0.  1.
         12    1    4    4    0    0  0.96979651518E+01 -0.11621737254E+02  0.10732683918E+02  0.18555479217E+02  0.00000000000E+00 0. -1.
</event>
<event>
 8    1  0.3146747E-007  0.9118800E+02  0.7816164E-02  0.1184000E+00
        -11   -1    0    0    0    0  0.00000000000E+00  0.00000000000E+00  0.45593999997E+02  0.45594000000E+02  0.51100000000E-03 0.  1.
         11   -1    0    0    0    0 -0.00000000000E+00 -0.00000000000E+00 -0.45593999997E+02  0.45594000000E+02  0.51100000000E-03 0. -1.
         23    2    1    2    0    0  0.00000000000E+00  0.22204460493E-14  0.00000000000E+00  0.91188000000E+02  0.91188000000E+02 0.  0.
    9900012    2    3    3    0    0 -0.14827456058E+02  0.29986259826E+01  0.33569850830E+02  0.54367080733E+02  0.39999992147E+02 0.  0.
         12    1    3    3    0    0  0.14827456058E+02 -0.29986259826E+01 -0.33569850830E+02  0.36820919267E+02  0.00000000000E+00 0. -1.
         11    1    4    4    0    0 -0.54629216846E+01 -0.13014853704E+02  0.88194907426E+01  0.16643717959E+02  0.51100000000E-03 0. -1.
        -11    1    4    4    0    0  0.24895690794E+01 -0.42888758706E+01  0.42924726225E+01  0.65587904304E+01  0.51100000000E-03 0.  1.
         12    1    4    4    0    0 -0.11854103452E+02  0.20302355557E+02  0.20457887465E+02  0.31164572344E+02  0.00000000000E+00 0. -1.
</event>
<event>
 8    1  0.3146747E-007  0.9118800E+02  0.7816164E-02  0.1184000E+00
        -11   -1    0    0    0    0  0.00000000000E+00  0.00000000000E+00  0.45593999997E+02  0.45594000000E+02  0.51100000000E-03 0.  1.
         11   -1    0    0    0    0 -0.00000000000E+00 -0.00000000000E+00 -0.45593999997E+02  0.45594000000E+02  0.51100000000E-03 0. -1.
         23    2    1    2    0    0  0.00000000000E+00  0.00000000000E+00  0.35527136788E-14  0.91188000000E+02  0.91188000000E+02 0.  0.
    9900012    2    3    3    0    0  0.27735120119E+02 -0.86903523917E+01 -0.22605812056E+02  0.54367056891E+02  0.39999937795E+02 0.  0.
        -12    1    3    3    0    0 -0.27735120119E+02  0.86903523917E+01  0.22605812056E+02  0.36820943109E+02  0.00000000000E+00 0.  1.
         11    1    4    4    0    0  0.20083892029E+02 -0.29841988111E+01 -0.37697178869E+01  0.20651366415E+02  0.51100000000E-03 0. -1.
        -11    1    4    4    0    0  0.19356015434E+01 -0.15838738675E+02 -0.81422405619E+01  0.17913912967E+02  0.51100000000E-03 0.  1.
        -12    1    4    4    0    0  0.57156265461E+01  0.10132585094E+02 -0.10693853607E+02  0.15801777510E+02  0.00000000000E+00 0.  1.
</event>
<event>
 8    1  0.3146747E-007  0.9118800E+02  0.7816164E-02  0.1184000E+00
        -11   -1    0    0    0    0  0.00000000000E+00  0.00000000000E+00  0.45593999997E+02  0.45594000000E+02  0.51100000000E-03 0. -1.
         11   -1    0    0    0    0 -0.00000000000E+00 -0.00000000000E+00 -0.45593999997E+02  0.45594000000E+02  0.51100000000E-03 0.  1.
         23    2    1    2    0    0  0.11102230246E-15  0.00000000000E+00  0.35527136788E-14  0.91188000000E+02  0.91188000000E+02 0.  0.
    9900012    2    3    3    0    0  0.88597182381E+00  0.22847395606E+02  0.28861582970E+02  0.54367090131E+02  0.40000013571E+02 0.  0.
         12    1    3    3    0    0 -0.88597182381E+00 -0.22847395606E+02 -0.28861582970E+02  0.36820909869E+02  0.00000000000E+00 0. -1.
         11    1    4    4    0    0 -0.20405902883E+00  0.23940610021E+02  0.29872111612E+02  0.38282339279E+02  0.51100000000E-03 0. -1.
        -11    1    4    4    0    0  0.65893308460E+00  0.57206152699E+01 -0.54599665360E+01  0.79354184963E+01  0.51100000000E-03 0.  1.
         12    1    4    4    0    0  0.43109776804E+00 -0.68138296847E+01  0.44494378943E+01  0.81493323551E+01  0.00000000000E+00 0. -1.
</event>
<event>
 8    1  0.3146747E-007  0.9118800E+02  0.7816164E-02  0.1184000E+00
        -11   -1    0    0    0    0  0.00000000000E+00  0.00000000000E+00  0.45593999997E+02  0.45594000000E+02  0.51100000000E-03 0.  1.
         11   -1    0    0    0    0 -0.00000000000E+00 -0.00000000000E+00 -0.45593999997E+02  0.45594000000E+02  0.51100000000E-03 0. -1.
         23    2    1    2    0    0  0.00000000000E+00  0.00000000000E+00  0.35527136788E-14  0.91188000000E+02  0.91188000000E+02 0.  0.
    9900012    2    3    3    0    0 -0.29692892749E+02 -0.59761039675E+01 -0.20937965960E+02  0.54367080443E+02  0.39999991486E+02 0.  0.
        -12    1    3    3    0    0  0.29692892749E+02  0.59761039675E+01  0.20937965960E+02  0.36820919557E+02  0.00000000000E+00 0.  1.
         11    1    4    4    0    0 -0.34308222907E+02 -0.52278275363E+01 -0.17709216207E+02  0.38961528188E+02  0.51100000000E-03 0. -1.
        -11    1    4    4    0    0  0.49793227465E+01  0.50967632222E+01 -0.56248490205E+01  0.90779720820E+01  0.51100000000E-03 0.  1.
         12    1    4    4    0    0 -0.36399258919E+00 -0.58450396534E+01  0.23960992677E+01  0.63275801737E+01  0.00000000000E+00 0. -1.
</event>
<event>
 8    1  0.3146747E-007  0.9118800E+02  0.7816164E-02  0.1184000E+00
        -11   -1    0    0    0    0  0.00000000000E+00  0.00000000000E+00  0.45593999997E+02  0.45594000000E+02  0.51100000000E-03 0.  1.
         11   -1    0    0    0    0 -0.00000000000E+00 -0.00000000000E+00 -0.45593999997E+02  0.45594000000E+02  0.51100000000E-03 0. -1.
         23    2    1    2    0    0  0.17763568394E-14  0.00000000000E+00  0.00000000000E+00  0.91188000000E+02  0.91188000000E+02 0.  0.
    9900012    2    3    3    0    0  0.14445483085E+02  0.30309038679E+02  0.15115146102E+02  0.54367116674E+02  0.40000074082E+02 0.  0.
         12    1    3    3    0    0 -0.14445483085E+02 -0.30309038679E+02 -0.15115146102E+02  0.36820883326E+02  0.00000000000E+00 0. -1.
         11    1    4    4    0    0  0.67362776665E+01  0.32301622213E+02 -0.90891620413E+00  0.33009064866E+02  0.51100000000E-03 0. -1.
        -11    1    4    4    0    0  0.28023506841E+01  0.45837529116E+01  0.93399835149E+01  0.10774936308E+02  0.51100000000E-03 0.  1.
         12    1    4    4    0    0  0.49068547343E+01 -0.65763364452E+01  0.66840787909E+01  0.10583115501E+02  0.00000000000E+00 0. -1.
</event>
<event>
 8    1  0.3146747E-007  0.9118800E+02  0.7816164E-02  0.1184000E+00
        -11   -1    0    0    0    0  0.00000000000E+00  0.00000000000E+00  0.45593999997E+02  0.45594000000E+02  0.51100000000E-03 0. -1.
         11   -1    0    0    0    0 -0.00000000000E+00 -0.00000000000E+00 -0.45593999997E+02  0.45594000000E+02  0.51100000000E-03 0.  1.
         23    2    1    2    0    0 -0.35527136788E-14 -0.88817841970E-15 -0.35527136788E-14  0.91188000000E+02  0.91188000000E+02 0.  0.
    9900012    2    3    3    0    0 -0.19698669915E+02  0.64415155745E+01  0.30434350286E+02  0.54367076646E+02  0.39999982830E+02 0.  0.
        -12    1    3    3    0    0  0.19698669915E+02 -0.64415155745E+01 -0.30434350286E+02  0.36820923354E+02  0.00000000000E+00 0.  1.
         11    1    4    4    0    0  0.75180668778E+01 -0.28386361589E+00  0.47891455085E+00  0.75386515730E+01  0.51100000000E-03 0. -1.
        -11    1    4    4    0    0 -0.28606697999E+02  0.11631782998E+02  0.25254445561E+02  0.39892713206E+02  0.51100000000E-03 0.  1.
         12    1    4    4    0    0  0.13899612061E+01 -0.49064038076E+01  0.47009901743E+01  0.69357118666E+01  0.00000000000E+00 0. -1.
</event>
<event>
 8    1  0.3146747E-007  0.9118800E+02  0.7816164E-02  0.1184000E+00
        -11   -1    0    0    0    0  0.00000000000E+00  0.00000000000E+00  0.45593999997E+02  0.45594000000E+02  0.51100000000E-03 0.  1.
         11   -1    0    0    0    0 -0.00000000000E+00 -0.00000000000E+00 -0.45593999997E+02  0.45594000000E+02  0.51100000000E-03 0. -1.
         23    2    1    2    0    0 -0.35527136788E-14  0.00000000000E+00  0.17763568394E-14  0.91188000000E+02  0.91188000000E+02 0.  0.
    9900012    2    3    3    0    0  0.21302307638E+02  0.28476588531E+02 -0.95434167403E+01  0.54367065626E+02  0.39999957709E+02 0.  0.
        -12    1    3    3    0    0 -0.21302307638E+02 -0.28476588531E+02  0.95434167403E+01  0.36820934374E+02  0.00000000000E+00 0.  1.
         11    1    4    4    0    0 -0.18518377186E+01 -0.31909554823E+01  0.11748321312E+01  0.38719156272E+01  0.51100000000E-03 0.  1.
        -11    1    4    4    0    0  0.24756664240E+02  0.36218854007E+02 -0.70506876262E+01  0.44434333641E+02  0.51100000000E-03 0. -1.
         12    1    4    4    0    0 -0.16025188826E+01 -0.45513099946E+01 -0.36675612453E+01  0.60608163579E+01  0.00000000000E+00 0. -1.
</event>
<event>
 8    1  0.3146747E-007  0.9118800E+02  0.7816164E-02  0.1184000E+00
        -11   -1    0    0    0    0  0.00000000000E+00  0.00000000000E+00  0.45593999997E+02  0.45594000000E+02  0.51100000000E-03 0.  1.
         11   -1    0    0    0    0 -0.00000000000E+00 -0.00000000000E+00 -0.45593999997E+02  0.45594000000E+02  0.51100000000E-03 0. -1.
         23    2    1    2    0    0  0.00000000000E+00  0.00000000000E+00  0.00000000000E+00  0.91188000000E+02  0.91188000000E+02 0.  0.
    9900012    2    3    3    0    0  0.19380158140E+02  0.21821874136E+02  0.22449823991E+02  0.54367091299E+02  0.40000016235E+02 0.  0.
         12    1    3    3    0    0 -0.19380158140E+02 -0.21821874136E+02 -0.22449823991E+02  0.36820908701E+02  0.00000000000E+00 0. -1.
         11    1    4    4    0    0  0.19569602319E+02 -0.26769814200E+01  0.39627109346E+01  0.20145437266E+02  0.51100000000E-03 0. -1.
        -11    1    4    4    0    0  0.18040845522E+01  0.26110750868E+02  0.17446571610E+02  0.31454870738E+02  0.51100000000E-03 0.  1.
         12    1    4    4    0    0 -0.19935287311E+01 -0.16118953118E+01  0.10405414462E+01  0.27667832946E+01  0.00000000000E+00 0. -1.
</event>
<event>
 8    1  0.3146747E-007  0.9118800E+02  0.7816164E-02  0.1184000E+00
        -11   -1    0    0    0    0  0.00000000000E+00  0.00000000000E+00  0.45593999997E+02  0.45594000000E+02  0.51100000000E-03 0.  1.
         11   -1    0    0    0    0 -0.00000000000E+00 -0.00000000000E+00 -0.45593999997E+02  0.45594000000E+02  0.51100000000E-03 0. -1.
         23    2    1    2    0    0  0.00000000000E+00  0.35527136788E-14  0.00000000000E+00  0.91188000000E+02  0.91188000000E+02 0.  0.
    9900012    2    3    3    0    0  0.20679422477E+02 -0.28650969423E+02 -0.10356151373E+02  0.54367266247E+02  0.40000415060E+02 0.  0.
         12    1    3    3    0    0 -0.20679422477E+02  0.28650969423E+02  0.10356151373E+02  0.36820733753E+02  0.00000000000E+00 0. -1.
         11    1    4    4    0    0  0.23756234725E+02 -0.95845541021E+01 -0.80105505390E-02  0.25616838800E+02  0.51100000000E-03 0. -1.
        -11    1    4    4    0    0  0.30618343569E+01 -0.13961560253E+02  0.15975287315E+01  0.14382353515E+02  0.51100000000E-03 0.  1.
         12    1    4    4    0    0 -0.61386466050E+01 -0.51048550678E+01 -0.11945669554E+02  0.14368073932E+02  0.00000000000E+00 0. -1.
</event>
<event>
 8    1  0.3146747E-007  0.9118800E+02  0.7816164E-02  0.1184000E+00
        -11   -1    0    0    0    0  0.00000000000E+00  0.00000000000E+00  0.45593999997E+02  0.45594000000E+02  0.51100000000E-03 0.  1.
         11   -1    0    0    0    0 -0.00000000000E+00 -0.00000000000E+00 -0.45593999997E+02  0.45594000000E+02  0.51100000000E-03 0. -1.
         23    2    1    2    0    0  0.35527136788E-14 -0.35527136788E-14  0.17763568394E-14  0.91188000000E+02  0.91188000000E+02 0.  0.
    9900012    2    3    3    0    0 -0.19096493176E+02  0.31048725516E+02 -0.52038324541E+01  0.54367091810E+02  0.40000017398E+02 0.  0.
        -12    1    3    3    0    0  0.19096493176E+02 -0.31048725516E+02  0.52038324541E+01  0.36820908190E+02  0.00000000000E+00 0.  1.
         11    1    4    4    0    0 -0.18392619926E+02  0.11465136990E+02  0.14712904134E+02  0.26195560354E+02  0.51100000000E-03 0.  1.
        -11    1    4    4    0    0  0.12551469458E+01  0.99839562468E+01 -0.11216645628E+02  0.15068772863E+02  0.51100000000E-03 0. -1.
        -12    1    4    4    0    0 -0.19590201955E+01  0.95996322790E+01 -0.87000909598E+01  0.13102758592E+02  0.00000000000E+00 0.  1.
</event>
<event>
 8    1  0.3146747E-007  0.9118800E+02  0.7816164E-02  0.1184000E+00
        -11   -1    0    0    0    0  0.00000000000E+00  0.00000000000E+00  0.45593999997E+02  0.45594000000E+02  0.51100000000E-03 0.  1.
         11   -1    0    0    0    0 -0.00000000000E+00 -0.00000000000E+00 -0.45593999997E+02  0.45594000000E+02  0.51100000000E-03 0. -1.
         23    2    1    2    0    0 -0.71054273576E-14  0.35527136788E-14  0.00000000000E+00  0.91188000000E+02  0.91188000000E+02 0.  0.
    9900012    2    3    3    0    0  0.28794613029E+02 -0.15433957140E+02  0.16983615447E+02  0.54367082492E+02  0.39999996157E+02 0.  0.
         12    1    3    3    0    0 -0.28794613029E+02  0.15433957140E+02 -0.16983615447E+02  0.36820917508E+02  0.00000000000E+00 0. -1.
         11    1    4    4    0    0  0.48614147231E+01 -0.14135809051E+02 -0.98410944185E+01  0.17896971538E+02  0.51100000000E-03 0. -1.
        -11    1    4    4    0    0  0.15944113156E+02 -0.24001255308E+01  0.21212488613E+02  0.26644793493E+02  0.51100000000E-03 0.  1.
        -12    1    4    4    0    0  0.79890851497E+01  0.11019774410E+01  0.56122212527E+01  0.98253174604E+01  0.00000000000E+00 0.  1.
</event>
<event>
 8    1  0.3146747E-007  0.9118800E+02  0.7816164E-02  0.1184000E+00
        -11   -1    0    0    0    0  0.00000000000E+00  0.00000000000E+00  0.45593999997E+02  0.45594000000E+02  0.51100000000E-03 0.  1.
         11   -1    0    0    0    0 -0.00000000000E+00 -0.00000000000E+00 -0.45593999997E+02  0.45594000000E+02  0.51100000000E-03 0. -1.
         23    2    1    2    0    0  0.00000000000E+00  0.17763568394E-14  0.00000000000E+00  0.91188000000E+02  0.91188000000E+02 0.  0.
    9900012    2    3    3    0    0  0.28477435741E+02  0.14160124625E+02  0.18555486851E+02  0.54367087897E+02  0.40000008479E+02 0.  0.
         12    1    3    3    0    0 -0.28477435741E+02 -0.14160124625E+02 -0.18555486851E+02  0.36820912103E+02  0.00000000000E+00 0. -1.
         11    1    4    4    0    0  0.66702931461E+01  0.58538901243E+01 -0.47041806943E+01  0.10044409216E+02  0.51100000000E-03 0. -1.
        -11    1    4    4    0    0  0.31418297120E+01  0.14805516082E+02  0.18666521933E+02  0.24031509352E+02  0.51100000000E-03 0.  1.
         12    1    4    4    0    0  0.18665312883E+02 -0.64992815811E+01  0.45931456124E+01  0.20291169328E+02  0.00000000000E+00 0. -1.
</event>
<event>
 8    1  0.3146747E-007  0.9118800E+02  0.7816164E-02  0.1184000E+00
        -11   -1    0    0    0    0  0.00000000000E+00  0.00000000000E+00  0.45593999997E+02  0.45594000000E+02  0.51100000000E-03 0. -1.
         11   -1    0    0    0    0 -0.00000000000E+00 -0.00000000000E+00 -0.45593999997E+02  0.45594000000E+02  0.51100000000E-03 0.  1.
         23    2    1    2    0    0  0.35527136788E-14 -0.35527136788E-14  0.35527136788E-14  0.91188000000E+02  0.91188000000E+02 0.  0.
    9900012    2    3    3    0    0 -0.22490243034E+02  0.17233278820E+02 -0.23515621956E+02  0.54367062932E+02  0.39999951566E+02 0.  0.
         12    1    3    3    0    0  0.22490243034E+02 -0.17233278820E+02  0.23515621956E+02  0.36820937068E+02  0.00000000000E+00 0. -1.
         11    1    4    4    0    0  0.21859031445E+01  0.10796619178E+02 -0.24576005685E+01  0.11286494542E+02  0.51100000000E-03 0. -1.
        -11    1    4    4    0    0 -0.12829675663E+02  0.15754294574E+02 -0.19093791474E+02  0.27881378162E+02  0.51100000000E-03 0.  1.
        -12    1    4    4    0    0 -0.11846470516E+02 -0.93176349322E+01 -0.19642299135E+01  0.15199190227E+02  0.00000000000E+00 0.  1.
</event>
<event>
 8    1  0.3146747E-007  0.9118800E+02  0.7816164E-02  0.1184000E+00
        -11   -1    0    0    0    0  0.00000000000E+00  0.00000000000E+00  0.45593999997E+02  0.45594000000E+02  0.51100000000E-03 0.  1.
         11   -1    0    0    0    0 -0.00000000000E+00 -0.00000000000E+00 -0.45593999997E+02  0.45594000000E+02  0.51100000000E-03 0. -1.
         23    2    1    2    0    0  0.00000000000E+00  0.88817841970E-15  0.00000000000E+00  0.91188000000E+02  0.91188000000E+02 0.  0.
    9900012    2    3    3    0    0 -0.35031994910E+02 -0.55663898050E+01  0.98773235116E+01  0.54366988572E+02  0.39999782047E+02 0.  0.
         12    1    3    3    0    0  0.35031994910E+02  0.55663898050E+01 -0.98773235116E+01  0.36821011428E+02  0.00000000000E+00 0. -1.
         11    1    4    4    0    0  0.17720705559E+01 -0.51550430014E+01 -0.29211451857E+01  0.61844799182E+01  0.51100000000E-03 0. -1.
        -11    1    4    4    0    0 -0.97377767927E+01 -0.84348958937E+01 -0.60552969724E+01  0.14235111074E+02  0.51100000000E-03 0.  1.
        -12    1    4    4    0    0 -0.27066288673E+02  0.80235490901E+01  0.18853765670E+02  0.33947397580E+02  0.00000000000E+00 0.  1.
</event>
<event>
 8    1  0.3146747E-007  0.9118800E+02  0.7816164E-02  0.1184000E+00
        -11   -1    0    0    0    0  0.00000000000E+00  0.00000000000E+00  0.45593999997E+02  0.45594000000E+02  0.51100000000E-03 0. -1.
         11   -1    0    0    0    0 -0.00000000000E+00 -0.00000000000E+00 -0.45593999997E+02  0.45594000000E+02  0.51100000000E-03 0.  1.
         23    2    1    2    0    0 -0.44408920985E-15  0.00000000000E+00 -0.17763568394E-14  0.91188000000E+02  0.91188000000E+02 0.  0.
    9900012    2    3    3    0    0 -0.23252885617E+01  0.36284258084E+02  0.58160118765E+01  0.54367077337E+02  0.39999984406E+02 0.  0.
         12    1    3    3    0    0  0.23252885617E+01 -0.36284258084E+02 -0.58160118765E+01  0.36820922663E+02  0.00000000000E+00 0. -1.
         11    1    4    4    0    0 -0.97744636459E+01  0.17795997935E+02  0.16128609414E+02  0.25930093019E+02  0.51100000000E-03 0. -1.
        -11    1    4    4    0    0 -0.28978105586E+01  0.47727147220E+01 -0.97637435799E+01  0.11247524208E+02  0.51100000000E-03 0.  1.
         12    1    4    4    0    0  0.10346985643E+02  0.13715545427E+02 -0.54885395710E+00  0.17189460111E+02  0.00000000000E+00 0. -1.
</event>
<event>
 8    1  0.3146747E-007  0.9118800E+02  0.7816164E-02  0.1184000E+00
        -11   -1    0    0    0    0  0.00000000000E+00  0.00000000000E+00  0.45593999997E+02  0.45594000000E+02  0.51100000000E-03 0.  1.
         11   -1    0    0    0    0 -0.00000000000E+00 -0.00000000000E+00 -0.45593999997E+02  0.45594000000E+02  0.51100000000E-03 0. -1.
         23    2    1    2    0    0  0.00000000000E+00 -0.55511151231E-15  0.00000000000E+00  0.91188000000E+02  0.91188000000E+02 0.  0.
    9900012    2    3    3    0    0  0.29312947566E+02  0.66923911916E-01  0.22282913518E+02  0.54367060188E+02  0.39999945310E+02 0.  0.
         12    1    3    3    0    0 -0.29312947566E+02 -0.66923911916E-01 -0.22282913518E+02  0.36820939812E+02  0.00000000000E+00 0. -1.
         11    1    4    4    0    0  0.27881229511E+02  0.11579754503E+02  0.77074788838E+01  0.31158608833E+02  0.51100000000E-03 0. -1.
        -11    1    4    4    0    0 -0.46013402960E+01 -0.42980859134E+01  0.11846274137E+02  0.13415665702E+02  0.51100000000E-03 0.  1.
        -12    1    4    4    0    0  0.60330583508E+01 -0.72147446773E+01  0.27291604967E+01  0.97927856527E+01  0.00000000000E+00 0.  1.
</event>
<event>
 8    1  0.3146747E-007  0.9118800E+02  0.7816164E-02  0.1184000E+00
        -11   -1    0    0    0    0  0.00000000000E+00  0.00000000000E+00  0.45593999997E+02  0.45594000000E+02  0.51100000000E-03 0.  1.
         11   -1    0    0    0    0 -0.00000000000E+00 -0.00000000000E+00 -0.45593999997E+02  0.45594000000E+02  0.51100000000E-03 0. -1.
         23    2    1    2    0    0 -0.71054273576E-14 -0.35527136788E-14  0.35527136788E-14  0.91188000000E+02  0.91188000000E+02 0.  0.
    9900012    2    3    3    0    0 -0.25120428141E+02 -0.17472667397E+02  0.20480482999E+02  0.54367079318E+02  0.39999988922E+02 0.  0.
         12    1    3    3    0    0  0.25120428141E+02  0.17472667397E+02 -0.20480482999E+02  0.36820920682E+02  0.00000000000E+00 0. -1.
         11    1    4    4    0    0 -0.28305771194E+02 -0.18795139991E+01  0.56198661207E+01  0.28919407864E+02  0.51100000000E-03 0. -1.
        -11    1    4    4    0    0 -0.15836121461E+01 -0.15612778240E+02  0.12806112639E+02  0.20254954776E+02  0.51100000000E-03 0.  1.
        -12    1    4    4    0    0  0.47689551992E+01  0.19624841679E-01  0.20545042394E+01  0.51927166778E+01  0.00000000000E+00 0.  1.
</event>
<event>
 8    1  0.3146747E-007  0.9118800E+02  0.7816164E-02  0.1184000E+00
        -11   -1    0    0    0    0  0.00000000000E+00  0.00000000000E+00  0.45593999997E+02  0.45594000000E+02  0.51100000000E-03 0. -1.
         11   -1    0    0    0    0 -0.00000000000E+00 -0.00000000000E+00 -0.45593999997E+02  0.45594000000E+02  0.51100000000E-03 0.  1.
         23    2    1    2    0    0  0.35527136788E-14 -0.35527136788E-14  0.66613381478E-15  0.91188000000E+02  0.91188000000E+02 0.  0.
    9900012    2    3    3    0    0  0.26824888442E+02 -0.25181709544E+02  0.14446174170E+01  0.54367081285E+02  0.39999993407E+02 0.  0.
        -12    1    3    3    0    0 -0.26824888442E+02  0.25181709544E+02 -0.14446174170E+01  0.36820918715E+02  0.00000000000E+00 0.  1.
         11    1    4    4    0    0  0.78701709981E+01 -0.20494788279E+02  0.14291504551E+02  0.26195859228E+02  0.51100000000E-03 0. -1.
        -11    1    4    4    0    0  0.13408956791E+01 -0.45991079169E+01 -0.89195925081E+01  0.10124669161E+02  0.51100000000E-03 0.  1.
         12    1    4    4    0    0  0.17613821765E+02 -0.87813348963E-01 -0.39272946259E+01  0.18046552896E+02  0.00000000000E+00 0. -1.
</event>
<event>
 8    1  0.3146747E-007  0.9118800E+02  0.7816164E-02  0.1184000E+00
        -11   -1    0    0    0    0  0.00000000000E+00  0.00000000000E+00  0.45593999997E+02  0.45594000000E+02  0.51100000000E-03 0.  1.
         11   -1    0    0    0    0 -0.00000000000E+00 -0.00000000000E+00 -0.45593999997E+02  0.45594000000E+02  0.51100000000E-03 0. -1.
         23    2    1    2    0    0 -0.35527136788E-14 -0.17763568394E-14  0.00000000000E+00  0.91188000000E+02  0.91188000000E+02 0.  0.
    9900012    2    3    3    0    0  0.29050607665E+02 -0.86931222520E+01  0.20887110532E+02  0.54367087918E+02  0.40000008527E+02 0.  0.
        -12    1    3    3    0    0 -0.29050607665E+02  0.86931222520E+01 -0.20887110532E+02  0.36820912082E+02  0.00000000000E+00 0.  1.
         11    1    4    4    0    0  0.27056621531E+02 -0.11068974911E+02  0.28096305982E+01  0.29367958707E+02  0.51100000000E-03 0. -1.
        -11    1    4    4    0    0  0.22263533165E+01  0.83591051071E+01  0.16770911336E+02  0.18870473089E+02  0.51100000000E-03 0.  1.
         12    1    4    4    0    0 -0.23236718253E+00 -0.59832524484E+01  0.13065685973E+01  0.61286561225E+01  0.00000000000E+00 0. -1.
</event>
<event>
 8    1  0.3146747E-007  0.9118800E+02  0.7816164E-02  0.1184000E+00
        -11   -1    0    0    0    0  0.00000000000E+00  0.00000000000E+00  0.45593999997E+02  0.45594000000E+02  0.51100000000E-03 0.  1.
         11   -1    0    0    0    0 -0.00000000000E+00 -0.00000000000E+00 -0.45593999997E+02  0.45594000000E+02  0.51100000000E-03 0. -1.
         23    2    1    2    0    0  0.00000000000E+00  0.00000000000E+00 -0.35527136788E-14  0.91188000000E+02  0.91188000000E+02 0.  0.
    9900012    2    3    3    0    0  0.16705660385E+02  0.15256960921E+02 -0.29050393494E+02  0.54367091434E+02  0.40000016543E+02 0.  0.
        -12    1    3    3    0    0 -0.16705660385E+02 -0.15256960921E+02  0.29050393494E+02  0.36820908566E+02  0.00000000000E+00 0.  1.
         11    1    4    4    0    0  0.12944603567E+02 -0.66975460287E+01 -0.40205566148E+01  0.15119019812E+02  0.51100000000E-03 0.  1.
        -11    1    4    4    0    0 -0.70875220192E+01  0.10374483505E+02 -0.46002932550E+01  0.13380043896E+02  0.51100000000E-03 0. -1.
        -12    1    4    4    0    0  0.10848578836E+02  0.11580023445E+02 -0.20429543624E+02  0.25868027726E+02  0.00000000000E+00 0.  1.
</event>
<event>
 8    1  0.3146747E-007  0.9118800E+02  0.7816164E-02  0.1184000E+00
        -11   -1    0    0    0    0  0.00000000000E+00  0.00000000000E+00  0.45593999997E+02  0.45594000000E+02  0.51100000000E-03 0.  1.
         11   -1    0    0    0    0 -0.00000000000E+00 -0.00000000000E+00 -0.45593999997E+02  0.45594000000E+02  0.51100000000E-03 0. -1.
         23    2    1    2    0    0  0.00000000000E+00  0.00000000000E+00  0.00000000000E+00  0.91188000000E+02  0.91188000000E+02 0.  0.
    9900012    2    3    3    0    0  0.29099556767E+02  0.17339022220E+02  0.14434471638E+02  0.54367083838E+02  0.39999999225E+02 0.  0.
         12    1    3    3    0    0 -0.29099556767E+02 -0.17339022220E+02 -0.14434471638E+02  0.36820916162E+02  0.00000000000E+00 0. -1.
         11    1    4    4    0    0  0.66019927591E+01  0.17310897273E+02  0.75538685164E+01  0.20007858521E+02  0.51100000000E-03 0. -1.
        -11    1    4    4    0    0  0.88317805183E+01  0.99105044682E+01 -0.44967702026E+01  0.14015683660E+02  0.51100000000E-03 0.  1.
         12    1    4    4    0    0  0.13665783489E+02 -0.98823795210E+01  0.11377373325E+02  0.20343541657E+02  0.00000000000E+00 0. -1.
</event>
<event>
 8    1  0.3146747E-007  0.9118800E+02  0.7816164E-02  0.1184000E+00
        -11   -1    0    0    0    0  0.00000000000E+00  0.00000000000E+00  0.45593999997E+02  0.45594000000E+02  0.51100000000E-03 0. -1.
         11   -1    0    0    0    0 -0.00000000000E+00 -0.00000000000E+00 -0.45593999997E+02  0.45594000000E+02  0.51100000000E-03 0.  1.
         23    2    1    2    0    0 -0.35527136788E-14  0.00000000000E+00 -0.17763568394E-14  0.91188000000E+02  0.91188000000E+02 0.  0.
    9900012    2    3    3    0    0 -0.26239422618E+02 -0.21326753255E+02 -0.14575364427E+02  0.54367096264E+02  0.40000027553E+02 0.  0.
         12    1    3    3    0    0  0.26239422618E+02  0.21326753255E+02  0.14575364427E+02  0.36820903736E+02  0.00000000000E+00 0. -1.
         11    1    4    4    0    0 -0.19440148258E+02 -0.14689948418E+02 -0.62357568350E+01  0.25151513123E+02  0.51100000000E-03 0. -1.
        -11    1    4    4    0    0 -0.97225173946E+01  0.72800276701E+01  0.10239821738E+01  0.12189121671E+02  0.51100000000E-03 0.  1.
         12    1    4    4    0    0  0.29232430344E+01 -0.13916832507E+02 -0.93635897662E+01  0.17026461470E+02  0.00000000000E+00 0. -1.
</event>
<event>
 8    1  0.3146747E-007  0.9118800E+02  0.7816164E-02  0.1184000E+00
        -11   -1    0    0    0    0  0.00000000000E+00  0.00000000000E+00  0.45593999997E+02  0.45594000000E+02  0.51100000000E-03 0.  1.
         11   -1    0    0    0    0 -0.00000000000E+00 -0.00000000000E+00 -0.45593999997E+02  0.45594000000E+02  0.51100000000E-03 0. -1.
         23    2    1    2    0    0 -0.88817841970E-15 -0.17763568394E-14  0.00000000000E+00  0.91188000000E+02  0.91188000000E+02 0.  0.
    9900012    2    3    3    0    0  0.40677765720E+01 -0.12031102304E+02  0.34561347991E+02  0.54367068401E+02  0.39999964034E+02 0.  0.
         12    1    3    3    0    0 -0.40677765720E+01  0.12031102304E+02 -0.34561347991E+02  0.36820931599E+02  0.00000000000E+00 0. -1.
         11    1    4    4    0    0  0.67446172539E-01 -0.99775494092E+01  0.28957919778E+01  0.10389497227E+02  0.51100000000E-03 0. -1.
        -11    1    4    4    0    0  0.81105661886E+01 -0.14029273881E+02  0.24658134818E+02  0.29506362407E+02  0.51100000000E-03 0.  1.
         12    1    4    4    0    0 -0.41102357891E+01  0.11975720986E+02  0.70074211950E+01  0.14471208767E+02  0.00000000000E+00 0. -1.
</event>
<event>
 8    1  0.3146747E-007  0.9118800E+02  0.7816164E-02  0.1184000E+00
        -11   -1    0    0    0    0  0.00000000000E+00  0.00000000000E+00  0.45593999997E+02  0.45594000000E+02  0.51100000000E-03 0.  1.
         11   -1    0    0    0    0 -0.00000000000E+00 -0.00000000000E+00 -0.45593999997E+02  0.45594000000E+02  0.51100000000E-03 0. -1.
         23    2    1    2    0    0 -0.35527136788E-14 -0.35527136788E-14  0.00000000000E+00  0.91188000000E+02  0.91188000000E+02 0.  0.
    9900012    2    3    3    0    0  0.25494346844E+02 -0.15067286551E+02  0.21881365698E+02  0.54367095478E+02  0.40000025761E+02 0.  0.
         12    1    3    3    0    0 -0.25494346844E+02  0.15067286551E+02 -0.21881365698E+02  0.36820904522E+02  0.00000000000E+00 0. -1.
         11    1    4    4    0    0  0.88448890963E+01 -0.13172600470E+02 -0.21682473878E+01  0.16014080157E+02  0.51100000000E-03 0. -1.
        -11    1    4    4    0    0  0.21237293584E+02 -0.15338371034E+01  0.99146668417E+01  0.23487782226E+02  0.51100000000E-03 0.  1.
         12    1    4    4    0    0 -0.45878358366E+01 -0.36084897767E+00  0.14134946244E+02  0.14865233095E+02  0.00000000000E+00 0. -1.
</event>
<event>
 8    1  0.3146747E-007  0.9118800E+02  0.7816164E-02  0.1184000E+00
        -11   -1    0    0    0    0  0.00000000000E+00  0.00000000000E+00  0.45593999997E+02  0.45594000000E+02  0.51100000000E-03 0.  1.
         11   -1    0    0    0    0 -0.00000000000E+00 -0.00000000000E+00 -0.45593999997E+02  0.45594000000E+02  0.51100000000E-03 0. -1.
         23    2    1    2    0    0 -0.35527136788E-14 -0.11102230246E-14  0.35527136788E-14  0.91188000000E+02  0.91188000000E+02 0.  0.
    9900012    2    3    3    0    0  0.21994102609E+02  0.19385436264E+01  0.29466603254E+02  0.54367092783E+02  0.40000019617E+02 0.  0.
        -12    1    3    3    0    0 -0.21994102609E+02 -0.19385436264E+01 -0.29466603254E+02  0.36820907217E+02  0.00000000000E+00 0.  1.
         11    1    4    4    0    0  0.86700753846E+01 -0.96404897831E+01 -0.44021840557E+01  0.13692643103E+02  0.51100000000E-03 0. -1.
        -11    1    4    4    0    0  0.95398862610E+01  0.68246115651E+01  0.32350182718E+02  0.34411031299E+02  0.51100000000E-03 0.  1.
         12    1    4    4    0    0  0.37841409637E+01  0.47544218444E+01  0.15186045914E+01  0.62634183808E+01  0.00000000000E+00 0. -1.
</event>
<event>
 8    1  0.3146747E-007  0.9118800E+02  0.7816164E-02  0.1184000E+00
        -11   -1    0    0    0    0  0.00000000000E+00  0.00000000000E+00  0.45593999997E+02  0.45594000000E+02  0.51100000000E-03 0.  1.
         11   -1    0    0    0    0 -0.00000000000E+00 -0.00000000000E+00 -0.45593999997E+02  0.45594000000E+02  0.51100000000E-03 0. -1.
         23    2    1    2    0    0  0.35527136788E-14  0.00000000000E+00  0.35527136788E-14  0.91188000000E+02  0.91188000000E+02 0.  0.
    9900012    2    3    3    0    0  0.20622103621E+02  0.42569049669E+01 -0.30205624138E+02  0.54367188938E+02  0.40000238822E+02 0.  0.
        -12    1    3    3    0    0 -0.20622103621E+02 -0.42569049669E+01  0.30205624138E+02  0.36820811062E+02  0.00000000000E+00 0.  1.
         11    1    4    4    0    0 -0.52864547170E+01  0.70802508990E+01 -0.18398630960E+01  0.90256109345E+01  0.51100000000E-03 0. -1.
        -11    1    4    4    0    0  0.68025440106E+01 -0.72548324173E+01 -0.22922632239E+02  0.24987082011E+02  0.51100000000E-03 0.  1.
        -12    1    4    4    0    0  0.19106014327E+02  0.44314864853E+01 -0.54431288033E+01  0.20354495993E+02  0.00000000000E+00 0.  1.
</event>
<event>
 8    1  0.3146747E-007  0.9118800E+02  0.7816164E-02  0.1184000E+00
        -11   -1    0    0    0    0  0.00000000000E+00  0.00000000000E+00  0.45593999997E+02  0.45594000000E+02  0.51100000000E-03 0.  1.
         11   -1    0    0    0    0 -0.00000000000E+00 -0.00000000000E+00 -0.45593999997E+02  0.45594000000E+02  0.51100000000E-03 0. -1.
         23    2    1    2    0    0  0.00000000000E+00  0.35527136788E-14  0.00000000000E+00  0.91188000000E+02  0.91188000000E+02 0.  0.
    9900012    2    3    3    0    0 -0.33655000902E+02  0.14233862119E+02 -0.45295776931E+01  0.54367095739E+02  0.40000026357E+02 0.  0.
         12    1    3    3    0    0  0.33655000902E+02 -0.14233862119E+02  0.45295776931E+01  0.36820904261E+02  0.00000000000E+00 0. -1.
         11    1    4    4    0    0 -0.16116225390E+02  0.30682899918E+01  0.92310801380E+01  0.18824451255E+02  0.51100000000E-03 0.  1.
        -11    1    4    4    0    0 -0.73986902091E+01 -0.80737887528E+01 -0.57277886268E+01  0.12358569677E+02  0.51100000000E-03 0. -1.
        -12    1    4    4    0    0 -0.10140085303E+02  0.19239360880E+02 -0.80328692044E+01  0.23184074807E+02  0.00000000000E+00 0.  1.
</event>
<event>
 8    1  0.3146747E-007  0.9118800E+02  0.7816164E-02  0.1184000E+00
        -11   -1    0    0    0    0  0.00000000000E+00  0.00000000000E+00  0.45593999997E+02  0.45594000000E+02  0.51100000000E-03 0.  1.
         11   -1    0    0    0    0 -0.00000000000E+00 -0.00000000000E+00 -0.45593999997E+02  0.45594000000E+02  0.51100000000E-03 0. -1.
         23    2    1    2    0    0 -0.26645352591E-14 -0.17763568394E-14  0.00000000000E+00  0.91188000000E+02  0.91188000000E+02 0.  0.
    9900012    2    3    3    0    0  0.51872717680E+01  0.83849638500E+01 -0.35476270946E+02  0.54367065637E+02  0.39999957732E+02 0.  0.
        -12    1    3    3    0    0 -0.51872717680E+01 -0.83849638500E+01  0.35476270946E+02  0.36820934363E+02  0.00000000000E+00 0.  1.
         11    1    4    4    0    0 -0.78437940139E+01  0.44298006189E+01 -0.83583306315E+01  0.12288609737E+02  0.51100000000E-03 0. -1.
        -11    1    4    4    0    0  0.21991806332E+02  0.43020368375E+01 -0.14850116991E+02  0.26882578775E+02  0.51100000000E-03 0.  1.
        -12    1    4    4    0    0 -0.89607405498E+01 -0.34687360634E+00 -0.12267823324E+02  0.15195877125E+02  0.00000000000E+00 0.  1.
</event>
<event>
 8    1  0.3146747E-007  0.9118800E+02  0.7816164E-02  0.1184000E+00
        -11   -1    0    0    0    0  0.00000000000E+00  0.00000000000E+00  0.45593999997E+02  0.45594000000E+02  0.51100000000E-03 0.  1.
         11   -1    0    0    0    0 -0.00000000000E+00 -0.00000000000E+00 -0.45593999997E+02  0.45594000000E+02  0.51100000000E-03 0. -1.
         23    2    1    2    0    0 -0.88817841970E-15  0.00000000000E+00  0.00000000000E+00  0.91188000000E+02  0.91188000000E+02 0.  0.
    9900012    2    3    3    0    0 -0.13545575853E+01  0.11772238092E+02 -0.34862006765E+02  0.54367082961E+02  0.39999997225E+02 0.  0.
        -12    1    3    3    0    0  0.13545575853E+01 -0.11772238092E+02  0.34862006765E+02  0.36820917039E+02  0.00000000000E+00 0.  1.
         11    1    4    4    0    0  0.19123935877E+01  0.12644378288E+02 -0.18915326688E+02  0.22832589330E+02  0.51100000000E-03 0. -1.
        -11    1    4    4    0    0  0.47248881249E+01  0.16684010455E+01  0.61307932796E+01  0.79180020422E+01  0.51100000000E-03 0.  1.
        -12    1    4    4    0    0 -0.79918392979E+01 -0.25405412411E+01 -0.22077473356E+02  0.23616491589E+02  0.00000000000E+00 0.  1.
</event>
<event>
 8    1  0.3146747E-007  0.9118800E+02  0.7816164E-02  0.1184000E+00
        -11   -1    0    0    0    0  0.00000000000E+00  0.00000000000E+00  0.45593999997E+02  0.45594000000E+02  0.51100000000E-03 0.  1.
         11   -1    0    0    0    0 -0.00000000000E+00 -0.00000000000E+00 -0.45593999997E+02  0.45594000000E+02  0.51100000000E-03 0. -1.
         23    2    1    2    0    0  0.35527136788E-14  0.00000000000E+00  0.00000000000E+00  0.91188000000E+02  0.91188000000E+02 0.  0.
    9900012    2    3    3    0    0  0.20594103894E+02 -0.23129901036E+02 -0.19916566155E+02  0.54367095007E+02  0.40000024687E+02 0.  0.
        -12    1    3    3    0    0 -0.20594103894E+02  0.23129901036E+02  0.19916566155E+02  0.36820904993E+02  0.00000000000E+00 0.  1.
         11    1    4    4    0    0  0.99085452911E+01  0.80868722176E+01 -0.33325468186E+01  0.13216756055E+02  0.51100000000E-03 0. -1.
        -11    1    4    4    0    0  0.10699190817E+02 -0.25180685186E+02 -0.20294723170E+02  0.34064870165E+02  0.51100000000E-03 0.  1.
         12    1    4    4    0    0 -0.13632213582E-01 -0.60360880675E+01  0.37107038336E+01  0.70854687874E+01  0.00000000000E+00 0. -1.
</event>
<event>
 8    1  0.3146747E-007  0.9118800E+02  0.7816164E-02  0.1184000E+00
        -11   -1    0    0    0    0  0.00000000000E+00  0.00000000000E+00  0.45593999997E+02  0.45594000000E+02  0.51100000000E-03 0. -1.
         11   -1    0    0    0    0 -0.00000000000E+00 -0.00000000000E+00 -0.45593999997E+02  0.45594000000E+02  0.51100000000E-03 0.  1.
         23    2    1    2    0    0  0.35527136788E-14 -0.88817841970E-15  0.00000000000E+00  0.91188000000E+02  0.91188000000E+02 0.  0.
    9900012    2    3    3    0    0  0.28442556685E+02 -0.48309403950E+01 -0.22879308765E+02  0.54367084946E+02  0.40000001751E+02 0.  0.
         12    1    3    3    0    0 -0.28442556685E+02  0.48309403950E+01  0.22879308765E+02  0.36820915054E+02  0.00000000000E+00 0. -1.
         11    1    4    4    0    0  0.19543729205E+01  0.56754652677E+01  0.21456129339E+01  0.63744909319E+01  0.51100000000E-03 0. -1.
        -11    1    4    4    0    0 -0.24333302809E-01  0.16760366714E+00  0.58889247469E+01  0.58913596084E+01  0.51100000000E-03 0.  1.
        -12    1    4    4    0    0  0.26512517067E+02 -0.10674009330E+02 -0.30913846446E+02  0.42101234406E+02  0.00000000000E+00 0.  1.
</event>
<event>
 8    1  0.3146747E-007  0.9118800E+02  0.7816164E-02  0.1184000E+00
        -11   -1    0    0    0    0  0.00000000000E+00  0.00000000000E+00  0.45593999997E+02  0.45594000000E+02  0.51100000000E-03 0.  1.
         11   -1    0    0    0    0 -0.00000000000E+00 -0.00000000000E+00 -0.45593999997E+02  0.45594000000E+02  0.51100000000E-03 0. -1.
         23    2    1    2    0    0  0.00000000000E+00  0.35527136788E-14  0.00000000000E+00  0.91188000000E+02  0.91188000000E+02 0.  0.
    9900012    2    3    3    0    0  0.45847515946E+01  0.28250751257E+02  0.23165918039E+02  0.54367018857E+02  0.39999851088E+02 0.  0.
         12    1    3    3    0    0 -0.45847515946E+01 -0.28250751257E+02 -0.23165918039E+02  0.36820981143E+02  0.00000000000E+00 0. -1.
         11    1    4    4    0    0 -0.46943973682E+01 -0.83601050830E+00 -0.32907940282E+01  0.57935831588E+01  0.51100000000E-03 0. -1.
        -11    1    4    4    0    0  0.16532733691E+02  0.22013177304E+02  0.10082918994E+02  0.29318535332E+02  0.51100000000E-03 0.  1.
        -12    1    4    4    0    0 -0.72535847281E+01  0.70735844610E+01  0.16373793072E+02  0.19254900366E+02  0.00000000000E+00 0.  1.
</event>
<event>
 8    1  0.3146747E-007  0.9118800E+02  0.7816164E-02  0.1184000E+00
        -11   -1    0    0    0    0  0.00000000000E+00  0.00000000000E+00  0.45593999997E+02  0.45594000000E+02  0.51100000000E-03 0.  1.
         11   -1    0    0    0    0 -0.00000000000E+00 -0.00000000000E+00 -0.45593999997E+02  0.45594000000E+02  0.51100000000E-03 0. -1.
         23    2    1    2    0    0  0.88817841970E-15  0.00000000000E+00 -0.35527136788E-14  0.91188000000E+02  0.91188000000E+02 0.  0.
    9900012    2    3    3    0    0  0.60651684324E+01 -0.29412564999E+02 -0.21304787867E+02  0.54367092434E+02  0.40000018821E+02 0.  0.
         12    1    3    3    0    0 -0.60651684324E+01  0.29412564999E+02  0.21304787867E+02  0.36820907566E+02  0.00000000000E+00 0. -1.
         11    1    4    4    0    0  0.16471225958E+02 -0.26683551145E+02 -0.25580254709E+02  0.40468044399E+02  0.51100000000E-03 0. -1.
        -11    1    4    4    0    0 -0.81878453710E+00  0.20553227310E+01  0.19179421631E+01  0.29280133280E+01  0.51100000000E-03 0.  1.
        -12    1    4    4    0    0 -0.95872729884E+01 -0.47843365851E+01  0.23575246788E+01  0.10971034706E+02  0.00000000000E+00 0.  1.
</event>
<event>
 8    1  0.3146747E-007  0.9118800E+02  0.7816164E-02  0.1184000E+00
        -11   -1    0    0    0    0  0.00000000000E+00  0.00000000000E+00  0.45593999997E+02  0.45594000000E+02  0.51100000000E-03 0.  1.
         11   -1    0    0    0    0 -0.00000000000E+00 -0.00000000000E+00 -0.45593999997E+02  0.45594000000E+02  0.51100000000E-03 0. -1.
         23    2    1    2    0    0  0.35527136788E-14 -0.17763568394E-14  0.00000000000E+00  0.91188000000E+02  0.91188000000E+02 0.  0.
    9900012    2    3    3    0    0 -0.17745371818E+02  0.13959405424E+02  0.29086364515E+02  0.54367084457E+02  0.40000000636E+02 0.  0.
         12    1    3    3    0    0  0.17745371818E+02 -0.13959405424E+02 -0.29086364515E+02  0.36820915543E+02  0.00000000000E+00 0. -1.
         11    1    4    4    0    0 -0.85855361644E+01 -0.98147270454E+01  0.16148582457E+02  0.20756131958E+02  0.51100000000E-03 0. -1.
        -11    1    4    4    0    0 -0.10641614539E+02  0.69704342245E+01  0.10643801610E+02  0.16586784687E+02  0.51100000000E-03 0.  1.
         12    1    4    4    0    0  0.14817788863E+01  0.16803698245E+02  0.22939804480E+01  0.17024167812E+02  0.00000000000E+00 0. -1.
</event>
<event>
 8    1  0.3146747E-007  0.9118800E+02  0.7816164E-02  0.1184000E+00
        -11   -1    0    0    0    0  0.00000000000E+00  0.00000000000E+00  0.45593999997E+02  0.45594000000E+02  0.51100000000E-03 0. -1.
         11   -1    0    0    0    0 -0.00000000000E+00 -0.00000000000E+00 -0.45593999997E+02  0.45594000000E+02  0.51100000000E-03 0.  1.
         23    2    1    2    0    0 -0.17763568394E-14  0.17763568394E-14  0.00000000000E+00  0.91188000000E+02  0.91188000000E+02 0.  0.
    9900012    2    3    3    0    0 -0.10071083799E+02  0.13527215489E+02  0.32731754181E+02  0.54367081766E+02  0.39999994502E+02 0.  0.
        -12    1    3    3    0    0  0.10071083799E+02 -0.13527215489E+02 -0.32731754181E+02  0.36820918234E+02  0.00000000000E+00 0.  1.
         11    1    4    4    0    0 -0.82471842177E+01  0.15897643745E+02  0.25814020593E+02  0.31418382893E+02  0.51100000000E-03 0. -1.
        -11    1    4    4    0    0  0.86193321110E+01  0.31244351539E+01  0.63152380693E+01  0.11132709158E+02  0.51100000000E-03 0.  1.
         12    1    4    4    0    0 -0.10443231693E+02 -0.54948634101E+01  0.60249551877E+00  0.11815989714E+02  0.00000000000E+00 0. -1.
</event>
<event>
 8    1  0.3146747E-007  0.9118800E+02  0.7816164E-02  0.1184000E+00
        -11   -1    0    0    0    0  0.00000000000E+00  0.00000000000E+00  0.45593999997E+02  0.45594000000E+02  0.51100000000E-03 0. -1.
         11   -1    0    0    0    0 -0.00000000000E+00 -0.00000000000E+00 -0.45593999997E+02  0.45594000000E+02  0.51100000000E-03 0.  1.
         23    2    1    2    0    0  0.00000000000E+00  0.00000000000E+00  0.00000000000E+00  0.91188000000E+02  0.91188000000E+02 0.  0.
    9900012    2    3    3    0    0 -0.89974959038E+01 -0.80192109671E+01  0.34792482894E+02  0.54367088238E+02  0.40000009256E+02 0.  0.
        -12    1    3    3    0    0  0.89974959038E+01  0.80192109671E+01 -0.34792482894E+02  0.36820911762E+02  0.00000000000E+00 0.  1.
         11    1    4    4    0    0 -0.93146358228E+01 -0.99391917816E+01  0.13116933218E+02  0.18910418057E+02  0.51100000000E-03 0. -1.
        -11    1    4    4    0    0  0.77552497481E+01 -0.57695702771E+01  0.22736468143E+02  0.24705845942E+02  0.51100000000E-03 0.  1.
        -12    1    4    4    0    0 -0.74381098290E+01  0.76895510915E+01 -0.10609184670E+01  0.10750824239E+02  0.00000000000E+00 0.  1.
</event>
<event>
 8    1  0.3146747E-007  0.9118800E+02  0.7816164E-02  0.1184000E+00
        -11   -1    0    0    0    0  0.00000000000E+00  0.00000000000E+00  0.45593999997E+02  0.45594000000E+02  0.51100000000E-03 0.  1.
         11   -1    0    0    0    0 -0.00000000000E+00 -0.00000000000E+00 -0.45593999997E+02  0.45594000000E+02  0.51100000000E-03 0. -1.
         23    2    1    2    0    0 -0.71054273576E-14  0.88817841970E-15  0.00000000000E+00  0.91188000000E+02  0.91188000000E+02 0.  0.
    9900012    2    3    3    0    0  0.16679798718E+02 -0.62671454517E+01  0.32222457692E+02  0.54367087775E+02  0.40000008200E+02 0.  0.
         12    1    3    3    0    0 -0.16679798718E+02  0.62671454517E+01 -0.32222457692E+02  0.36820912225E+02  0.00000000000E+00 0. -1.
         11    1    4    4    0    0 -0.74877376136E+01 -0.44625733684E+01  0.13625499844E+02  0.16175135916E+02  0.51100000000E-03 0. -1.
        -11    1    4    4    0    0  0.21290070184E+02  0.46414100615E+01  0.21451663589E+02  0.30577502298E+02  0.51100000000E-03 0.  1.
         12    1    4    4    0    0  0.28774661474E+01 -0.64459821448E+01 -0.28547057407E+01  0.76144495603E+01  0.00000000000E+00 0. -1.
</event>
<event>
 8    1  0.3146747E-007  0.9118800E+02  0.7816164E-02  0.1184000E+00
        -11   -1    0    0    0    0  0.00000000000E+00  0.00000000000E+00  0.45593999997E+02  0.45594000000E+02  0.51100000000E-03 0.  1.
         11   -1    0    0    0    0 -0.00000000000E+00 -0.00000000000E+00 -0.45593999997E+02  0.45594000000E+02  0.51100000000E-03 0. -1.
         23    2    1    2    0    0  0.00000000000E+00  0.71054273576E-14  0.00000000000E+00  0.91188000000E+02  0.91188000000E+02 0.  0.
    9900012    2    3    3    0    0 -0.14027711785E+02 -0.32699882439E+02  0.94721139020E+01  0.54367082695E+02  0.39999996619E+02 0.  0.
        -12    1    3    3    0    0  0.14027711785E+02  0.32699882439E+02 -0.94721139020E+01  0.36820917305E+02  0.00000000000E+00 0.  1.
         11    1    4    4    0    0  0.72304164043E+01 -0.93924056928E+01  0.46049925971E+01  0.12716216543E+02  0.51100000000E-03 0. -1.
        -11    1    4    4    0    0 -0.47718470231E+01  0.44919378292E+01  0.65778631485E+01  0.92852740043E+01  0.51100000000E-03 0.  1.
         12    1    4    4    0    0 -0.16486281167E+02 -0.27799414575E+02 -0.17107418436E+01  0.32365592148E+02  0.00000000000E+00 0. -1.
</event>
<event>
 8    1  0.3146747E-007  0.9118800E+02  0.7816164E-02  0.1184000E+00
        -11   -1    0    0    0    0  0.00000000000E+00  0.00000000000E+00  0.45593999997E+02  0.45594000000E+02  0.51100000000E-03 0.  1.
         11   -1    0    0    0    0 -0.00000000000E+00 -0.00000000000E+00 -0.45593999997E+02  0.45594000000E+02  0.51100000000E-03 0. -1.
         23    2    1    2    0    0  0.35527136788E-14 -0.35527136788E-14  0.17763568394E-14  0.91188000000E+02  0.91188000000E+02 0.  0.
    9900012    2    3    3    0    0  0.18312297062E+02  0.28615229059E+02  0.14198876837E+02  0.54367086633E+02  0.40000005596E+02 0.  0.
         12    1    3    3    0    0 -0.18312297062E+02 -0.28615229059E+02 -0.14198876837E+02  0.36820913367E+02  0.00000000000E+00 0. -1.
         11    1    4    4    0    0  0.30682104135E+02  0.17464554401E+02  0.77670580379E+01  0.36148711808E+02  0.51100000000E-03 0.  1.
        -11    1    4    4    0    0 -0.62444123206E+01  0.62862850575E+01  0.15419500483E+01  0.89937575721E+01  0.51100000000E-03 0. -1.
        -12    1    4    4    0    0 -0.61253947522E+01  0.48643896007E+01  0.48898687503E+01  0.92246172524E+01  0.00000000000E+00 0.  1.
</event>
<event>
 8    1  0.3146747E-007  0.9118800E+02  0.7816164E-02  0.1184000E+00
        -11   -1    0    0    0    0  0.00000000000E+00  0.00000000000E+00  0.45593999997E+02  0.45594000000E+02  0.51100000000E-03 0. -1.
         11   -1    0    0    0    0 -0.00000000000E+00 -0.00000000000E+00 -0.45593999997E+02  0.45594000000E+02  0.51100000000E-03 0.  1.
         23    2    1    2    0    0  0.00000000000E+00 -0.17763568394E-14  0.71054273576E-14  0.91188000000E+02  0.91188000000E+02 0.  0.
    9900012    2    3    3    0    0 -0.12881638507E+02 -0.12045290991E+02  0.32322669567E+02  0.54367073700E+02  0.39999976114E+02 0.  0.
        -12    1    3    3    0    0  0.12881638507E+02  0.12045290991E+02 -0.32322669567E+02  0.36820926300E+02  0.00000000000E+00 0.  1.
         11    1    4    4    0    0 -0.14283307695E+02 -0.35092326369E+01  0.30503667282E+02  0.33864454969E+02  0.51100000000E-03 0. -1.
        -11    1    4    4    0    0  0.17306982222E+01  0.77358981569E+00 -0.72547588757E+01  0.74983520953E+01  0.51100000000E-03 0.  1.
        -12    1    4    4    0    0 -0.32902903357E+00 -0.93096481694E+01  0.90737611606E+01  0.13004266636E+02  0.00000000000E+00 0.  1.
</event>
<event>
 8    1  0.3146747E-007  0.9118800E+02  0.7816164E-02  0.1184000E+00
        -11   -1    0    0    0    0  0.00000000000E+00  0.00000000000E+00  0.45593999997E+02  0.45594000000E+02  0.51100000000E-03 0.  1.
         11   -1    0    0    0    0 -0.00000000000E+00 -0.00000000000E+00 -0.45593999997E+02  0.45594000000E+02  0.51100000000E-03 0. -1.
         23    2    1    2    0    0  0.00000000000E+00  0.00000000000E+00  0.00000000000E+00  0.91188000000E+02  0.91188000000E+02 0.  0.
    9900012    2    3    3    0    0  0.66554401495E+00  0.26922172518E+02 -0.25110427371E+02  0.54367083598E+02  0.39999998677E+02 0.  0.
        -12    1    3    3    0    0 -0.66554401495E+00 -0.26922172518E+02  0.25110427371E+02  0.36820916402E+02  0.00000000000E+00 0.  1.
         11    1    4    4    0    0  0.65074074567E+00 -0.72418926205E+01  0.41703679218E+01  0.83821501483E+01  0.51100000000E-03 0.  1.
        -11    1    4    4    0    0  0.59836357952E+00  0.69311066833E+01 -0.11549858120E+02  0.13483230388E+02  0.51100000000E-03 0. -1.
        -12    1    4    4    0    0 -0.58356031025E+00  0.27232958455E+02 -0.17730937173E+02  0.32501703062E+02  0.00000000000E+00 0.  1.
</event>
<event>
 8    1  0.3146747E-007  0.9118800E+02  0.7816164E-02  0.1184000E+00
        -11   -1    0    0    0    0  0.00000000000E+00  0.00000000000E+00  0.45593999997E+02  0.45594000000E+02  0.51100000000E-03 0. -1.
         11   -1    0    0    0    0 -0.00000000000E+00 -0.00000000000E+00 -0.45593999997E+02  0.45594000000E+02  0.51100000000E-03 0.  1.
         23    2    1    2    0    0  0.35527136788E-14  0.88817841970E-15  0.00000000000E+00  0.91188000000E+02  0.91188000000E+02 0.  0.
    9900012    2    3    3    0    0 -0.18842072089E+02  0.50675237413E+01  0.31226217519E+02  0.54367080158E+02  0.39999990836E+02 0.  0.
        -12    1    3    3    0    0  0.18842072089E+02 -0.50675237413E+01 -0.31226217519E+02  0.36820919842E+02  0.00000000000E+00 0.  1.
         11    1    4    4    0    0  0.91332975273E+00  0.94482584424E+01  0.25907823318E+02  0.27592010948E+02  0.51100000000E-03 0. -1.
        -11    1    4    4    0    0 -0.82126077432E+01 -0.49494776470E+01 -0.54070359028E+01  0.11008192060E+02  0.51100000000E-03 0.  1.
         12    1    4    4    0    0 -0.11542794098E+02  0.56874294589E+00  0.10725430104E+02  0.15766877150E+02  0.00000000000E+00 0. -1.
</event>
<event>
 8    1  0.3146747E-007  0.9118800E+02  0.7816164E-02  0.1184000E+00
        -11   -1    0    0    0    0  0.00000000000E+00  0.00000000000E+00  0.45593999997E+02  0.45594000000E+02  0.51100000000E-03 0. -1.
         11   -1    0    0    0    0 -0.00000000000E+00 -0.00000000000E+00 -0.45593999997E+02  0.45594000000E+02  0.51100000000E-03 0.  1.
         23    2    1    2    0    0  0.00000000000E+00 -0.88817841970E-15  0.17763568394E-14  0.91188000000E+02  0.91188000000E+02 0.  0.
    9900012    2    3    3    0    0 -0.34134042905E+02 -0.41118465262E+01  0.13181036393E+02  0.54367083562E+02  0.39999998597E+02 0.  0.
        -12    1    3    3    0    0  0.34134042905E+02  0.41118465262E+01 -0.13181036393E+02  0.36820916438E+02  0.00000000000E+00 0.  1.
         11    1    4    4    0    0 -0.31954963270E+01 -0.80356552248E+01  0.17852744988E+02  0.19836921523E+02  0.51100000000E-03 0. -1.
        -11    1    4    4    0    0 -0.12456215692E+02  0.81716626596E+01 -0.45104891791E+01  0.15565278439E+02  0.51100000000E-03 0.  1.
         12    1    4    4    0    0 -0.18482330886E+02 -0.42478539610E+01 -0.16121941553E+00  0.18964883600E+02  0.00000000000E+00 0. -1.
</event>
<event>
 8    1  0.3146747E-007  0.9118800E+02  0.7816164E-02  0.1184000E+00
        -11   -1    0    0    0    0  0.00000000000E+00  0.00000000000E+00  0.45593999997E+02  0.45594000000E+02  0.51100000000E-03 0.  1.
         11   -1    0    0    0    0 -0.00000000000E+00 -0.00000000000E+00 -0.45593999997E+02  0.45594000000E+02  0.51100000000E-03 0. -1.
         23    2    1    2    0    0  0.35527136788E-14  0.00000000000E+00  0.00000000000E+00  0.91188000000E+02  0.91188000000E+02 0.  0.
    9900012    2    3    3    0    0 -0.22351602615E+02 -0.22853245017E+02  0.18273315129E+02  0.54367095705E+02  0.40000026280E+02 0.  0.
         12    1    3    3    0    0  0.22351602615E+02  0.22853245017E+02 -0.18273315129E+02  0.36820904295E+02  0.00000000000E+00 0. -1.
         11    1    4    4    0    0  0.84503828690E+01 -0.21161168795E+00  0.33911861561E+01  0.91079028292E+01  0.51100000000E-03 0. -1.
        -11    1    4    4    0    0 -0.12102427600E+02 -0.96852196074E+01 -0.36407502023E+01  0.15922540468E+02  0.51100000000E-03 0.  1.
        -12    1    4    4    0    0 -0.18699557884E+02 -0.12956413722E+02  0.18522879175E+02  0.29336652408E+02  0.00000000000E+00 0.  1.
</event>
<event>
 8    1  0.3146747E-007  0.9118800E+02  0.7816164E-02  0.1184000E+00
        -11   -1    0    0    0    0  0.00000000000E+00  0.00000000000E+00  0.45593999997E+02  0.45594000000E+02  0.51100000000E-03 0.  1.
         11   -1    0    0    0    0 -0.00000000000E+00 -0.00000000000E+00 -0.45593999997E+02  0.45594000000E+02  0.51100000000E-03 0. -1.
         23    2    1    2    0    0  0.35527136788E-14  0.00000000000E+00  0.35527136788E-14  0.91188000000E+02  0.91188000000E+02 0.  0.
    9900012    2    3    3    0    0 -0.23289446970E+02 -0.24045977749E+02  0.15335326125E+02  0.54367087281E+02  0.40000007075E+02 0.  0.
         12    1    3    3    0    0  0.23289446970E+02  0.24045977749E+02 -0.15335326125E+02  0.36820912719E+02  0.00000000000E+00 0. -1.
         11    1    4    4    0    0 -0.10783812416E+02 -0.14347992657E+02 -0.31490261034E+01  0.18222839219E+02  0.51100000000E-03 0. -1.
        -11    1    4    4    0    0 -0.57887777281E+01 -0.16297312921E+02  0.20179269121E+02  0.26576592305E+02  0.51100000000E-03 0.  1.
         12    1    4    4    0    0 -0.67168568257E+01  0.65993278294E+01 -0.16949168933E+01  0.95676557574E+01  0.00000000000E+00 0. -1.
</event>
<event>
 8    1  0.3146747E-007  0.9118800E+02  0.7816164E-02  0.1184000E+00
        -11   -1    0    0    0    0  0.00000000000E+00  0.00000000000E+00  0.45593999997E+02  0.45594000000E+02  0.51100000000E-03 0.  1.
         11   -1    0    0    0    0 -0.00000000000E+00 -0.00000000000E+00 -0.45593999997E+02  0.45594000000E+02  0.51100000000E-03 0. -1.
         23    2    1    2    0    0  0.00000000000E+00  0.35527136788E-14  0.00000000000E+00  0.91188000000E+02  0.91188000000E+02 0.  0.
    9900012    2    3    3    0    0 -0.14716084223E+02  0.20006936382E+02 -0.27183441861E+02  0.54367080000E+02  0.39999990475E+02 0.  0.
        -12    1    3    3    0    0  0.14716084223E+02 -0.20006936382E+02  0.27183441861E+02  0.36820920000E+02  0.00000000000E+00 0.  1.
         11    1    4    4    0    0 -0.38188878786E+01  0.10806535428E+01 -0.20131288034E+01  0.44502139892E+01  0.51100000000E-03 0. -1.
        -11    1    4    4    0    0 -0.30048726700E+01  0.20925684902E+02 -0.32626588327E+02  0.38876828761E+02  0.51100000000E-03 0.  1.
         12    1    4    4    0    0 -0.78923236739E+01 -0.19994020621E+01  0.74562752693E+01  0.11040037250E+02  0.00000000000E+00 0. -1.
</event>
<event>
 8    1  0.3146747E-007  0.9118800E+02  0.7816164E-02  0.1184000E+00
        -11   -1    0    0    0    0  0.00000000000E+00  0.00000000000E+00  0.45593999997E+02  0.45594000000E+02  0.51100000000E-03 0. -1.
         11   -1    0    0    0    0 -0.00000000000E+00 -0.00000000000E+00 -0.45593999997E+02  0.45594000000E+02  0.51100000000E-03 0.  1.
         23    2    1    2    0    0 -0.17763568394E-14  0.00000000000E+00 -0.26645352591E-14  0.91188000000E+02  0.91188000000E+02 0.  0.
    9900012    2    3    3    0    0  0.10502733536E+02 -0.34379958308E+02  0.79681594945E+01  0.54367075098E+02  0.39999979300E+02 0.  0.
        -12    1    3    3    0    0 -0.10502733536E+02  0.34379958308E+02 -0.79681594945E+01  0.36820924902E+02  0.00000000000E+00 0.  1.
         11    1    4    4    0    0 -0.49035354000E+01 -0.32122065212E+02  0.12943686315E+02  0.34977289040E+02  0.51100000000E-03 0. -1.
        -11    1    4    4    0    0  0.79711422943E+01  0.96782772780E+00  0.24527032531E+01  0.83959248147E+01  0.51100000000E-03 0.  1.
         12    1    4    4    0    0  0.74351266413E+01 -0.32257208236E+01 -0.74282300737E+01  0.10993861243E+02  0.00000000000E+00 0. -1.
</event>
<event>
 8    1  0.3146747E-007  0.9118800E+02  0.7816164E-02  0.1184000E+00
        -11   -1    0    0    0    0  0.00000000000E+00  0.00000000000E+00  0.45593999997E+02  0.45594000000E+02  0.51100000000E-03 0.  1.
         11   -1    0    0    0    0 -0.00000000000E+00 -0.00000000000E+00 -0.45593999997E+02  0.45594000000E+02  0.51100000000E-03 0. -1.
         23    2    1    2    0    0  0.00000000000E+00  0.00000000000E+00  0.00000000000E+00  0.91188000000E+02  0.91188000000E+02 0.  0.
    9900012    2    3    3    0    0 -0.21058709105E+02 -0.28921242438E+02  0.87104595370E+01  0.54367087482E+02  0.40000007532E+02 0.  0.
        -12    1    3    3    0    0  0.21058709105E+02  0.28921242438E+02 -0.87104595370E+01  0.36820912518E+02  0.00000000000E+00 0.  1.
         11    1    4    4    0    0 -0.23071951870E+01 -0.79231711098E+01 -0.76954492302E+01  0.11283604441E+02  0.51100000000E-03 0. -1.
        -11    1    4    4    0    0  0.66758174665E+01 -0.14924295884E+00  0.47588426907E+01  0.81997192832E+01  0.51100000000E-03 0.  1.
        -12    1    4    4    0    0 -0.25427331385E+02 -0.20848828369E+02  0.11647066076E+02  0.34883763758E+02  0.00000000000E+00 0.  1.
</event>
<event>
 8    1  0.3146747E-007  0.9118800E+02  0.7816164E-02  0.1184000E+00
        -11   -1    0    0    0    0  0.00000000000E+00  0.00000000000E+00  0.45593999997E+02  0.45594000000E+02  0.51100000000E-03 0. -1.
         11   -1    0    0    0    0 -0.00000000000E+00 -0.00000000000E+00 -0.45593999997E+02  0.45594000000E+02  0.51100000000E-03 0.  1.
         23    2    1    2    0    0  0.00000000000E+00 -0.17763568394E-14  0.00000000000E+00  0.91188000000E+02  0.91188000000E+02 0.  0.
    9900012    2    3    3    0    0  0.75570250134E+01 -0.45852926969E+01  0.35744187028E+02  0.54367076023E+02  0.39999981410E+02 0.  0.
        -12    1    3    3    0    0 -0.75570250134E+01  0.45852926969E+01 -0.35744187028E+02  0.36820923977E+02  0.00000000000E+00 0.  1.
         11    1    4    4    0    0  0.24287100429E+01  0.12038042846E+02  0.47318938392E+01  0.13160696319E+02  0.51100000000E-03 0. -1.
        -11    1    4    4    0    0 -0.52443894567E+00 -0.18399691555E+02  0.13808626226E+02  0.23010907067E+02  0.51100000000E-03 0.  1.
         12    1    4    4    0    0  0.56527539161E+01  0.17763560122E+01  0.17203666963E+02  0.18195472637E+02  0.00000000000E+00 0. -1.
</event>
<event>
 8    1  0.3146747E-007  0.9118800E+02  0.7816164E-02  0.1184000E+00
        -11   -1    0    0    0    0  0.00000000000E+00  0.00000000000E+00  0.45593999997E+02  0.45594000000E+02  0.51100000000E-03 0.  1.
         11   -1    0    0    0    0 -0.00000000000E+00 -0.00000000000E+00 -0.45593999997E+02  0.45594000000E+02  0.51100000000E-03 0. -1.
         23    2    1    2    0    0  0.35527136788E-14  0.00000000000E+00 -0.35527136788E-14  0.91188000000E+02  0.91188000000E+02 0.  0.
    9900012    2    3    3    0    0 -0.17160245537E+02 -0.31512025504E+02 -0.82643172594E+01  0.54367072282E+02  0.39999972882E+02 0.  0.
        -12    1    3    3    0    0  0.17160245537E+02  0.31512025504E+02  0.82643172594E+01  0.36820927718E+02  0.00000000000E+00 0.  1.
         11    1    4    4    0    0  0.44006645680E+01 -0.35393582048E+01  0.46810744559E+01  0.73352139345E+01  0.51100000000E-03 0. -1.
        -11    1    4    4    0    0 -0.21084301247E+02 -0.14445240766E+02 -0.19350531886E+02  0.32057071364E+02  0.51100000000E-03 0.  1.
        -12    1    4    4    0    0 -0.47660885782E+00 -0.13527426533E+02  0.64051401711E+01  0.14974786984E+02  0.00000000000E+00 0.  1.
</event>
<event>
 8    1  0.3146747E-007  0.9118800E+02  0.7816164E-02  0.1184000E+00
        -11   -1    0    0    0    0  0.00000000000E+00  0.00000000000E+00  0.45593999997E+02  0.45594000000E+02  0.51100000000E-03 0. -1.
         11   -1    0    0    0    0 -0.00000000000E+00 -0.00000000000E+00 -0.45593999997E+02  0.45594000000E+02  0.51100000000E-03 0.  1.
         23    2    1    2    0    0 -0.71054273576E-14 -0.17763568394E-14  0.35527136788E-14  0.91188000000E+02  0.91188000000E+02 0.  0.
    9900012    2    3    3    0    0 -0.30817324025E+02  0.68067355953E+01  0.18966829503E+02  0.54367085686E+02  0.40000003439E+02 0.  0.
        -12    1    3    3    0    0  0.30817324025E+02 -0.68067355953E+01 -0.18966829503E+02  0.36820914314E+02  0.00000000000E+00 0.  1.
         11    1    4    4    0    0  0.41212501832E+00 -0.17433354056E+01  0.21916312137E+01  0.28306029402E+01  0.51100000000E-03 0.  1.
        -11    1    4    4    0    0 -0.34297108878E+02 -0.49005644176E+01  0.14485304758E+02  0.37551714518E+02  0.51100000000E-03 0. -1.
         12    1    4    4    0    0  0.30676598353E+01  0.13450635418E+02  0.22898935306E+01  0.13984768229E+02  0.00000000000E+00 0. -1.
</event>
<event>
 8    1  0.3146747E-007  0.9118800E+02  0.7816164E-02  0.1184000E+00
        -11   -1    0    0    0    0  0.00000000000E+00  0.00000000000E+00  0.45593999997E+02  0.45594000000E+02  0.51100000000E-03 0.  1.
         11   -1    0    0    0    0 -0.00000000000E+00 -0.00000000000E+00 -0.45593999997E+02  0.45594000000E+02  0.51100000000E-03 0. -1.
         23    2    1    2    0    0  0.00000000000E+00  0.00000000000E+00 -0.26645352591E-14  0.91188000000E+02  0.91188000000E+02 0.  0.
    9900012    2    3    3    0    0  0.73779313497E+01 -0.35193901173E+02 -0.79205507666E+01  0.54367086442E+02  0.40000005162E+02 0.  0.
         12    1    3    3    0    0 -0.73779313497E+01  0.35193901173E+02  0.79205507666E+01  0.36820913558E+02  0.00000000000E+00 0. -1.
         11    1    4    4    0    0  0.87874635954E+01 -0.15006136480E+02  0.12917114623E+02  0.21662305947E+02  0.51100000000E-03 0. -1.
        -11    1    4    4    0    0 -0.40059430941E+01 -0.72738599741E+01 -0.30439824562E+00  0.83095894934E+01  0.51100000000E-03 0.  1.
        -12    1    4    4    0    0  0.25964108485E+01 -0.12913904719E+02 -0.20533267144E+02  0.24395191001E+02  0.00000000000E+00 0.  1.
</event>
<event>
 8    1  0.3146747E-007  0.9118800E+02  0.7816164E-02  0.1184000E+00
        -11   -1    0    0    0    0  0.00000000000E+00  0.00000000000E+00  0.45593999997E+02  0.45594000000E+02  0.51100000000E-03 0.  1.
         11   -1    0    0    0    0 -0.00000000000E+00 -0.00000000000E+00 -0.45593999997E+02  0.45594000000E+02  0.51100000000E-03 0. -1.
         23    2    1    2    0    0  0.17763568394E-14 -0.35527136788E-14  0.00000000000E+00  0.91188000000E+02  0.91188000000E+02 0.  0.
    9900012    2    3    3    0    0 -0.92676563611E+01  0.25595597019E+02  0.24794314467E+02  0.54367053908E+02  0.39999930995E+02 0.  0.
         12    1    3    3    0    0  0.92676563611E+01 -0.25595597019E+02 -0.24794314467E+02  0.36820946092E+02  0.00000000000E+00 0. -1.
         11    1    4    4    0    0  0.63166720227E+01 -0.15748266589E+00  0.16718434877E+02  0.17872638620E+02  0.51100000000E-03 0. -1.
        -11    1    4    4    0    0  0.27876795996E+01  0.90413223373E+00 -0.24790425746E+01  0.38385238040E+01  0.51100000000E-03 0.  1.
        -12    1    4    4    0    0 -0.18372007983E+02  0.24848947451E+02  0.10554922165E+02  0.32655891485E+02  0.00000000000E+00 0.  1.
</event>
<event>
 8    1  0.3146747E-007  0.9118800E+02  0.7816164E-02  0.1184000E+00
        -11   -1    0    0    0    0  0.00000000000E+00  0.00000000000E+00  0.45593999997E+02  0.45594000000E+02  0.51100000000E-03 0.  1.
         11   -1    0    0    0    0 -0.00000000000E+00 -0.00000000000E+00 -0.45593999997E+02  0.45594000000E+02  0.51100000000E-03 0. -1.
         23    2    1    2    0    0  0.00000000000E+00  0.88817841970E-15  0.35527136788E-14  0.91188000000E+02  0.91188000000E+02 0.  0.
    9900012    2    3    3    0    0  0.20393362065E+02  0.55114462147E+01  0.30158161288E+02  0.54367082738E+02  0.39999996719E+02 0.  0.
         12    1    3    3    0    0 -0.20393362065E+02 -0.55114462147E+01 -0.30158161288E+02  0.36820917262E+02  0.00000000000E+00 0. -1.
         11    1    4    4    0    0 -0.40953090029E+01 -0.58575133715E+00 -0.80944716351E+00  0.42154318201E+01  0.51100000000E-03 0. -1.
        -11    1    4    4    0    0  0.20636368068E+01 -0.10755746564E+02  0.54634212655E+01  0.12239021742E+02  0.51100000000E-03 0.  1.
        -12    1    4    4    0    0  0.22425034261E+02  0.16852944116E+02  0.25504187186E+02  0.37912629176E+02  0.00000000000E+00 0.  1.
</event>
<event>
 8    1  0.3146747E-007  0.9118800E+02  0.7816164E-02  0.1184000E+00
        -11   -1    0    0    0    0  0.00000000000E+00  0.00000000000E+00  0.45593999997E+02  0.45594000000E+02  0.51100000000E-03 0.  1.
         11   -1    0    0    0    0 -0.00000000000E+00 -0.00000000000E+00 -0.45593999997E+02  0.45594000000E+02  0.51100000000E-03 0. -1.
         23    2    1    2    0    0  0.00000000000E+00  0.00000000000E+00 -0.71054273576E-14  0.91188000000E+02  0.91188000000E+02 0.  0.
    9900012    2    3    3    0    0  0.12443748190E+02 -0.12958748384E+02  0.32140372767E+02  0.54367087596E+02  0.40000007792E+02 0.  0.
         12    1    3    3    0    0 -0.12443748190E+02  0.12958748384E+02 -0.32140372767E+02  0.36820912404E+02  0.00000000000E+00 0. -1.
         11    1    4    4    0    0 -0.98530502823E+01 -0.77298374101E+01  0.20950295368E+02  0.24407946709E+02  0.51100000000E-03 0. -1.
        -11    1    4    4    0    0  0.19731513011E+02  0.13988253245E+01  0.11434386352E+02  0.22848074525E+02  0.51100000000E-03 0.  1.
         12    1    4    4    0    0  0.25652854613E+01 -0.66277362984E+01 -0.24430895317E+00  0.71110663619E+01  0.00000000000E+00 0. -1.
</event>
<event>
 8    1  0.3146747E-007  0.9118800E+02  0.7816164E-02  0.1184000E+00
        -11   -1    0    0    0    0  0.00000000000E+00  0.00000000000E+00  0.45593999997E+02  0.45594000000E+02  0.51100000000E-03 0.  1.
         11   -1    0    0    0    0 -0.00000000000E+00 -0.00000000000E+00 -0.45593999997E+02  0.45594000000E+02  0.51100000000E-03 0. -1.
         23    2    1    2    0    0 -0.44408920985E-15  0.00000000000E+00  0.00000000000E+00  0.91188000000E+02  0.91188000000E+02 0.  0.
    9900012    2    3    3    0    0 -0.10981813354E+01  0.18143652162E+02  0.32021566577E+02  0.54367097756E+02  0.40000030955E+02 0.  0.
         12    1    3    3    0    0  0.10981813354E+01 -0.18143652162E+02 -0.32021566577E+02  0.36820902244E+02  0.00000000000E+00 0. -1.
         11    1    4    4    0    0 -0.73575617673E+01  0.96754772286E+01  0.70249448693E+01  0.14039174671E+02  0.51100000000E-03 0. -1.
        -11    1    4    4    0    0  0.17082612270E+02  0.10317492327E+02  0.11891254074E+02  0.23230760073E+02  0.51100000000E-03 0.  1.
        -12    1    4    4    0    0 -0.10823231838E+02 -0.18493173935E+01  0.13105367634E+02  0.17097163012E+02  0.00000000000E+00 0.  1.
</event>
<event>
 8    1  0.3146747E-007  0.9118800E+02  0.7816164E-02  0.1184000E+00
        -11   -1    0    0    0    0  0.00000000000E+00  0.00000000000E+00  0.45593999997E+02  0.45594000000E+02  0.51100000000E-03 0.  1.
         11   -1    0    0    0    0 -0.00000000000E+00 -0.00000000000E+00 -0.45593999997E+02  0.45594000000E+02  0.51100000000E-03 0. -1.
         23    2    1    2    0    0  0.00000000000E+00  0.00000000000E+00  0.17763568394E-14  0.91188000000E+02  0.91188000000E+02 0.  0.
    9900012    2    3    3    0    0  0.22427312858E+02  0.26037574367E+02  0.13222738700E+02  0.54367075790E+02  0.39999980878E+02 0.  0.
         12    1    3    3    0    0 -0.22427312858E+02 -0.26037574367E+02 -0.13222738700E+02  0.36820924210E+02  0.00000000000E+00 0. -1.
         11    1    4    4    0    0  0.68696762160E+01  0.87697563187E+00 -0.52032288713E+01  0.86622819465E+01  0.51100000000E-03 0. -1.
        -11    1    4    4    0    0  0.11082661221E+02  0.16125279056E+01  0.18626880209E+02  0.21734449442E+02  0.51100000000E-03 0.  1.
         12    1    4    4    0    0  0.44749754214E+01  0.23548070829E+02 -0.20091263748E+00  0.23970344401E+02  0.00000000000E+00 0. -1.
</event>
<event>
 8    1  0.3146747E-007  0.9118800E+02  0.7816164E-02  0.1184000E+00
        -11   -1    0    0    0    0  0.00000000000E+00  0.00000000000E+00  0.45593999997E+02  0.45594000000E+02  0.51100000000E-03 0.  1.
         11   -1    0    0    0    0 -0.00000000000E+00 -0.00000000000E+00 -0.45593999997E+02  0.45594000000E+02  0.51100000000E-03 0. -1.
         23    2    1    2    0    0  0.35527136788E-14 -0.26645352591E-14 -0.35527136788E-14  0.91188000000E+02  0.91188000000E+02 0.  0.
    9900012    2    3    3    0    0 -0.22377212236E+02  0.69864992615E+01  0.28394169459E+02  0.54367086667E+02  0.40000005675E+02 0.  0.
         12    1    3    3    0    0  0.22377212236E+02 -0.69864992615E+01 -0.28394169459E+02  0.36820913333E+02  0.00000000000E+00 0. -1.
         11    1    4    4    0    0 -0.69586432858E+01  0.13356931418E+02  0.72001012696E+01  0.16693465543E+02  0.51100000000E-03 0. -1.
        -11    1    4    4    0    0 -0.10234186888E+02  0.37022117737E+01  0.23692729442E+02  0.26072790068E+02  0.51100000000E-03 0.  1.
         12    1    4    4    0    0 -0.51843820628E+01 -0.10072643931E+02 -0.24986612526E+01  0.11600831056E+02  0.00000000000E+00 0. -1.
</event>
<event>
 8    1  0.3146747E-007  0.9118800E+02  0.7816164E-02  0.1184000E+00
        -11   -1    0    0    0    0  0.00000000000E+00  0.00000000000E+00  0.45593999997E+02  0.45594000000E+02  0.51100000000E-03 0.  1.
         11   -1    0    0    0    0 -0.00000000000E+00 -0.00000000000E+00 -0.45593999997E+02  0.45594000000E+02  0.51100000000E-03 0. -1.
         23    2    1    2    0    0  0.00000000000E+00  0.11102230246E-14 -0.35527136788E-14  0.91188000000E+02  0.91188000000E+02 0.  0.
    9900012    2    3    3    0    0  0.23878366019E+02  0.86670495947E+00 -0.28015183549E+02  0.54367108505E+02  0.40000055459E+02 0.  0.
        -12    1    3    3    0    0 -0.23878366019E+02 -0.86670495947E+00  0.28015183549E+02  0.36820891495E+02  0.00000000000E+00 0.  1.
         11    1    4    4    0    0  0.10871013048E+02  0.13162389886E+02  0.42436067331E+00  0.17076519390E+02  0.51100000000E-03 0. -1.
        -11    1    4    4    0    0 -0.14235848134E+00  0.31382116308E+01 -0.12682247943E+01  0.33877769359E+01  0.51100000000E-03 0.  1.
         12    1    4    4    0    0  0.13149711452E+02 -0.15433896558E+02 -0.27171319428E+02  0.33902812179E+02  0.00000000000E+00 0. -1.
</event>
<event>
 8    1  0.3146747E-007  0.9118800E+02  0.7816164E-02  0.1184000E+00
        -11   -1    0    0    0    0  0.00000000000E+00  0.00000000000E+00  0.45593999997E+02  0.45594000000E+02  0.51100000000E-03 0.  1.
         11   -1    0    0    0    0 -0.00000000000E+00 -0.00000000000E+00 -0.45593999997E+02  0.45594000000E+02  0.51100000000E-03 0. -1.
         23    2    1    2    0    0  0.00000000000E+00  0.00000000000E+00 -0.35527136788E-14  0.91188000000E+02  0.91188000000E+02 0.  0.
    9900012    2    3    3    0    0  0.31010900421E+02 -0.90604377548E+01 -0.17663861992E+02  0.54367088853E+02  0.40000010659E+02 0.  0.
        -12    1    3    3    0    0 -0.31010900421E+02  0.90604377548E+01  0.17663861992E+02  0.36820911147E+02  0.00000000000E+00 0.  1.
         11    1    4    4    0    0  0.42806967042E+01  0.77390323553E+01  0.30124513169E+01  0.93430107175E+01  0.51100000000E-03 0. -1.
        -11    1    4    4    0    0  0.58840694072E+01 -0.36634243514E+01  0.56672942190E+01  0.89532773214E+01  0.51100000000E-03 0.  1.
         12    1    4    4    0    0  0.20846134309E+02 -0.13136045759E+02 -0.26343607528E+02  0.36070800814E+02  0.00000000000E+00 0. -1.
</event>
<event>
 8    1  0.3146747E-007  0.9118800E+02  0.7816164E-02  0.1184000E+00
        -11   -1    0    0    0    0  0.00000000000E+00  0.00000000000E+00  0.45593999997E+02  0.45594000000E+02  0.51100000000E-03 0. -1.
         11   -1    0    0    0    0 -0.00000000000E+00 -0.00000000000E+00 -0.45593999997E+02  0.45594000000E+02  0.51100000000E-03 0.  1.
         23    2    1    2    0    0  0.35527136788E-14  0.00000000000E+00  0.35527136788E-14  0.91188000000E+02  0.91188000000E+02 0.  0.
    9900012    2    3    3    0    0  0.84661218279E+01 -0.20819276200E+02  0.29166000937E+02  0.54367175852E+02  0.40000208989E+02 0.  0.
        -12    1    3    3    0    0 -0.84661218279E+01  0.20819276200E+02 -0.29166000937E+02  0.36820824148E+02  0.00000000000E+00 0.  1.
         11    1    4    4    0    0  0.93316772324E+01 -0.20067455251E+01 -0.50171870363E+00  0.95581875631E+01  0.51100000000E-03 0. -1.
        -11    1    4    4    0    0  0.86951230612E+01 -0.12429712424E+00  0.28838693103E+00  0.87007920391E+01  0.51100000000E-03 0.  1.
         12    1    4    4    0    0 -0.95606784658E+01 -0.18688233550E+02  0.29379332709E+02  0.36108196250E+02  0.00000000000E+00 0. -1.
</event>
<event>
 8    1  0.3146747E-007  0.9118800E+02  0.7816164E-02  0.1184000E+00
        -11   -1    0    0    0    0  0.00000000000E+00  0.00000000000E+00  0.45593999997E+02  0.45594000000E+02  0.51100000000E-03 0.  1.
         11   -1    0    0    0    0 -0.00000000000E+00 -0.00000000000E+00 -0.45593999997E+02  0.45594000000E+02  0.51100000000E-03 0. -1.
         23    2    1    2    0    0  0.00000000000E+00  0.88817841970E-15  0.00000000000E+00  0.91188000000E+02  0.91188000000E+02 0.  0.
    9900012    2    3    3    0    0 -0.24830434536E+02 -0.43134785843E+01 -0.26844427346E+02  0.54367083984E+02  0.39999999557E+02 0.  0.
        -12    1    3    3    0    0  0.24830434536E+02  0.43134785843E+01  0.26844427346E+02  0.36820916016E+02  0.00000000000E+00 0.  1.
         11    1    4    4    0    0 -0.59980178396E+01  0.22459384262E+01  0.27270853272E+01  0.69611387044E+01  0.51100000000E-03 0. -1.
        -11    1    4    4    0    0  0.82106675908E+01 -0.22749543940E+01 -0.24462889488E+01  0.88642433215E+01  0.51100000000E-03 0.  1.
         12    1    4    4    0    0 -0.27043084287E+02 -0.42844626165E+01 -0.27125223725E+02  0.38541701958E+02  0.00000000000E+00 0. -1.
</event>
<event>
 8    1  0.3146747E-007  0.9118800E+02  0.7816164E-02  0.1184000E+00
        -11   -1    0    0    0    0  0.00000000000E+00  0.00000000000E+00  0.45593999997E+02  0.45594000000E+02  0.51100000000E-03 0.  1.
         11   -1    0    0    0    0 -0.00000000000E+00 -0.00000000000E+00 -0.45593999997E+02  0.45594000000E+02  0.51100000000E-03 0. -1.
         23    2    1    2    0    0  0.00000000000E+00  0.00000000000E+00  0.00000000000E+00  0.91188000000E+02  0.91188000000E+02 0.  0.
    9900012    2    3    3    0    0 -0.36388233557E+02 -0.25454197516E+01  0.50196187746E+01  0.54367091867E+02  0.40000017529E+02 0.  0.
         12    1    3    3    0    0  0.36388233557E+02  0.25454197516E+01 -0.50196187746E+01  0.36820908133E+02  0.00000000000E+00 0. -1.
         11    1    4    4    0    0 -0.13634804025E+02  0.99116853507E+01 -0.68154288299E+01  0.18182394168E+02  0.51100000000E-03 0.  1.
        -11    1    4    4    0    0 -0.16149612852E+01  0.58951052807E+01  0.31411454318E+01  0.68722020567E+01  0.51100000000E-03 0. -1.
        -12    1    4    4    0    0 -0.21138468247E+02 -0.18352210383E+02  0.86939021727E+01  0.29312495642E+02  0.00000000000E+00 0.  1.
</event>
<event>
 8    1  0.3146747E-007  0.9118800E+02  0.7816164E-02  0.1184000E+00
        -11   -1    0    0    0    0  0.00000000000E+00  0.00000000000E+00  0.45593999997E+02  0.45594000000E+02  0.51100000000E-03 0. -1.
         11   -1    0    0    0    0 -0.00000000000E+00 -0.00000000000E+00 -0.45593999997E+02  0.45594000000E+02  0.51100000000E-03 0.  1.
         23    2    1    2    0    0  0.00000000000E+00 -0.35527136788E-14  0.00000000000E+00  0.91188000000E+02  0.91188000000E+02 0.  0.
    9900012    2    3    3    0    0  0.10938608841E+02  0.26556841004E+02 -0.23040418745E+02  0.54367083886E+02  0.39999999335E+02 0.  0.
         12    1    3    3    0    0 -0.10938608841E+02 -0.26556841004E+02  0.23040418745E+02  0.36820916114E+02  0.00000000000E+00 0. -1.
         11    1    4    4    0    0  0.82930707301E+00  0.18469375251E+02 -0.17244056039E+01  0.18568229515E+02  0.51100000000E-03 0. -1.
        -11    1    4    4    0    0  0.17150782977E+02  0.97826835078E+01 -0.94321189511E+01  0.21881844564E+02  0.51100000000E-03 0.  1.
        -12    1    4    4    0    0 -0.70414812085E+01 -0.16952177546E+01 -0.11883894190E+02  0.13917009807E+02  0.00000000000E+00 0.  1.
</event>
<event>
 8    1  0.3146747E-007  0.9118800E+02  0.7816164E-02  0.1184000E+00
        -11   -1    0    0    0    0  0.00000000000E+00  0.00000000000E+00  0.45593999997E+02  0.45594000000E+02  0.51100000000E-03 0. -1.
         11   -1    0    0    0    0 -0.00000000000E+00 -0.00000000000E+00 -0.45593999997E+02  0.45594000000E+02  0.51100000000E-03 0.  1.
         23    2    1    2    0    0  0.88817841970E-15  0.00000000000E+00  0.17763568394E-14  0.91188000000E+02  0.91188000000E+02 0.  0.
    9900012    2    3    3    0    0  0.63327544357E+01 -0.32829945708E+02 -0.15423070638E+02  0.54367079020E+02  0.39999988242E+02 0.  0.
         12    1    3    3    0    0 -0.63327544357E+01  0.32829945708E+02  0.15423070638E+02  0.36820920980E+02  0.00000000000E+00 0. -1.
         11    1    4    4    0    0  0.44032287334E+01  0.48499874049E+01  0.44461067045E+01  0.79169859287E+01  0.51100000000E-03 0. -1.
        -11    1    4    4    0    0  0.89119659080E+01 -0.12820131606E+02 -0.11188024474E+02  0.19208092113E+02  0.51100000000E-03 0.  1.
         12    1    4    4    0    0 -0.69824402057E+01 -0.24859801506E+02 -0.86811528683E+01  0.27242000978E+02  0.00000000000E+00 0. -1.
</event>
<event>
 8    1  0.3146747E-007  0.9118800E+02  0.7816164E-02  0.1184000E+00
        -11   -1    0    0    0    0  0.00000000000E+00  0.00000000000E+00  0.45593999997E+02  0.45594000000E+02  0.51100000000E-03 0. -1.
         11   -1    0    0    0    0 -0.00000000000E+00 -0.00000000000E+00 -0.45593999997E+02  0.45594000000E+02  0.51100000000E-03 0.  1.
         23    2    1    2    0    0  0.17763568394E-14 -0.88817841970E-15  0.00000000000E+00  0.91188000000E+02  0.91188000000E+02 0.  0.
    9900012    2    3    3    0    0 -0.11266363584E+02 -0.73777146020E+01  0.34269776823E+02  0.54367092561E+02  0.40000019111E+02 0.  0.
        -12    1    3    3    0    0  0.11266363584E+02  0.73777146020E+01 -0.34269776823E+02  0.36820907439E+02  0.00000000000E+00 0.  1.
         11    1    4    4    0    0 -0.19287799531E+01  0.35961333170E+00  0.19950529820E+01  0.27981691367E+01  0.51100000000E-03 0. -1.
        -11    1    4    4    0    0  0.11826577343E+02 -0.18392319795E+01  0.26152619355E+02  0.28761262235E+02  0.51100000000E-03 0.  1.
        -12    1    4    4    0    0 -0.21164160974E+02 -0.58980959541E+01  0.61221044857E+01  0.22807661190E+02  0.00000000000E+00 0.  1.
</event>
<event>
 8    1  0.3146747E-007  0.9118800E+02  0.7816164E-02  0.1184000E+00
        -11   -1    0    0    0    0  0.00000000000E+00  0.00000000000E+00  0.45593999997E+02  0.45594000000E+02  0.51100000000E-03 0.  1.
         11   -1    0    0    0    0 -0.00000000000E+00 -0.00000000000E+00 -0.45593999997E+02  0.45594000000E+02  0.51100000000E-03 0. -1.
         23    2    1    2    0    0  0.17763568394E-14  0.71054273576E-14  0.71054273576E-14  0.91188000000E+02  0.91188000000E+02 0.  0.
    9900012    2    3    3    0    0 -0.88383122572E+01 -0.27123572959E+02 -0.23280388405E+02  0.54367075814E+02  0.39999980934E+02 0.  0.
        -12    1    3    3    0    0  0.88383122572E+01  0.27123572959E+02  0.23280388405E+02  0.36820924186E+02  0.00000000000E+00 0.  1.
         11    1    4    4    0    0 -0.15447892196E+02 -0.17318865557E+02 -0.18023817952E+02  0.29384323904E+02  0.51100000000E-03 0. -1.
        -11    1    4    4    0    0 -0.66046776204E+01 -0.65073782424E+01  0.20953307693E+01  0.95056903670E+01  0.51100000000E-03 0.  1.
        -12    1    4    4    0    0  0.13214257559E+02 -0.32973291590E+01 -0.73519012228E+01  0.15477061543E+02  0.00000000000E+00 0.  1.
</event>
<event>
 8    1  0.3146747E-007  0.9118800E+02  0.7816164E-02  0.1184000E+00
        -11   -1    0    0    0    0  0.00000000000E+00  0.00000000000E+00  0.45593999997E+02  0.45594000000E+02  0.51100000000E-03 0. -1.
         11   -1    0    0    0    0 -0.00000000000E+00 -0.00000000000E+00 -0.45593999997E+02  0.45594000000E+02  0.51100000000E-03 0.  1.
         23    2    1    2    0    0  0.00000000000E+00  0.00000000000E+00  0.00000000000E+00  0.91188000000E+02  0.91188000000E+02 0.  0.
    9900012    2    3    3    0    0 -0.55448537737E+01 -0.34684537723E+02 -0.11046064280E+02  0.54367107880E+02  0.40000054034E+02 0.  0.
        -12    1    3    3    0    0  0.55448537737E+01  0.34684537723E+02  0.11046064280E+02  0.36820892120E+02  0.00000000000E+00 0.  1.
         11    1    4    4    0    0 -0.14276208479E+02 -0.17063842438E+02 -0.17795341011E+01  0.22319309783E+02  0.51100000000E-03 0. -1.
        -11    1    4    4    0    0  0.12509553013E+02 -0.20727691116E+02 -0.34609664546E+01  0.24456172731E+02  0.51100000000E-03 0.  1.
         12    1    4    4    0    0 -0.37781983074E+01  0.31069958312E+01 -0.58055637241E+01  0.75916253661E+01  0.00000000000E+00 0. -1.
</event>
<event>
 8    1  0.3146747E-007  0.9118800E+02  0.7816164E-02  0.1184000E+00
        -11   -1    0    0    0    0  0.00000000000E+00  0.00000000000E+00  0.45593999997E+02  0.45594000000E+02  0.51100000000E-03 0. -1.
         11   -1    0    0    0    0 -0.00000000000E+00 -0.00000000000E+00 -0.45593999997E+02  0.45594000000E+02  0.51100000000E-03 0.  1.
         23    2    1    2    0    0  0.00000000000E+00  0.00000000000E+00  0.35527136788E-14  0.91188000000E+02  0.91188000000E+02 0.  0.
    9900012    2    3    3    0    0  0.12496880730E+02  0.23104852059E+02 -0.25802656659E+02  0.54367037122E+02  0.39999892726E+02 0.  0.
         12    1    3    3    0    0 -0.12496880730E+02 -0.23104852059E+02  0.25802656659E+02  0.36820962878E+02  0.00000000000E+00 0. -1.
         11    1    4    4    0    0  0.32593303668E+01 -0.41567621100E+01  0.42841255720E+01  0.68011497452E+01  0.51100000000E-03 0. -1.
        -11    1    4    4    0    0  0.25522789759E+01 -0.35277820636E+01 -0.79351102254E+01  0.90512622772E+01  0.51100000000E-03 0.  1.
        -12    1    4    4    0    0  0.66852713873E+01  0.30789396233E+02 -0.22151672005E+02  0.38514625099E+02  0.00000000000E+00 0.  1.
</event>
<event>
 8    1  0.3146747E-007  0.9118800E+02  0.7816164E-02  0.1184000E+00
        -11   -1    0    0    0    0  0.00000000000E+00  0.00000000000E+00  0.45593999997E+02  0.45594000000E+02  0.51100000000E-03 0.  1.
         11   -1    0    0    0    0 -0.00000000000E+00 -0.00000000000E+00 -0.45593999997E+02  0.45594000000E+02  0.51100000000E-03 0. -1.
         23    2    1    2    0    0  0.00000000000E+00  0.71054273576E-14  0.00000000000E+00  0.91188000000E+02  0.91188000000E+02 0.  0.
    9900012    2    3    3    0    0  0.48280924548E+01  0.35855507232E+02 -0.68450034106E+01  0.54367055589E+02  0.39999934826E+02 0.  0.
        -12    1    3    3    0    0 -0.48280924548E+01 -0.35855507232E+02  0.68450034106E+01  0.36820944411E+02  0.00000000000E+00 0.  1.
         11    1    4    4    0    0  0.79480897573E+00  0.97497985501E+01 -0.12849764091E+02  0.16149511774E+02  0.51100000000E-03 0. -1.
        -11    1    4    4    0    0 -0.63051850599E+00  0.24852230232E+02  0.14255430419E+02  0.28657428318E+02  0.51100000000E-03 0.  1.
        -12    1    4    4    0    0  0.46638019851E+01  0.12534784496E+01 -0.82506697391E+01  0.95601154974E+01  0.00000000000E+00 0.  1.
</event>
<event>
 8    1  0.3146747E-007  0.9118800E+02  0.7816164E-02  0.1184000E+00
        -11   -1    0    0    0    0  0.00000000000E+00  0.00000000000E+00  0.45593999997E+02  0.45594000000E+02  0.51100000000E-03 0. -1.
         11   -1    0    0    0    0 -0.00000000000E+00 -0.00000000000E+00 -0.45593999997E+02  0.45594000000E+02  0.51100000000E-03 0.  1.
         23    2    1    2    0    0  0.00000000000E+00  0.00000000000E+00  0.00000000000E+00  0.91188000000E+02  0.91188000000E+02 0.  0.
    9900012    2    3    3    0    0  0.20416637158E+02 -0.17564654239E+02 -0.25108117314E+02  0.54367167494E+02  0.40000189936E+02 0.  0.
        -12    1    3    3    0    0 -0.20416637158E+02  0.17564654239E+02  0.25108117314E+02  0.36820832506E+02  0.00000000000E+00 0.  1.
         11    1    4    4    0    0  0.21173862910E+02 -0.84280108926E+01 -0.11209611598E+02  0.25397228797E+02  0.51100000000E-03 0. -1.
        -11    1    4    4    0    0 -0.43259269619E+01  0.34473999689E+01  0.39820249071E+01  0.68157709210E+01  0.51100000000E-03 0.  1.
        -12    1    4    4    0    0  0.35687012099E+01 -0.12584043316E+02 -0.17880530623E+02  0.22154167776E+02  0.00000000000E+00 0.  1.
</event>
<event>
 8    1  0.3146747E-007  0.9118800E+02  0.7816164E-02  0.1184000E+00
        -11   -1    0    0    0    0  0.00000000000E+00  0.00000000000E+00  0.45593999997E+02  0.45594000000E+02  0.51100000000E-03 0.  1.
         11   -1    0    0    0    0 -0.00000000000E+00 -0.00000000000E+00 -0.45593999997E+02  0.45594000000E+02  0.51100000000E-03 0. -1.
         23    2    1    2    0    0  0.00000000000E+00  0.00000000000E+00 -0.17763568394E-14  0.91188000000E+02  0.91188000000E+02 0.  0.
    9900012    2    3    3    0    0  0.31682122539E+01 -0.35748738199E+02 -0.82322604160E+01  0.54367082531E+02  0.39999996245E+02 0.  0.
        -12    1    3    3    0    0 -0.31682122539E+01  0.35748738199E+02  0.82322604160E+01  0.36820917469E+02  0.00000000000E+00 0.  1.
         11    1    4    4    0    0  0.90591091564E+01 -0.26688008591E+02 -0.18846485690E+02  0.33904384442E+02  0.51100000000E-03 0. -1.
        -11    1    4    4    0    0 -0.25010010974E+00  0.26420995226E+01 -0.11909355696E+01  0.29088774028E+01  0.51100000000E-03 0.  1.
        -12    1    4    4    0    0 -0.56407967928E+01 -0.11702829131E+02  0.11805160844E+02  0.17553820686E+02  0.00000000000E+00 0.  1.
</event>
<event>
 8    1  0.3146747E-007  0.9118800E+02  0.7816164E-02  0.1184000E+00
        -11   -1    0    0    0    0  0.00000000000E+00  0.00000000000E+00  0.45593999997E+02  0.45594000000E+02  0.51100000000E-03 0. -1.
         11   -1    0    0    0    0 -0.00000000000E+00 -0.00000000000E+00 -0.45593999997E+02  0.45594000000E+02  0.51100000000E-03 0.  1.
         23    2    1    2    0    0 -0.35527136788E-14  0.00000000000E+00  0.00000000000E+00  0.91188000000E+02  0.91188000000E+02 0.  0.
    9900012    2    3    3    0    0  0.27606439048E+02 -0.24347911871E+01  0.24243258395E+02  0.54367092045E+02  0.40000017935E+02 0.  0.
        -12    1    3    3    0    0 -0.27606439048E+02  0.24347911871E+01 -0.24243258395E+02  0.36820907955E+02  0.00000000000E+00 0.  1.
         11    1    4    4    0    0 -0.88784136190E+01  0.33322754376E+01  0.76104622728E+01  0.12159334860E+02  0.51100000000E-03 0. -1.
        -11    1    4    4    0    0  0.11093074145E+02 -0.66656157480E+01  0.86859726673E+01  0.15586303241E+02  0.51100000000E-03 0.  1.
        -12    1    4    4    0    0  0.25391778522E+02  0.89854912332E+00  0.79468234553E+01  0.26621453943E+02  0.00000000000E+00 0.  1.
</event>
<event>
 8    1  0.3146747E-007  0.9118800E+02  0.7816164E-02  0.1184000E+00
        -11   -1    0    0    0    0  0.00000000000E+00  0.00000000000E+00  0.45593999997E+02  0.45594000000E+02  0.51100000000E-03 0.  1.
         11   -1    0    0    0    0 -0.00000000000E+00 -0.00000000000E+00 -0.45593999997E+02  0.45594000000E+02  0.51100000000E-03 0. -1.
         23    2    1    2    0    0 -0.19984014443E-14  0.00000000000E+00  0.35527136788E-14  0.91188000000E+02  0.91188000000E+02 0.  0.
    9900012    2    3    3    0    0  0.13087747356E+01  0.18433397553E+02 -0.31847705255E+02  0.54367090632E+02  0.40000014714E+02 0.  0.
        -12    1    3    3    0    0 -0.13087747356E+01 -0.18433397553E+02  0.31847705255E+02  0.36820909368E+02  0.00000000000E+00 0.  1.
         11    1    4    4    0    0 -0.85089212866E+01  0.19639370603E+01 -0.15215836544E+02  0.17543673283E+02  0.51100000000E-03 0. -1.
        -11    1    4    4    0    0  0.27529583733E+01  0.22907496062E+02 -0.13664944937E+02  0.26815347770E+02  0.51100000000E-03 0.  1.
        -12    1    4    4    0    0  0.70647376489E+01 -0.64380355692E+01 -0.29669237742E+01  0.10008069580E+02  0.00000000000E+00 0.  1.
</event>
<event>
 8    1  0.3146747E-007  0.9118800E+02  0.7816164E-02  0.1184000E+00
        -11   -1    0    0    0    0  0.00000000000E+00  0.00000000000E+00  0.45593999997E+02  0.45594000000E+02  0.51100000000E-03 0. -1.
         11   -1    0    0    0    0 -0.00000000000E+00 -0.00000000000E+00 -0.45593999997E+02  0.45594000000E+02  0.51100000000E-03 0.  1.
         23    2    1    2    0    0  0.00000000000E+00 -0.44408920985E-15  0.00000000000E+00  0.91188000000E+02  0.91188000000E+02 0.  0.
    9900012    2    3    3    0    0 -0.10994940521E+02  0.31972802743E+01  0.34995389505E+02  0.54366965186E+02  0.39999728733E+02 0.  0.
        -12    1    3    3    0    0  0.10994940521E+02 -0.31972802743E+01 -0.34995389505E+02  0.36821034814E+02  0.00000000000E+00 0.  1.
         11    1    4    4    0    0  0.33022669342E+01  0.94139256557E+00  0.15019127140E+02  0.15406666323E+02  0.51100000000E-03 0. -1.
        -11    1    4    4    0    0 -0.90133197509E+01  0.25244380371E+01  0.27902431543E+02  0.29430569254E+02  0.51100000000E-03 0.  1.
        -12    1    4    4    0    0 -0.52838877047E+01 -0.26855032840E+00 -0.79261691790E+01  0.95297296084E+01  0.00000000000E+00 0.  1.
</event>
<event>
 8    1  0.3146747E-007  0.9118800E+02  0.7816164E-02  0.1184000E+00
        -11   -1    0    0    0    0  0.00000000000E+00  0.00000000000E+00  0.45593999997E+02  0.45594000000E+02  0.51100000000E-03 0.  1.
         11   -1    0    0    0    0 -0.00000000000E+00 -0.00000000000E+00 -0.45593999997E+02  0.45594000000E+02  0.51100000000E-03 0. -1.
         23    2    1    2    0    0 -0.35527136788E-14 -0.44408920985E-15  0.00000000000E+00  0.91188000000E+02  0.91188000000E+02 0.  0.
    9900012    2    3    3    0    0 -0.21605088605E+02 -0.30081560834E+01 -0.29663957943E+02  0.54367092115E+02  0.40000018094E+02 0.  0.
        -12    1    3    3    0    0  0.21605088605E+02  0.30081560834E+01  0.29663957943E+02  0.36820907885E+02  0.00000000000E+00 0.  1.
         11    1    4    4    0    0 -0.18089768863E+02 -0.53627080456E+01 -0.30829061895E+02  0.36144562975E+02  0.51100000000E-03 0. -1.
        -11    1    4    4    0    0  0.93069814727E+00  0.28970932416E+01 -0.77058869056E+01  0.82849285788E+01  0.51100000000E-03 0.  1.
        -12    1    4    4    0    0 -0.44460178897E+01 -0.54254127937E+00  0.88709908576E+01  0.99376005610E+01  0.00000000000E+00 0.  1.
</event>
<event>
 8    1  0.3146747E-007  0.9118800E+02  0.7816164E-02  0.1184000E+00
        -11   -1    0    0    0    0  0.00000000000E+00  0.00000000000E+00  0.45593999997E+02  0.45594000000E+02  0.51100000000E-03 0.  1.
         11   -1    0    0    0    0 -0.00000000000E+00 -0.00000000000E+00 -0.45593999997E+02  0.45594000000E+02  0.51100000000E-03 0. -1.
         23    2    1    2    0    0  0.00000000000E+00 -0.35527136788E-14  0.88817841970E-15  0.91188000000E+02  0.91188000000E+02 0.  0.
    9900012    2    3    3    0    0 -0.22182263695E+02  0.28404326440E+02  0.75445181818E+01  0.54367104604E+02  0.40000046567E+02 0.  0.
         12    1    3    3    0    0  0.22182263695E+02 -0.28404326440E+02 -0.75445181818E+01  0.36820895396E+02  0.00000000000E+00 0. -1.
         11    1    4    4    0    0  0.51014137074E+01  0.49213472267E+01  0.41628049720E+01  0.82202813721E+01  0.51100000000E-03 0. -1.
        -11    1    4    4    0    0 -0.12819880176E+02  0.26257930601E+02  0.87006504529E+01  0.30488187315E+02  0.51100000000E-03 0.  1.
        -12    1    4    4    0    0 -0.14463797226E+02 -0.27749513875E+01 -0.53189372431E+01  0.15658635918E+02  0.00000000000E+00 0.  1.
</event>
<event>
 8    1  0.3146747E-007  0.9118800E+02  0.7816164E-02  0.1184000E+00
        -11   -1    0    0    0    0  0.00000000000E+00  0.00000000000E+00  0.45593999997E+02  0.45594000000E+02  0.51100000000E-03 0. -1.
         11   -1    0    0    0    0 -0.00000000000E+00 -0.00000000000E+00 -0.45593999997E+02  0.45594000000E+02  0.51100000000E-03 0.  1.
         23    2    1    2    0    0  0.00000000000E+00  0.00000000000E+00  0.00000000000E+00  0.91188000000E+02  0.91188000000E+02 0.  0.
    9900012    2    3    3    0    0  0.25136412883E+02  0.20382203523E+02  0.17564344908E+02  0.54367086308E+02  0.40000004856E+02 0.  0.
        -12    1    3    3    0    0 -0.25136412883E+02 -0.20382203523E+02 -0.17564344908E+02  0.36820913692E+02  0.00000000000E+00 0.  1.
         11    1    4    4    0    0 -0.24149737833E+01  0.23529665751E+01 -0.51169566037E+00  0.34103347032E+01  0.51100000000E-03 0. -1.
        -11    1    4    4    0    0  0.21903962194E+02  0.77735225493E+00 -0.41005493197E+01  0.22298034472E+02  0.51100000000E-03 0.  1.
         12    1    4    4    0    0  0.56474244723E+01  0.17251884693E+02  0.22176589888E+02  0.28658717133E+02  0.00000000000E+00 0. -1.
</event>
<event>
 8    1  0.3146747E-007  0.9118800E+02  0.7816164E-02  0.1184000E+00
        -11   -1    0    0    0    0  0.00000000000E+00  0.00000000000E+00  0.45593999997E+02  0.45594000000E+02  0.51100000000E-03 0.  1.
         11   -1    0    0    0    0 -0.00000000000E+00 -0.00000000000E+00 -0.45593999997E+02  0.45594000000E+02  0.51100000000E-03 0. -1.
         23    2    1    2    0    0 -0.17763568394E-14 -0.88817841970E-15  0.00000000000E+00  0.91188000000E+02  0.91188000000E+02 0.  0.
    9900012    2    3    3    0    0 -0.14817850737E+02 -0.54602035628E+01  0.33262556954E+02  0.54367079065E+02  0.39999988345E+02 0.  0.
         12    1    3    3    0    0  0.14817850737E+02  0.54602035628E+01 -0.33262556954E+02  0.36820920935E+02  0.00000000000E+00 0. -1.
         11    1    4    4    0    0 -0.13517676416E+02 -0.30422260382E+01  0.13887054533E+02  0.19617160824E+02  0.51100000000E-03 0.  1.
        -11    1    4    4    0    0 -0.10754868467E+02  0.74648330824E+01  0.30311295004E+01  0.13437956504E+02  0.51100000000E-03 0. -1.
         12    1    4    4    0    0  0.94546941464E+01 -0.98828106070E+01  0.16344372921E+02  0.21311961737E+02  0.00000000000E+00 0. -1.
</event>
<event>
 8    1  0.3146747E-007  0.9118800E+02  0.7816164E-02  0.1184000E+00
        -11   -1    0    0    0    0  0.00000000000E+00  0.00000000000E+00  0.45593999997E+02  0.45594000000E+02  0.51100000000E-03 0.  1.
         11   -1    0    0    0    0 -0.00000000000E+00 -0.00000000000E+00 -0.45593999997E+02  0.45594000000E+02  0.51100000000E-03 0. -1.
         23    2    1    2    0    0 -0.44408920985E-15 -0.17763568394E-14 -0.71054273576E-14  0.91188000000E+02  0.91188000000E+02 0.  0.
    9900012    2    3    3    0    0  0.16389498915E+01  0.13730530921E+02  0.34125727809E+02  0.54367096500E+02  0.40000028090E+02 0.  0.
         12    1    3    3    0    0 -0.16389498915E+01 -0.13730530921E+02 -0.34125727809E+02  0.36820903500E+02  0.00000000000E+00 0. -1.
         11    1    4    4    0    0  0.45392794621E+01  0.66124290800E+01  0.81067271994E+00  0.80614184170E+01  0.51100000000E-03 0.  1.
        -11    1    4    4    0    0  0.49693994377E+01  0.11155152890E+02  0.39524179592E+00  0.12218370722E+02  0.51100000000E-03 0. -1.
        -12    1    4    4    0    0 -0.78697290083E+01 -0.40370510490E+01  0.32919813293E+02  0.34087307360E+02  0.00000000000E+00 0.  1.
</event>
<event>
 8    1  0.3146747E-007  0.9118800E+02  0.7816164E-02  0.1184000E+00
        -11   -1    0    0    0    0  0.00000000000E+00  0.00000000000E+00  0.45593999997E+02  0.45594000000E+02  0.51100000000E-03 0. -1.
         11   -1    0    0    0    0 -0.00000000000E+00 -0.00000000000E+00 -0.45593999997E+02  0.45594000000E+02  0.51100000000E-03 0.  1.
         23    2    1    2    0    0  0.00000000000E+00  0.00000000000E+00  0.00000000000E+00  0.91188000000E+02  0.91188000000E+02 0.  0.
    9900012    2    3    3    0    0  0.26970601711E+02 -0.94297698784E+01 -0.23225996000E+02  0.54367071076E+02  0.39999970132E+02 0.  0.
         12    1    3    3    0    0 -0.26970601711E+02  0.94297698784E+01  0.23225996000E+02  0.36820928924E+02  0.00000000000E+00 0. -1.
         11    1    4    4    0    0 -0.17669617922E+01 -0.87167439712E+01  0.11487031456E+01  0.89679038026E+01  0.51100000000E-03 0. -1.
        -11    1    4    4    0    0  0.25306789800E+02  0.52907636156E+01 -0.27557634523E+02  0.37786889398E+02  0.51100000000E-03 0.  1.
        -12    1    4    4    0    0  0.34307737037E+01 -0.60037895228E+01  0.31829353772E+01  0.76122778756E+01  0.00000000000E+00 0.  1.
</event>
<event>
 8    1  0.3146747E-007  0.9118800E+02  0.7816164E-02  0.1184000E+00
        -11   -1    0    0    0    0  0.00000000000E+00  0.00000000000E+00  0.45593999997E+02  0.45594000000E+02  0.51100000000E-03 0. -1.
         11   -1    0    0    0    0 -0.00000000000E+00 -0.00000000000E+00 -0.45593999997E+02  0.45594000000E+02  0.51100000000E-03 0.  1.
         23    2    1    2    0    0  0.17763568394E-14  0.00000000000E+00  0.88817841970E-15  0.91188000000E+02  0.91188000000E+02 0.  0.
    9900012    2    3    3    0    0 -0.10114734061E+02 -0.35108088038E+02  0.45715443242E+01  0.54367018097E+02  0.39999849356E+02 0.  0.
        -12    1    3    3    0    0  0.10114734061E+02  0.35108088038E+02 -0.45715443242E+01  0.36820981903E+02  0.00000000000E+00 0.  1.
         11    1    4    4    0    0 -0.48612177917E+01 -0.66665449061E+01  0.15628300821E+02  0.17672522350E+02  0.51100000000E-03 0. -1.
        -11    1    4    4    0    0  0.38750964069E+01 -0.19099261192E+02 -0.13088480167E+02  0.23475656830E+02  0.51100000000E-03 0.  1.
        -12    1    4    4    0    0 -0.91286126766E+01 -0.93422819394E+01  0.20317236700E+01  0.13218838917E+02  0.00000000000E+00 0.  1.
</event>
<event>
 8    1  0.3146747E-007  0.9118800E+02  0.7816164E-02  0.1184000E+00
        -11   -1    0    0    0    0  0.00000000000E+00  0.00000000000E+00  0.45593999997E+02  0.45594000000E+02  0.51100000000E-03 0.  1.
         11   -1    0    0    0    0 -0.00000000000E+00 -0.00000000000E+00 -0.45593999997E+02  0.45594000000E+02  0.51100000000E-03 0. -1.
         23    2    1    2    0    0  0.00000000000E+00  0.88817841970E-15  0.00000000000E+00  0.91188000000E+02  0.91188000000E+02 0.  0.
    9900012    2    3    3    0    0  0.35552499706E+02 -0.70111548737E+01  0.65302289432E+01  0.54367076355E+02  0.39999982166E+02 0.  0.
        -12    1    3    3    0    0 -0.35552499706E+02  0.70111548737E+01 -0.65302289432E+01  0.36820923645E+02  0.00000000000E+00 0.  1.
         11    1    4    4    0    0  0.25656832379E+02  0.70423986304E+01 -0.82612749360E+01  0.27858878118E+02  0.51100000000E-03 0. -1.
        -11    1    4    4    0    0  0.12485922506E+02 -0.12352574372E+02  0.85379749424E+01  0.19528987962E+02  0.51100000000E-03 0.  1.
         12    1    4    4    0    0 -0.25902551781E+01 -0.17009791320E+01  0.62535289369E+01  0.69792102748E+01  0.00000000000E+00 0. -1.
</event>
<event>
 8    1  0.3146747E-007  0.9118800E+02  0.7816164E-02  0.1184000E+00
        -11   -1    0    0    0    0  0.00000000000E+00  0.00000000000E+00  0.45593999997E+02  0.45594000000E+02  0.51100000000E-03 0.  1.
         11   -1    0    0    0    0 -0.00000000000E+00 -0.00000000000E+00 -0.45593999997E+02  0.45594000000E+02  0.51100000000E-03 0. -1.
         23    2    1    2    0    0 -0.35527136788E-14 -0.35527136788E-14  0.35527136788E-14  0.91188000000E+02  0.91188000000E+02 0.  0.
    9900012    2    3    3    0    0 -0.19872704169E+02 -0.29695771912E+02  0.88890567784E+01  0.54367101439E+02  0.40000039350E+02 0.  0.
         12    1    3    3    0    0  0.19872704169E+02  0.29695771912E+02 -0.88890567784E+01  0.36820898561E+02  0.00000000000E+00 0. -1.
         11    1    4    4    0    0 -0.50047424283E+01 -0.25579110172E+01 -0.92924662913E+01  0.10860031564E+02  0.51100000000E-03 0. -1.
        -11    1    4    4    0    0 -0.86753712658E+01 -0.22034319409E+02  0.23906519244E+02  0.33649590800E+02  0.51100000000E-03 0.  1.
        -12    1    4    4    0    0 -0.61925904751E+01 -0.51035414861E+01 -0.57249961743E+01  0.98574790737E+01  0.00000000000E+00 0.  1.
</event>
<event>
 8    1  0.3146747E-007  0.9118800E+02  0.7816164E-02  0.1184000E+00
        -11   -1    0    0    0    0  0.00000000000E+00  0.00000000000E+00  0.45593999997E+02  0.45594000000E+02  0.51100000000E-03 0. -1.
         11   -1    0    0    0    0 -0.00000000000E+00 -0.00000000000E+00 -0.45593999997E+02  0.45594000000E+02  0.51100000000E-03 0.  1.
         23    2    1    2    0    0  0.88817841970E-15 -0.35527136788E-14  0.00000000000E+00  0.91188000000E+02  0.91188000000E+02 0.  0.
    9900012    2    3    3    0    0 -0.71614092744E+01  0.30720913134E+02  0.18992610602E+02  0.54367088223E+02  0.40000009223E+02 0.  0.
        -12    1    3    3    0    0  0.71614092744E+01 -0.30720913134E+02 -0.18992610602E+02  0.36820911777E+02  0.00000000000E+00 0.  1.
         11    1    4    4    0    0 -0.80275052455E+01 -0.17917577435E+01  0.34456247904E+00  0.82322512013E+01  0.51100000000E-03 0. -1.
        -11    1    4    4    0    0  0.81381805529E+01  0.26707043724E+02  0.22702399001E+02  0.35984650726E+02  0.51100000000E-03 0.  1.
         12    1    4    4    0    0 -0.72720845818E+01  0.58056271537E+01 -0.40543508780E+01  0.10150186297E+02  0.00000000000E+00 0. -1.
</event>
<event>
 8    1  0.3146747E-007  0.9118800E+02  0.7816164E-02  0.1184000E+00
        -11   -1    0    0    0    0  0.00000000000E+00  0.00000000000E+00  0.45593999997E+02  0.45594000000E+02  0.51100000000E-03 0.  1.
         11   -1    0    0    0    0 -0.00000000000E+00 -0.00000000000E+00 -0.45593999997E+02  0.45594000000E+02  0.51100000000E-03 0. -1.
         23    2    1    2    0    0  0.00000000000E+00 -0.88817841970E-15  0.00000000000E+00  0.91188000000E+02  0.91188000000E+02 0.  0.
    9900012    2    3    3    0    0  0.11459928927E+02 -0.62538634280E+01 -0.34428855584E+02  0.54366988666E+02  0.39999782262E+02 0.  0.
        -12    1    3    3    0    0 -0.11459928927E+02  0.62538634280E+01  0.34428855584E+02  0.36821011334E+02  0.00000000000E+00 0.  1.
         11    1    4    4    0    0 -0.30508156866E+01 -0.11526314391E+02 -0.10770760977E+02  0.16067753174E+02  0.51100000000E-03 0. -1.
        -11    1    4    4    0    0  0.55016774903E+01  0.33510385010E+01  0.50270874555E+01  0.81712620072E+01  0.51100000000E-03 0.  1.
         12    1    4    4    0    0  0.90090671235E+01  0.19214124620E+01 -0.28685182063E+02  0.30127973485E+02  0.00000000000E+00 0. -1.
</event>
<event>
 8    1  0.3146747E-007  0.9118800E+02  0.7816164E-02  0.1184000E+00
        -11   -1    0    0    0    0  0.00000000000E+00  0.00000000000E+00  0.45593999997E+02  0.45594000000E+02  0.51100000000E-03 0. -1.
         11   -1    0    0    0    0 -0.00000000000E+00 -0.00000000000E+00 -0.45593999997E+02  0.45594000000E+02  0.51100000000E-03 0.  1.
         23    2    1    2    0    0  0.00000000000E+00 -0.88817841970E-15  0.71054273576E-14  0.91188000000E+02  0.91188000000E+02 0.  0.
    9900012    2    3    3    0    0 -0.24307524234E+01 -0.68642037637E+01  0.36093692069E+02  0.54367075815E+02  0.39999980935E+02 0.  0.
        -12    1    3    3    0    0  0.24307524234E+01  0.68642037637E+01 -0.36093692069E+02  0.36820924185E+02  0.00000000000E+00 0.  1.
         11    1    4    4    0    0 -0.43258587505E+01 -0.56929875075E+01 -0.39226139914E+01  0.81553701006E+01  0.51100000000E-03 0.  1.
        -11    1    4    4    0    0  0.21725686031E+01  0.11832546311E+01  0.42619217666E+02  0.42690957598E+02  0.51100000000E-03 0. -1.
         12    1    4    4    0    0 -0.27746227595E+00 -0.23544708873E+01 -0.26029116056E+01  0.35207481165E+01  0.00000000000E+00 0. -1.
</event>
<event>
 8    1  0.3146747E-007  0.9118800E+02  0.7816164E-02  0.1184000E+00
        -11   -1    0    0    0    0  0.00000000000E+00  0.00000000000E+00  0.45593999997E+02  0.45594000000E+02  0.51100000000E-03 0. -1.
         11   -1    0    0    0    0 -0.00000000000E+00 -0.00000000000E+00 -0.45593999997E+02  0.45594000000E+02  0.51100000000E-03 0.  1.
         23    2    1    2    0    0 -0.35527136788E-14  0.00000000000E+00  0.00000000000E+00  0.91188000000E+02  0.91188000000E+02 0.  0.
    9900012    2    3    3    0    0  0.31452694474E+02 -0.84149014328E+01  0.17195819885E+02  0.54367098635E+02  0.40000032958E+02 0.  0.
        -12    1    3    3    0    0 -0.31452694474E+02  0.84149014328E+01 -0.17195819885E+02  0.36820901365E+02  0.00000000000E+00 0.  1.
         11    1    4    4    0    0  0.19042920201E+02  0.10613468879E+02  0.53287467871E+01  0.22442684198E+02  0.51100000000E-03 0. -1.
        -11    1    4    4    0    0 -0.40130881039E+01  0.15441108878E+00  0.34843679298E+01  0.53169106674E+01  0.51100000000E-03 0.  1.
         12    1    4    4    0    0  0.16422862377E+02 -0.19182781401E+02  0.83827051686E+01  0.26607503769E+02  0.00000000000E+00 0. -1.
</event>
<event>
 8    1  0.3146747E-007  0.9118800E+02  0.7816164E-02  0.1184000E+00
        -11   -1    0    0    0    0  0.00000000000E+00  0.00000000000E+00  0.45593999997E+02  0.45594000000E+02  0.51100000000E-03 0.  1.
         11   -1    0    0    0    0 -0.00000000000E+00 -0.00000000000E+00 -0.45593999997E+02  0.45594000000E+02  0.51100000000E-03 0. -1.
         23    2    1    2    0    0  0.11102230246E-14  0.35527136788E-14 -0.35527136788E-14  0.91188000000E+02  0.91188000000E+02 0.  0.
    9900012    2    3    3    0    0  0.89578229630E+00 -0.31963520051E+02 -0.18256822725E+02  0.54367073668E+02  0.39999976040E+02 0.  0.
        -12    1    3    3    0    0 -0.89578229630E+00  0.31963520051E+02  0.18256822725E+02  0.36820926332E+02  0.00000000000E+00 0.  1.
         11    1    4    4    0    0 -0.79770255560E+01 -0.21631819026E+02 -0.25568355023E+01  0.23197110577E+02  0.51100000000E-03 0. -1.
        -11    1    4    4    0    0 -0.58742114511E+01  0.33243721518E+01 -0.29352062149E+01  0.73602476970E+01  0.51100000000E-03 0.  1.
         12    1    4    4    0    0  0.14747019303E+02 -0.13656073177E+02 -0.12764781007E+02  0.23809715393E+02  0.00000000000E+00 0. -1.
</event>
<event>
 8    1  0.3146747E-007  0.9118800E+02  0.7816164E-02  0.1184000E+00
        -11   -1    0    0    0    0  0.00000000000E+00  0.00000000000E+00  0.45593999997E+02  0.45594000000E+02  0.51100000000E-03 0.  1.
         11   -1    0    0    0    0 -0.00000000000E+00 -0.00000000000E+00 -0.45593999997E+02  0.45594000000E+02  0.51100000000E-03 0. -1.
         23    2    1    2    0    0  0.00000000000E+00  0.00000000000E+00  0.00000000000E+00  0.91188000000E+02  0.91188000000E+02 0.  0.
    9900012    2    3    3    0    0  0.24840800340E+02 -0.24618901059E+02 -0.11516284420E+02  0.54367075816E+02  0.39999980938E+02 0.  0.
        -12    1    3    3    0    0 -0.24840800340E+02  0.24618901059E+02  0.11516284420E+02  0.36820924184E+02  0.00000000000E+00 0.  1.
         11    1    4    4    0    0  0.21246503664E+02 -0.23288662216E+02 -0.43567744628E+01  0.31823846244E+02  0.51100000000E-03 0. -1.
        -11    1    4    4    0    0  0.11226071518E+02  0.38061341182E+01 -0.20802763103E+01  0.12034902927E+02  0.51100000000E-03 0.  1.
         12    1    4    4    0    0 -0.76317748427E+01 -0.51363729621E+01 -0.50792336472E+01  0.10508326646E+02  0.00000000000E+00 0. -1.
</event>
<event>
 8    1  0.3146747E-007  0.9118800E+02  0.7816164E-02  0.1184000E+00
        -11   -1    0    0    0    0  0.00000000000E+00  0.00000000000E+00  0.45593999997E+02  0.45594000000E+02  0.51100000000E-03 0.  1.
         11   -1    0    0    0    0 -0.00000000000E+00 -0.00000000000E+00 -0.45593999997E+02  0.45594000000E+02  0.51100000000E-03 0. -1.
         23    2    1    2    0    0 -0.17763568394E-14 -0.66613381478E-15  0.00000000000E+00  0.91188000000E+02  0.91188000000E+02 0.  0.
    9900012    2    3    3    0    0  0.12333115983E+02 -0.19952279841E+01  0.34636581704E+02  0.54367089138E+02  0.40000011309E+02 0.  0.
         12    1    3    3    0    0 -0.12333115983E+02  0.19952279841E+01 -0.34636581704E+02  0.36820910862E+02  0.00000000000E+00 0. -1.
         11    1    4    4    0    0  0.23874925296E+02 -0.80489948453E+01  0.24224350746E+02  0.34951645816E+02  0.51100000000E-03 0. -1.
        -11    1    4    4    0    0 -0.38737939554E+01  0.65861105824E+01  0.17578867961E+01  0.78404909579E+01  0.51100000000E-03 0.  1.
        -12    1    4    4    0    0 -0.76680153582E+01 -0.53234372121E+00  0.86543441620E+01  0.11574952365E+02  0.00000000000E+00 0.  1.
</event>
<event>
 8    1  0.3146747E-007  0.9118800E+02  0.7816164E-02  0.1184000E+00
        -11   -1    0    0    0    0  0.00000000000E+00  0.00000000000E+00  0.45593999997E+02  0.45594000000E+02  0.51100000000E-03 0.  1.
         11   -1    0    0    0    0 -0.00000000000E+00 -0.00000000000E+00 -0.45593999997E+02  0.45594000000E+02  0.51100000000E-03 0. -1.
         23    2    1    2    0    0  0.35527136788E-14  0.00000000000E+00  0.00000000000E+00  0.91188000000E+02  0.91188000000E+02 0.  0.
    9900012    2    3    3    0    0 -0.21428503521E+02 -0.28640364000E+02  0.87367609271E+01  0.54367052094E+02  0.39999926860E+02 0.  0.
        -12    1    3    3    0    0  0.21428503521E+02  0.28640364000E+02 -0.87367609271E+01  0.36820947906E+02  0.00000000000E+00 0.  1.
         11    1    4    4    0    0 -0.70031626133E+01 -0.21583406150E+02 -0.10806473663E+02  0.25132997850E+02  0.51100000000E-03 0. -1.
        -11    1    4    4    0    0 -0.10851560191E+02 -0.72623049242E+01  0.21499999013E+02  0.25154470561E+02  0.51100000000E-03 0.  1.
         12    1    4    4    0    0 -0.35737807160E+01  0.20534707450E+00 -0.19567644222E+01  0.40795836835E+01  0.00000000000E+00 0. -1.
</event>
<event>
 8    1  0.3146747E-007  0.9118800E+02  0.7816164E-02  0.1184000E+00
        -11   -1    0    0    0    0  0.00000000000E+00  0.00000000000E+00  0.45593999997E+02  0.45594000000E+02  0.51100000000E-03 0.  1.
         11   -1    0    0    0    0 -0.00000000000E+00 -0.00000000000E+00 -0.45593999997E+02  0.45594000000E+02  0.51100000000E-03 0. -1.
         23    2    1    2    0    0  0.00000000000E+00  0.17763568394E-14 -0.35527136788E-14  0.91188000000E+02  0.91188000000E+02 0.  0.
    9900012    2    3    3    0    0  0.20240937846E+02 -0.10252867333E+02 -0.28999372667E+02  0.54367075670E+02  0.39999980605E+02 0.  0.
        -12    1    3    3    0    0 -0.20240937846E+02  0.10252867333E+02  0.28999372667E+02  0.36820924330E+02  0.00000000000E+00 0.  1.
         11    1    4    4    0    0  0.15149367978E+01 -0.39865841310E+01 -0.13023494771E+02  0.13703988574E+02  0.51100000000E-03 0. -1.
        -11    1    4    4    0    0 -0.60363366605E+01 -0.10650614780E+02 -0.54942264094E+01  0.13418624355E+02  0.51100000000E-03 0.  1.
        -12    1    4    4    0    0  0.24762337709E+02  0.43843315778E+01 -0.10481651487E+02  0.27244462742E+02  0.00000000000E+00 0.  1.
</event>
<event>
 8    1  0.3146747E-007  0.9118800E+02  0.7816164E-02  0.1184000E+00
        -11   -1    0    0    0    0  0.00000000000E+00  0.00000000000E+00  0.45593999997E+02  0.45594000000E+02  0.51100000000E-03 0.  1.
         11   -1    0    0    0    0 -0.00000000000E+00 -0.00000000000E+00 -0.45593999997E+02  0.45594000000E+02  0.51100000000E-03 0. -1.
         23    2    1    2    0    0  0.00000000000E+00  0.44408920985E-15  0.00000000000E+00  0.91188000000E+02  0.91188000000E+02 0.  0.
    9900012    2    3    3    0    0  0.31584608543E+02  0.26430228303E+01 -0.18740300420E+02  0.54367191667E+02  0.40000245042E+02 0.  0.
        -12    1    3    3    0    0 -0.31584608543E+02 -0.26430228303E+01  0.18740300420E+02  0.36820808333E+02  0.00000000000E+00 0.  1.
         11    1    4    4    0    0  0.40059530494E+01 -0.11871322022E+00  0.10800113533E+02  0.11519731128E+02  0.51100000000E-03 0. -1.
        -11    1    4    4    0    0  0.22502712567E+02  0.78640497617E+01 -0.22902274125E+02  0.33056459458E+02  0.51100000000E-03 0.  1.
        -12    1    4    4    0    0  0.50759429261E+01 -0.51023137112E+01 -0.66381398278E+01  0.97910010811E+01  0.00000000000E+00 0.  1.
</event>
<event>
 8    1  0.3146747E-007  0.9118800E+02  0.7816164E-02  0.1184000E+00
        -11   -1    0    0    0    0  0.00000000000E+00  0.00000000000E+00  0.45593999997E+02  0.45594000000E+02  0.51100000000E-03 0.  1.
         11   -1    0    0    0    0 -0.00000000000E+00 -0.00000000000E+00 -0.45593999997E+02  0.45594000000E+02  0.51100000000E-03 0. -1.
         23    2    1    2    0    0 -0.35527136788E-14  0.00000000000E+00  0.00000000000E+00  0.91188000000E+02  0.91188000000E+02 0.  0.
    9900012    2    3    3    0    0 -0.80918067787E+01 -0.23091871874E+02  0.27514933499E+02  0.54367035197E+02  0.39999888338E+02 0.  0.
         12    1    3    3    0    0  0.80918067787E+01  0.23091871874E+02 -0.27514933499E+02  0.36820964803E+02  0.00000000000E+00 0. -1.
         11    1    4    4    0    0 -0.87606505494E+01 -0.33576751678E+01  0.52555202659E+01  0.10753765578E+02  0.51100000000E-03 0. -1.
        -11    1    4    4    0    0 -0.12657029492E+02 -0.96918296630E+01  0.18594831244E+00  0.15942601256E+02  0.51100000000E-03 0.  1.
        -12    1    4    4    0    0  0.13325873262E+02 -0.10042367044E+02  0.22073464920E+02  0.27670668363E+02  0.00000000000E+00 0.  1.
</event>
<event>
 8    1  0.3146747E-007  0.9118800E+02  0.7816164E-02  0.1184000E+00
        -11   -1    0    0    0    0  0.00000000000E+00  0.00000000000E+00  0.45593999997E+02  0.45594000000E+02  0.51100000000E-03 0.  1.
         11   -1    0    0    0    0 -0.00000000000E+00 -0.00000000000E+00 -0.45593999997E+02  0.45594000000E+02  0.51100000000E-03 0. -1.
         23    2    1    2    0    0  0.35527136788E-14  0.16653345369E-15 -0.35527136788E-14  0.91188000000E+02  0.91188000000E+02 0.  0.
    9900012    2    3    3    0    0 -0.22821901798E+02  0.44385245611E+00  0.28891921942E+02  0.54367090720E+02  0.40000014915E+02 0.  0.
         12    1    3    3    0    0  0.22821901798E+02 -0.44385245611E+00 -0.28891921942E+02  0.36820909280E+02  0.00000000000E+00 0. -1.
         11    1    4    4    0    0  0.17355860530E+01  0.39422492308E+01 -0.27669856789E+01  0.51195505616E+01  0.51100000000E-03 0. -1.
        -11    1    4    4    0    0 -0.25729415623E+02 -0.12041222115E+02  0.19980017799E+02  0.34730317733E+02  0.51100000000E-03 0.  1.
        -12    1    4    4    0    0  0.11719277719E+01  0.85428253401E+01  0.11678889821E+02  0.14517222426E+02  0.00000000000E+00 0.  1.
</event>
<event>
 8    1  0.3146747E-007  0.9118800E+02  0.7816164E-02  0.1184000E+00
        -11   -1    0    0    0    0  0.00000000000E+00  0.00000000000E+00  0.45593999997E+02  0.45594000000E+02  0.51100000000E-03 0.  1.
         11   -1    0    0    0    0 -0.00000000000E+00 -0.00000000000E+00 -0.45593999997E+02  0.45594000000E+02  0.51100000000E-03 0. -1.
         23    2    1    2    0    0 -0.35527136788E-14 -0.44408920985E-15 -0.35527136788E-14  0.91188000000E+02  0.91188000000E+02 0.  0.
    9900012    2    3    3    0    0 -0.29348553036E+02  0.27331133434E+01 -0.22067468255E+02  0.54367073490E+02  0.39999975635E+02 0.  0.
        -12    1    3    3    0    0  0.29348553036E+02 -0.27331133434E+01  0.22067468255E+02  0.36820926510E+02  0.00000000000E+00 0.  1.
         11    1    4    4    0    0 -0.14472191063E+01  0.11821470029E+02 -0.22753964461E+01  0.12125140248E+02  0.51100000000E-03 0. -1.
        -11    1    4    4    0    0 -0.11425322036E+01  0.60819115862E+01 -0.12115203543E+01  0.63057759402E+01  0.51100000000E-03 0.  1.
         12    1    4    4    0    0 -0.26758801726E+02 -0.15170268272E+02 -0.18580551454E+02  0.35936157302E+02  0.00000000000E+00 0. -1.
</event>
<event>
 8    1  0.3146747E-007  0.9118800E+02  0.7816164E-02  0.1184000E+00
        -11   -1    0    0    0    0  0.00000000000E+00  0.00000000000E+00  0.45593999997E+02  0.45594000000E+02  0.51100000000E-03 0.  1.
         11   -1    0    0    0    0 -0.00000000000E+00 -0.00000000000E+00 -0.45593999997E+02  0.45594000000E+02  0.51100000000E-03 0. -1.
         23    2    1    2    0    0 -0.35527136788E-14  0.10547118734E-14 -0.71054273576E-14  0.91188000000E+02  0.91188000000E+02 0.  0.
    9900012    2    3    3    0    0 -0.20659448685E+02  0.47437081584E+00 -0.30475267051E+02  0.54367085434E+02  0.40000002864E+02 0.  0.
        -12    1    3    3    0    0  0.20659448685E+02 -0.47437081584E+00  0.30475267051E+02  0.36820914566E+02  0.00000000000E+00 0.  1.
         11    1    4    4    0    0 -0.10382940126E+02  0.53682772814E+01 -0.31567916070E+02  0.33662399972E+02  0.51100000000E-03 0. -1.
        -11    1    4    4    0    0 -0.12301152875E+02  0.28248105938E+01  0.15251210485E+01  0.12713139322E+02  0.51100000000E-03 0.  1.
        -12    1    4    4    0    0  0.20246443154E+01 -0.77187170594E+01 -0.43247202935E+00  0.79915461397E+01  0.00000000000E+00 0.  1.
</event>
<event>
 8    1  0.3146747E-007  0.9118800E+02  0.7816164E-02  0.1184000E+00
        -11   -1    0    0    0    0  0.00000000000E+00  0.00000000000E+00  0.45593999997E+02  0.45594000000E+02  0.51100000000E-03 0. -1.
         11   -1    0    0    0    0 -0.00000000000E+00 -0.00000000000E+00 -0.45593999997E+02  0.45594000000E+02  0.51100000000E-03 0.  1.
         23    2    1    2    0    0  0.00000000000E+00  0.00000000000E+00  0.17763568394E-14  0.91188000000E+02  0.91188000000E+02 0.  0.
    9900012    2    3    3    0    0 -0.11178657562E+02 -0.31717990799E+02  0.14992868358E+02  0.54367089815E+02  0.40000012852E+02 0.  0.
         12    1    3    3    0    0  0.11178657562E+02  0.31717990799E+02 -0.14992868358E+02  0.36820910185E+02  0.00000000000E+00 0. -1.
         11    1    4    4    0    0  0.69055528726E+01 -0.13859111971E+02 -0.44068589594E+01  0.16099132003E+02  0.51100000000E-03 0.  1.
        -11    1    4    4    0    0 -0.14930061964E+02 -0.68915551388E+00  0.54029130405E+01  0.15892550304E+02  0.51100000000E-03 0. -1.
        -12    1    4    4    0    0 -0.31541484705E+01 -0.17169723314E+02  0.13996814277E+02  0.22375407508E+02  0.00000000000E+00 0.  1.
</event>
<event>
 8    1  0.3146747E-007  0.9118800E+02  0.7816164E-02  0.1184000E+00
        -11   -1    0    0    0    0  0.00000000000E+00  0.00000000000E+00  0.45593999997E+02  0.45594000000E+02  0.51100000000E-03 0.  1.
         11   -1    0    0    0    0 -0.00000000000E+00 -0.00000000000E+00 -0.45593999997E+02  0.45594000000E+02  0.51100000000E-03 0. -1.
         23    2    1    2    0    0 -0.17763568394E-14  0.00000000000E+00  0.00000000000E+00  0.91188000000E+02  0.91188000000E+02 0.  0.
    9900012    2    3    3    0    0  0.11051449035E+02  0.27558359249E+02  0.21775684179E+02  0.54367107673E+02  0.40000053562E+02 0.  0.
         12    1    3    3    0    0 -0.11051449035E+02 -0.27558359249E+02 -0.21775684179E+02  0.36820892327E+02  0.00000000000E+00 0. -1.
         11    1    4    4    0    0  0.81374215753E+01  0.41474231763E+01  0.19327016565E+02  0.21376443073E+02  0.51100000000E-03 0. -1.
        -11    1    4    4    0    0  0.83907953223E+01  0.25630526764E+02  0.15529479680E+01  0.27013718663E+02  0.51100000000E-03 0.  1.
         12    1    4    4    0    0 -0.54767678623E+01 -0.22195906909E+01  0.89571964631E+00  0.59769459373E+01  0.00000000000E+00 0. -1.
</event>
<event>
 8    1  0.3146747E-007  0.9118800E+02  0.7816164E-02  0.1184000E+00
        -11   -1    0    0    0    0  0.00000000000E+00  0.00000000000E+00  0.45593999997E+02  0.45594000000E+02  0.51100000000E-03 0.  1.
         11   -1    0    0    0    0 -0.00000000000E+00 -0.00000000000E+00 -0.45593999997E+02  0.45594000000E+02  0.51100000000E-03 0. -1.
         23    2    1    2    0    0 -0.17763568394E-14  0.00000000000E+00 -0.71054273576E-14  0.91188000000E+02  0.91188000000E+02 0.  0.
    9900012    2    3    3    0    0  0.31170698625E+01 -0.78750291965E+01  0.35833599760E+02  0.54367094509E+02  0.40000023553E+02 0.  0.
         12    1    3    3    0    0 -0.31170698625E+01  0.78750291965E+01 -0.35833599760E+02  0.36820905491E+02  0.00000000000E+00 0. -1.
         11    1    4    4    0    0  0.11930801501E+02 -0.19479009465E+01  0.65906279658E+01  0.13768613575E+02  0.51100000000E-03 0. -1.
        -11    1    4    4    0    0  0.85347958778E+01 -0.61082751312E+01  0.14048213644E+02  0.17535851066E+02  0.51100000000E-03 0.  1.
         12    1    4    4    0    0 -0.17348527516E+02  0.18114688117E+00  0.15194758151E+02  0.23062629868E+02  0.00000000000E+00 0. -1.
</event>
<event>
 8    1  0.3146747E-007  0.9118800E+02  0.7816164E-02  0.1184000E+00
        -11   -1    0    0    0    0  0.00000000000E+00  0.00000000000E+00  0.45593999997E+02  0.45594000000E+02  0.51100000000E-03 0. -1.
         11   -1    0    0    0    0 -0.00000000000E+00 -0.00000000000E+00 -0.45593999997E+02  0.45594000000E+02  0.51100000000E-03 0.  1.
         23    2    1    2    0    0  0.00000000000E+00  0.00000000000E+00  0.00000000000E+00  0.91188000000E+02  0.91188000000E+02 0.  0.
    9900012    2    3    3    0    0 -0.55253751205E+01 -0.34356209112E+02  0.12037469669E+02  0.54367088132E+02  0.40000009015E+02 0.  0.
        -12    1    3    3    0    0  0.55253751205E+01  0.34356209112E+02 -0.12037469669E+02  0.36820911868E+02  0.00000000000E+00 0.  1.
         11    1    4    4    0    0 -0.55454934070E+01  0.15411859767E+00  0.35505510150E+00  0.55589849843E+01  0.51100000000E-03 0. -1.
        -11    1    4    4    0    0 -0.10202724171E+02 -0.42242659389E+00  0.81124399802E+01  0.13041691126E+02  0.51100000000E-03 0.  1.
         12    1    4    4    0    0  0.10222842457E+02 -0.34087901115E+02  0.35699745870E+01  0.35766412022E+02  0.00000000000E+00 0. -1.
</event>
<event>
 8    1  0.3146747E-007  0.9118800E+02  0.7816164E-02  0.1184000E+00
        -11   -1    0    0    0    0  0.00000000000E+00  0.00000000000E+00  0.45593999997E+02  0.45594000000E+02  0.51100000000E-03 0.  1.
         11   -1    0    0    0    0 -0.00000000000E+00 -0.00000000000E+00 -0.45593999997E+02  0.45594000000E+02  0.51100000000E-03 0. -1.
         23    2    1    2    0    0  0.00000000000E+00  0.00000000000E+00  0.00000000000E+00  0.91188000000E+02  0.91188000000E+02 0.  0.
    9900012    2    3    3    0    0  0.31325531239E+02  0.16876665369E+02 -0.94694553533E+01  0.54367064025E+02  0.39999954057E+02 0.  0.
         12    1    3    3    0    0 -0.31325531239E+02 -0.16876665369E+02  0.94694553533E+01  0.36820935975E+02  0.00000000000E+00 0. -1.
         11    1    4    4    0    0  0.16318765309E+02  0.87581296790E+00 -0.17868676244E+02  0.24214845458E+02  0.51100000000E-03 0. -1.
        -11    1    4    4    0    0  0.14746525320E+02  0.77531523715E+01 -0.21066307842E+01  0.16793131758E+02  0.51100000000E-03 0.  1.
         12    1    4    4    0    0  0.26024061054E+00  0.82477000296E+01  0.10505851675E+02  0.13359086809E+02  0.00000000000E+00 0. -1.
</event>
<event>
 8    1  0.3146747E-007  0.9118800E+02  0.7816164E-02  0.1184000E+00
        -11   -1    0    0    0    0  0.00000000000E+00  0.00000000000E+00  0.45593999997E+02  0.45594000000E+02  0.51100000000E-03 0.  1.
         11   -1    0    0    0    0 -0.00000000000E+00 -0.00000000000E+00 -0.45593999997E+02  0.45594000000E+02  0.51100000000E-03 0. -1.
         23    2    1    2    0    0  0.35527136788E-14  0.00000000000E+00  0.35527136788E-14  0.91188000000E+02  0.91188000000E+02 0.  0.
    9900012    2    3    3    0    0  0.25071476115E+02 -0.21082537990E+02  0.16814574718E+02  0.54367051538E+02  0.39999925592E+02 0.  0.
         12    1    3    3    0    0 -0.25071476115E+02  0.21082537990E+02 -0.16814574718E+02  0.36820948462E+02  0.00000000000E+00 0. -1.
         11    1    4    4    0    0  0.32558659562E+01 -0.12644884923E+02  0.17081496757E+02  0.21500495566E+02  0.51100000000E-03 0. -1.
        -11    1    4    4    0    0  0.14934268046E+02  0.62909297219E+01  0.24338082854E+01  0.16386933266E+02  0.51100000000E-03 0.  1.
         12    1    4    4    0    0  0.68813421127E+01 -0.14728582789E+02 -0.27007303253E+01  0.16479622706E+02  0.00000000000E+00 0. -1.
</event>
<event>
 8    1  0.3146747E-007  0.9118800E+02  0.7816164E-02  0.1184000E+00
        -11   -1    0    0    0    0  0.00000000000E+00  0.00000000000E+00  0.45593999997E+02  0.45594000000E+02  0.51100000000E-03 0. -1.
         11   -1    0    0    0    0 -0.00000000000E+00 -0.00000000000E+00 -0.45593999997E+02  0.45594000000E+02  0.51100000000E-03 0.  1.
         23    2    1    2    0    0  0.44408920985E-15  0.71054273576E-14  0.38857805862E-15  0.91188000000E+02  0.91188000000E+02 0.  0.
    9900012    2    3    3    0    0  0.29324408929E+01  0.36702788640E+02  0.29339366556E+00  0.54367082258E+02  0.39999995623E+02 0.  0.
         12    1    3    3    0    0 -0.29324408929E+01 -0.36702788640E+02 -0.29339366556E+00  0.36820917742E+02  0.00000000000E+00 0. -1.
         11    1    4    4    0    0 -0.87853459907E+01  0.15203406603E+02 -0.40094212485E+01  0.18011144759E+02  0.51100000000E-03 0. -1.
        -11    1    4    4    0    0  0.29692823568E+01  0.11652236779E+01  0.12385921656E+02  0.12790052363E+02  0.51100000000E-03 0.  1.
        -12    1    4    4    0    0  0.87485045268E+01  0.20334158359E+02 -0.80831067415E+01  0.23565885136E+02  0.00000000000E+00 0.  1.
</event>
<event>
 8    1  0.3146747E-007  0.9118800E+02  0.7816164E-02  0.1184000E+00
        -11   -1    0    0    0    0  0.00000000000E+00  0.00000000000E+00  0.45593999997E+02  0.45594000000E+02  0.51100000000E-03 0. -1.
         11   -1    0    0    0    0 -0.00000000000E+00 -0.00000000000E+00 -0.45593999997E+02  0.45594000000E+02  0.51100000000E-03 0.  1.
         23    2    1    2    0    0  0.00000000000E+00  0.88817841970E-15  0.00000000000E+00  0.91188000000E+02  0.91188000000E+02 0.  0.
    9900012    2    3    3    0    0 -0.19157985308E+02 -0.49322283449E+01 -0.31055187179E+02  0.54367083007E+02  0.39999997330E+02 0.  0.
        -12    1    3    3    0    0  0.19157985308E+02  0.49322283449E+01  0.31055187179E+02  0.36820916993E+02  0.00000000000E+00 0.  1.
         11    1    4    4    0    0  0.74099870699E+01 -0.16530134968E+01 -0.12110111363E+01  0.76881018614E+01  0.51100000000E-03 0. -1.
        -11    1    4    4    0    0 -0.81361523975E+01 -0.11373713559E+02 -0.19639064936E+02  0.24109151951E+02  0.51100000000E-03 0.  1.
         12    1    4    4    0    0 -0.18431819980E+02  0.80944987113E+01 -0.10205111107E+02  0.22569829195E+02  0.00000000000E+00 0. -1.
</event>
<event>
 8    1  0.3146747E-007  0.9118800E+02  0.7816164E-02  0.1184000E+00
        -11   -1    0    0    0    0  0.00000000000E+00  0.00000000000E+00  0.45593999997E+02  0.45594000000E+02  0.51100000000E-03 0.  1.
         11   -1    0    0    0    0 -0.00000000000E+00 -0.00000000000E+00 -0.45593999997E+02  0.45594000000E+02  0.51100000000E-03 0. -1.
         23    2    1    2    0    0  0.17763568394E-14  0.26645352591E-14  0.00000000000E+00  0.91188000000E+02  0.91188000000E+02 0.  0.
    9900012    2    3    3    0    0 -0.15173356330E+02 -0.69927023871E+01  0.32812363161E+02  0.54367084677E+02  0.40000001139E+02 0.  0.
         12    1    3    3    0    0  0.15173356330E+02  0.69927023871E+01 -0.32812363161E+02  0.36820915323E+02  0.00000000000E+00 0. -1.
         11    1    4    4    0    0  0.15190631211E+01 -0.10267997751E+02  0.79960912484E+01  0.13102549603E+02  0.51100000000E-03 0. -1.
        -11    1    4    4    0    0 -0.22293297647E+02  0.70872383428E+01  0.25318481467E+02  0.34470938069E+02  0.51100000000E-03 0.  1.
         12    1    4    4    0    0  0.56008781958E+01 -0.38119429791E+01 -0.50220955415E+00  0.67935970057E+01  0.00000000000E+00 0. -1.
</event>
<event>
 8    1  0.3146747E-007  0.9118800E+02  0.7816164E-02  0.1184000E+00
        -11   -1    0    0    0    0  0.00000000000E+00  0.00000000000E+00  0.45593999997E+02  0.45594000000E+02  0.51100000000E-03 0. -1.
         11   -1    0    0    0    0 -0.00000000000E+00 -0.00000000000E+00 -0.45593999997E+02  0.45594000000E+02  0.51100000000E-03 0.  1.
         23    2    1    2    0    0  0.00000000000E+00 -0.17763568394E-14 -0.35527136788E-14  0.91188000000E+02  0.91188000000E+02 0.  0.
    9900012    2    3    3    0    0 -0.33057666460E+02 -0.14412549889E+02  0.74329859738E+01  0.54367079499E+02  0.39999989334E+02 0.  0.
         12    1    3    3    0    0  0.33057666460E+02  0.14412549889E+02 -0.74329859738E+01  0.36820920501E+02  0.00000000000E+00 0. -1.
         11    1    4    4    0    0 -0.85157523933E+01  0.58318326912E+01  0.47498682044E+00  0.10332179059E+02  0.51100000000E-03 0. -1.
        -11    1    4    4    0    0 -0.21359845620E+02 -0.88779773648E+01  0.16863480302E+02  0.28625835449E+02  0.51100000000E-03 0.  1.
        -12    1    4    4    0    0 -0.31820684466E+01 -0.11366405215E+02 -0.99054811486E+01  0.15409064991E+02  0.00000000000E+00 0.  1.
</event>
<event>
 8    1  0.3146747E-007  0.9118800E+02  0.7816164E-02  0.1184000E+00
        -11   -1    0    0    0    0  0.00000000000E+00  0.00000000000E+00  0.45593999997E+02  0.45594000000E+02  0.51100000000E-03 0. -1.
         11   -1    0    0    0    0 -0.00000000000E+00 -0.00000000000E+00 -0.45593999997E+02  0.45594000000E+02  0.51100000000E-03 0.  1.
         23    2    1    2    0    0  0.00000000000E+00  0.35527136788E-14 -0.88817841970E-15  0.91188000000E+02  0.91188000000E+02 0.  0.
    9900012    2    3    3    0    0  0.34570291864E+02 -0.11662521192E+02  0.49659200873E+01  0.54367084171E+02  0.39999999986E+02 0.  0.
         12    1    3    3    0    0 -0.34570291864E+02  0.11662521192E+02 -0.49659200873E+01  0.36820915829E+02  0.00000000000E+00 0. -1.
         11    1    4    4    0    0  0.15558955829E+02 -0.10591927047E+02  0.10543888955E+02  0.21574142384E+02  0.51100000000E-03 0. -1.
        -11    1    4    4    0    0  0.16525068307E+00  0.10260228399E+02 -0.27356912619E+01  0.10619962407E+02  0.51100000000E-03 0.  1.
        -12    1    4    4    0    0  0.18846085352E+02 -0.11330822544E+02 -0.28422776062E+01  0.22172979380E+02  0.00000000000E+00 0.  1.
</event>
<event>
 8    1  0.3146747E-007  0.9118800E+02  0.7816164E-02  0.1184000E+00
        -11   -1    0    0    0    0  0.00000000000E+00  0.00000000000E+00  0.45593999997E+02  0.45594000000E+02  0.51100000000E-03 0. -1.
         11   -1    0    0    0    0 -0.00000000000E+00 -0.00000000000E+00 -0.45593999997E+02  0.45594000000E+02  0.51100000000E-03 0.  1.
         23    2    1    2    0    0 -0.35527136788E-14  0.11102230246E-14 -0.35527136788E-14  0.91188000000E+02  0.91188000000E+02 0.  0.
    9900012    2    3    3    0    0  0.23112450367E+02 -0.18977728557E+01 -0.28600571819E+02  0.54367087299E+02  0.40000007115E+02 0.  0.
        -12    1    3    3    0    0 -0.23112450367E+02  0.18977728557E+01  0.28600571819E+02  0.36820912701E+02  0.00000000000E+00 0.  1.
         11    1    4    4    0    0  0.39123413809E+01 -0.52565817929E+01  0.43041828628E+01  0.78399016323E+01  0.51100000000E-03 0. -1.
        -11    1    4    4    0    0  0.69268326712E+01  0.88838586775E+01 -0.30937466794E+02  0.32924623122E+02  0.51100000000E-03 0.  1.
        -12    1    4    4    0    0  0.12273276315E+02 -0.55250497403E+01 -0.19672878880E+01  0.13602562544E+02  0.00000000000E+00 0.  1.
</event>
<event>
 8    1  0.3146747E-007  0.9118800E+02  0.7816164E-02  0.1184000E+00
        -11   -1    0    0    0    0  0.00000000000E+00  0.00000000000E+00  0.45593999997E+02  0.45594000000E+02  0.51100000000E-03 0.  1.
         11   -1    0    0    0    0 -0.00000000000E+00 -0.00000000000E+00 -0.45593999997E+02  0.45594000000E+02  0.51100000000E-03 0. -1.
         23    2    1    2    0    0 -0.71054273576E-14  0.44408920985E-15 -0.27755575616E-15  0.91188000000E+02  0.91188000000E+02 0.  0.
    9900012    2    3    3    0    0  0.36807582059E+02 -0.91543227102E+00 -0.37117441972E+00  0.54367165087E+02  0.40000184448E+02 0.  0.
         12    1    3    3    0    0 -0.36807582059E+02  0.91543227102E+00  0.37117441972E+00  0.36820834913E+02  0.00000000000E+00 0. -1.
         11    1    4    4    0    0  0.28889196389E+02 -0.39413031223E+01 -0.20308148185E+01  0.29227448527E+02  0.51100000000E-03 0. -1.
        -11    1    4    4    0    0 -0.39220630090E+01 -0.12091624457E+01 -0.81936824797E+01  0.91641194288E+01  0.51100000000E-03 0.  1.
        -12    1    4    4    0    0  0.11840448678E+02  0.42350332970E+01  0.98533228785E+01  0.15975597131E+02  0.00000000000E+00 0.  1.
</event>
<event>
 8    1  0.3146747E-007  0.9118800E+02  0.7816164E-02  0.1184000E+00
        -11   -1    0    0    0    0  0.00000000000E+00  0.00000000000E+00  0.45593999997E+02  0.45594000000E+02  0.51100000000E-03 0.  1.
         11   -1    0    0    0    0 -0.00000000000E+00 -0.00000000000E+00 -0.45593999997E+02  0.45594000000E+02  0.51100000000E-03 0. -1.
         23    2    1    2    0    0  0.00000000000E+00 -0.11102230246E-14  0.00000000000E+00  0.91188000000E+02  0.91188000000E+02 0.  0.
    9900012    2    3    3    0    0 -0.24825670304E+02  0.42614160397E+00  0.27189782860E+02  0.54367084820E+02  0.40000001465E+02 0.  0.
         12    1    3    3    0    0  0.24825670304E+02 -0.42614160397E+00 -0.27189782860E+02  0.36820915180E+02  0.00000000000E+00 0. -1.
         11    1    4    4    0    0 -0.91329806607E+00 -0.40875716192E+01  0.11576900171E+02  0.12311253914E+02  0.51100000000E-03 0.  1.
        -11    1    4    4    0    0 -0.10930194183E+02 -0.12478733902E+02  0.20059023055E+01  0.16709625639E+02  0.51100000000E-03 0. -1.
        -12    1    4    4    0    0 -0.12982178055E+02  0.16992447125E+02  0.13606980383E+02  0.25346205268E+02  0.00000000000E+00 0.  1.
</event>
<event>
 8    1  0.3146747E-007  0.9118800E+02  0.7816164E-02  0.1184000E+00
        -11   -1    0    0    0    0  0.00000000000E+00  0.00000000000E+00  0.45593999997E+02  0.45594000000E+02  0.51100000000E-03 0.  1.
         11   -1    0    0    0    0 -0.00000000000E+00 -0.00000000000E+00 -0.45593999997E+02  0.45594000000E+02  0.51100000000E-03 0. -1.
         23    2    1    2    0    0  0.00000000000E+00 -0.39968028887E-14  0.71054273576E-14  0.91188000000E+02  0.91188000000E+02 0.  0.
    9900012    2    3    3    0    0 -0.10122170898E+02  0.39620455570E+01  0.35179867785E+02  0.54367092271E+02  0.40000018449E+02 0.  0.
         12    1    3    3    0    0  0.10122170898E+02 -0.39620455570E+01 -0.35179867785E+02  0.36820907729E+02  0.00000000000E+00 0. -1.
         11    1    4    4    0    0 -0.72595585734E+01 -0.11706363274E+01 -0.40122533833E+00  0.73642760761E+01  0.51100000000E-03 0. -1.
        -11    1    4    4    0    0  0.29974775861E+01 -0.12036924508E+02  0.16880283745E+02  0.20947945079E+02  0.51100000000E-03 0.  1.
        -12    1    4    4    0    0 -0.58600899106E+01  0.17169606392E+02  0.18700809378E+02  0.26054871115E+02  0.00000000000E+00 0.  1.
</event>
<event>
 8    1  0.3146747E-007  0.9118800E+02  0.7816164E-02  0.1184000E+00
        -11   -1    0    0    0    0  0.00000000000E+00  0.00000000000E+00  0.45593999997E+02  0.45594000000E+02  0.51100000000E-03 0.  1.
         11   -1    0    0    0    0 -0.00000000000E+00 -0.00000000000E+00 -0.45593999997E+02  0.45594000000E+02  0.51100000000E-03 0. -1.
         23    2    1    2    0    0 -0.71054273576E-14 -0.17763568394E-14  0.22204460493E-14  0.91188000000E+02  0.91188000000E+02 0.  0.
    9900012    2    3    3    0    0  0.34916508956E+02  0.11268139159E+02 -0.31060755219E+01  0.54367064883E+02  0.39999956013E+02 0.  0.
         12    1    3    3    0    0 -0.34916508956E+02 -0.11268139159E+02  0.31060755219E+01  0.36820935117E+02  0.00000000000E+00 0. -1.
         11    1    4    4    0    0  0.14854607260E+02  0.72071318401E+01  0.78297966650E+00  0.16529221507E+02  0.51100000000E-03 0.  1.
        -11    1    4    4    0    0  0.12373357957E+02 -0.97513768348E+01 -0.12248717236E+02  0.19955460694E+02  0.51100000000E-03 0. -1.
         12    1    4    4    0    0  0.76885437384E+01  0.13812384154E+02  0.83596620476E+01  0.17882382682E+02  0.00000000000E+00 0. -1.
</event>
<event>
 8    1  0.3146747E-007  0.9118800E+02  0.7816164E-02  0.1184000E+00
        -11   -1    0    0    0    0  0.00000000000E+00  0.00000000000E+00  0.45593999997E+02  0.45594000000E+02  0.51100000000E-03 0.  1.
         11   -1    0    0    0    0 -0.00000000000E+00 -0.00000000000E+00 -0.45593999997E+02  0.45594000000E+02  0.51100000000E-03 0. -1.
         23    2    1    2    0    0 -0.11102230246E-14  0.00000000000E+00  0.00000000000E+00  0.91188000000E+02  0.91188000000E+02 0.  0.
    9900012    2    3    3    0    0  0.16595932218E+01 -0.25371394039E+02 -0.26633004978E+02  0.54367097794E+02  0.40000031041E+02 0.  0.
        -12    1    3    3    0    0 -0.16595932218E+01  0.25371394039E+02  0.26633004978E+02  0.36820902206E+02  0.00000000000E+00 0.  1.
         11    1    4    4    0    0 -0.80835812338E+01 -0.69949595373E+01 -0.42648973842E+00  0.10698394190E+02  0.51100000000E-03 0. -1.
        -11    1    4    4    0    0 -0.75196075254E+01  0.23382235580E+01 -0.72831026531E+01  0.10726386682E+02  0.51100000000E-03 0.  1.
        -12    1    4    4    0    0  0.17262781981E+02 -0.20714658059E+02 -0.18923412586E+02  0.32942316921E+02  0.00000000000E+00 0.  1.
</event>
<event>
 8    1  0.3146747E-007  0.9118800E+02  0.7816164E-02  0.1184000E+00
        -11   -1    0    0    0    0  0.00000000000E+00  0.00000000000E+00  0.45593999997E+02  0.45594000000E+02  0.51100000000E-03 0. -1.
         11   -1    0    0    0    0 -0.00000000000E+00 -0.00000000000E+00 -0.45593999997E+02  0.45594000000E+02  0.51100000000E-03 0.  1.
         23    2    1    2    0    0  0.00000000000E+00  0.00000000000E+00  0.00000000000E+00  0.91188000000E+02  0.91188000000E+02 0.  0.
    9900012    2    3    3    0    0  0.23422420152E+02 -0.24859124377E+02  0.13754750604E+02  0.54367095682E+02  0.40000026227E+02 0.  0.
        -12    1    3    3    0    0 -0.23422420152E+02  0.24859124377E+02 -0.13754750604E+02  0.36820904318E+02  0.00000000000E+00 0.  1.
         11    1    4    4    0    0 -0.38440242626E+01 -0.66031838381E+01 -0.29656680500E+01  0.81959591614E+01  0.51100000000E-03 0.  1.
        -11    1    4    4    0    0  0.11788484526E+02  0.59275580335E+01  0.10326454373E+02  0.16755296830E+02  0.51100000000E-03 0. -1.
         12    1    4    4    0    0  0.15477959888E+02 -0.24183498573E+02  0.63939642806E+01  0.29415839691E+02  0.00000000000E+00 0. -1.
</event>
<event>
 8    1  0.3146747E-007  0.9118800E+02  0.7816164E-02  0.1184000E+00
        -11   -1    0    0    0    0  0.00000000000E+00  0.00000000000E+00  0.45593999997E+02  0.45594000000E+02  0.51100000000E-03 0.  1.
         11   -1    0    0    0    0 -0.00000000000E+00 -0.00000000000E+00 -0.45593999997E+02  0.45594000000E+02  0.51100000000E-03 0. -1.
         23    2    1    2    0    0  0.00000000000E+00  0.00000000000E+00  0.26645352591E-14  0.91188000000E+02  0.91188000000E+02 0.  0.
    9900012    2    3    3    0    0  0.94141072471E+01  0.35520064931E+02  0.23405765157E+01  0.54367099327E+02  0.40000034536E+02 0.  0.
         12    1    3    3    0    0 -0.94141072471E+01 -0.35520064931E+02 -0.23405765157E+01  0.36820900673E+02  0.00000000000E+00 0. -1.
         11    1    4    4    0    0 -0.71844141081E+01  0.22246663266E+02 -0.46700469601E+01  0.23839865172E+02  0.51100000000E-03 0. -1.
        -11    1    4    4    0    0 -0.31597282113E+01  0.89637447761E+00 -0.36332433310E+01  0.48977369199E+01  0.51100000000E-03 0.  1.
        -12    1    4    4    0    0  0.19758249566E+02  0.12377027187E+02  0.10643866807E+02  0.25629497235E+02  0.00000000000E+00 0.  1.
</event>
<event>
 8    1  0.3146747E-007  0.9118800E+02  0.7816164E-02  0.1184000E+00
        -11   -1    0    0    0    0  0.00000000000E+00  0.00000000000E+00  0.45593999997E+02  0.45594000000E+02  0.51100000000E-03 0.  1.
         11   -1    0    0    0    0 -0.00000000000E+00 -0.00000000000E+00 -0.45593999997E+02  0.45594000000E+02  0.51100000000E-03 0. -1.
         23    2    1    2    0    0  0.35527136788E-14  0.00000000000E+00  0.66613381478E-15  0.91188000000E+02  0.91188000000E+02 0.  0.
    9900012    2    3    3    0    0  0.27972212826E+02  0.23932332988E+02  0.76040294496E+00  0.54367089293E+02  0.40000011662E+02 0.  0.
        -12    1    3    3    0    0 -0.27972212826E+02 -0.23932332988E+02 -0.76040294496E+00  0.36820910707E+02  0.00000000000E+00 0.  1.
         11    1    4    4    0    0  0.17853765207E+01  0.21301926376E+02 -0.99006467407E+01  0.23558065345E+02  0.51100000000E-03 0. -1.
        -11    1    4    4    0    0  0.19005113948E+02 -0.23407029854E+01  0.10971508413E+02  0.22069146874E+02  0.51100000000E-03 0.  1.
         12    1    4    4    0    0  0.71817223574E+01  0.49711095969E+01 -0.31045872687E+00  0.87398770737E+01  0.00000000000E+00 0. -1.
</event>
<event>
 8    1  0.3146747E-007  0.9118800E+02  0.7816164E-02  0.1184000E+00
        -11   -1    0    0    0    0  0.00000000000E+00  0.00000000000E+00  0.45593999997E+02  0.45594000000E+02  0.51100000000E-03 0.  1.
         11   -1    0    0    0    0 -0.00000000000E+00 -0.00000000000E+00 -0.45593999997E+02  0.45594000000E+02  0.51100000000E-03 0. -1.
         23    2    1    2    0    0  0.00000000000E+00 -0.88817841970E-15  0.44408920985E-15  0.91188000000E+02  0.91188000000E+02 0.  0.
    9900012    2    3    3    0    0 -0.36198782652E+02 -0.55498973571E+01  0.38245182302E+01  0.54367079780E+02  0.39999989974E+02 0.  0.
         12    1    3    3    0    0  0.36198782652E+02  0.55498973571E+01 -0.38245182302E+01  0.36820920220E+02  0.00000000000E+00 0. -1.
         11    1    4    4    0    0 -0.28006189017E+02  0.49517698767E+01 -0.13411843820E+01  0.28472186849E+02  0.51100000000E-03 0. -1.
        -11    1    4    4    0    0 -0.50907535356E+01  0.14782880292E+01  0.11002132673E+02  0.12212617683E+02  0.51100000000E-03 0.  1.
        -12    1    4    4    0    0 -0.31018400993E+01 -0.11979955263E+02 -0.58364300603E+01  0.13682275248E+02  0.00000000000E+00 0.  1.
</event>
<event>
 8    1  0.3146747E-007  0.9118800E+02  0.7816164E-02  0.1184000E+00
        -11   -1    0    0    0    0  0.00000000000E+00  0.00000000000E+00  0.45593999997E+02  0.45594000000E+02  0.51100000000E-03 0.  1.
         11   -1    0    0    0    0 -0.00000000000E+00 -0.00000000000E+00 -0.45593999997E+02  0.45594000000E+02  0.51100000000E-03 0. -1.
         23    2    1    2    0    0  0.00000000000E+00  0.00000000000E+00 -0.44408920985E-15  0.91188000000E+02  0.91188000000E+02 0.  0.
    9900012    2    3    3    0    0 -0.30798130986E+02 -0.19935876527E+02 -0.31329878084E+01  0.54367086680E+02  0.40000005704E+02 0.  0.
        -12    1    3    3    0    0  0.30798130986E+02  0.19935876527E+02  0.31329878084E+01  0.36820913320E+02  0.00000000000E+00 0.  1.
         11    1    4    4    0    0  0.41639767097E+01 -0.78193766335E+01  0.25024446991E+01  0.92056277737E+01  0.51100000000E-03 0. -1.
        -11    1    4    4    0    0 -0.13524376143E+02 -0.21942380444E+01 -0.14482454814E+02  0.19936522474E+02  0.51100000000E-03 0.  1.
        -12    1    4    4    0    0 -0.21437731552E+02 -0.99222618491E+01  0.88470223064E+01  0.25224936432E+02  0.00000000000E+00 0.  1.
</event>
<event>
 8    1  0.3146747E-007  0.9118800E+02  0.7816164E-02  0.1184000E+00
        -11   -1    0    0    0    0  0.00000000000E+00  0.00000000000E+00  0.45593999997E+02  0.45594000000E+02  0.51100000000E-03 0.  1.
         11   -1    0    0    0    0 -0.00000000000E+00 -0.00000000000E+00 -0.45593999997E+02  0.45594000000E+02  0.51100000000E-03 0. -1.
         23    2    1    2    0    0  0.00000000000E+00  0.00000000000E+00  0.00000000000E+00  0.91188000000E+02  0.91188000000E+02 0.  0.
    9900012    2    3    3    0    0 -0.18877089486E+02 -0.29843570020E+02 -0.10430564980E+02  0.54367083868E+02  0.39999999294E+02 0.  0.
        -12    1    3    3    0    0  0.18877089486E+02  0.29843570020E+02  0.10430564980E+02  0.36820916132E+02  0.00000000000E+00 0.  1.
         11    1    4    4    0    0  0.10629519269E+02 -0.10854382569E+02  0.39819035041E+01  0.15705408515E+02  0.51100000000E-03 0. -1.
        -11    1    4    4    0    0 -0.18072721434E+02 -0.15499647263E+02 -0.81428843758E+01  0.25162847445E+02  0.51100000000E-03 0.  1.
         12    1    4    4    0    0 -0.11433887321E+02 -0.34895401882E+01 -0.62695841079E+01  0.13498827908E+02  0.00000000000E+00 0. -1.
</event>
<event>
 8    1  0.3146747E-007  0.9118800E+02  0.7816164E-02  0.1184000E+00
        -11   -1    0    0    0    0  0.00000000000E+00  0.00000000000E+00  0.45593999997E+02  0.45594000000E+02  0.51100000000E-03 0. -1.
         11   -1    0    0    0    0 -0.00000000000E+00 -0.00000000000E+00 -0.45593999997E+02  0.45594000000E+02  0.51100000000E-03 0.  1.
         23    2    1    2    0    0 -0.71054273576E-14 -0.88817841970E-15  0.00000000000E+00  0.91188000000E+02  0.91188000000E+02 0.  0.
    9900012    2    3    3    0    0  0.35923122792E+02  0.53437838325E+01  0.60624523268E+01  0.54367080606E+02  0.39999991858E+02 0.  0.
        -12    1    3    3    0    0 -0.35923122792E+02 -0.53437838325E+01 -0.60624523268E+01  0.36820919394E+02  0.00000000000E+00 0.  1.
         11    1    4    4    0    0  0.10971866963E+02  0.74576362448E+01 -0.26849007465E+01  0.13535394168E+02  0.51100000000E-03 0. -1.
        -11    1    4    4    0    0  0.29893386560E+02  0.37609141264E+01  0.13325351128E+01  0.30158492754E+02  0.51100000000E-03 0.  1.
         12    1    4    4    0    0 -0.49421307303E+01 -0.58747665386E+01  0.74148179605E+01  0.10673193684E+02  0.00000000000E+00 0. -1.
</event>
<event>
 8    1  0.3146747E-007  0.9118800E+02  0.7816164E-02  0.1184000E+00
        -11   -1    0    0    0    0  0.00000000000E+00  0.00000000000E+00  0.45593999997E+02  0.45594000000E+02  0.51100000000E-03 0.  1.
         11   -1    0    0    0    0 -0.00000000000E+00 -0.00000000000E+00 -0.45593999997E+02  0.45594000000E+02  0.51100000000E-03 0. -1.
         23    2    1    2    0    0 -0.17763568394E-14  0.00000000000E+00 -0.35527136788E-14  0.91188000000E+02  0.91188000000E+02 0.  0.
    9900012    2    3    3    0    0  0.15016403758E+02  0.12932551819E+02  0.31032836944E+02  0.54367078676E+02  0.39999987457E+02 0.  0.
         12    1    3    3    0    0 -0.15016403758E+02 -0.12932551819E+02 -0.31032836944E+02  0.36820921324E+02  0.00000000000E+00 0. -1.
         11    1    4    4    0    0  0.17908534858E+02 -0.18570351696E+01  0.73121577819E+01  0.19432752046E+02  0.51100000000E-03 0. -1.
        -11    1    4    4    0    0  0.26015773511E+01 -0.31403878952E+01  0.12344703745E+02  0.13000844267E+02  0.51100000000E-03 0.  1.
         12    1    4    4    0    0 -0.54937084507E+01  0.17929974883E+02  0.11375975418E+02  0.21933482363E+02  0.00000000000E+00 0. -1.
</event>
<event>
 8    1  0.3146747E-007  0.9118800E+02  0.7816164E-02  0.1184000E+00
        -11   -1    0    0    0    0  0.00000000000E+00  0.00000000000E+00  0.45593999997E+02  0.45594000000E+02  0.51100000000E-03 0. -1.
         11   -1    0    0    0    0 -0.00000000000E+00 -0.00000000000E+00 -0.45593999997E+02  0.45594000000E+02  0.51100000000E-03 0.  1.
         23    2    1    2    0    0  0.35527136788E-14 -0.35527136788E-14 -0.35527136788E-14  0.91188000000E+02  0.91188000000E+02 0.  0.
    9900012    2    3    3    0    0 -0.15665770736E+02  0.23461643279E+02  0.23662511256E+02  0.54367088590E+02  0.40000010059E+02 0.  0.
        -12    1    3    3    0    0  0.15665770736E+02 -0.23461643279E+02 -0.23662511256E+02  0.36820911410E+02  0.00000000000E+00 0.  1.
         11    1    4    4    0    0 -0.46754820658E+00  0.81086966795E+01 -0.32594814460E+01  0.87517874017E+01  0.51100000000E-03 0. -1.
        -11    1    4    4    0    0 -0.19935640523E+02 -0.69683620492E+00  0.12643253506E+02  0.23617095571E+02  0.51100000000E-03 0.  1.
        -12    1    4    4    0    0  0.47374179937E+01  0.16049782805E+02  0.14278739196E+02  0.21998205617E+02  0.00000000000E+00 0.  1.
</event>
<event>
 8    1  0.3146747E-007  0.9118800E+02  0.7816164E-02  0.1184000E+00
        -11   -1    0    0    0    0  0.00000000000E+00  0.00000000000E+00  0.45593999997E+02  0.45594000000E+02  0.51100000000E-03 0.  1.
         11   -1    0    0    0    0 -0.00000000000E+00 -0.00000000000E+00 -0.45593999997E+02  0.45594000000E+02  0.51100000000E-03 0. -1.
         23    2    1    2    0    0 -0.17763568394E-14  0.17763568394E-14  0.00000000000E+00  0.91188000000E+02  0.91188000000E+02 0.  0.
    9900012    2    3    3    0    0 -0.13403031788E+02 -0.83230004317E+01 -0.33269555476E+02  0.54367123871E+02  0.40000090489E+02 0.  0.
        -12    1    3    3    0    0  0.13403031788E+02  0.83230004317E+01  0.33269555476E+02  0.36820876129E+02  0.00000000000E+00 0.  1.
         11    1    4    4    0    0 -0.14679233761E+01  0.10523835058E-01 -0.17125163299E+01  0.22555758091E+01  0.51100000000E-03 0. -1.
        -11    1    4    4    0    0  0.11614546860E+02 -0.24771708511E+01 -0.23861877072E+02  0.26653766185E+02  0.51100000000E-03 0.  1.
        -12    1    4    4    0    0 -0.23549655272E+02 -0.58563534156E+01 -0.76951620737E+01  0.25457781877E+02  0.00000000000E+00 0.  1.
</event>
<event>
 8    1  0.3146747E-007  0.9118800E+02  0.7816164E-02  0.1184000E+00
        -11   -1    0    0    0    0  0.00000000000E+00  0.00000000000E+00  0.45593999997E+02  0.45594000000E+02  0.51100000000E-03 0.  1.
         11   -1    0    0    0    0 -0.00000000000E+00 -0.00000000000E+00 -0.45593999997E+02  0.45594000000E+02  0.51100000000E-03 0. -1.
         23    2    1    2    0    0  0.88817841970E-15  0.35527136788E-14  0.35527136788E-14  0.91188000000E+02  0.91188000000E+02 0.  0.
    9900012    2    3    3    0    0  0.35995367006E+01  0.31482857641E+02 -0.18752405263E+02  0.54367086203E+02  0.40000004617E+02 0.  0.
        -12    1    3    3    0    0 -0.35995367006E+01 -0.31482857641E+02  0.18752405263E+02  0.36820913797E+02  0.00000000000E+00 0.  1.
         11    1    4    4    0    0  0.39053790306E+01  0.87678738484E+01  0.49051090366E+01  0.10779039480E+02  0.51100000000E-03 0. -1.
        -11    1    4    4    0    0 -0.45525437198E+01  0.28669237163E+02 -0.16677291180E+02  0.33478095155E+02  0.51100000000E-03 0.  1.
        -12    1    4    4    0    0  0.42467013898E+01 -0.59542533709E+01 -0.69802231194E+01  0.10109951567E+02  0.00000000000E+00 0.  1.
</event>
<event>
 8    1  0.3146747E-007  0.9118800E+02  0.7816164E-02  0.1184000E+00
        -11   -1    0    0    0    0  0.00000000000E+00  0.00000000000E+00  0.45593999997E+02  0.45594000000E+02  0.51100000000E-03 0.  1.
         11   -1    0    0    0    0 -0.00000000000E+00 -0.00000000000E+00 -0.45593999997E+02  0.45594000000E+02  0.51100000000E-03 0. -1.
         23    2    1    2    0    0  0.35527136788E-14  0.44408920985E-15  0.00000000000E+00  0.91188000000E+02  0.91188000000E+02 0.  0.
    9900012    2    3    3    0    0  0.27961967810E+02 -0.15479557297E+01 -0.23906271317E+02  0.54367114364E+02  0.40000068816E+02 0.  0.
        -12    1    3    3    0    0 -0.27961967810E+02  0.15479557297E+01  0.23906271317E+02  0.36820885636E+02  0.00000000000E+00 0.  1.
         11    1    4    4    0    0  0.13490562649E+02  0.16480357778E+02 -0.17986447047E+02  0.27876688303E+02  0.51100000000E-03 0. -1.
        -11    1    4    4    0    0  0.65941446734E+01 -0.39179260142E+01 -0.68771204998E+01  0.10301828714E+02  0.51100000000E-03 0.  1.
        -12    1    4    4    0    0  0.78772604869E+01 -0.14110387494E+02  0.95729622973E+00  0.16188597347E+02  0.00000000000E+00 0.  1.
</event>
<event>
 8    1  0.3146747E-007  0.9118800E+02  0.7816164E-02  0.1184000E+00
        -11   -1    0    0    0    0  0.00000000000E+00  0.00000000000E+00  0.45593999997E+02  0.45594000000E+02  0.51100000000E-03 0.  1.
         11   -1    0    0    0    0 -0.00000000000E+00 -0.00000000000E+00 -0.45593999997E+02  0.45594000000E+02  0.51100000000E-03 0. -1.
         23    2    1    2    0    0  0.00000000000E+00  0.00000000000E+00  0.00000000000E+00  0.91188000000E+02  0.91188000000E+02 0.  0.
    9900012    2    3    3    0    0 -0.29021610194E+02 -0.54377206082E+01  0.21999062770E+02  0.54367062662E+02  0.39999950952E+02 0.  0.
         12    1    3    3    0    0  0.29021610194E+02  0.54377206082E+01 -0.21999062770E+02  0.36820937338E+02  0.00000000000E+00 0. -1.
         11    1    4    4    0    0  0.16178525055E+01  0.61380594862E+01 -0.20216441970E+01  0.66618515824E+01  0.51100000000E-03 0. -1.
        -11    1    4    4    0    0 -0.25398358170E+02 -0.29239244806E+01  0.48394784674E+01  0.26020116914E+02  0.51100000000E-03 0.  1.
        -12    1    4    4    0    0 -0.52411045291E+01 -0.86518556138E+01  0.19181228499E+02  0.21685094166E+02  0.00000000000E+00 0.  1.
</event>
<event>
 8    1  0.3146747E-007  0.9118800E+02  0.7816164E-02  0.1184000E+00
        -11   -1    0    0    0    0  0.00000000000E+00  0.00000000000E+00  0.45593999997E+02  0.45594000000E+02  0.51100000000E-03 0. -1.
         11   -1    0    0    0    0 -0.00000000000E+00 -0.00000000000E+00 -0.45593999997E+02  0.45594000000E+02  0.51100000000E-03 0.  1.
         23    2    1    2    0    0  0.00000000000E+00  0.00000000000E+00  0.00000000000E+00  0.91188000000E+02  0.91188000000E+02 0.  0.
    9900012    2    3    3    0    0 -0.24605418574E+02 -0.52870180457E+01 -0.26877512273E+02  0.54367084082E+02  0.39999999783E+02 0.  0.
         12    1    3    3    0    0  0.24605418574E+02  0.52870180457E+01  0.26877512273E+02  0.36820915918E+02  0.00000000000E+00 0. -1.
         11    1    4    4    0    0 -0.22620134057E+02 -0.21345091064E+01 -0.61220799952E+01  0.23530968055E+02  0.51100000000E-03 0.  1.
        -11    1    4    4    0    0  0.92375718100E+00  0.92326647451E+01 -0.48541259573E+01  0.10471769893E+02  0.51100000000E-03 0. -1.
         12    1    4    4    0    0 -0.29090416986E+01 -0.12385173684E+02 -0.15901306320E+02  0.20364346135E+02  0.00000000000E+00 0. -1.
</event>
<event>
 8    1  0.3146747E-007  0.9118800E+02  0.7816164E-02  0.1184000E+00
        -11   -1    0    0    0    0  0.00000000000E+00  0.00000000000E+00  0.45593999997E+02  0.45594000000E+02  0.51100000000E-03 0.  1.
         11   -1    0    0    0    0 -0.00000000000E+00 -0.00000000000E+00 -0.45593999997E+02  0.45594000000E+02  0.51100000000E-03 0. -1.
         23    2    1    2    0    0  0.35527136788E-14  0.71054273576E-14  0.00000000000E+00  0.91188000000E+02  0.91188000000E+02 0.  0.
    9900012    2    3    3    0    0  0.20896691542E+02  0.25975718619E+02  0.15632276481E+02  0.54367112678E+02  0.40000064973E+02 0.  0.
         12    1    3    3    0    0 -0.20896691542E+02 -0.25975718619E+02 -0.15632276481E+02  0.36820887322E+02  0.00000000000E+00 0. -1.
         11    1    4    4    0    0  0.27135392930E+02  0.24201231736E+02  0.24127420945E+02  0.43636700250E+02  0.51100000000E-03 0.  1.
        -11    1    4    4    0    0 -0.60273066855E+01  0.18748565909E+01 -0.82872595733E+01  0.10417398169E+02  0.51100000000E-03 0. -1.
        -12    1    4    4    0    0 -0.21139470242E+00 -0.10036970770E+00 -0.20788489097E+00  0.31301425899E+00  0.00000000000E+00 0.  1.
</event>
<event>
 8    1  0.3146747E-007  0.9118800E+02  0.7816164E-02  0.1184000E+00
        -11   -1    0    0    0    0  0.00000000000E+00  0.00000000000E+00  0.45593999997E+02  0.45594000000E+02  0.51100000000E-03 0.  1.
         11   -1    0    0    0    0 -0.00000000000E+00 -0.00000000000E+00 -0.45593999997E+02  0.45594000000E+02  0.51100000000E-03 0. -1.
         23    2    1    2    0    0 -0.35527136788E-14  0.88817841970E-15  0.00000000000E+00  0.91188000000E+02  0.91188000000E+02 0.  0.
    9900012    2    3    3    0    0  0.46541628671E+01  0.60615166656E+01  0.36019105879E+02  0.54367092833E+02  0.40000019732E+02 0.  0.
         12    1    3    3    0    0 -0.46541628671E+01 -0.60615166656E+01 -0.36019105879E+02  0.36820907167E+02  0.00000000000E+00 0. -1.
         11    1    4    4    0    0  0.89331963206E+01 -0.46139669114E+00 -0.13285333528E+01  0.90432231278E+01  0.51100000000E-03 0. -1.
        -11    1    4    4    0    0  0.57430808216E+01 -0.68574945753E+01  0.12248689249E+02  0.15167023365E+02  0.51100000000E-03 0.  1.
        -12    1    4    4    0    0 -0.10022114275E+02  0.13380407932E+02  0.25098949983E+02  0.30156846340E+02  0.00000000000E+00 0.  1.
</event>
<event>
 8    1  0.3146747E-007  0.9118800E+02  0.7816164E-02  0.1184000E+00
        -11   -1    0    0    0    0  0.00000000000E+00  0.00000000000E+00  0.45593999997E+02  0.45594000000E+02  0.51100000000E-03 0. -1.
         11   -1    0    0    0    0 -0.00000000000E+00 -0.00000000000E+00 -0.45593999997E+02  0.45594000000E+02  0.51100000000E-03 0.  1.
         23    2    1    2    0    0  0.00000000000E+00  0.17763568394E-14  0.00000000000E+00  0.91188000000E+02  0.91188000000E+02 0.  0.
    9900012    2    3    3    0    0 -0.30137681266E+02 -0.11675496209E+02  0.17640358412E+02  0.54367091691E+02  0.40000017127E+02 0.  0.
        -12    1    3    3    0    0  0.30137681266E+02  0.11675496209E+02 -0.17640358412E+02  0.36820908309E+02  0.00000000000E+00 0.  1.
         11    1    4    4    0    0 -0.20521356870E+01  0.63600057566E+01  0.88318258030E+01  0.11075291480E+02  0.51100000000E-03 0. -1.
        -11    1    4    4    0    0  0.30622332604E+01 -0.45479882138E+01  0.75436672673E+01  0.93256841805E+01  0.51100000000E-03 0.  1.
         12    1    4    4    0    0 -0.31147778839E+02 -0.13487513752E+02  0.12648653422E+01  0.33966116030E+02  0.00000000000E+00 0. -1.
</event>
<event>
 8    1  0.3146747E-007  0.9118800E+02  0.7816164E-02  0.1184000E+00
        -11   -1    0    0    0    0  0.00000000000E+00  0.00000000000E+00  0.45593999997E+02  0.45594000000E+02  0.51100000000E-03 0.  1.
         11   -1    0    0    0    0 -0.00000000000E+00 -0.00000000000E+00 -0.45593999997E+02  0.45594000000E+02  0.51100000000E-03 0. -1.
         23    2    1    2    0    0  0.00000000000E+00  0.00000000000E+00  0.00000000000E+00  0.91188000000E+02  0.91188000000E+02 0.  0.
    9900012    2    3    3    0    0 -0.20328595308E+02 -0.23047429316E+01 -0.30613992088E+02  0.54367080148E+02  0.39999990815E+02 0.  0.
        -12    1    3    3    0    0  0.20328595308E+02  0.23047429316E+01  0.30613992088E+02  0.36820919852E+02  0.00000000000E+00 0.  1.
         11    1    4    4    0    0 -0.80316424482E+01 -0.56556495276E+01 -0.37498959444E+02  0.38764231085E+02  0.51100000000E-03 0. -1.
        -11    1    4    4    0    0 -0.10134272473E+02  0.62454041866E+00  0.66025056085E+01  0.12111424766E+02  0.51100000000E-03 0.  1.
         12    1    4    4    0    0 -0.21626803866E+01  0.27263661773E+01  0.28246174729E+00  0.34914242976E+01  0.00000000000E+00 0. -1.
</event>
<event>
 8    1  0.3146747E-007  0.9118800E+02  0.7816164E-02  0.1184000E+00
        -11   -1    0    0    0    0  0.00000000000E+00  0.00000000000E+00  0.45593999997E+02  0.45594000000E+02  0.51100000000E-03 0. -1.
         11   -1    0    0    0    0 -0.00000000000E+00 -0.00000000000E+00 -0.45593999997E+02  0.45594000000E+02  0.51100000000E-03 0.  1.
         23    2    1    2    0    0  0.00000000000E+00 -0.35527136788E-14  0.00000000000E+00  0.91188000000E+02  0.91188000000E+02 0.  0.
    9900012    2    3    3    0    0  0.25238440042E+02  0.22020319705E+02  0.15294048299E+02  0.54367065071E+02  0.39999956442E+02 0.  0.
        -12    1    3    3    0    0 -0.25238440042E+02 -0.22020319705E+02 -0.15294048299E+02  0.36820934929E+02  0.00000000000E+00 0.  1.
         11    1    4    4    0    0  0.19730690036E+02  0.12328959762E+02  0.16740370039E+02  0.28662577822E+02  0.51100000000E-03 0. -1.
        -11    1    4    4    0    0 -0.11451053124E+01  0.14521747850E+02  0.48456224784E+01  0.15351628065E+02  0.51100000000E-03 0.  1.
        -12    1    4    4    0    0  0.66528553189E+01 -0.48303879067E+01 -0.62919442189E+01  0.10352859184E+02  0.00000000000E+00 0.  1.
</event>
<event>
 8    1  0.3146747E-007  0.9118800E+02  0.7816164E-02  0.1184000E+00
        -11   -1    0    0    0    0  0.00000000000E+00  0.00000000000E+00  0.45593999997E+02  0.45594000000E+02  0.51100000000E-03 0. -1.
         11   -1    0    0    0    0 -0.00000000000E+00 -0.00000000000E+00 -0.45593999997E+02  0.45594000000E+02  0.51100000000E-03 0.  1.
         23    2    1    2    0    0  0.88817841970E-15  0.00000000000E+00  0.00000000000E+00  0.91188000000E+02  0.91188000000E+02 0.  0.
    9900012    2    3    3    0    0  0.61713989150E+01 -0.32860339091E+02  0.15423806749E+02  0.54367056715E+02  0.39999937394E+02 0.  0.
        -12    1    3    3    0    0 -0.61713989150E+01  0.32860339091E+02 -0.15423806749E+02  0.36820943285E+02  0.00000000000E+00 0.  1.
         11    1    4    4    0    0  0.50040926446E+01 -0.17255089339E+02  0.71356470683E+01  0.19331231482E+02  0.51100000000E-03 0. -1.
        -11    1    4    4    0    0  0.98159786633E+01 -0.13475276829E+02 -0.64002524355E+01  0.17857764536E+02  0.51100000000E-03 0.  1.
        -12    1    4    4    0    0 -0.86486723928E+01 -0.21299729235E+01  0.14688412116E+02  0.17178060697E+02  0.00000000000E+00 0.  1.
</event>
<event>
 8    1  0.3146747E-007  0.9118800E+02  0.7816164E-02  0.1184000E+00
        -11   -1    0    0    0    0  0.00000000000E+00  0.00000000000E+00  0.45593999997E+02  0.45594000000E+02  0.51100000000E-03 0.  1.
         11   -1    0    0    0    0 -0.00000000000E+00 -0.00000000000E+00 -0.45593999997E+02  0.45594000000E+02  0.51100000000E-03 0. -1.
         23    2    1    2    0    0  0.00000000000E+00  0.00000000000E+00 -0.17763568394E-14  0.91188000000E+02  0.91188000000E+02 0.  0.
    9900012    2    3    3    0    0  0.77076416852E+01  0.34705570773E+02  0.95861806393E+01  0.54367092321E+02  0.40000018564E+02 0.  0.
         12    1    3    3    0    0 -0.77076416852E+01 -0.34705570773E+02 -0.95861806393E+01  0.36820907679E+02  0.00000000000E+00 0. -1.
         11    1    4    4    0    0  0.12361839479E+02  0.17657366904E+02  0.15506088256E+02  0.26552522565E+02  0.51100000000E-03 0. -1.
        -11    1    4    4    0    0  0.53337479403E+01  0.91539418221E+01 -0.98753011222E+01  0.14483269330E+02  0.51100000000E-03 0.  1.
         12    1    4    4    0    0 -0.99879457344E+01  0.78942620470E+01  0.39553935053E+01  0.13331300426E+02  0.00000000000E+00 0. -1.
</event>
<event>
 8    1  0.3146747E-007  0.9118800E+02  0.7816164E-02  0.1184000E+00
        -11   -1    0    0    0    0  0.00000000000E+00  0.00000000000E+00  0.45593999997E+02  0.45594000000E+02  0.51100000000E-03 0.  1.
         11   -1    0    0    0    0 -0.00000000000E+00 -0.00000000000E+00 -0.45593999997E+02  0.45594000000E+02  0.51100000000E-03 0. -1.
         23    2    1    2    0    0  0.00000000000E+00  0.00000000000E+00  0.00000000000E+00  0.91188000000E+02  0.91188000000E+02 0.  0.
    9900012    2    3    3    0    0  0.95182911089E+01 -0.12598741093E+02  0.33263390252E+02  0.54367091893E+02  0.40000017588E+02 0.  0.
         12    1    3    3    0    0 -0.95182911089E+01  0.12598741093E+02 -0.33263390252E+02  0.36820908107E+02  0.00000000000E+00 0. -1.
         11    1    4    4    0    0  0.40736246601E+01  0.31490278500E+01  0.82660100548E+01  0.97384658319E+01  0.51100000000E-03 0. -1.
        -11    1    4    4    0    0  0.28574632261E+01  0.10270031848E+02  0.91966072609E+01  0.14078928781E+02  0.51100000000E-03 0.  1.
        -12    1    4    4    0    0  0.25872032226E+01 -0.26017800791E+02  0.15800772936E+02  0.30549697280E+02  0.00000000000E+00 0.  1.
</event>
<event>
 8    1  0.3146747E-007  0.9118800E+02  0.7816164E-02  0.1184000E+00
        -11   -1    0    0    0    0  0.00000000000E+00  0.00000000000E+00  0.45593999997E+02  0.45594000000E+02  0.51100000000E-03 0.  1.
         11   -1    0    0    0    0 -0.00000000000E+00 -0.00000000000E+00 -0.45593999997E+02  0.45594000000E+02  0.51100000000E-03 0. -1.
         23    2    1    2    0    0  0.00000000000E+00  0.88817841970E-15  0.00000000000E+00  0.91188000000E+02  0.91188000000E+02 0.  0.
    9900012    2    3    3    0    0 -0.20154894164E+02 -0.43393033935E+01  0.30507908904E+02  0.54367057339E+02  0.39999938816E+02 0.  0.
         12    1    3    3    0    0  0.20154894164E+02  0.43393033935E+01 -0.30507908904E+02  0.36820942661E+02  0.00000000000E+00 0. -1.
         11    1    4    4    0    0  0.57368656031E+01 -0.13737250716E+02  0.31064336564E+01  0.15207682746E+02  0.51100000000E-03 0. -1.
        -11    1    4    4    0    0 -0.17157779886E+02  0.80724793927E+01  0.20692529528E+02  0.28066619189E+02  0.51100000000E-03 0.  1.
        -12    1    4    4    0    0 -0.87339798811E+01  0.13254679295E+01  0.67089457197E+01  0.11092755405E+02  0.00000000000E+00 0.  1.
</event>
<event>
 8    1  0.3146747E-007  0.9118800E+02  0.7816164E-02  0.1184000E+00
        -11   -1    0    0    0    0  0.00000000000E+00  0.00000000000E+00  0.45593999997E+02  0.45594000000E+02  0.51100000000E-03 0. -1.
         11   -1    0    0    0    0 -0.00000000000E+00 -0.00000000000E+00 -0.45593999997E+02  0.45594000000E+02  0.51100000000E-03 0.  1.
         23    2    1    2    0    0 -0.35527136788E-14  0.71054273576E-14 -0.44408920985E-15  0.91188000000E+02  0.91188000000E+02 0.  0.
    9900012    2    3    3    0    0  0.16436821276E+02 -0.32800524976E+02 -0.31202502131E+01  0.54367088906E+02  0.40000010780E+02 0.  0.
        -12    1    3    3    0    0 -0.16436821276E+02  0.32800524976E+02  0.31202502131E+01  0.36820911094E+02  0.00000000000E+00 0.  1.
         11    1    4    4    0    0  0.11630424311E+02 -0.10988159773E+02  0.37102488516E+01  0.16424748755E+02  0.51100000000E-03 0. -1.
        -11    1    4    4    0    0  0.15454704625E+02 -0.15595340985E+02 -0.11465818221E+02  0.24769488151E+02  0.51100000000E-03 0.  1.
         12    1    4    4    0    0 -0.10648307660E+02 -0.62170242174E+01  0.46353191565E+01  0.13172852001E+02  0.00000000000E+00 0. -1.
</event>
<event>
 8    1  0.3146747E-007  0.9118800E+02  0.7816164E-02  0.1184000E+00
        -11   -1    0    0    0    0  0.00000000000E+00  0.00000000000E+00  0.45593999997E+02  0.45594000000E+02  0.51100000000E-03 0. -1.
         11   -1    0    0    0    0 -0.00000000000E+00 -0.00000000000E+00 -0.45593999997E+02  0.45594000000E+02  0.51100000000E-03 0.  1.
         23    2    1    2    0    0  0.00000000000E+00  0.23592239273E-15 -0.71054273576E-14  0.91188000000E+02  0.91188000000E+02 0.  0.
    9900012    2    3    3    0    0  0.14138302187E+02 -0.76003251361E-01 -0.33998269434E+02  0.54367086245E+02  0.40000004714E+02 0.  0.
         12    1    3    3    0    0 -0.14138302187E+02  0.76003251361E-01  0.33998269434E+02  0.36820913755E+02  0.00000000000E+00 0. -1.
         11    1    4    4    0    0  0.82625185575E+01  0.38459019463E+01  0.21847352246E+01  0.93719391247E+01  0.51100000000E-03 0. -1.
        -11    1    4    4    0    0  0.15905085197E+02  0.19093261176E+00 -0.21539326109E+02  0.26775936209E+02  0.51100000000E-03 0.  1.
        -12    1    4    4    0    0 -0.10029301568E+02 -0.41128378094E+01 -0.14643678549E+02  0.18219210912E+02  0.00000000000E+00 0.  1.
</event>
<event>
 8    1  0.3146747E-007  0.9118800E+02  0.7816164E-02  0.1184000E+00
        -11   -1    0    0    0    0  0.00000000000E+00  0.00000000000E+00  0.45593999997E+02  0.45594000000E+02  0.51100000000E-03 0.  1.
         11   -1    0    0    0    0 -0.00000000000E+00 -0.00000000000E+00 -0.45593999997E+02  0.45594000000E+02  0.51100000000E-03 0. -1.
         23    2    1    2    0    0  0.35527136788E-14  0.00000000000E+00 -0.35527136788E-14  0.91188000000E+02  0.91188000000E+02 0.  0.
    9900012    2    3    3    0    0  0.20286080886E+02  0.28558770043E+02  0.11342446383E+02  0.54367088631E+02  0.40000010152E+02 0.  0.
         12    1    3    3    0    0 -0.20286080886E+02 -0.28558770043E+02 -0.11342446383E+02  0.36820911369E+02  0.00000000000E+00 0. -1.
         11    1    4    4    0    0  0.91646807024E+01  0.59667090928E+01  0.13897839864E+01  0.11023814656E+02  0.51100000000E-03 0. -1.
        -11    1    4    4    0    0  0.46871015701E+01  0.10518182342E+02 -0.12534623955E+02  0.17021100989E+02  0.51100000000E-03 0.  1.
        -12    1    4    4    0    0  0.64342986135E+01  0.12073878608E+02  0.22487286351E+02  0.26322172986E+02  0.00000000000E+00 0.  1.
</event>
<event>
 8    1  0.3146747E-007  0.9118800E+02  0.7816164E-02  0.1184000E+00
        -11   -1    0    0    0    0  0.00000000000E+00  0.00000000000E+00  0.45593999997E+02  0.45594000000E+02  0.51100000000E-03 0.  1.
         11   -1    0    0    0    0 -0.00000000000E+00 -0.00000000000E+00 -0.45593999997E+02  0.45594000000E+02  0.51100000000E-03 0. -1.
         23    2    1    2    0    0  0.00000000000E+00 -0.71054273576E-14  0.00000000000E+00  0.91188000000E+02  0.91188000000E+02 0.  0.
    9900012    2    3    3    0    0 -0.54059005765E+01 -0.32710140369E+02 -0.16018836475E+02  0.54367079778E+02  0.39999989970E+02 0.  0.
        -12    1    3    3    0    0  0.54059005765E+01  0.32710140369E+02  0.16018836475E+02  0.36820920222E+02  0.00000000000E+00 0.  1.
         11    1    4    4    0    0 -0.17676667430E+01 -0.21818737940E+02  0.47671569922E+01  0.22403297906E+02  0.51100000000E-03 0. -1.
        -11    1    4    4    0    0  0.77742746909E+01 -0.67356015799E+01 -0.35567136509E+01  0.10883836082E+02  0.51100000000E-03 0.  1.
         12    1    4    4    0    0 -0.11412508524E+02 -0.41558008488E+01 -0.17229279816E+02  0.21079945789E+02  0.00000000000E+00 0. -1.
</event>
<event>
 8    1  0.3146747E-007  0.9118800E+02  0.7816164E-02  0.1184000E+00
        -11   -1    0    0    0    0  0.00000000000E+00  0.00000000000E+00  0.45593999997E+02  0.45594000000E+02  0.51100000000E-03 0. -1.
         11   -1    0    0    0    0 -0.00000000000E+00 -0.00000000000E+00 -0.45593999997E+02  0.45594000000E+02  0.51100000000E-03 0.  1.
         23    2    1    2    0    0  0.00000000000E+00  0.00000000000E+00  0.88817841970E-15  0.91188000000E+02  0.91188000000E+02 0.  0.
    9900012    2    3    3    0    0 -0.17387862642E+02 -0.32169007131E+02 -0.43123537822E+01  0.54367093138E+02  0.40000020426E+02 0.  0.
         12    1    3    3    0    0  0.17387862642E+02  0.32169007131E+02  0.43123537822E+01  0.36820906862E+02  0.00000000000E+00 0. -1.
         11    1    4    4    0    0 -0.65330084581E+00 -0.11264846719E+02 -0.39553252092E+01  0.11956929847E+02  0.51100000000E-03 0.  1.
        -11    1    4    4    0    0 -0.23489020582E+02 -0.36425820437E+01 -0.16650610823E+01  0.23828028045E+02  0.51100000000E-03 0. -1.
         12    1    4    4    0    0  0.67544587856E+01 -0.17261578369E+02  0.13080325094E+01  0.18582135246E+02  0.00000000000E+00 0. -1.
</event>
<event>
 8    1  0.3146747E-007  0.9118800E+02  0.7816164E-02  0.1184000E+00
        -11   -1    0    0    0    0  0.00000000000E+00  0.00000000000E+00  0.45593999997E+02  0.45594000000E+02  0.51100000000E-03 0. -1.
         11   -1    0    0    0    0 -0.00000000000E+00 -0.00000000000E+00 -0.45593999997E+02  0.45594000000E+02  0.51100000000E-03 0.  1.
         23    2    1    2    0    0  0.17763568394E-14 -0.88817841970E-15  0.00000000000E+00  0.91188000000E+02  0.91188000000E+02 0.  0.
    9900012    2    3    3    0    0 -0.90127616728E+01  0.39774116270E+01  0.35478584546E+02  0.54367086953E+02  0.40000006326E+02 0.  0.
        -12    1    3    3    0    0  0.90127616728E+01 -0.39774116270E+01 -0.35478584546E+02  0.36820913047E+02  0.00000000000E+00 0.  1.
         11    1    4    4    0    0  0.53824415120E+00 -0.51870861226E+01  0.71455377978E+01  0.88461449169E+01  0.51100000000E-03 0. -1.
        -11    1    4    4    0    0  0.11352965158E+02  0.35035626112E+01  0.31209660185E+01  0.12284347683E+02  0.51100000000E-03 0.  1.
        -12    1    4    4    0    0 -0.20903970982E+02  0.56609351384E+01  0.25212080730E+02  0.33236594353E+02  0.00000000000E+00 0.  1.
</event>
<event>
 8    1  0.3146747E-007  0.9118800E+02  0.7816164E-02  0.1184000E+00
        -11   -1    0    0    0    0  0.00000000000E+00  0.00000000000E+00  0.45593999997E+02  0.45594000000E+02  0.51100000000E-03 0.  1.
         11   -1    0    0    0    0 -0.00000000000E+00 -0.00000000000E+00 -0.45593999997E+02  0.45594000000E+02  0.51100000000E-03 0. -1.
         23    2    1    2    0    0  0.35527136788E-14 -0.35527136788E-14  0.35527136788E-14  0.91188000000E+02  0.91188000000E+02 0.  0.
    9900012    2    3    3    0    0  0.19126633891E+02 -0.23156541259E+02  0.21300830245E+02  0.54367097021E+02  0.40000029278E+02 0.  0.
         12    1    3    3    0    0 -0.19126633891E+02  0.23156541259E+02 -0.21300830245E+02  0.36820902979E+02  0.00000000000E+00 0. -1.
         11    1    4    4    0    0 -0.68908873725E+01 -0.15011436662E+02  0.22299803436E+01  0.16667344481E+02  0.51100000000E-03 0. -1.
        -11    1    4    4    0    0  0.26507045040E+02 -0.89824874926E+01  0.11814930470E+02  0.30379287362E+02  0.51100000000E-03 0.  1.
         12    1    4    4    0    0 -0.48952377680E+00  0.83738289524E+00  0.72559194308E+01  0.73204651784E+01  0.00000000000E+00 0. -1.
</event>
<event>
 8    1  0.3146747E-007  0.9118800E+02  0.7816164E-02  0.1184000E+00
        -11   -1    0    0    0    0  0.00000000000E+00  0.00000000000E+00  0.45593999997E+02  0.45594000000E+02  0.51100000000E-03 0.  1.
         11   -1    0    0    0    0 -0.00000000000E+00 -0.00000000000E+00 -0.45593999997E+02  0.45594000000E+02  0.51100000000E-03 0. -1.
         23    2    1    2    0    0  0.00000000000E+00  0.00000000000E+00  0.00000000000E+00  0.91188000000E+02  0.91188000000E+02 0.  0.
    9900012    2    3    3    0    0  0.34866641249E+02 -0.65607661925E+01  0.98515594498E+01  0.54367088161E+02  0.40000009081E+02 0.  0.
        -12    1    3    3    0    0 -0.34866641249E+02  0.65607661925E+01 -0.98515594498E+01  0.36820911839E+02  0.00000000000E+00 0.  1.
         11    1    4    4    0    0  0.10698510238E+02 -0.18848779811E+02  0.15145757990E+02  0.26441040203E+02  0.51100000000E-03 0. -1.
        -11    1    4    4    0    0  0.18097767185E+02  0.79234756820E+01 -0.23696793193E+01  0.19897889946E+02  0.51100000000E-03 0.  1.
         12    1    4    4    0    0  0.60703638259E+01  0.43645379370E+01 -0.29245192207E+01  0.80281580113E+01  0.00000000000E+00 0. -1.
</event>
<event>
 8    1  0.3146747E-007  0.9118800E+02  0.7816164E-02  0.1184000E+00
        -11   -1    0    0    0    0  0.00000000000E+00  0.00000000000E+00  0.45593999997E+02  0.45594000000E+02  0.51100000000E-03 0. -1.
         11   -1    0    0    0    0 -0.00000000000E+00 -0.00000000000E+00 -0.45593999997E+02  0.45594000000E+02  0.51100000000E-03 0.  1.
         23    2    1    2    0    0  0.00000000000E+00  0.71054273576E-14 -0.17763568394E-14  0.91188000000E+02  0.91188000000E+02 0.  0.
    9900012    2    3    3    0    0  0.12881611836E+02  0.33122470010E+02 -0.96304652537E+01  0.54367084693E+02  0.40000001175E+02 0.  0.
         12    1    3    3    0    0 -0.12881611836E+02 -0.33122470010E+02  0.96304652537E+01  0.36820915307E+02  0.00000000000E+00 0. -1.
         11    1    4    4    0    0  0.74720255362E+01  0.90269144719E+00  0.71998374693E+01  0.10415549784E+02  0.51100000000E-03 0. -1.
        -11    1    4    4    0    0  0.16137834456E+01  0.30033691671E+02 -0.21934365766E+02  0.37225573658E+02  0.51100000000E-03 0.  1.
        -12    1    4    4    0    0  0.37958028541E+01  0.21860868916E+01  0.51040630425E+01  0.67259612508E+01  0.00000000000E+00 0.  1.
</event>
<event>
 8    1  0.3146747E-007  0.9118800E+02  0.7816164E-02  0.1184000E+00
        -11   -1    0    0    0    0  0.00000000000E+00  0.00000000000E+00  0.45593999997E+02  0.45594000000E+02  0.51100000000E-03 0.  1.
         11   -1    0    0    0    0 -0.00000000000E+00 -0.00000000000E+00 -0.45593999997E+02  0.45594000000E+02  0.51100000000E-03 0. -1.
         23    2    1    2    0    0 -0.35527136788E-14  0.00000000000E+00  0.00000000000E+00  0.91188000000E+02  0.91188000000E+02 0.  0.
    9900012    2    3    3    0    0  0.24646346105E+02  0.17411793154E+02 -0.21098971092E+02  0.54367088844E+02  0.40000010638E+02 0.  0.
        -12    1    3    3    0    0 -0.24646346105E+02 -0.17411793154E+02  0.21098971092E+02  0.36820911156E+02  0.00000000000E+00 0.  1.
         11    1    4    4    0    0 -0.72528928281E+01  0.55638358764E+01 -0.17819457297E+02  0.20027325899E+02  0.51100000000E-03 0. -1.
        -11    1    4    4    0    0  0.15434374798E+02  0.67276389151E+01 -0.29537395868E+01  0.17094023183E+02  0.51100000000E-03 0.  1.
        -12    1    4    4    0    0  0.16464864135E+02  0.51203183630E+01 -0.32577420869E+00  0.17245739763E+02  0.00000000000E+00 0.  1.
</event>
<event>
 8    1  0.3146747E-007  0.9118800E+02  0.7816164E-02  0.1184000E+00
        -11   -1    0    0    0    0  0.00000000000E+00  0.00000000000E+00  0.45593999997E+02  0.45594000000E+02  0.51100000000E-03 0.  1.
         11   -1    0    0    0    0 -0.00000000000E+00 -0.00000000000E+00 -0.45593999997E+02  0.45594000000E+02  0.51100000000E-03 0. -1.
         23    2    1    2    0    0  0.35527136788E-14 -0.17763568394E-14  0.00000000000E+00  0.91188000000E+02  0.91188000000E+02 0.  0.
    9900012    2    3    3    0    0 -0.26519173089E+02  0.95413630611E+01  0.23695467264E+02  0.54367091276E+02  0.40000016181E+02 0.  0.
         12    1    3    3    0    0  0.26519173089E+02 -0.95413630611E+01 -0.23695467264E+02  0.36820908724E+02  0.00000000000E+00 0. -1.
         11    1    4    4    0    0  0.70631628731E+01  0.57353193431E-01  0.13081360200E+02  0.14866524278E+02  0.51100000000E-03 0. -1.
        -11    1    4    4    0    0 -0.14624454722E+02  0.47378167233E+01  0.12573156057E+02  0.19859653490E+02  0.51100000000E-03 0.  1.
         12    1    4    4    0    0 -0.18957881240E+02  0.47461931444E+01 -0.19590489930E+01  0.19640913508E+02  0.00000000000E+00 0. -1.
</event>
<event>
 8    1  0.3146747E-007  0.9118800E+02  0.7816164E-02  0.1184000E+00
        -11   -1    0    0    0    0  0.00000000000E+00  0.00000000000E+00  0.45593999997E+02  0.45594000000E+02  0.51100000000E-03 0. -1.
         11   -1    0    0    0    0 -0.00000000000E+00 -0.00000000000E+00 -0.45593999997E+02  0.45594000000E+02  0.51100000000E-03 0.  1.
         23    2    1    2    0    0  0.35527136788E-14 -0.22204460493E-15  0.00000000000E+00  0.91188000000E+02  0.91188000000E+02 0.  0.
    9900012    2    3    3    0    0 -0.16198031626E+02 -0.19571822707E+01 -0.33008654215E+02  0.54367108592E+02  0.40000055656E+02 0.  0.
         12    1    3    3    0    0  0.16198031626E+02  0.19571822707E+01  0.33008654215E+02  0.36820891408E+02  0.00000000000E+00 0. -1.
         11    1    4    4    0    0 -0.69928230500E+01 -0.12540684817E+02  0.20464416385E+01  0.14503664141E+02  0.51100000000E-03 0. -1.
        -11    1    4    4    0    0 -0.29329632545E+01 -0.19959544991E+01 -0.14730197861E+02  0.15151397199E+02  0.51100000000E-03 0.  1.
         12    1    4    4    0    0 -0.62722453215E+01  0.12579457045E+02 -0.20324897993E+02  0.24712047251E+02  0.00000000000E+00 0. -1.
</event>
<event>
 8    1  0.3146747E-007  0.9118800E+02  0.7816164E-02  0.1184000E+00
        -11   -1    0    0    0    0  0.00000000000E+00  0.00000000000E+00  0.45593999997E+02  0.45594000000E+02  0.51100000000E-03 0. -1.
         11   -1    0    0    0    0 -0.00000000000E+00 -0.00000000000E+00 -0.45593999997E+02  0.45594000000E+02  0.51100000000E-03 0.  1.
         23    2    1    2    0    0  0.00000000000E+00  0.00000000000E+00  0.00000000000E+00  0.91188000000E+02  0.91188000000E+02 0.  0.
    9900012    2    3    3    0    0 -0.38256252410E+01  0.24915322395E+02 -0.26839730653E+02  0.54367084204E+02  0.40000000059E+02 0.  0.
         12    1    3    3    0    0  0.38256252410E+01 -0.24915322395E+02  0.26839730653E+02  0.36820915796E+02  0.00000000000E+00 0. -1.
         11    1    4    4    0    0 -0.68693057651E+01 -0.88513432372E+01 -0.45746145510E+01  0.12102096403E+02  0.51100000000E-03 0. -1.
        -11    1    4    4    0    0 -0.21512016184E+01  0.25855382717E+01 -0.55942664832E+01  0.65275182346E+01  0.51100000000E-03 0.  1.
        -12    1    4    4    0    0  0.51948821425E+01  0.31181127361E+02 -0.16670849619E+02  0.35737469566E+02  0.00000000000E+00 0.  1.
</event>
<event>
 8    1  0.3146747E-007  0.9118800E+02  0.7816164E-02  0.1184000E+00
        -11   -1    0    0    0    0  0.00000000000E+00  0.00000000000E+00  0.45593999997E+02  0.45594000000E+02  0.51100000000E-03 0.  1.
         11   -1    0    0    0    0 -0.00000000000E+00 -0.00000000000E+00 -0.45593999997E+02  0.45594000000E+02  0.51100000000E-03 0. -1.
         23    2    1    2    0    0  0.35527136788E-14 -0.71054273576E-14  0.00000000000E+00  0.91188000000E+02  0.91188000000E+02 0.  0.
    9900012    2    3    3    0    0 -0.16318239044E+02  0.32280269304E+02 -0.68904942156E+01  0.54367087160E+02  0.40000006799E+02 0.  0.
        -12    1    3    3    0    0  0.16318239044E+02 -0.32280269304E+02  0.68904942156E+01  0.36820912840E+02  0.00000000000E+00 0.  1.
         11    1    4    4    0    0 -0.97382891175E+01  0.32611262560E+01 -0.34573671641E+01  0.10836171250E+02  0.51100000000E-03 0. -1.
        -11    1    4    4    0    0  0.21433209732E+01 -0.28492315432E+01  0.78459674605E+01  0.86180711782E+01  0.51100000000E-03 0.  1.
         12    1    4    4    0    0 -0.87232709001E+01  0.31868374591E+02 -0.11279094512E+02  0.34912844732E+02  0.00000000000E+00 0. -1.
</event>
<event>
 8    1  0.3146747E-007  0.9118800E+02  0.7816164E-02  0.1184000E+00
        -11   -1    0    0    0    0  0.00000000000E+00  0.00000000000E+00  0.45593999997E+02  0.45594000000E+02  0.51100000000E-03 0.  1.
         11   -1    0    0    0    0 -0.00000000000E+00 -0.00000000000E+00 -0.45593999997E+02  0.45594000000E+02  0.51100000000E-03 0. -1.
         23    2    1    2    0    0 -0.17763568394E-14  0.00000000000E+00  0.17763568394E-14  0.91188000000E+02  0.91188000000E+02 0.  0.
    9900012    2    3    3    0    0 -0.68785409731E+01  0.34141337843E+02 -0.11951318282E+02  0.54367091751E+02  0.40000017264E+02 0.  0.
        -12    1    3    3    0    0  0.68785409731E+01 -0.34141337843E+02  0.11951318282E+02  0.36820908249E+02  0.00000000000E+00 0.  1.
         11    1    4    4    0    0  0.12388018019E+02  0.68205084211E+01 -0.99674309031E+01  0.17301213964E+02  0.51100000000E-03 0. -1.
        -11    1    4    4    0    0 -0.29808493876E+01  0.10717578495E+01  0.44989152744E+01  0.55022147238E+01  0.51100000000E-03 0.  1.
         12    1    4    4    0    0 -0.16285709604E+02  0.26249071572E+02 -0.64828026528E+01  0.31563663063E+02  0.00000000000E+00 0. -1.
</event>
<event>
 8    1  0.3146747E-007  0.9118800E+02  0.7816164E-02  0.1184000E+00
        -11   -1    0    0    0    0  0.00000000000E+00  0.00000000000E+00  0.45593999997E+02  0.45594000000E+02  0.51100000000E-03 0.  1.
         11   -1    0    0    0    0 -0.00000000000E+00 -0.00000000000E+00 -0.45593999997E+02  0.45594000000E+02  0.51100000000E-03 0. -1.
         23    2    1    2    0    0 -0.88817841970E-15  0.00000000000E+00 -0.35527136788E-14  0.91188000000E+02  0.91188000000E+02 0.  0.
    9900012    2    3    3    0    0 -0.58325477486E+01  0.32547015558E+02  0.16200384253E+02  0.54367091743E+02  0.40000017246E+02 0.  0.
        -12    1    3    3    0    0  0.58325477486E+01 -0.32547015558E+02 -0.16200384253E+02  0.36820908257E+02  0.00000000000E+00 0.  1.
         11    1    4    4    0    0  0.14818168598E+02  0.10278874973E+02  0.37746159746E+01  0.18425013360E+02  0.51100000000E-03 0. -1.
        -11    1    4    4    0    0 -0.77921930696E+01 -0.20461881559E+00  0.21489984733E+01  0.80856871317E+01  0.51100000000E-03 0.  1.
         12    1    4    4    0    0 -0.12858523277E+02  0.22472759400E+02  0.10276769805E+02  0.27856391251E+02  0.00000000000E+00 0. -1.
</event>
<event>
 8    1  0.3146747E-007  0.9118800E+02  0.7816164E-02  0.1184000E+00
        -11   -1    0    0    0    0  0.00000000000E+00  0.00000000000E+00  0.45593999997E+02  0.45594000000E+02  0.51100000000E-03 0.  1.
         11   -1    0    0    0    0 -0.00000000000E+00 -0.00000000000E+00 -0.45593999997E+02  0.45594000000E+02  0.51100000000E-03 0. -1.
         23    2    1    2    0    0  0.00000000000E+00  0.13322676296E-14 -0.17763568394E-14  0.91188000000E+02  0.91188000000E+02 0.  0.
    9900012    2    3    3    0    0 -0.33729171101E+02 -0.19374350475E+00  0.14767664025E+02  0.54367103481E+02  0.40000044005E+02 0.  0.
         12    1    3    3    0    0  0.33729171101E+02  0.19374350475E+00 -0.14767664025E+02  0.36820896519E+02  0.00000000000E+00 0. -1.
         11    1    4    4    0    0  0.32277606633E+00 -0.47449140431E+01 -0.52766733244E+01  0.71036381735E+01  0.51100000000E-03 0. -1.
        -11    1    4    4    0    0 -0.14735412456E+01 -0.31223611855E+01 -0.45624421730E+01  0.57215681433E+01  0.51100000000E-03 0.  1.
         12    1    4    4    0    0 -0.32578405922E+02  0.76735317239E+01  0.24606779522E+02  0.41541897164E+02  0.00000000000E+00 0. -1.
</event>
<event>
 8    1  0.3146747E-007  0.9118800E+02  0.7816164E-02  0.1184000E+00
        -11   -1    0    0    0    0  0.00000000000E+00  0.00000000000E+00  0.45593999997E+02  0.45594000000E+02  0.51100000000E-03 0.  1.
         11   -1    0    0    0    0 -0.00000000000E+00 -0.00000000000E+00 -0.45593999997E+02  0.45594000000E+02  0.51100000000E-03 0. -1.
         23    2    1    2    0    0 -0.88817841970E-15  0.00000000000E+00  0.00000000000E+00  0.91188000000E+02  0.91188000000E+02 0.  0.
    9900012    2    3    3    0    0  0.58333072831E+01 -0.31975481016E+02 -0.17300917448E+02  0.54367073822E+02  0.39999976391E+02 0.  0.
        -12    1    3    3    0    0 -0.58333072831E+01  0.31975481016E+02  0.17300917448E+02  0.36820926178E+02  0.00000000000E+00 0.  1.
         11    1    4    4    0    0  0.12693073324E+02 -0.37563681201E+01 -0.20371199270E+01  0.13393067972E+02  0.51100000000E-03 0. -1.
        -11    1    4    4    0    0 -0.13463766417E+02 -0.59065771882E+01 -0.48607246021E+01  0.15485067134E+02  0.51100000000E-03 0.  1.
         12    1    4    4    0    0  0.66040003768E+01 -0.22312535708E+02 -0.10403072919E+02  0.25488938716E+02  0.00000000000E+00 0. -1.
</event>
<event>
 8    1  0.3146747E-007  0.9118800E+02  0.7816164E-02  0.1184000E+00
        -11   -1    0    0    0    0  0.00000000000E+00  0.00000000000E+00  0.45593999997E+02  0.45594000000E+02  0.51100000000E-03 0.  1.
         11   -1    0    0    0    0 -0.00000000000E+00 -0.00000000000E+00 -0.45593999997E+02  0.45594000000E+02  0.51100000000E-03 0. -1.
         23    2    1    2    0    0  0.00000000000E+00 -0.35527136788E-14  0.00000000000E+00  0.91188000000E+02  0.91188000000E+02 0.  0.
    9900012    2    3    3    0    0 -0.24271934847E+02 -0.17037753279E+02 -0.21825832900E+02  0.54367097786E+02  0.40000031024E+02 0.  0.
        -12    1    3    3    0    0  0.24271934847E+02  0.17037753279E+02  0.21825832900E+02  0.36820902214E+02  0.00000000000E+00 0.  1.
         11    1    4    4    0    0 -0.17582587303E+02 -0.19580562668E+02 -0.17898393454E+02  0.31826063206E+02  0.51100000000E-03 0. -1.
        -11    1    4    4    0    0 -0.14325601254E+02  0.20189980293E+01 -0.16841367919E+01  0.14564872856E+02  0.51100000000E-03 0.  1.
         12    1    4    4    0    0  0.76362537096E+01  0.52381135950E+00 -0.22433026542E+01  0.79761617246E+01  0.00000000000E+00 0. -1.
</event>
<event>
 8    1  0.3146747E-007  0.9118800E+02  0.7816164E-02  0.1184000E+00
        -11   -1    0    0    0    0  0.00000000000E+00  0.00000000000E+00  0.45593999997E+02  0.45594000000E+02  0.51100000000E-03 0. -1.
         11   -1    0    0    0    0 -0.00000000000E+00 -0.00000000000E+00 -0.45593999997E+02  0.45594000000E+02  0.51100000000E-03 0.  1.
         23    2    1    2    0    0  0.35527136788E-14  0.44408920985E-15 -0.35527136788E-14  0.91188000000E+02  0.91188000000E+02 0.  0.
    9900012    2    3    3    0    0 -0.18184420310E+02 -0.31001585229E+01  0.31866858706E+02  0.54367071051E+02  0.39999970075E+02 0.  0.
        -12    1    3    3    0    0  0.18184420310E+02  0.31001585229E+01 -0.31866858706E+02  0.36820928949E+02  0.00000000000E+00 0.  1.
         11    1    4    4    0    0  0.53627031301E+01 -0.77511519733E+01  0.68860551131E+01  0.11672904397E+02  0.51100000000E-03 0. -1.
        -11    1    4    4    0    0 -0.79959824009E+01  0.13846436172E+02  0.15594780104E+02  0.22335100089E+02  0.51100000000E-03 0.  1.
        -12    1    4    4    0    0 -0.15551141039E+02 -0.91954427216E+01  0.93860234889E+01  0.20359066565E+02  0.00000000000E+00 0.  1.
</event>
<event>
 8    1  0.3146747E-007  0.9118800E+02  0.7816164E-02  0.1184000E+00
        -11   -1    0    0    0    0  0.00000000000E+00  0.00000000000E+00  0.45593999997E+02  0.45594000000E+02  0.51100000000E-03 0.  1.
         11   -1    0    0    0    0 -0.00000000000E+00 -0.00000000000E+00 -0.45593999997E+02  0.45594000000E+02  0.51100000000E-03 0. -1.
         23    2    1    2    0    0  0.17763568394E-14  0.35527136788E-14  0.00000000000E+00  0.91188000000E+02  0.91188000000E+02 0.  0.
    9900012    2    3    3    0    0  0.92801474105E+01  0.14836047646E+02 -0.32396805403E+02  0.54367048817E+02  0.39999919387E+02 0.  0.
        -12    1    3    3    0    0 -0.92801474105E+01 -0.14836047646E+02  0.32396805403E+02  0.36820951183E+02  0.00000000000E+00 0.  1.
         11    1    4    4    0    0  0.99343561338E+01  0.19406334116E+02 -0.16736457518E+02  0.27484654739E+02  0.51100000000E-03 0. -1.
        -11    1    4    4    0    0 -0.86837050040E+01  0.43172867022E+01 -0.53331409873E+01  0.11067433764E+02  0.51100000000E-03 0.  1.
         12    1    4    4    0    0  0.80294962806E+01 -0.88875731721E+01 -0.10327206897E+02  0.15814960313E+02  0.00000000000E+00 0. -1.
</event>
<event>
 8    1  0.3146747E-007  0.9118800E+02  0.7816164E-02  0.1184000E+00
        -11   -1    0    0    0    0  0.00000000000E+00  0.00000000000E+00  0.45593999997E+02  0.45594000000E+02  0.51100000000E-03 0. -1.
         11   -1    0    0    0    0 -0.00000000000E+00 -0.00000000000E+00 -0.45593999997E+02  0.45594000000E+02  0.51100000000E-03 0.  1.
         23    2    1    2    0    0  0.00000000000E+00  0.17763568394E-14 -0.35527136788E-14  0.91188000000E+02  0.91188000000E+02 0.  0.
    9900012    2    3    3    0    0  0.18375698137E+02 -0.90399599638E+01 -0.30600503755E+02  0.54367109350E+02  0.40000057386E+02 0.  0.
         12    1    3    3    0    0 -0.18375698137E+02  0.90399599638E+01  0.30600503755E+02  0.36820890650E+02  0.00000000000E+00 0. -1.
         11    1    4    4    0    0  0.52714512742E+01 -0.71867969125E+01 -0.13436573229E+02  0.16123887521E+02  0.51100000000E-03 0. -1.
        -11    1    4    4    0    0  0.14246733270E+02 -0.11468038382E+02 -0.20983022673E+02  0.27834736462E+02  0.51100000000E-03 0.  1.
         12    1    4    4    0    0 -0.11424864066E+01  0.96148753302E+01  0.38190921468E+01  0.10408485367E+02  0.00000000000E+00 0. -1.
</event>
<event>
 8    1  0.3146747E-007  0.9118800E+02  0.7816164E-02  0.1184000E+00
        -11   -1    0    0    0    0  0.00000000000E+00  0.00000000000E+00  0.45593999997E+02  0.45594000000E+02  0.51100000000E-03 0. -1.
         11   -1    0    0    0    0 -0.00000000000E+00 -0.00000000000E+00 -0.45593999997E+02  0.45594000000E+02  0.51100000000E-03 0.  1.
         23    2    1    2    0    0 -0.17763568394E-14  0.71054273576E-14  0.35527136788E-14  0.91188000000E+02  0.91188000000E+02 0.  0.
    9900012    2    3    3    0    0  0.15954790739E+02 -0.31190078983E+02 -0.11331488178E+02  0.54367095627E+02  0.40000026101E+02 0.  0.
         12    1    3    3    0    0 -0.15954790739E+02  0.31190078983E+02  0.11331488178E+02  0.36820904373E+02  0.00000000000E+00 0. -1.
         11    1    4    4    0    0 -0.38122560197E-01 -0.17213648203E+02  0.16562306198E+01  0.17293184724E+02  0.51100000000E-03 0. -1.
        -11    1    4    4    0    0  0.67346330651E+01 -0.81392596507E+01 -0.21001549208E+02  0.23508889799E+02  0.51100000000E-03 0.  1.
        -12    1    4    4    0    0  0.92582802342E+01 -0.58371711296E+01  0.80138304108E+01  0.13565021104E+02  0.00000000000E+00 0.  1.
</event>
<event>
 8    1  0.3146747E-007  0.9118800E+02  0.7816164E-02  0.1184000E+00
        -11   -1    0    0    0    0  0.00000000000E+00  0.00000000000E+00  0.45593999997E+02  0.45594000000E+02  0.51100000000E-03 0. -1.
         11   -1    0    0    0    0 -0.00000000000E+00 -0.00000000000E+00 -0.45593999997E+02  0.45594000000E+02  0.51100000000E-03 0.  1.
         23    2    1    2    0    0 -0.71054273576E-14 -0.17763568394E-14  0.00000000000E+00  0.91188000000E+02  0.91188000000E+02 0.  0.
    9900012    2    3    3    0    0  0.32729358347E+02 -0.14059990811E+02 -0.93212311083E+01  0.54367087616E+02  0.40000007839E+02 0.  0.
         12    1    3    3    0    0 -0.32729358347E+02  0.14059990811E+02  0.93212311083E+01  0.36820912384E+02  0.00000000000E+00 0. -1.
         11    1    4    4    0    0  0.10123939308E+02 -0.10052681803E+02  0.34057403629E+01  0.14667979623E+02  0.51100000000E-03 0. -1.
        -11    1    4    4    0    0  0.10970809401E+02 -0.15269268067E+02  0.47344040549E+00  0.18807800304E+02  0.51100000000E-03 0.  1.
         12    1    4    4    0    0  0.11634609638E+02  0.11261959059E+02 -0.13200411877E+02  0.20891307689E+02  0.00000000000E+00 0. -1.
</event>
<event>
 8    1  0.3146747E-007  0.9118800E+02  0.7816164E-02  0.1184000E+00
        -11   -1    0    0    0    0  0.00000000000E+00  0.00000000000E+00  0.45593999997E+02  0.45594000000E+02  0.51100000000E-03 0. -1.
         11   -1    0    0    0    0 -0.00000000000E+00 -0.00000000000E+00 -0.45593999997E+02  0.45594000000E+02  0.51100000000E-03 0.  1.
         23    2    1    2    0    0 -0.71054273576E-14  0.00000000000E+00 -0.17763568394E-14  0.91188000000E+02  0.91188000000E+02 0.  0.
    9900012    2    3    3    0    0 -0.33278699794E+02 -0.12356094384E+02  0.97792710204E+01  0.54367094659E+02  0.40000023895E+02 0.  0.
        -12    1    3    3    0    0  0.33278699794E+02  0.12356094384E+02 -0.97792710204E+01  0.36820905341E+02  0.00000000000E+00 0.  1.
         11    1    4    4    0    0 -0.80603139208E+00 -0.51642979137E+01  0.40881485850E+01  0.66357078492E+01  0.51100000000E-03 0. -1.
        -11    1    4    4    0    0 -0.22419073698E+02 -0.48177573492E+00 -0.12664582367E+02  0.25753419581E+02  0.51100000000E-03 0.  1.
         12    1    4    4    0    0 -0.10053594704E+02 -0.67100207355E+01  0.18355704802E+02  0.21977967229E+02  0.00000000000E+00 0. -1.
</event>
<event>
 8    1  0.3146747E-007  0.9118800E+02  0.7816164E-02  0.1184000E+00
        -11   -1    0    0    0    0  0.00000000000E+00  0.00000000000E+00  0.45593999997E+02  0.45594000000E+02  0.51100000000E-03 0.  1.
         11   -1    0    0    0    0 -0.00000000000E+00 -0.00000000000E+00 -0.45593999997E+02  0.45594000000E+02  0.51100000000E-03 0. -1.
         23    2    1    2    0    0  0.35527136788E-14  0.00000000000E+00  0.35527136788E-14  0.91188000000E+02  0.91188000000E+02 0.  0.
    9900012    2    3    3    0    0  0.23686325099E+02  0.12554631857E+02 -0.25241219040E+02  0.54367083168E+02  0.39999997698E+02 0.  0.
         12    1    3    3    0    0 -0.23686325099E+02 -0.12554631857E+02  0.25241219040E+02  0.36820916832E+02  0.00000000000E+00 0. -1.
         11    1    4    4    0    0  0.10968512995E+01  0.55364517000E+01 -0.24708786433E+02  0.25345206794E+02  0.51100000000E-03 0. -1.
        -11    1    4    4    0    0  0.21569696059E+02  0.86879571486E+01 -0.53160752116E+01  0.23853575066E+02  0.51100000000E-03 0.  1.
         12    1    4    4    0    0  0.10197777404E+01 -0.16697769914E+01  0.47836426047E+01  0.51683013080E+01  0.00000000000E+00 0. -1.
</event>
<event>
 8    1  0.3146747E-007  0.9118800E+02  0.7816164E-02  0.1184000E+00
        -11   -1    0    0    0    0  0.00000000000E+00  0.00000000000E+00  0.45593999997E+02  0.45594000000E+02  0.51100000000E-03 0. -1.
         11   -1    0    0    0    0 -0.00000000000E+00 -0.00000000000E+00 -0.45593999997E+02  0.45594000000E+02  0.51100000000E-03 0.  1.
         23    2    1    2    0    0  0.35527136788E-14 -0.35527136788E-14  0.17763568394E-14  0.91188000000E+02  0.91188000000E+02 0.  0.
    9900012    2    3    3    0    0 -0.28363414408E+02  0.18324554389E+02 -0.14680113021E+02  0.54367105270E+02  0.40000048084E+02 0.  0.
        -12    1    3    3    0    0  0.28363414408E+02 -0.18324554389E+02  0.14680113021E+02  0.36820894730E+02  0.00000000000E+00 0.  1.
         11    1    4    4    0    0 -0.32799172583E+01 -0.60320196698E+01 -0.43843578964E+01  0.81465153865E+01  0.51100000000E-03 0. -1.
        -11    1    4    4    0    0  0.22080642344E+01  0.12193853926E+02 -0.10649413869E+02  0.16339389133E+02  0.51100000000E-03 0.  1.
         12    1    4    4    0    0 -0.27291561384E+02  0.12162720132E+02  0.35365874428E+00  0.29881200750E+02  0.00000000000E+00 0. -1.
</event>
<event>
 8    1  0.3146747E-007  0.9118800E+02  0.7816164E-02  0.1184000E+00
        -11   -1    0    0    0    0  0.00000000000E+00  0.00000000000E+00  0.45593999997E+02  0.45594000000E+02  0.51100000000E-03 0.  1.
         11   -1    0    0    0    0 -0.00000000000E+00 -0.00000000000E+00 -0.45593999997E+02  0.45594000000E+02  0.51100000000E-03 0. -1.
         23    2    1    2    0    0  0.00000000000E+00  0.00000000000E+00  0.00000000000E+00  0.91188000000E+02  0.91188000000E+02 0.  0.
    9900012    2    3    3    0    0  0.82759863253E+01 -0.19766276170E+02 -0.29942976920E+02  0.54367088955E+02  0.40000010892E+02 0.  0.
        -12    1    3    3    0    0 -0.82759863253E+01  0.19766276170E+02  0.29942976920E+02  0.36820911045E+02  0.00000000000E+00 0.  1.
         11    1    4    4    0    0 -0.17668898423E+01  0.43628002096E+01  0.24701138543E+01  0.53157678748E+01  0.51100000000E-03 0. -1.
        -11    1    4    4    0    0  0.82979826002E+01 -0.20717625014E+02 -0.70562041272E+01  0.23406548622E+02  0.51100000000E-03 0.  1.
         12    1    4    4    0    0  0.17448935674E+01 -0.34114513657E+01 -0.25356886648E+02  0.25644772458E+02  0.00000000000E+00 0. -1.
</event>
<event>
 8    1  0.3146747E-007  0.9118800E+02  0.7816164E-02  0.1184000E+00
        -11   -1    0    0    0    0  0.00000000000E+00  0.00000000000E+00  0.45593999997E+02  0.45594000000E+02  0.51100000000E-03 0. -1.
         11   -1    0    0    0    0 -0.00000000000E+00 -0.00000000000E+00 -0.45593999997E+02  0.45594000000E+02  0.51100000000E-03 0.  1.
         23    2    1    2    0    0  0.00000000000E+00  0.35527136788E-14 -0.35527136788E-14  0.91188000000E+02  0.91188000000E+02 0.  0.
    9900012    2    3    3    0    0 -0.92083666144E+01  0.19370477764E+02 -0.29929422071E+02  0.54367085698E+02  0.40000003467E+02 0.  0.
         12    1    3    3    0    0  0.92083666144E+01 -0.19370477764E+02  0.29929422071E+02  0.36820914302E+02  0.00000000000E+00 0. -1.
         11    1    4    4    0    0 -0.13045293051E+01  0.30839538114E+01 -0.28249229452E+02  0.28446995144E+02  0.51100000000E-03 0. -1.
        -11    1    4    4    0    0  0.10435777930E+01  0.92243214169E+01 -0.85421618044E+01  0.12615295826E+02  0.51100000000E-03 0.  1.
        -12    1    4    4    0    0 -0.89474151022E+01  0.70622025357E+01  0.68619691859E+01  0.13304794729E+02  0.00000000000E+00 0.  1.
</event>
<event>
 8    1  0.3146747E-007  0.9118800E+02  0.7816164E-02  0.1184000E+00
        -11   -1    0    0    0    0  0.00000000000E+00  0.00000000000E+00  0.45593999997E+02  0.45594000000E+02  0.51100000000E-03 0.  1.
         11   -1    0    0    0    0 -0.00000000000E+00 -0.00000000000E+00 -0.45593999997E+02  0.45594000000E+02  0.51100000000E-03 0. -1.
         23    2    1    2    0    0  0.17763568394E-14  0.00000000000E+00  0.00000000000E+00  0.91188000000E+02  0.91188000000E+02 0.  0.
    9900012    2    3    3    0    0  0.80403968282E+01 -0.34392680354E+02  0.10405594087E+02  0.54367070742E+02  0.39999969371E+02 0.  0.
        -12    1    3    3    0    0 -0.80403968282E+01  0.34392680354E+02 -0.10405594087E+02  0.36820929258E+02  0.00000000000E+00 0.  1.
         11    1    4    4    0    0  0.11532262541E+00 -0.29917020128E+02  0.87869638388E+01  0.31180957754E+02  0.51100000000E-03 0. -1.
        -11    1    4    4    0    0 -0.57704987830E+01  0.39934215813E+01  0.79515610420E+00  0.70624603094E+01  0.51100000000E-03 0.  1.
        -12    1    4    4    0    0  0.13695572986E+02 -0.84690818070E+01  0.82347414407E+00  0.16123652679E+02  0.00000000000E+00 0.  1.
</event>
<event>
 8    1  0.3146747E-007  0.9118800E+02  0.7816164E-02  0.1184000E+00
        -11   -1    0    0    0    0  0.00000000000E+00  0.00000000000E+00  0.45593999997E+02  0.45594000000E+02  0.51100000000E-03 0. -1.
         11   -1    0    0    0    0 -0.00000000000E+00 -0.00000000000E+00 -0.45593999997E+02  0.45594000000E+02  0.51100000000E-03 0.  1.
         23    2    1    2    0    0 -0.17763568394E-14  0.26645352591E-14  0.71054273576E-14  0.91188000000E+02  0.91188000000E+02 0.  0.
    9900012    2    3    3    0    0  0.82310668764E+01 -0.29491447672E+01 -0.35767738823E+02  0.54367094833E+02  0.40000024291E+02 0.  0.
         12    1    3    3    0    0 -0.82310668764E+01  0.29491447672E+01  0.35767738823E+02  0.36820905167E+02  0.00000000000E+00 0. -1.
         11    1    4    4    0    0 -0.25020112844E+01 -0.18150586179E+02 -0.23343835715E+02  0.29675554000E+02  0.51100000000E-03 0. -1.
        -11    1    4    4    0    0  0.36921068521E+01  0.13576710190E+02 -0.74633349116E+01  0.15926709668E+02  0.51100000000E-03 0.  1.
        -12    1    4    4    0    0  0.70409713086E+01  0.16247312214E+01 -0.49605681969E+01  0.87648311648E+01  0.00000000000E+00 0.  1.
</event>
<event>
 8    1  0.3146747E-007  0.9118800E+02  0.7816164E-02  0.1184000E+00
        -11   -1    0    0    0    0  0.00000000000E+00  0.00000000000E+00  0.45593999997E+02  0.45594000000E+02  0.51100000000E-03 0. -1.
         11   -1    0    0    0    0 -0.00000000000E+00 -0.00000000000E+00 -0.45593999997E+02  0.45594000000E+02  0.51100000000E-03 0.  1.
         23    2    1    2    0    0  0.00000000000E+00  0.44408920985E-15 -0.35527136788E-14  0.91188000000E+02  0.91188000000E+02 0.  0.
    9900012    2    3    3    0    0  0.28364868462E+02  0.27767954128E+01 -0.23313173467E+02  0.54367076427E+02  0.39999982331E+02 0.  0.
         12    1    3    3    0    0 -0.28364868462E+02 -0.27767954128E+01  0.23313173467E+02  0.36820923573E+02  0.00000000000E+00 0. -1.
         11    1    4    4    0    0  0.21681922997E+02  0.13777374777E+01  0.11779188246E+01  0.21757560489E+02  0.51100000000E-03 0. -1.
        -11    1    4    4    0    0 -0.24661652215E+01 -0.63561208112E+01 -0.19746929993E+01  0.70980036185E+01  0.51100000000E-03 0.  1.
        -12    1    4    4    0    0  0.91491106868E+01  0.77551787463E+01 -0.22516399292E+02  0.25511512320E+02  0.00000000000E+00 0.  1.
</event>
<event>
 8    1  0.3146747E-007  0.9118800E+02  0.7816164E-02  0.1184000E+00
        -11   -1    0    0    0    0  0.00000000000E+00  0.00000000000E+00  0.45593999997E+02  0.45594000000E+02  0.51100000000E-03 0.  1.
         11   -1    0    0    0    0 -0.00000000000E+00 -0.00000000000E+00 -0.45593999997E+02  0.45594000000E+02  0.51100000000E-03 0. -1.
         23    2    1    2    0    0  0.00000000000E+00  0.00000000000E+00  0.00000000000E+00  0.91188000000E+02  0.91188000000E+02 0.  0.
    9900012    2    3    3    0    0 -0.32819428439E+02  0.14934159741E+02  0.74587847051E+01  0.54367116259E+02  0.40000073136E+02 0.  0.
        -12    1    3    3    0    0  0.32819428439E+02 -0.14934159741E+02 -0.74587847051E+01  0.36820883741E+02  0.00000000000E+00 0.  1.
         11    1    4    4    0    0  0.82774775769E+01 -0.19196916266E+01  0.41635325136E+01  0.94623915703E+01  0.51100000000E-03 0. -1.
        -11    1    4    4    0    0 -0.39635413639E+01  0.22933809632E+01  0.20020684172E+01  0.49977529545E+01  0.51100000000E-03 0.  1.
         12    1    4    4    0    0 -0.37133364652E+02  0.14560470404E+02  0.12931837743E+01  0.39906971734E+02  0.00000000000E+00 0. -1.
</event>
<event>
 8    1  0.3146747E-007  0.9118800E+02  0.7816164E-02  0.1184000E+00
        -11   -1    0    0    0    0  0.00000000000E+00  0.00000000000E+00  0.45593999997E+02  0.45594000000E+02  0.51100000000E-03 0.  1.
         11   -1    0    0    0    0 -0.00000000000E+00 -0.00000000000E+00 -0.45593999997E+02  0.45594000000E+02  0.51100000000E-03 0. -1.
         23    2    1    2    0    0  0.35527136788E-14  0.35527136788E-14  0.00000000000E+00  0.91188000000E+02  0.91188000000E+02 0.  0.
    9900012    2    3    3    0    0 -0.17189252939E+02  0.16657905959E+02 -0.27978972367E+02  0.54367093679E+02  0.40000021661E+02 0.  0.
        -12    1    3    3    0    0  0.17189252939E+02 -0.16657905959E+02  0.27978972367E+02  0.36820906321E+02  0.00000000000E+00 0.  1.
         11    1    4    4    0    0 -0.32293242622E+01  0.21924734866E+02 -0.82209413630E+01  0.23636971280E+02  0.51100000000E-03 0. -1.
        -11    1    4    4    0    0  0.36497381931E+01  0.23466556784E+01 -0.32657835751E+01  0.54307204284E+01  0.51100000000E-03 0.  1.
        -12    1    4    4    0    0 -0.17609666870E+02 -0.76134845855E+01 -0.16492247429E+02  0.25299401971E+02  0.00000000000E+00 0.  1.
</event>
<event>
 8    1  0.3146747E-007  0.9118800E+02  0.7816164E-02  0.1184000E+00
        -11   -1    0    0    0    0  0.00000000000E+00  0.00000000000E+00  0.45593999997E+02  0.45594000000E+02  0.51100000000E-03 0.  1.
         11   -1    0    0    0    0 -0.00000000000E+00 -0.00000000000E+00 -0.45593999997E+02  0.45594000000E+02  0.51100000000E-03 0. -1.
         23    2    1    2    0    0  0.00000000000E+00  0.00000000000E+00  0.00000000000E+00  0.91188000000E+02  0.91188000000E+02 0.  0.
    9900012    2    3    3    0    0 -0.29603054098E+02  0.16297214259E+02 -0.14623262540E+02  0.54367084587E+02  0.40000000933E+02 0.  0.
        -12    1    3    3    0    0  0.29603054098E+02 -0.16297214259E+02  0.14623262540E+02  0.36820915413E+02  0.00000000000E+00 0.  1.
         11    1    4    4    0    0  0.46066716868E+01 -0.49527898473E+01  0.12396416998E+01  0.68766462107E+01  0.51100000000E-03 0.  1.
        -11    1    4    4    0    0 -0.24428375950E+02  0.15855009652E+02 -0.13199086743E+01  0.29152513472E+02  0.51100000000E-03 0. -1.
        -12    1    4    4    0    0 -0.97813498356E+01  0.53949944545E+01 -0.14542995565E+02  0.18337924904E+02  0.00000000000E+00 0.  1.
</event>
<event>
 8    1  0.3146747E-007  0.9118800E+02  0.7816164E-02  0.1184000E+00
        -11   -1    0    0    0    0  0.00000000000E+00  0.00000000000E+00  0.45593999997E+02  0.45594000000E+02  0.51100000000E-03 0. -1.
         11   -1    0    0    0    0 -0.00000000000E+00 -0.00000000000E+00 -0.45593999997E+02  0.45594000000E+02  0.51100000000E-03 0.  1.
         23    2    1    2    0    0 -0.35527136788E-14 -0.17763568394E-14  0.00000000000E+00  0.91188000000E+02  0.91188000000E+02 0.  0.
    9900012    2    3    3    0    0  0.25178136852E+02  0.13945731224E+02 -0.22964360096E+02  0.54367030033E+02  0.39999876566E+02 0.  0.
         12    1    3    3    0    0 -0.25178136852E+02 -0.13945731224E+02  0.22964360096E+02  0.36820969967E+02  0.00000000000E+00 0. -1.
         11    1    4    4    0    0 -0.37791656110E+01 -0.83938259714E+01 -0.66302933903E+01  0.11344566887E+02  0.51100000000E-03 0. -1.
        -11    1    4    4    0    0  0.30387788616E+02  0.21727473344E+02 -0.17324397467E+02  0.41178095424E+02  0.51100000000E-03 0.  1.
        -12    1    4    4    0    0 -0.14304861534E+01  0.61208385153E+00  0.99033076131E+00  0.18443677218E+01  0.00000000000E+00 0.  1.
</event>
<event>
 8    1  0.3146747E-007  0.9118800E+02  0.7816164E-02  0.1184000E+00
        -11   -1    0    0    0    0  0.00000000000E+00  0.00000000000E+00  0.45593999997E+02  0.45594000000E+02  0.51100000000E-03 0.  1.
         11   -1    0    0    0    0 -0.00000000000E+00 -0.00000000000E+00 -0.45593999997E+02  0.45594000000E+02  0.51100000000E-03 0. -1.
         23    2    1    2    0    0 -0.17763568394E-14  0.71054273576E-14  0.00000000000E+00  0.91188000000E+02  0.91188000000E+02 0.  0.
    9900012    2    3    3    0    0 -0.13508027729E+02  0.21616448709E+02 -0.26571462647E+02  0.54367078025E+02  0.39999985973E+02 0.  0.
        -12    1    3    3    0    0  0.13508027729E+02 -0.21616448709E+02  0.26571462647E+02  0.36820921975E+02  0.00000000000E+00 0.  1.
         11    1    4    4    0    0 -0.95354002219E+01  0.48108426690E+01 -0.27043896967E+02  0.29076458312E+02  0.51100000000E-03 0. -1.
        -11    1    4    4    0    0  0.66144658843E+01  0.11814658111E+02 -0.46860797982E+00  0.13548317198E+02  0.51100000000E-03 0.  1.
        -12    1    4    4    0    0 -0.10587093392E+02  0.49909479295E+01  0.94104229970E+00  0.11742302514E+02  0.00000000000E+00 0.  1.
</event>
<event>
 8    1  0.3146747E-007  0.9118800E+02  0.7816164E-02  0.1184000E+00
        -11   -1    0    0    0    0  0.00000000000E+00  0.00000000000E+00  0.45593999997E+02  0.45594000000E+02  0.51100000000E-03 0. -1.
         11   -1    0    0    0    0 -0.00000000000E+00 -0.00000000000E+00 -0.45593999997E+02  0.45594000000E+02  0.51100000000E-03 0.  1.
         23    2    1    2    0    0  0.44408920985E-15  0.00000000000E+00  0.00000000000E+00  0.91188000000E+02  0.91188000000E+02 0.  0.
    9900012    2    3    3    0    0 -0.36874778705E+01 -0.16213642062E+02  0.32852703439E+02  0.54367084677E+02  0.40000001138E+02 0.  0.
        -12    1    3    3    0    0  0.36874778705E+01  0.16213642062E+02 -0.32852703439E+02  0.36820915323E+02  0.00000000000E+00 0.  1.
         11    1    4    4    0    0 -0.12929020066E+02 -0.15358778790E+02  0.20403579351E+02  0.28624424823E+02  0.51100000000E-03 0. -1.
        -11    1    4    4    0    0  0.14269315183E+02 -0.58686731764E+01  0.83369918788E+01  0.17537391896E+02  0.51100000000E-03 0.  1.
         12    1    4    4    0    0 -0.50277729874E+01  0.50138099046E+01  0.41121322089E+01  0.82052679588E+01  0.00000000000E+00 0. -1.
</event>
<event>
 8    1  0.3146747E-007  0.9118800E+02  0.7816164E-02  0.1184000E+00
        -11   -1    0    0    0    0  0.00000000000E+00  0.00000000000E+00  0.45593999997E+02  0.45594000000E+02  0.51100000000E-03 0. -1.
         11   -1    0    0    0    0 -0.00000000000E+00 -0.00000000000E+00 -0.45593999997E+02  0.45594000000E+02  0.51100000000E-03 0.  1.
         23    2    1    2    0    0 -0.44408920985E-15  0.00000000000E+00 -0.13322676296E-14  0.91188000000E+02  0.91188000000E+02 0.  0.
    9900012    2    3    3    0    0  0.29403077336E+01 -0.36684764517E+02 -0.11670758311E+01  0.54367089864E+02  0.40000012964E+02 0.  0.
        -12    1    3    3    0    0 -0.29403077336E+01  0.36684764517E+02  0.11670758311E+01  0.36820910136E+02  0.00000000000E+00 0.  1.
         11    1    4    4    0    0 -0.36191254535E+01 -0.15026559975E+02  0.15715633336E+02  0.22042611124E+02  0.51100000000E-03 0. -1.
        -11    1    4    4    0    0 -0.10556148536E+00 -0.37229821705E+00 -0.84806784402E+01  0.84895027096E+01  0.51100000000E-03 0.  1.
         12    1    4    4    0    0  0.66649946725E+01 -0.21285906325E+02 -0.84020307273E+01  0.23834976031E+02  0.00000000000E+00 0. -1.
</event>
<event>
 8    1  0.3146747E-007  0.9118800E+02  0.7816164E-02  0.1184000E+00
        -11   -1    0    0    0    0  0.00000000000E+00  0.00000000000E+00  0.45593999997E+02  0.45594000000E+02  0.51100000000E-03 0. -1.
         11   -1    0    0    0    0 -0.00000000000E+00 -0.00000000000E+00 -0.45593999997E+02  0.45594000000E+02  0.51100000000E-03 0.  1.
         23    2    1    2    0    0 -0.35527136788E-14  0.17763568394E-14  0.00000000000E+00  0.91188000000E+02  0.91188000000E+02 0.  0.
    9900012    2    3    3    0    0 -0.20040274900E+02 -0.88966708303E+01 -0.29580707048E+02  0.54367060313E+02  0.39999945596E+02 0.  0.
         12    1    3    3    0    0  0.20040274900E+02  0.88966708303E+01  0.29580707048E+02  0.36820939687E+02  0.00000000000E+00 0. -1.
         11    1    4    4    0    0 -0.34005294068E+01 -0.39087659103E+01  0.35683718252E+01  0.62908925386E+01  0.51100000000E-03 0. -1.
        -11    1    4    4    0    0  0.45745042338E+01 -0.11556271898E+02 -0.95770787592E+01  0.15690568727E+02  0.51100000000E-03 0.  1.
         12    1    4    4    0    0 -0.21214249727E+02  0.65683669782E+01 -0.23572000114E+02  0.32385599047E+02  0.00000000000E+00 0. -1.
</event>
<event>
 8    1  0.3146747E-007  0.9118800E+02  0.7816164E-02  0.1184000E+00
        -11   -1    0    0    0    0  0.00000000000E+00  0.00000000000E+00  0.45593999997E+02  0.45594000000E+02  0.51100000000E-03 0.  1.
         11   -1    0    0    0    0 -0.00000000000E+00 -0.00000000000E+00 -0.45593999997E+02  0.45594000000E+02  0.51100000000E-03 0. -1.
         23    2    1    2    0    0 -0.17763568394E-14  0.00000000000E+00  0.00000000000E+00  0.91188000000E+02  0.91188000000E+02 0.  0.
    9900012    2    3    3    0    0 -0.13739929495E+02 -0.23745816226E+02  0.24558685558E+02  0.54367102576E+02  0.40000041942E+02 0.  0.
         12    1    3    3    0    0  0.13739929495E+02  0.23745816226E+02 -0.24558685558E+02  0.36820897424E+02  0.00000000000E+00 0. -1.
         11    1    4    4    0    0 -0.50558718070E+01 -0.19534708908E+01  0.11782817758E+02  0.12969683220E+02  0.51100000000E-03 0. -1.
        -11    1    4    4    0    0 -0.19698773281E+02 -0.73739031359E+01  0.47831154369E+01  0.21570681718E+02  0.51100000000E-03 0.  1.
        -12    1    4    4    0    0  0.11014715592E+02 -0.14418442199E+02  0.79927523631E+01  0.19826737638E+02  0.00000000000E+00 0.  1.
</event>
<event>
 8    1  0.3146747E-007  0.9118800E+02  0.7816164E-02  0.1184000E+00
        -11   -1    0    0    0    0  0.00000000000E+00  0.00000000000E+00  0.45593999997E+02  0.45594000000E+02  0.51100000000E-03 0.  1.
         11   -1    0    0    0    0 -0.00000000000E+00 -0.00000000000E+00 -0.45593999997E+02  0.45594000000E+02  0.51100000000E-03 0. -1.
         23    2    1    2    0    0  0.00000000000E+00  0.00000000000E+00  0.00000000000E+00  0.91188000000E+02  0.91188000000E+02 0.  0.
    9900012    2    3    3    0    0  0.20124080664E+02 -0.27069638944E+02  0.14766033620E+02  0.54367085780E+02  0.40000003653E+02 0.  0.
         12    1    3    3    0    0 -0.20124080664E+02  0.27069638944E+02 -0.14766033620E+02  0.36820914220E+02  0.00000000000E+00 0. -1.
         11    1    4    4    0    0  0.39359658615E+01  0.41884396255E+01 -0.19656588985E+01  0.60744274566E+01  0.51100000000E-03 0. -1.
        -11    1    4    4    0    0 -0.21928129129E+01 -0.74717899438E+01 -0.66255682205E+01  0.10224198156E+02  0.51100000000E-03 0.  1.
        -12    1    4    4    0    0  0.18380927715E+02 -0.23786288626E+02  0.23357260739E+02  0.38068460167E+02  0.00000000000E+00 0.  1.
</event>
<event>
 8    1  0.3146747E-007  0.9118800E+02  0.7816164E-02  0.1184000E+00
        -11   -1    0    0    0    0  0.00000000000E+00  0.00000000000E+00  0.45593999997E+02  0.45594000000E+02  0.51100000000E-03 0.  1.
         11   -1    0    0    0    0 -0.00000000000E+00 -0.00000000000E+00 -0.45593999997E+02  0.45594000000E+02  0.51100000000E-03 0. -1.
         23    2    1    2    0    0  0.00000000000E+00  0.00000000000E+00 -0.88817841970E-15  0.91188000000E+02  0.91188000000E+02 0.  0.
    9900012    2    3    3    0    0  0.14209610046E+02  0.33484601167E+02 -0.57139231183E+01  0.54367075916E+02  0.39999981166E+02 0.  0.
         12    1    3    3    0    0 -0.14209610046E+02 -0.33484601167E+02  0.57139231183E+01  0.36820924084E+02  0.00000000000E+00 0. -1.
         11    1    4    4    0    0  0.31447672827E+01  0.61513630541E+01 -0.19259006319E+02  0.20460648899E+02  0.51100000000E-03 0. -1.
        -11    1    4    4    0    0  0.20039778823E+01  0.34124286626E+01  0.60899532759E+01  0.72627906410E+01  0.51100000000E-03 0.  1.
        -12    1    4    4    0    0  0.90608648812E+01  0.23920809451E+02  0.74551299250E+01  0.26643636376E+02  0.00000000000E+00 0.  1.
</event>
<event>
 8    1  0.3146747E-007  0.9118800E+02  0.7816164E-02  0.1184000E+00
        -11   -1    0    0    0    0  0.00000000000E+00  0.00000000000E+00  0.45593999997E+02  0.45594000000E+02  0.51100000000E-03 0. -1.
         11   -1    0    0    0    0 -0.00000000000E+00 -0.00000000000E+00 -0.45593999997E+02  0.45594000000E+02  0.51100000000E-03 0.  1.
         23    2    1    2    0    0 -0.35527136788E-14  0.35527136788E-14  0.00000000000E+00  0.91188000000E+02  0.91188000000E+02 0.  0.
    9900012    2    3    3    0    0  0.28866342130E+02 -0.19410758601E+02  0.12072104522E+02  0.54367096087E+02  0.40000027148E+02 0.  0.
        -12    1    3    3    0    0 -0.28866342130E+02  0.19410758601E+02 -0.12072104522E+02  0.36820903913E+02  0.00000000000E+00 0.  1.
         11    1    4    4    0    0 -0.17828311474E+01  0.16347519586E+01 -0.10276796030E+01  0.26281222372E+01  0.51100000000E-03 0. -1.
        -11    1    4    4    0    0  0.35024669513E+02 -0.11678753568E+02  0.26126831030E+01  0.37012793364E+02  0.51100000000E-03 0.  1.
         12    1    4    4    0    0 -0.43754962352E+01 -0.93667569908E+01  0.10487101022E+02  0.14726180485E+02  0.00000000000E+00 0. -1.
</event>
<event>
 8    1  0.3146747E-007  0.9118800E+02  0.7816164E-02  0.1184000E+00
        -11   -1    0    0    0    0  0.00000000000E+00  0.00000000000E+00  0.45593999997E+02  0.45594000000E+02  0.51100000000E-03 0.  1.
         11   -1    0    0    0    0 -0.00000000000E+00 -0.00000000000E+00 -0.45593999997E+02  0.45594000000E+02  0.51100000000E-03 0. -1.
         23    2    1    2    0    0  0.00000000000E+00  0.00000000000E+00  0.35527136788E-14  0.91188000000E+02  0.91188000000E+02 0.  0.
    9900012    2    3    3    0    0  0.19895778029E+02  0.22177341365E+02 -0.21635703520E+02  0.54367080400E+02  0.39999991387E+02 0.  0.
        -12    1    3    3    0    0 -0.19895778029E+02 -0.22177341365E+02  0.21635703520E+02  0.36820919600E+02  0.00000000000E+00 0.  1.
         11    1    4    4    0    0  0.80674120962E+01 -0.30144670363E+00 -0.15996340596E+01  0.82299961987E+01  0.51100000000E-03 0. -1.
        -11    1    4    4    0    0  0.20627680439E+01  0.18542107059E+02  0.47119346670E+01  0.19242325087E+02  0.51100000000E-03 0.  1.
         12    1    4    4    0    0  0.97655978894E+01  0.39366810094E+01 -0.24748004127E+02  0.26894759114E+02  0.00000000000E+00 0. -1.
</event>
<event>
 8    1  0.3146747E-007  0.9118800E+02  0.7816164E-02  0.1184000E+00
        -11   -1    0    0    0    0  0.00000000000E+00  0.00000000000E+00  0.45593999997E+02  0.45594000000E+02  0.51100000000E-03 0.  1.
         11   -1    0    0    0    0 -0.00000000000E+00 -0.00000000000E+00 -0.45593999997E+02  0.45594000000E+02  0.51100000000E-03 0. -1.
         23    2    1    2    0    0 -0.15543122345E-14  0.00000000000E+00  0.35527136788E-14  0.91188000000E+02  0.91188000000E+02 0.  0.
    9900012    2    3    3    0    0  0.15162948227E+01  0.22687821269E+02  0.28961058328E+02  0.54367091763E+02  0.40000017292E+02 0.  0.
         12    1    3    3    0    0 -0.15162948227E+01 -0.22687821269E+02 -0.28961058328E+02  0.36820908237E+02  0.00000000000E+00 0. -1.
         11    1    4    4    0    0 -0.10683635469E+02  0.32760216506E+01  0.12366584731E+02  0.16667477400E+02  0.51100000000E-03 0. -1.
        -11    1    4    4    0    0  0.19125742860E+02  0.85205671038E+01  0.99138521846E+01  0.23166324031E+02  0.51100000000E-03 0.  1.
        -12    1    4    4    0    0 -0.69258125684E+01  0.10891232514E+02  0.66806214125E+01  0.14533290332E+02  0.00000000000E+00 0.  1.
</event>
<event>
 8    1  0.3146747E-007  0.9118800E+02  0.7816164E-02  0.1184000E+00
        -11   -1    0    0    0    0  0.00000000000E+00  0.00000000000E+00  0.45593999997E+02  0.45594000000E+02  0.51100000000E-03 0.  1.
         11   -1    0    0    0    0 -0.00000000000E+00 -0.00000000000E+00 -0.45593999997E+02  0.45594000000E+02  0.51100000000E-03 0. -1.
         23    2    1    2    0    0 -0.35527136788E-14  0.00000000000E+00  0.00000000000E+00  0.91188000000E+02  0.91188000000E+02 0.  0.
    9900012    2    3    3    0    0 -0.19644039067E+02  0.23836781439E+02 -0.20042435504E+02  0.54367086904E+02  0.40000006216E+02 0.  0.
        -12    1    3    3    0    0  0.19644039067E+02 -0.23836781439E+02  0.20042435504E+02  0.36820913096E+02  0.00000000000E+00 0.  1.
         11    1    4    4    0    0  0.92524208304E+01  0.16029066170E+01 -0.10129474678E+02  0.13812416818E+02  0.51100000000E-03 0. -1.
        -11    1    4    4    0    0 -0.13676291445E+02  0.16704448495E+02 -0.11179530282E+02  0.24311755280E+02  0.51100000000E-03 0.  1.
         12    1    4    4    0    0 -0.15220168452E+02  0.55294263272E+01  0.12665694549E+01  0.16242914806E+02  0.00000000000E+00 0. -1.
</event>
<event>
 8    1  0.3146747E-007  0.9118800E+02  0.7816164E-02  0.1184000E+00
        -11   -1    0    0    0    0  0.00000000000E+00  0.00000000000E+00  0.45593999997E+02  0.45594000000E+02  0.51100000000E-03 0.  1.
         11   -1    0    0    0    0 -0.00000000000E+00 -0.00000000000E+00 -0.45593999997E+02  0.45594000000E+02  0.51100000000E-03 0. -1.
         23    2    1    2    0    0 -0.35527136788E-14 -0.35527136788E-14  0.00000000000E+00  0.91188000000E+02  0.91188000000E+02 0.  0.
    9900012    2    3    3    0    0  0.21505300384E+02  0.14527193794E+02  0.26120233016E+02  0.54367029386E+02  0.39999875092E+02 0.  0.
        -12    1    3    3    0    0 -0.21505300384E+02 -0.14527193794E+02 -0.26120233016E+02  0.36820970614E+02  0.00000000000E+00 0.  1.
         11    1    4    4    0    0  0.16969837830E+02  0.15399445933E+02  0.11251614181E+02  0.25528751496E+02  0.51100000000E-03 0. -1.
        -11    1    4    4    0    0  0.11481214900E+02  0.71236373039E+01  0.51380459379E+01  0.14455587859E+02  0.51100000000E-03 0.  1.
        -12    1    4    4    0    0 -0.69457523461E+01 -0.79958894426E+01  0.97305728970E+01  0.14382690031E+02  0.00000000000E+00 0.  1.
</event>
<event>
 8    1  0.3146747E-007  0.9118800E+02  0.7816164E-02  0.1184000E+00
        -11   -1    0    0    0    0  0.00000000000E+00  0.00000000000E+00  0.45593999997E+02  0.45594000000E+02  0.51100000000E-03 0. -1.
         11   -1    0    0    0    0 -0.00000000000E+00 -0.00000000000E+00 -0.45593999997E+02  0.45594000000E+02  0.51100000000E-03 0.  1.
         23    2    1    2    0    0  0.17763568394E-14 -0.35527136788E-14  0.00000000000E+00  0.91188000000E+02  0.91188000000E+02 0.  0.
    9900012    2    3    3    0    0  0.11980231276E+02  0.22334685564E+02  0.26709737347E+02  0.54367160930E+02  0.40000174972E+02 0.  0.
        -12    1    3    3    0    0 -0.11980231276E+02 -0.22334685564E+02 -0.26709737347E+02  0.36820839070E+02  0.00000000000E+00 0.  1.
         11    1    4    4    0    0  0.12967850150E+02  0.53190565111E+01  0.12715313360E+02  0.18924499829E+02  0.51100000000E-03 0. -1.
        -11    1    4    4    0    0  0.45479922706E+01 -0.96564639747E+00 -0.62603802499E+01  0.77980169141E+01  0.51100000000E-03 0.  1.
         12    1    4    4    0    0 -0.55356111445E+01  0.17981275451E+02  0.20254804236E+02  0.27644644187E+02  0.00000000000E+00 0. -1.
</event>
<event>
 8    1  0.3146747E-007  0.9118800E+02  0.7816164E-02  0.1184000E+00
        -11   -1    0    0    0    0  0.00000000000E+00  0.00000000000E+00  0.45593999997E+02  0.45594000000E+02  0.51100000000E-03 0.  1.
         11   -1    0    0    0    0 -0.00000000000E+00 -0.00000000000E+00 -0.45593999997E+02  0.45594000000E+02  0.51100000000E-03 0. -1.
         23    2    1    2    0    0  0.19984014443E-14 -0.71054273576E-14  0.44408920985E-15  0.91188000000E+02  0.91188000000E+02 0.  0.
    9900012    2    3    3    0    0 -0.19826732805E+01 -0.36686483213E+02 -0.24394635592E+01  0.54367081674E+02  0.39999994293E+02 0.  0.
        -12    1    3    3    0    0  0.19826732805E+01  0.36686483213E+02  0.24394635592E+01  0.36820918326E+02  0.00000000000E+00 0.  1.
         11    1    4    4    0    0 -0.19161886409E+02 -0.17519332778E+02  0.35501584749E+01  0.26205124255E+02  0.51100000000E-03 0. -1.
        -11    1    4    4    0    0  0.61817886671E+01 -0.13015831692E+01  0.95948966179E-01  0.63180563733E+01  0.51100000000E-03 0.  1.
         12    1    4    4    0    0  0.10997424462E+02 -0.17865567266E+02 -0.60855710003E+01  0.21843901046E+02  0.00000000000E+00 0. -1.
</event>
<event>
 8    1  0.3146747E-007  0.9118800E+02  0.7816164E-02  0.1184000E+00
        -11   -1    0    0    0    0  0.00000000000E+00  0.00000000000E+00  0.45593999997E+02  0.45594000000E+02  0.51100000000E-03 0. -1.
         11   -1    0    0    0    0 -0.00000000000E+00 -0.00000000000E+00 -0.45593999997E+02  0.45594000000E+02  0.51100000000E-03 0.  1.
         23    2    1    2    0    0 -0.35527136788E-14 -0.35527136788E-14  0.00000000000E+00  0.91188000000E+02  0.91188000000E+02 0.  0.
    9900012    2    3    3    0    0 -0.21104475992E+02 -0.26243008481E+02  0.14889104296E+02  0.54367084371E+02  0.40000000439E+02 0.  0.
        -12    1    3    3    0    0  0.21104475992E+02  0.26243008481E+02 -0.14889104296E+02  0.36820915629E+02  0.00000000000E+00 0.  1.
         11    1    4    4    0    0 -0.66798748734E+01 -0.15068128188E+02  0.11209495543E+02  0.19932937717E+02  0.51100000000E-03 0. -1.
        -11    1    4    4    0    0 -0.54817777270E+00 -0.17651656269E+01 -0.11602290680E+02  0.11748593867E+02  0.51100000000E-03 0.  1.
         12    1    4    4    0    0 -0.13876423346E+02 -0.94097146663E+01  0.15281899433E+02  0.22685552787E+02  0.00000000000E+00 0. -1.
</event>
<event>
 8    1  0.3146747E-007  0.9118800E+02  0.7816164E-02  0.1184000E+00
        -11   -1    0    0    0    0  0.00000000000E+00  0.00000000000E+00  0.45593999997E+02  0.45594000000E+02  0.51100000000E-03 0. -1.
         11   -1    0    0    0    0 -0.00000000000E+00 -0.00000000000E+00 -0.45593999997E+02  0.45594000000E+02  0.51100000000E-03 0.  1.
         23    2    1    2    0    0  0.35527136788E-14  0.17763568394E-14  0.35527136788E-14  0.91188000000E+02  0.91188000000E+02 0.  0.
    9900012    2    3    3    0    0  0.22537157466E+02 -0.15070709315E+02 -0.24914496477E+02  0.54367056495E+02  0.39999936892E+02 0.  0.
         12    1    3    3    0    0 -0.22537157466E+02  0.15070709315E+02  0.24914496477E+02  0.36820943505E+02  0.00000000000E+00 0. -1.
         11    1    4    4    0    0 -0.45251339356E+01 -0.33513040445E+01 -0.18492921158E+02  0.19331223685E+02  0.51100000000E-03 0.  1.
        -11    1    4    4    0    0  0.59044765639E+01 -0.15493842554E+01 -0.95693452946E+01  0.11350586095E+02  0.51100000000E-03 0. -1.
         12    1    4    4    0    0  0.21157814838E+02 -0.10170021015E+02  0.31477699758E+01  0.23685246716E+02  0.00000000000E+00 0. -1.
</event>
<event>
 8    1  0.3146747E-007  0.9118800E+02  0.7816164E-02  0.1184000E+00
        -11   -1    0    0    0    0  0.00000000000E+00  0.00000000000E+00  0.45593999997E+02  0.45594000000E+02  0.51100000000E-03 0. -1.
         11   -1    0    0    0    0 -0.00000000000E+00 -0.00000000000E+00 -0.45593999997E+02  0.45594000000E+02  0.51100000000E-03 0.  1.
         23    2    1    2    0    0 -0.35527136788E-14  0.17763568394E-14  0.00000000000E+00  0.91188000000E+02  0.91188000000E+02 0.  0.
    9900012    2    3    3    0    0  0.21056239470E+02 -0.15498469018E+02 -0.25927071121E+02  0.54367071448E+02  0.39999970980E+02 0.  0.
         12    1    3    3    0    0 -0.21056239470E+02  0.15498469018E+02  0.25927071121E+02  0.36820928552E+02  0.00000000000E+00 0. -1.
         11    1    4    4    0    0  0.20916879861E+02 -0.53146292085E+01 -0.18991296804E+02  0.28747704279E+02  0.51100000000E-03 0. -1.
        -11    1    4    4    0    0  0.26700485371E+01 -0.16439461381E+02 -0.84908601599E+01  0.18694377663E+02  0.51100000000E-03 0.  1.
        -12    1    4    4    0    0 -0.25306889282E+01  0.62556215710E+01  0.15550858428E+01  0.69249895068E+01  0.00000000000E+00 0.  1.
</event>
<event>
 8    1  0.3146747E-007  0.9118800E+02  0.7816164E-02  0.1184000E+00
        -11   -1    0    0    0    0  0.00000000000E+00  0.00000000000E+00  0.45593999997E+02  0.45594000000E+02  0.51100000000E-03 0. -1.
         11   -1    0    0    0    0 -0.00000000000E+00 -0.00000000000E+00 -0.45593999997E+02  0.45594000000E+02  0.51100000000E-03 0.  1.
         23    2    1    2    0    0  0.00000000000E+00  0.00000000000E+00  0.66613381478E-15  0.91188000000E+02  0.91188000000E+02 0.  0.
    9900012    2    3    3    0    0 -0.33872050297E+02 -0.14358546502E+02 -0.15153358811E+01  0.54367083502E+02  0.39999998459E+02 0.  0.
        -12    1    3    3    0    0  0.33872050297E+02  0.14358546502E+02  0.15153358811E+01  0.36820916498E+02  0.00000000000E+00 0.  1.
         11    1    4    4    0    0 -0.14269433081E+02 -0.58486257963E+01  0.38459630864E+01  0.15893853418E+02  0.51100000000E-03 0. -1.
        -11    1    4    4    0    0 -0.25350347883E+02 -0.91138311241E+01 -0.12154761689E+02  0.29554023204E+02  0.51100000000E-03 0.  1.
         12    1    4    4    0    0  0.57477306674E+01  0.60391041843E+00  0.67934627214E+01  0.89192068798E+01  0.00000000000E+00 0. -1.
</event>
<event>
 8    1  0.3146747E-007  0.9118800E+02  0.7816164E-02  0.1184000E+00
        -11   -1    0    0    0    0  0.00000000000E+00  0.00000000000E+00  0.45593999997E+02  0.45594000000E+02  0.51100000000E-03 0.  1.
         11   -1    0    0    0    0 -0.00000000000E+00 -0.00000000000E+00 -0.45593999997E+02  0.45594000000E+02  0.51100000000E-03 0. -1.
         23    2    1    2    0    0 -0.35527136788E-14  0.00000000000E+00  0.88817841970E-15  0.91188000000E+02  0.91188000000E+02 0.  0.
    9900012    2    3    3    0    0  0.26812151518E+02  0.24528259366E+02  0.59373226257E+01  0.54367098647E+02  0.40000032985E+02 0.  0.
         12    1    3    3    0    0 -0.26812151518E+02 -0.24528259366E+02 -0.59373226257E+01  0.36820901353E+02  0.00000000000E+00 0. -1.
         11    1    4    4    0    0  0.11662324058E+02  0.44220293636E+01  0.15766044979E+01  0.12571786991E+02  0.51100000000E-03 0. -1.
        -11    1    4    4    0    0  0.22685892101E+02  0.99276127320E+01 -0.59457392086E+01  0.25466821749E+02  0.51100000000E-03 0.  1.
        -12    1    4    4    0    0 -0.75360646420E+01  0.10178617270E+02  0.10306457336E+02  0.16328489907E+02  0.00000000000E+00 0.  1.
</event>
<event>
 8    1  0.3146747E-007  0.9118800E+02  0.7816164E-02  0.1184000E+00
        -11   -1    0    0    0    0  0.00000000000E+00  0.00000000000E+00  0.45593999997E+02  0.45594000000E+02  0.51100000000E-03 0. -1.
         11   -1    0    0    0    0 -0.00000000000E+00 -0.00000000000E+00 -0.45593999997E+02  0.45594000000E+02  0.51100000000E-03 0.  1.
         23    2    1    2    0    0  0.00000000000E+00  0.71054273576E-14  0.88817841970E-15  0.91188000000E+02  0.91188000000E+02 0.  0.
    9900012    2    3    3    0    0 -0.73431245743E+00 -0.36079157815E+02  0.73166980424E+01  0.54367096784E+02  0.40000028738E+02 0.  0.
         12    1    3    3    0    0  0.73431245743E+00  0.36079157815E+02 -0.73166980424E+01  0.36820903216E+02  0.00000000000E+00 0. -1.
         11    1    4    4    0    0 -0.11394219880E+01 -0.34278003030E+02  0.12219656925E+02  0.36408787261E+02  0.51100000000E-03 0. -1.
        -11    1    4    4    0    0 -0.71113805746E+00  0.73656412713E+01  0.20988818659E+00  0.74028671464E+01  0.51100000000E-03 0.  1.
         12    1    4    4    0    0  0.11162475880E+01 -0.91667960561E+01 -0.51128470692E+01  0.10555442377E+02  0.00000000000E+00 0. -1.
</event>
<event>
 8    1  0.3146747E-007  0.9118800E+02  0.7816164E-02  0.1184000E+00
        -11   -1    0    0    0    0  0.00000000000E+00  0.00000000000E+00  0.45593999997E+02  0.45594000000E+02  0.51100000000E-03 0.  1.
         11   -1    0    0    0    0 -0.00000000000E+00 -0.00000000000E+00 -0.45593999997E+02  0.45594000000E+02  0.51100000000E-03 0. -1.
         23    2    1    2    0    0  0.00000000000E+00  0.35527136788E-14  0.00000000000E+00  0.91188000000E+02  0.91188000000E+02 0.  0.
    9900012    2    3    3    0    0  0.16565320409E+02  0.19961394462E+02  0.26132610581E+02  0.54367075991E+02  0.39999981337E+02 0.  0.
        -12    1    3    3    0    0 -0.16565320409E+02 -0.19961394462E+02 -0.26132610581E+02  0.36820924009E+02  0.00000000000E+00 0.  1.
         11    1    4    4    0    0 -0.51074465624E+01  0.14630867425E+01 -0.28245847212E+01  0.60170517957E+01  0.51100000000E-03 0. -1.
        -11    1    4    4    0    0 -0.19858269517E+01  0.23410410994E+01  0.17050984686E+02  0.17325128027E+02  0.51100000000E-03 0.  1.
        -12    1    4    4    0    0  0.23658593923E+02  0.16157266620E+02  0.11906210616E+02  0.31024896168E+02  0.00000000000E+00 0.  1.
</event>
<event>
 8    1  0.3146747E-007  0.9118800E+02  0.7816164E-02  0.1184000E+00
        -11   -1    0    0    0    0  0.00000000000E+00  0.00000000000E+00  0.45593999997E+02  0.45594000000E+02  0.51100000000E-03 0.  1.
         11   -1    0    0    0    0 -0.00000000000E+00 -0.00000000000E+00 -0.45593999997E+02  0.45594000000E+02  0.51100000000E-03 0. -1.
         23    2    1    2    0    0 -0.17763568394E-14 -0.35527136788E-14 -0.35527136788E-14  0.91188000000E+02  0.91188000000E+02 0.  0.
    9900012    2    3    3    0    0 -0.90287452445E+01  0.16783735345E+02 -0.31505032357E+02  0.54367094570E+02  0.40000023692E+02 0.  0.
        -12    1    3    3    0    0  0.90287452445E+01 -0.16783735345E+02  0.31505032357E+02  0.36820905430E+02  0.00000000000E+00 0.  1.
         11    1    4    4    0    0 -0.19534857591E+02  0.16993715752E+02 -0.91890121224E+01  0.27474260321E+02  0.51100000000E-03 0. -1.
        -11    1    4    4    0    0 -0.88788855731E+00 -0.91315972815E+00 -0.10073685558E+02  0.10153883383E+02  0.51100000000E-03 0.  1.
        -12    1    4    4    0    0  0.11394000903E+02  0.70317932105E+00 -0.12242334677E+02  0.16738950866E+02  0.00000000000E+00 0.  1.
</event>
<event>
 8    1  0.3146747E-007  0.9118800E+02  0.7816164E-02  0.1184000E+00
        -11   -1    0    0    0    0  0.00000000000E+00  0.00000000000E+00  0.45593999997E+02  0.45594000000E+02  0.51100000000E-03 0.  1.
         11   -1    0    0    0    0 -0.00000000000E+00 -0.00000000000E+00 -0.45593999997E+02  0.45594000000E+02  0.51100000000E-03 0. -1.
         23    2    1    2    0    0  0.00000000000E+00  0.35527136788E-14  0.00000000000E+00  0.91188000000E+02  0.91188000000E+02 0.  0.
    9900012    2    3    3    0    0  0.40402837343E+01 -0.21957041378E+02  0.29280462044E+02  0.54367068233E+02  0.39999963650E+02 0.  0.
         12    1    3    3    0    0 -0.40402837343E+01  0.21957041378E+02 -0.29280462044E+02  0.36820931767E+02  0.00000000000E+00 0. -1.
         11    1    4    4    0    0  0.48228131328E+01  0.34770478037E+01  0.17287003946E+02  0.18280861403E+02  0.51100000000E-03 0. -1.
        -11    1    4    4    0    0  0.27597346760E+00 -0.29518808344E+02  0.88299934238E+01  0.30812416191E+02  0.51100000000E-03 0.  1.
         12    1    4    4    0    0 -0.10585028660E+01  0.40847191627E+01  0.31634646742E+01  0.52737906387E+01  0.00000000000E+00 0. -1.
</event>
<event>
 8    1  0.3146747E-007  0.9118800E+02  0.7816164E-02  0.1184000E+00
        -11   -1    0    0    0    0  0.00000000000E+00  0.00000000000E+00  0.45593999997E+02  0.45594000000E+02  0.51100000000E-03 0.  1.
         11   -1    0    0    0    0 -0.00000000000E+00 -0.00000000000E+00 -0.45593999997E+02  0.45594000000E+02  0.51100000000E-03 0. -1.
         23    2    1    2    0    0  0.35527136788E-14 -0.44408920985E-15  0.00000000000E+00  0.91188000000E+02  0.91188000000E+02 0.  0.
    9900012    2    3    3    0    0 -0.23871160913E+02 -0.34662192981E+01  0.27819652769E+02  0.54367080949E+02  0.39999992640E+02 0.  0.
         12    1    3    3    0    0  0.23871160913E+02  0.34662192981E+01 -0.27819652769E+02  0.36820919051E+02  0.00000000000E+00 0. -1.
         11    1    4    4    0    0 -0.64774234534E+01  0.91039815632E+01  0.13661076952E+01  0.11256364662E+02  0.51100000000E-03 0. -1.
        -11    1    4    4    0    0 -0.21096071294E+02 -0.43990414907E+01  0.87392877607E+01  0.23254482168E+02  0.51100000000E-03 0.  1.
         12    1    4    4    0    0  0.37023338342E+01 -0.81711593707E+01  0.17714257313E+02  0.19856234120E+02  0.00000000000E+00 0. -1.
</event>
<event>
 8    1  0.3146747E-007  0.9118800E+02  0.7816164E-02  0.1184000E+00
        -11   -1    0    0    0    0  0.00000000000E+00  0.00000000000E+00  0.45593999997E+02  0.45594000000E+02  0.51100000000E-03 0. -1.
         11   -1    0    0    0    0 -0.00000000000E+00 -0.00000000000E+00 -0.45593999997E+02  0.45594000000E+02  0.51100000000E-03 0.  1.
         23    2    1    2    0    0  0.00000000000E+00  0.00000000000E+00  0.71054273576E-14  0.91188000000E+02  0.91188000000E+02 0.  0.
    9900012    2    3    3    0    0 -0.45308483814E+01  0.19258221118E+02  0.31054343036E+02  0.54367083539E+02  0.39999998543E+02 0.  0.
        -12    1    3    3    0    0  0.45308483814E+01 -0.19258221118E+02 -0.31054343036E+02  0.36820916461E+02  0.00000000000E+00 0.  1.
         11    1    4    4    0    0  0.53026849765E+01  0.47390399302E+01 -0.34979806599E+01  0.79254549635E+01  0.51100000000E-03 0. -1.
        -11    1    4    4    0    0  0.89865186783E+00  0.27218358634E+01 -0.38843914408E+01  0.48274696036E+01  0.51100000000E-03 0.  1.
         12    1    4    4    0    0 -0.10732185226E+02  0.11797345324E+02  0.38436715136E+02  0.41614158971E+02  0.00000000000E+00 0. -1.
</event>
<event>
 8    1  0.3146747E-007  0.9118800E+02  0.7816164E-02  0.1184000E+00
        -11   -1    0    0    0    0  0.00000000000E+00  0.00000000000E+00  0.45593999997E+02  0.45594000000E+02  0.51100000000E-03 0. -1.
         11   -1    0    0    0    0 -0.00000000000E+00 -0.00000000000E+00 -0.45593999997E+02  0.45594000000E+02  0.51100000000E-03 0.  1.
         23    2    1    2    0    0  0.00000000000E+00  0.00000000000E+00  0.00000000000E+00  0.91188000000E+02  0.91188000000E+02 0.  0.
    9900012    2    3    3    0    0 -0.11249702864E+02 -0.89225566991E+01 -0.33905942445E+02  0.54367071636E+02  0.39999971408E+02 0.  0.
         12    1    3    3    0    0  0.11249702864E+02  0.89225566991E+01  0.33905942445E+02  0.36820928364E+02  0.00000000000E+00 0. -1.
         11    1    4    4    0    0 -0.15737265914E+02 -0.29866472458E+01  0.15148349992E+00  0.16018880977E+02  0.51100000000E-03 0. -1.
        -11    1    4    4    0    0  0.25011674952E+01  0.11147524285E+01  0.70070783484E+00  0.28265709874E+01  0.51100000000E-03 0.  1.
        -12    1    4    4    0    0  0.19863955555E+01 -0.70506618818E+01 -0.34758133779E+02  0.35521619672E+02  0.00000000000E+00 0.  1.
</event>
<event>
 8    1  0.3146747E-007  0.9118800E+02  0.7816164E-02  0.1184000E+00
        -11   -1    0    0    0    0  0.00000000000E+00  0.00000000000E+00  0.45593999997E+02  0.45594000000E+02  0.51100000000E-03 0.  1.
         11   -1    0    0    0    0 -0.00000000000E+00 -0.00000000000E+00 -0.45593999997E+02  0.45594000000E+02  0.51100000000E-03 0. -1.
         23    2    1    2    0    0  0.00000000000E+00  0.35527136788E-14  0.00000000000E+00  0.91188000000E+02  0.91188000000E+02 0.  0.
    9900012    2    3    3    0    0  0.26952393698E+02 -0.18516955404E+02  0.16925455773E+02  0.54367079090E+02  0.39999988402E+02 0.  0.
         12    1    3    3    0    0 -0.26952393698E+02  0.18516955404E+02 -0.16925455773E+02  0.36820920910E+02  0.00000000000E+00 0. -1.
         11    1    4    4    0    0  0.51559826444E+01 -0.30196288554E+01  0.32603736636E+01  0.68067872114E+01  0.51100000000E-03 0. -1.
        -11    1    4    4    0    0  0.22496454074E+02  0.16731920357E+01  0.19076911943E+02  0.29543503296E+02  0.51100000000E-03 0.  1.
         12    1    4    4    0    0 -0.70004302000E+00 -0.17170518584E+02 -0.54118298331E+01  0.18016788583E+02  0.00000000000E+00 0. -1.
</event>
<event>
 8    1  0.3146747E-007  0.9118800E+02  0.7816164E-02  0.1184000E+00
        -11   -1    0    0    0    0  0.00000000000E+00  0.00000000000E+00  0.45593999997E+02  0.45594000000E+02  0.51100000000E-03 0.  1.
         11   -1    0    0    0    0 -0.00000000000E+00 -0.00000000000E+00 -0.45593999997E+02  0.45594000000E+02  0.51100000000E-03 0. -1.
         23    2    1    2    0    0 -0.35527136788E-14  0.17763568394E-14  0.00000000000E+00  0.91188000000E+02  0.91188000000E+02 0.  0.
    9900012    2    3    3    0    0 -0.21747658471E+02 -0.15449292464E+02  0.25379880099E+02  0.54367087458E+02  0.40000007477E+02 0.  0.
         12    1    3    3    0    0  0.21747658471E+02  0.15449292464E+02 -0.25379880099E+02  0.36820912542E+02  0.00000000000E+00 0. -1.
         11    1    4    4    0    0 -0.26335623183E+02 -0.36741845164E+01  0.14390543230E+02  0.30234953531E+02  0.51100000000E-03 0. -1.
        -11    1    4    4    0    0  0.84570853626E+01 -0.70614463247E+01 -0.60256219899E+00  0.11034010988E+02  0.51100000000E-03 0.  1.
        -12    1    4    4    0    0 -0.38691206505E+01 -0.47136616233E+01  0.11591899068E+02  0.13098122938E+02  0.00000000000E+00 0.  1.
</event>
<event>
 8    1  0.3146747E-007  0.9118800E+02  0.7816164E-02  0.1184000E+00
        -11   -1    0    0    0    0  0.00000000000E+00  0.00000000000E+00  0.45593999997E+02  0.45594000000E+02  0.51100000000E-03 0. -1.
         11   -1    0    0    0    0 -0.00000000000E+00 -0.00000000000E+00 -0.45593999997E+02  0.45594000000E+02  0.51100000000E-03 0.  1.
         23    2    1    2    0    0  0.00000000000E+00  0.00000000000E+00  0.00000000000E+00  0.91188000000E+02  0.91188000000E+02 0.  0.
    9900012    2    3    3    0    0 -0.14199614108E+02 -0.93692300594E+01  0.32655306695E+02  0.54367074319E+02  0.39999977524E+02 0.  0.
        -12    1    3    3    0    0  0.14199614108E+02  0.93692300594E+01 -0.32655306695E+02  0.36820925681E+02  0.00000000000E+00 0.  1.
         11    1    4    4    0    0  0.12980351059E+01 -0.64397764028E+01  0.20464457182E+02  0.21493013359E+02  0.51100000000E-03 0. -1.
        -11    1    4    4    0    0 -0.28753277134E+01  0.10991832687E+02  0.21333022415E+01  0.11560228112E+02  0.51100000000E-03 0.  1.
        -12    1    4    4    0    0 -0.12622321500E+02 -0.13921286344E+02  0.10057547271E+02  0.21313832847E+02  0.00000000000E+00 0.  1.
</event>
<event>
 8    1  0.3146747E-007  0.9118800E+02  0.7816164E-02  0.1184000E+00
        -11   -1    0    0    0    0  0.00000000000E+00  0.00000000000E+00  0.45593999997E+02  0.45594000000E+02  0.51100000000E-03 0.  1.
         11   -1    0    0    0    0 -0.00000000000E+00 -0.00000000000E+00 -0.45593999997E+02  0.45594000000E+02  0.51100000000E-03 0. -1.
         23    2    1    2    0    0  0.17763568394E-14  0.00000000000E+00 -0.17763568394E-14  0.91188000000E+02  0.91188000000E+02 0.  0.
    9900012    2    3    3    0    0 -0.11113041737E+02 -0.31791204730E+02 -0.14886204652E+02  0.54367089043E+02  0.40000011090E+02 0.  0.
        -12    1    3    3    0    0  0.11113041737E+02  0.31791204730E+02  0.14886204652E+02  0.36820910957E+02  0.00000000000E+00 0.  1.
         11    1    4    4    0    0 -0.14477581876E+02 -0.96931772605E+01  0.50120578156E+01  0.18129500440E+02  0.51100000000E-03 0. -1.
        -11    1    4    4    0    0 -0.24705388399E+01 -0.56881179620E+00 -0.12473300433E+02  0.12728327972E+02  0.51100000000E-03 0.  1.
         12    1    4    4    0    0  0.58350789794E+01 -0.21529215673E+02 -0.74249620347E+01  0.23509260631E+02  0.00000000000E+00 0. -1.
</event>
<event>
 8    1  0.3146747E-007  0.9118800E+02  0.7816164E-02  0.1184000E+00
        -11   -1    0    0    0    0  0.00000000000E+00  0.00000000000E+00  0.45593999997E+02  0.45594000000E+02  0.51100000000E-03 0.  1.
         11   -1    0    0    0    0 -0.00000000000E+00 -0.00000000000E+00 -0.45593999997E+02  0.45594000000E+02  0.51100000000E-03 0. -1.
         23    2    1    2    0    0 -0.35527136788E-14  0.00000000000E+00  0.00000000000E+00  0.91188000000E+02  0.91188000000E+02 0.  0.
    9900012    2    3    3    0    0  0.31256458374E+02 -0.96467979943E+01 -0.16904231498E+02  0.54367082791E+02  0.39999996838E+02 0.  0.
        -12    1    3    3    0    0 -0.31256458374E+02  0.96467979943E+01  0.16904231498E+02  0.36820917209E+02  0.00000000000E+00 0.  1.
         11    1    4    4    0    0 -0.37507227688E+01 -0.91023548601E+00  0.89015477392E+01  0.97022678969E+01  0.51100000000E-03 0.  1.
        -11    1    4    4    0    0  0.33057900793E+02 -0.73910448972E+01 -0.25201245431E+02  0.42220316449E+02  0.51100000000E-03 0. -1.
        -12    1    4    4    0    0  0.19492803496E+01 -0.13455176111E+01 -0.60453380604E+00  0.24444984446E+01  0.00000000000E+00 0.  1.
</event>
<event>
 8    1  0.3146747E-007  0.9118800E+02  0.7816164E-02  0.1184000E+00
        -11   -1    0    0    0    0  0.00000000000E+00  0.00000000000E+00  0.45593999997E+02  0.45594000000E+02  0.51100000000E-03 0.  1.
         11   -1    0    0    0    0 -0.00000000000E+00 -0.00000000000E+00 -0.45593999997E+02  0.45594000000E+02  0.51100000000E-03 0. -1.
         23    2    1    2    0    0  0.00000000000E+00 -0.17763568394E-14  0.00000000000E+00  0.91188000000E+02  0.91188000000E+02 0.  0.
    9900012    2    3    3    0    0  0.33018626466E+02 -0.91313528960E+01  0.13496895152E+02  0.54367116277E+02  0.40000073177E+02 0.  0.
        -12    1    3    3    0    0 -0.33018626466E+02  0.91313528960E+01 -0.13496895152E+02  0.36820883723E+02  0.00000000000E+00 0.  1.
         11    1    4    4    0    0  0.66058934038E+01  0.90928464244E+01  0.62631113256E+01  0.12866399943E+02  0.51100000000E-03 0. -1.
        -11    1    4    4    0    0  0.14607233575E+02 -0.20706395045E+02  0.12597035889E+02  0.28298610955E+02  0.51100000000E-03 0.  1.
        -12    1    4    4    0    0  0.11805499487E+02  0.24821957250E+01 -0.53632520634E+01  0.13202105379E+02  0.00000000000E+00 0.  1.
</event>
<event>
 8    1  0.3146747E-007  0.9118800E+02  0.7816164E-02  0.1184000E+00
        -11   -1    0    0    0    0  0.00000000000E+00  0.00000000000E+00  0.45593999997E+02  0.45594000000E+02  0.51100000000E-03 0. -1.
         11   -1    0    0    0    0 -0.00000000000E+00 -0.00000000000E+00 -0.45593999997E+02  0.45594000000E+02  0.51100000000E-03 0.  1.
         23    2    1    2    0    0  0.00000000000E+00 -0.88817841970E-15  0.00000000000E+00  0.91188000000E+02  0.91188000000E+02 0.  0.
    9900012    2    3    3    0    0  0.71147728768E+01 -0.45421470493E+01 -0.35840350161E+02  0.54367057691E+02  0.39999939617E+02 0.  0.
         12    1    3    3    0    0 -0.71147728768E+01  0.45421470493E+01  0.35840350161E+02  0.36820942309E+02  0.00000000000E+00 0. -1.
         11    1    4    4    0    0 -0.40093324878E+01 -0.43507385128E+01 -0.33032400728E+02  0.33558056719E+02  0.51100000000E-03 0. -1.
        -11    1    4    4    0    0  0.37116469777E+01  0.20702082544E+01 -0.96034373478E+01  0.10501813875E+02  0.51100000000E-03 0.  1.
         12    1    4    4    0    0  0.74124583869E+01 -0.22616167909E+01  0.67954879153E+01  0.10307187097E+02  0.00000000000E+00 0. -1.
</event>
<event>
 8    1  0.3146747E-007  0.9118800E+02  0.7816164E-02  0.1184000E+00
        -11   -1    0    0    0    0  0.00000000000E+00  0.00000000000E+00  0.45593999997E+02  0.45594000000E+02  0.51100000000E-03 0. -1.
         11   -1    0    0    0    0 -0.00000000000E+00 -0.00000000000E+00 -0.45593999997E+02  0.45594000000E+02  0.51100000000E-03 0.  1.
         23    2    1    2    0    0  0.00000000000E+00  0.00000000000E+00  0.00000000000E+00  0.91188000000E+02  0.91188000000E+02 0.  0.
    9900012    2    3    3    0    0 -0.25329161374E+02  0.12451295427E+02  0.23646832896E+02  0.54367165141E+02  0.40000184571E+02 0.  0.
        -12    1    3    3    0    0  0.25329161374E+02 -0.12451295427E+02 -0.23646832896E+02  0.36820834859E+02  0.00000000000E+00 0.  1.
         11    1    4    4    0    0 -0.27418888785E+02  0.14542822041E+02  0.62816277662E+01  0.31666196215E+02  0.51100000000E-03 0. -1.
        -11    1    4    4    0    0  0.21076365282E+01  0.47032498990E+01  0.13858811797E+01  0.53369802560E+01  0.51100000000E-03 0.  1.
         12    1    4    4    0    0 -0.17909117410E-01 -0.67947765130E+01  0.15979323950E+02  0.17363988669E+02  0.00000000000E+00 0. -1.
</event>
<event>
 8    1  0.3146747E-007  0.9118800E+02  0.7816164E-02  0.1184000E+00
        -11   -1    0    0    0    0  0.00000000000E+00  0.00000000000E+00  0.45593999997E+02  0.45594000000E+02  0.51100000000E-03 0. -1.
         11   -1    0    0    0    0 -0.00000000000E+00 -0.00000000000E+00 -0.45593999997E+02  0.45594000000E+02  0.51100000000E-03 0.  1.
         23    2    1    2    0    0  0.00000000000E+00  0.00000000000E+00  0.00000000000E+00  0.91188000000E+02  0.91188000000E+02 0.  0.
    9900012    2    3    3    0    0  0.81984724344E+01 -0.99647167290E+01  0.34485816979E+02  0.54367053482E+02  0.39999930023E+02 0.  0.
        -12    1    3    3    0    0 -0.81984724344E+01  0.99647167290E+01 -0.34485816979E+02  0.36820946518E+02  0.00000000000E+00 0.  1.
         11    1    4    4    0    0  0.17337673110E+01 -0.14665588075E+02  0.36226923655E+01  0.15205568812E+02  0.51100000000E-03 0.  1.
        -11    1    4    4    0    0  0.14848096774E+02  0.29947941702E+01  0.16149295185E+02  0.22141239919E+02  0.51100000000E-03 0. -1.
         12    1    4    4    0    0 -0.83833916511E+01  0.17060771755E+01  0.14713829429E+02  0.17020244751E+02  0.00000000000E+00 0. -1.
</event>
<event>
 8    1  0.3146747E-007  0.9118800E+02  0.7816164E-02  0.1184000E+00
        -11   -1    0    0    0    0  0.00000000000E+00  0.00000000000E+00  0.45593999997E+02  0.45594000000E+02  0.51100000000E-03 0. -1.
         11   -1    0    0    0    0 -0.00000000000E+00 -0.00000000000E+00 -0.45593999997E+02  0.45594000000E+02  0.51100000000E-03 0.  1.
         23    2    1    2    0    0  0.00000000000E+00  0.00000000000E+00  0.00000000000E+00  0.91188000000E+02  0.91188000000E+02 0.  0.
    9900012    2    3    3    0    0  0.32055804453E+02  0.15774556893E+02 -0.89087660640E+01  0.54367117921E+02  0.40000076925E+02 0.  0.
         12    1    3    3    0    0 -0.32055804453E+02 -0.15774556893E+02  0.89087660640E+01  0.36820882079E+02  0.00000000000E+00 0. -1.
         11    1    4    4    0    0  0.73282216548E+01 -0.83380097922E+01  0.72279404717E+01  0.13246447208E+02  0.51100000000E-03 0. -1.
        -11    1    4    4    0    0  0.24450456538E+02  0.20712869404E+02 -0.18471564790E+02  0.36987112484E+02  0.51100000000E-03 0.  1.
        -12    1    4    4    0    0  0.27712625973E+00  0.33996972807E+01  0.23348582541E+01  0.41335582288E+01  0.00000000000E+00 0.  1.
</event>
<event>
 8    1  0.3146747E-007  0.9118800E+02  0.7816164E-02  0.1184000E+00
        -11   -1    0    0    0    0  0.00000000000E+00  0.00000000000E+00  0.45593999997E+02  0.45594000000E+02  0.51100000000E-03 0.  1.
         11   -1    0    0    0    0 -0.00000000000E+00 -0.00000000000E+00 -0.45593999997E+02  0.45594000000E+02  0.51100000000E-03 0. -1.
         23    2    1    2    0    0  0.00000000000E+00 -0.17763568394E-14 -0.17763568394E-14  0.91188000000E+02  0.91188000000E+02 0.  0.
    9900012    2    3    3    0    0 -0.33046633358E+02 -0.11312392592E+02  0.11650635970E+02  0.54366979903E+02  0.39999762284E+02 0.  0.
        -12    1    3    3    0    0  0.33046633358E+02  0.11312392592E+02 -0.11650635970E+02  0.36821020097E+02  0.00000000000E+00 0.  1.
         11    1    4    4    0    0  0.32097296398E+01  0.20911930774E+01  0.93965162139E+01  0.10147411989E+02  0.51100000000E-03 0. -1.
        -11    1    4    4    0    0 -0.24515415676E+02 -0.54196667030E+01  0.11142273424E+02  0.27468684902E+02  0.51100000000E-03 0.  1.
         12    1    4    4    0    0 -0.11740947322E+02 -0.79839189660E+01 -0.88881536671E+01  0.16750883012E+02  0.00000000000E+00 0. -1.
</event>
<event>
 8    1  0.3146747E-007  0.9118800E+02  0.7816164E-02  0.1184000E+00
        -11   -1    0    0    0    0  0.00000000000E+00  0.00000000000E+00  0.45593999997E+02  0.45594000000E+02  0.51100000000E-03 0. -1.
         11   -1    0    0    0    0 -0.00000000000E+00 -0.00000000000E+00 -0.45593999997E+02  0.45594000000E+02  0.51100000000E-03 0.  1.
         23    2    1    2    0    0  0.00000000000E+00  0.00000000000E+00 -0.17763568394E-14  0.91188000000E+02  0.91188000000E+02 0.  0.
    9900012    2    3    3    0    0 -0.25685978002E+02  0.22589001126E+02 -0.13628664077E+02  0.54367178142E+02  0.40000214209E+02 0.  0.
         12    1    3    3    0    0  0.25685978002E+02 -0.22589001126E+02  0.13628664077E+02  0.36820821858E+02  0.00000000000E+00 0. -1.
         11    1    4    4    0    0 -0.59311344381E+01  0.15454129217E+02 -0.14244039420E+01  0.16614373068E+02  0.51100000000E-03 0. -1.
        -11    1    4    4    0    0 -0.27360982657E+01  0.54749989332E+01  0.87680689003E+01  0.10693029484E+02  0.51100000000E-03 0.  1.
        -12    1    4    4    0    0 -0.17018745298E+02  0.16598729754E+01 -0.20972329036E+02  0.27059775590E+02  0.00000000000E+00 0.  1.
</event>
<event>
 8    1  0.3146747E-007  0.9118800E+02  0.7816164E-02  0.1184000E+00
        -11   -1    0    0    0    0  0.00000000000E+00  0.00000000000E+00  0.45593999997E+02  0.45594000000E+02  0.51100000000E-03 0.  1.
         11   -1    0    0    0    0 -0.00000000000E+00 -0.00000000000E+00 -0.45593999997E+02  0.45594000000E+02  0.51100000000E-03 0. -1.
         23    2    1    2    0    0 -0.35527136788E-14  0.44408920985E-15 -0.35527136788E-14  0.91188000000E+02  0.91188000000E+02 0.  0.
    9900012    2    3    3    0    0  0.26317949245E+02  0.28520199142E+01  0.25593191876E+02  0.54367082840E+02  0.39999996951E+02 0.  0.
         12    1    3    3    0    0 -0.26317949245E+02 -0.28520199142E+01 -0.25593191876E+02  0.36820917160E+02  0.00000000000E+00 0. -1.
         11    1    4    4    0    0  0.11233080442E+02 -0.84815924030E+01  0.20069644257E+02  0.24513468273E+02  0.51100000000E-03 0. -1.
        -11    1    4    4    0    0  0.11529433674E+02 -0.45293906573E+01  0.56063127448E+01  0.13596836523E+02  0.51100000000E-03 0.  1.
         12    1    4    4    0    0  0.35554351288E+01  0.15863002975E+02 -0.82765125568E-01  0.16256778045E+02  0.00000000000E+00 0. -1.
</event>
<event>
 8    1  0.3146747E-007  0.9118800E+02  0.7816164E-02  0.1184000E+00
        -11   -1    0    0    0    0  0.00000000000E+00  0.00000000000E+00  0.45593999997E+02  0.45594000000E+02  0.51100000000E-03 0.  1.
         11   -1    0    0    0    0 -0.00000000000E+00 -0.00000000000E+00 -0.45593999997E+02  0.45594000000E+02  0.51100000000E-03 0. -1.
         23    2    1    2    0    0  0.00000000000E+00  0.00000000000E+00  0.00000000000E+00  0.91188000000E+02  0.91188000000E+02 0.  0.
    9900012    2    3    3    0    0  0.35644953211E+02 -0.39439284544E+01 -0.83464372057E+01  0.54367078297E+02  0.39999986593E+02 0.  0.
        -12    1    3    3    0    0 -0.35644953211E+02  0.39439284544E+01  0.83464372057E+01  0.36820921703E+02  0.00000000000E+00 0.  1.
         11    1    4    4    0    0  0.26904636277E+02  0.15036911076E+02 -0.56038898320E+01  0.31326853168E+02  0.51100000000E-03 0. -1.
        -11    1    4    4    0    0  0.27036679266E+01 -0.41815248209E+01  0.32771175398E+01  0.59610795764E+01  0.51100000000E-03 0.  1.
         12    1    4    4    0    0  0.60366490070E+01 -0.14799314710E+02 -0.60196649135E+01  0.17079145552E+02  0.00000000000E+00 0. -1.
</event>
<event>
 8    1  0.3146747E-007  0.9118800E+02  0.7816164E-02  0.1184000E+00
        -11   -1    0    0    0    0  0.00000000000E+00  0.00000000000E+00  0.45593999997E+02  0.45594000000E+02  0.51100000000E-03 0. -1.
         11   -1    0    0    0    0 -0.00000000000E+00 -0.00000000000E+00 -0.45593999997E+02  0.45594000000E+02  0.51100000000E-03 0.  1.
         23    2    1    2    0    0  0.00000000000E+00  0.00000000000E+00  0.00000000000E+00  0.91188000000E+02  0.91188000000E+02 0.  0.
    9900012    2    3    3    0    0  0.15527420975E+02  0.23106856346E+02  0.24098774366E+02  0.54367101881E+02  0.40000040358E+02 0.  0.
        -12    1    3    3    0    0 -0.15527420975E+02 -0.23106856346E+02 -0.24098774366E+02  0.36820898119E+02  0.00000000000E+00 0.  1.
         11    1    4    4    0    0 -0.67078675981E+01  0.20307801710E+01  0.88206074345E+01  0.11265996254E+02  0.51100000000E-03 0. -1.
        -11    1    4    4    0    0 -0.42067284061E+01  0.46767922860E+01 -0.30487505690E+01  0.69902668234E+01  0.51100000000E-03 0.  1.
        -12    1    4    4    0    0  0.26442016979E+02  0.16399283889E+02  0.18326917501E+02  0.36110838804E+02  0.00000000000E+00 0.  1.
</event>
<event>
 8    1  0.3146747E-007  0.9118800E+02  0.7816164E-02  0.1184000E+00
        -11   -1    0    0    0    0  0.00000000000E+00  0.00000000000E+00  0.45593999997E+02  0.45594000000E+02  0.51100000000E-03 0. -1.
         11   -1    0    0    0    0 -0.00000000000E+00 -0.00000000000E+00 -0.45593999997E+02  0.45594000000E+02  0.51100000000E-03 0.  1.
         23    2    1    2    0    0 -0.44408920985E-15  0.00000000000E+00  0.00000000000E+00  0.91188000000E+02  0.91188000000E+02 0.  0.
    9900012    2    3    3    0    0 -0.32552355980E+01  0.24068289634E+02 -0.27674938253E+02  0.54367063945E+02  0.39999953875E+02 0.  0.
         12    1    3    3    0    0  0.32552355980E+01 -0.24068289634E+02  0.27674938253E+02  0.36820936055E+02  0.00000000000E+00 0. -1.
         11    1    4    4    0    0 -0.15157686485E+02  0.14883644791E+02 -0.66833075901E+01  0.22269821338E+02  0.51100000000E-03 0. -1.
        -11    1    4    4    0    0  0.74401045103E+01  0.13873704358E+02 -0.81751054808E+01  0.17738860663E+02  0.51100000000E-03 0.  1.
         12    1    4    4    0    0  0.44623463762E+01 -0.46890595151E+01 -0.12816525182E+02  0.14358381944E+02  0.00000000000E+00 0. -1.
</event>
<event>
 8    1  0.3146747E-007  0.9118800E+02  0.7816164E-02  0.1184000E+00
        -11   -1    0    0    0    0  0.00000000000E+00  0.00000000000E+00  0.45593999997E+02  0.45594000000E+02  0.51100000000E-03 0. -1.
         11   -1    0    0    0    0 -0.00000000000E+00 -0.00000000000E+00 -0.45593999997E+02  0.45594000000E+02  0.51100000000E-03 0.  1.
         23    2    1    2    0    0  0.00000000000E+00  0.00000000000E+00 -0.35527136788E-14  0.91188000000E+02  0.91188000000E+02 0.  0.
    9900012    2    3    3    0    0 -0.22871220446E+02  0.15830549801E+02  0.24126334340E+02  0.54367095063E+02  0.40000024815E+02 0.  0.
        -12    1    3    3    0    0  0.22871220446E+02 -0.15830549801E+02 -0.24126334340E+02  0.36820904937E+02  0.00000000000E+00 0.  1.
         11    1    4    4    0    0 -0.77505113433E+01  0.44927213223E+01  0.25060617785E+02  0.26613709531E+02  0.51100000000E-03 0. -1.
        -11    1    4    4    0    0 -0.44831475056E+01  0.24396817372E+01 -0.99703909048E+01  0.11200863966E+02  0.51100000000E-03 0.  1.
         12    1    4    4    0    0 -0.10637561597E+02  0.88981467411E+01  0.90361074599E+01  0.16552521566E+02  0.00000000000E+00 0. -1.
</event>
<event>
 8    1  0.3146747E-007  0.9118800E+02  0.7816164E-02  0.1184000E+00
        -11   -1    0    0    0    0  0.00000000000E+00  0.00000000000E+00  0.45593999997E+02  0.45594000000E+02  0.51100000000E-03 0. -1.
         11   -1    0    0    0    0 -0.00000000000E+00 -0.00000000000E+00 -0.45593999997E+02  0.45594000000E+02  0.51100000000E-03 0.  1.
         23    2    1    2    0    0  0.00000000000E+00  0.00000000000E+00  0.00000000000E+00  0.91188000000E+02  0.91188000000E+02 0.  0.
    9900012    2    3    3    0    0 -0.11829820976E+02  0.34821847902E+02 -0.18098596880E+01  0.54367063731E+02  0.39999953388E+02 0.  0.
         12    1    3    3    0    0  0.11829820976E+02 -0.34821847902E+02  0.18098596880E+01  0.36820936269E+02  0.00000000000E+00 0. -1.
         11    1    4    4    0    0  0.61057064361E+01  0.25363156452E+02  0.65883962696E+01  0.26906808097E+02  0.51100000000E-03 0. -1.
        -11    1    4    4    0    0 -0.46413107201E+01 -0.42255189261E+01 -0.51242346816E+01  0.81027499485E+01  0.51100000000E-03 0.  1.
         12    1    4    4    0    0 -0.13294216692E+02  0.13684210375E+02 -0.32740212760E+01  0.19357505686E+02  0.00000000000E+00 0. -1.
</event>
<event>
 8    1  0.3146747E-007  0.9118800E+02  0.7816164E-02  0.1184000E+00
        -11   -1    0    0    0    0  0.00000000000E+00  0.00000000000E+00  0.45593999997E+02  0.45594000000E+02  0.51100000000E-03 0.  1.
         11   -1    0    0    0    0 -0.00000000000E+00 -0.00000000000E+00 -0.45593999997E+02  0.45594000000E+02  0.51100000000E-03 0. -1.
         23    2    1    2    0    0 -0.35527136788E-14  0.00000000000E+00 -0.35527136788E-14  0.91188000000E+02  0.91188000000E+02 0.  0.
    9900012    2    3    3    0    0  0.23538195787E+02  0.17632462546E+02  0.22154741039E+02  0.54367042016E+02  0.39999903883E+02 0.  0.
         12    1    3    3    0    0 -0.23538195787E+02 -0.17632462546E+02 -0.22154741039E+02  0.36820957984E+02  0.00000000000E+00 0. -1.
         11    1    4    4    0    0  0.12960655756E+02 -0.55517816072E+01 -0.25762386533E+01  0.14333104427E+02  0.51100000000E-03 0.  1.
        -11    1    4    4    0    0  0.25291275332E+01 -0.25991446832E+01  0.34337479628E+00  0.36427936636E+01  0.51100000000E-03 0. -1.
        -12    1    4    4    0    0  0.80484124974E+01  0.25783388837E+02  0.24387604896E+02  0.36391143926E+02  0.00000000000E+00 0.  1.
</event>
<event>
 8    1  0.3146747E-007  0.9118800E+02  0.7816164E-02  0.1184000E+00
        -11   -1    0    0    0    0  0.00000000000E+00  0.00000000000E+00  0.45593999997E+02  0.45594000000E+02  0.51100000000E-03 0.  1.
         11   -1    0    0    0    0 -0.00000000000E+00 -0.00000000000E+00 -0.45593999997E+02  0.45594000000E+02  0.51100000000E-03 0. -1.
         23    2    1    2    0    0 -0.17763568394E-14  0.00000000000E+00  0.00000000000E+00  0.91188000000E+02  0.91188000000E+02 0.  0.
    9900012    2    3    3    0    0 -0.11151649140E+02  0.81115629639E+01  0.34141211402E+02  0.54367094956E+02  0.40000024572E+02 0.  0.
         12    1    3    3    0    0  0.11151649140E+02 -0.81115629639E+01 -0.34141211402E+02  0.36820905044E+02  0.00000000000E+00 0. -1.
         11    1    4    4    0    0  0.41663610696E+01  0.23588601044E+01  0.71752354078E+01  0.86259369910E+01  0.51100000000E-03 0. -1.
        -11    1    4    4    0    0 -0.18930930589E+02  0.34403797107E+01  0.33082166519E+02  0.38270694890E+02  0.51100000000E-03 0.  1.
         12    1    4    4    0    0  0.36129203792E+01  0.23123231488E+01 -0.61161905252E+01  0.74704630748E+01  0.00000000000E+00 0. -1.
</event>
<event>
 8    1  0.3146747E-007  0.9118800E+02  0.7816164E-02  0.1184000E+00
        -11   -1    0    0    0    0  0.00000000000E+00  0.00000000000E+00  0.45593999997E+02  0.45594000000E+02  0.51100000000E-03 0.  1.
         11   -1    0    0    0    0 -0.00000000000E+00 -0.00000000000E+00 -0.45593999997E+02  0.45594000000E+02  0.51100000000E-03 0. -1.
         23    2    1    2    0    0  0.17763568394E-14  0.17763568394E-14  0.00000000000E+00  0.91188000000E+02  0.91188000000E+02 0.  0.
    9900012    2    3    3    0    0  0.80432021861E+01 -0.15179393743E+02 -0.32567983631E+02  0.54367073157E+02  0.39999974876E+02 0.  0.
        -12    1    3    3    0    0 -0.80432021861E+01  0.15179393743E+02  0.32567983631E+02  0.36820926843E+02  0.00000000000E+00 0.  1.
         11    1    4    4    0    0 -0.45061180232E+01 -0.13219026708E+02 -0.22729956095E+02  0.26677681142E+02  0.51100000000E-03 0. -1.
        -11    1    4    4    0    0  0.56074007192E+01  0.94053919024E+01  0.29606132450E+00  0.10954085641E+02  0.51100000000E-03 0.  1.
        -12    1    4    4    0    0  0.69419194901E+01 -0.11365758936E+02 -0.10134088860E+02  0.16735306374E+02  0.00000000000E+00 0.  1.
</event>
<event>
 8    1  0.3146747E-007  0.9118800E+02  0.7816164E-02  0.1184000E+00
        -11   -1    0    0    0    0  0.00000000000E+00  0.00000000000E+00  0.45593999997E+02  0.45594000000E+02  0.51100000000E-03 0. -1.
         11   -1    0    0    0    0 -0.00000000000E+00 -0.00000000000E+00 -0.45593999997E+02  0.45594000000E+02  0.51100000000E-03 0.  1.
         23    2    1    2    0    0  0.00000000000E+00  0.00000000000E+00  0.00000000000E+00  0.91188000000E+02  0.91188000000E+02 0.  0.
    9900012    2    3    3    0    0 -0.22006916627E+02  0.21021573647E+02 -0.20726045571E+02  0.54367083349E+02  0.39999998111E+02 0.  0.
         12    1    3    3    0    0  0.22006916627E+02 -0.21021573647E+02  0.20726045571E+02  0.36820916651E+02  0.00000000000E+00 0. -1.
         11    1    4    4    0    0 -0.11344113641E+02  0.27563869225E+02 -0.94137304174E+01  0.31258184873E+02  0.51100000000E-03 0. -1.
        -11    1    4    4    0    0 -0.12752045311E+02 -0.10287317613E+01 -0.11510512643E+02  0.17209440729E+02  0.51100000000E-03 0.  1.
         12    1    4    4    0    0  0.20892423243E+01 -0.55135638172E+01  0.19819748969E+00  0.58994577464E+01  0.00000000000E+00 0. -1.
</event>
<event>
 8    1  0.3146747E-007  0.9118800E+02  0.7816164E-02  0.1184000E+00
        -11   -1    0    0    0    0  0.00000000000E+00  0.00000000000E+00  0.45593999997E+02  0.45594000000E+02  0.51100000000E-03 0.  1.
         11   -1    0    0    0    0 -0.00000000000E+00 -0.00000000000E+00 -0.45593999997E+02  0.45594000000E+02  0.51100000000E-03 0. -1.
         23    2    1    2    0    0  0.00000000000E+00 -0.88817841970E-15  0.17763568394E-14  0.91188000000E+02  0.91188000000E+02 0.  0.
    9900012    2    3    3    0    0  0.34436506733E+02  0.43900713435E+01 -0.12273381467E+02  0.54367060102E+02  0.39999945114E+02 0.  0.
        -12    1    3    3    0    0 -0.34436506733E+02 -0.43900713435E+01  0.12273381467E+02  0.36820939898E+02  0.00000000000E+00 0.  1.
         11    1    4    4    0    0  0.22581077846E+02 -0.17701570298E+01 -0.21869690597E+02  0.31485264803E+02  0.51100000000E-03 0. -1.
        -11    1    4    4    0    0  0.21549969590E+01 -0.35509434018E+01 -0.22735417826E+01  0.47352089113E+01  0.51100000000E-03 0.  1.
        -12    1    4    4    0    0  0.97004319276E+01  0.97111717751E+01  0.11869850913E+02  0.18146586388E+02  0.00000000000E+00 0.  1.
</event>
<event>
 8    1  0.3146747E-007  0.9118800E+02  0.7816164E-02  0.1184000E+00
        -11   -1    0    0    0    0  0.00000000000E+00  0.00000000000E+00  0.45593999997E+02  0.45594000000E+02  0.51100000000E-03 0. -1.
         11   -1    0    0    0    0 -0.00000000000E+00 -0.00000000000E+00 -0.45593999997E+02  0.45594000000E+02  0.51100000000E-03 0.  1.
         23    2    1    2    0    0 -0.44408920985E-15  0.88817841970E-15  0.00000000000E+00  0.91188000000E+02  0.91188000000E+02 0.  0.
    9900012    2    3    3    0    0  0.19963164360E+01 -0.26764977489E+01 -0.36669205455E+02  0.54367088167E+02  0.40000009093E+02 0.  0.
         12    1    3    3    0    0 -0.19963164360E+01  0.26764977489E+01  0.36669205455E+02  0.36820911833E+02  0.00000000000E+00 0. -1.
         11    1    4    4    0    0  0.45349303601E+01 -0.30003879086E+01 -0.76669687415E+01  0.93994856731E+01  0.51100000000E-03 0. -1.
        -11    1    4    4    0    0  0.17337840063E+01 -0.10628780907E+02 -0.31201028883E+02  0.33007290015E+02  0.51100000000E-03 0.  1.
         12    1    4    4    0    0 -0.42723979304E+01  0.10952671067E+02  0.21987921690E+01  0.11960312478E+02  0.00000000000E+00 0. -1.
</event>
<event>
 8    1  0.3146747E-007  0.9118800E+02  0.7816164E-02  0.1184000E+00
        -11   -1    0    0    0    0  0.00000000000E+00  0.00000000000E+00  0.45593999997E+02  0.45594000000E+02  0.51100000000E-03 0.  1.
         11   -1    0    0    0    0 -0.00000000000E+00 -0.00000000000E+00 -0.45593999997E+02  0.45594000000E+02  0.51100000000E-03 0. -1.
         23    2    1    2    0    0  0.21094237468E-14  0.71054273576E-14 -0.88817841970E-15  0.91188000000E+02  0.91188000000E+02 0.  0.
    9900012    2    3    3    0    0 -0.33680008369E+00  0.36431376607E+02 -0.53311776524E+01  0.54367080797E+02  0.39999992294E+02 0.  0.
         12    1    3    3    0    0  0.33680008369E+00 -0.36431376607E+02  0.53311776524E+01  0.36820919203E+02  0.00000000000E+00 0. -1.
         11    1    4    4    0    0 -0.13565725770E+02  0.24680702124E+02 -0.14168351685E+02  0.31526309057E+02  0.51100000000E-03 0. -1.
        -11    1    4    4    0    0  0.17607929746E+01  0.68205744546E+01  0.74952822122E+01  0.10285907033E+02  0.51100000000E-03 0.  1.
        -12    1    4    4    0    0  0.11468132711E+02  0.49301000278E+01  0.13418918204E+01  0.12554864708E+02  0.00000000000E+00 0.  1.
</event>
<event>
 8    1  0.3146747E-007  0.9118800E+02  0.7816164E-02  0.1184000E+00
        -11   -1    0    0    0    0  0.00000000000E+00  0.00000000000E+00  0.45593999997E+02  0.45594000000E+02  0.51100000000E-03 0.  1.
         11   -1    0    0    0    0 -0.00000000000E+00 -0.00000000000E+00 -0.45593999997E+02  0.45594000000E+02  0.51100000000E-03 0. -1.
         23    2    1    2    0    0  0.00000000000E+00 -0.13322676296E-14 -0.71054273576E-14  0.91188000000E+02  0.91188000000E+02 0.  0.
    9900012    2    3    3    0    0  0.12487557620E+02  0.27437377593E+01 -0.34529885378E+02  0.54367079637E+02  0.39999989647E+02 0.  0.
        -12    1    3    3    0    0 -0.12487557620E+02 -0.27437377593E+01  0.34529885378E+02  0.36820920363E+02  0.00000000000E+00 0.  1.
         11    1    4    4    0    0  0.19633234232E+02 -0.48341490273E-01 -0.86571356912E+01  0.21457218411E+02  0.51100000000E-03 0. -1.
        -11    1    4    4    0    0 -0.62101627721E+01 -0.49738705742E+01 -0.23385308016E+02  0.24701784175E+02  0.51100000000E-03 0.  1.
        -12    1    4    4    0    0 -0.93551383898E+00  0.77659498238E+01 -0.24874416701E+01  0.82080770507E+01  0.00000000000E+00 0.  1.
</event>
<event>
 8    1  0.3146747E-007  0.9118800E+02  0.7816164E-02  0.1184000E+00
        -11   -1    0    0    0    0  0.00000000000E+00  0.00000000000E+00  0.45593999997E+02  0.45594000000E+02  0.51100000000E-03 0. -1.
         11   -1    0    0    0    0 -0.00000000000E+00 -0.00000000000E+00 -0.45593999997E+02  0.45594000000E+02  0.51100000000E-03 0.  1.
         23    2    1    2    0    0 -0.35527136788E-14  0.35527136788E-14  0.71054273576E-14  0.91188000000E+02  0.91188000000E+02 0.  0.
    9900012    2    3    3    0    0  0.17853030639E+02 -0.21169676264E+02 -0.24267134986E+02  0.54367085610E+02  0.40000003264E+02 0.  0.
         12    1    3    3    0    0 -0.17853030639E+02  0.21169676264E+02  0.24267134986E+02  0.36820914390E+02  0.00000000000E+00 0. -1.
         11    1    4    4    0    0 -0.76582577460E+01 -0.20898087322E+02 -0.12574939031E+02  0.25563803655E+02  0.51100000000E-03 0. -1.
        -11    1    4    4    0    0  0.23082136601E+02 -0.21804076925E+01 -0.97327354376E+01  0.25144887097E+02  0.51100000000E-03 0.  1.
        -12    1    4    4    0    0  0.24291517834E+01  0.19088187508E+01 -0.19594605175E+01  0.36583948570E+01  0.00000000000E+00 0.  1.
</event>
<event>
 8    1  0.3146747E-007  0.9118800E+02  0.7816164E-02  0.1184000E+00
        -11   -1    0    0    0    0  0.00000000000E+00  0.00000000000E+00  0.45593999997E+02  0.45594000000E+02  0.51100000000E-03 0. -1.
         11   -1    0    0    0    0 -0.00000000000E+00 -0.00000000000E+00 -0.45593999997E+02  0.45594000000E+02  0.51100000000E-03 0.  1.
         23    2    1    2    0    0 -0.17763568394E-14  0.00000000000E+00  0.00000000000E+00  0.91188000000E+02  0.91188000000E+02 0.  0.
    9900012    2    3    3    0    0 -0.91752337718E+01  0.99710740679E+01 -0.34236992107E+02  0.54367097494E+02  0.40000030357E+02 0.  0.
         12    1    3    3    0    0  0.91752337718E+01 -0.99710740679E+01  0.34236992107E+02  0.36820902506E+02  0.00000000000E+00 0. -1.
         11    1    4    4    0    0 -0.19028735708E+02 -0.93441463725E-01 -0.25013298575E+02  0.31428754666E+02  0.51100000000E-03 0. -1.
        -11    1    4    4    0    0  0.19024936183E+01  0.10815645130E+02 -0.33220588662E+00  0.10986720282E+02  0.51100000000E-03 0.  1.
        -12    1    4    4    0    0  0.79510083181E+01 -0.75112959811E+00 -0.88914876449E+01  0.11951622546E+02  0.00000000000E+00 0.  1.
</event>
<event>
 8    1  0.3146747E-007  0.9118800E+02  0.7816164E-02  0.1184000E+00
        -11   -1    0    0    0    0  0.00000000000E+00  0.00000000000E+00  0.45593999997E+02  0.45594000000E+02  0.51100000000E-03 0. -1.
         11   -1    0    0    0    0 -0.00000000000E+00 -0.00000000000E+00 -0.45593999997E+02  0.45594000000E+02  0.51100000000E-03 0.  1.
         23    2    1    2    0    0  0.00000000000E+00  0.00000000000E+00  0.00000000000E+00  0.91188000000E+02  0.91188000000E+02 0.  0.
    9900012    2    3    3    0    0  0.14898039583E+02  0.18269405788E+02 -0.28285275000E+02  0.54367088101E+02  0.40000008943E+02 0.  0.
         12    1    3    3    0    0 -0.14898039583E+02 -0.18269405788E+02  0.28285275000E+02  0.36820911899E+02  0.00000000000E+00 0. -1.
         11    1    4    4    0    0  0.16018973202E+02  0.10213223966E+02 -0.35616387012E+02  0.40366377969E+02  0.51100000000E-03 0. -1.
        -11    1    4    4    0    0 -0.10423085440E+01  0.46550696563E+01 -0.11117772540E+01  0.48981761431E+01  0.51100000000E-03 0.  1.
         12    1    4    4    0    0 -0.78625075968E-01  0.34011121659E+01  0.84428892658E+01  0.91025339891E+01  0.00000000000E+00 0. -1.
</event>
<event>
 8    1  0.3146747E-007  0.9118800E+02  0.7816164E-02  0.1184000E+00
        -11   -1    0    0    0    0  0.00000000000E+00  0.00000000000E+00  0.45593999997E+02  0.45594000000E+02  0.51100000000E-03 0. -1.
         11   -1    0    0    0    0 -0.00000000000E+00 -0.00000000000E+00 -0.45593999997E+02  0.45594000000E+02  0.51100000000E-03 0.  1.
         23    2    1    2    0    0  0.27200464103E-14 -0.35527136788E-14  0.35527136788E-14  0.91188000000E+02  0.91188000000E+02 0.  0.
    9900012    2    3    3    0    0 -0.21335141955E+00  0.24358959520E+02 -0.27611135084E+02  0.54367092782E+02  0.40000019614E+02 0.  0.
         12    1    3    3    0    0  0.21335141955E+00 -0.24358959520E+02  0.27611135084E+02  0.36820907218E+02  0.00000000000E+00 0. -1.
         11    1    4    4    0    0 -0.19554599350E+01  0.83798546419E+01 -0.74077587816E-01  0.86053050571E+01  0.51100000000E-03 0. -1.
        -11    1    4    4    0    0 -0.75279954261E+01  0.21969583710E+02 -0.10558555216E+02  0.25511103701E+02  0.51100000000E-03 0.  1.
        -12    1    4    4    0    0  0.92701039416E+01 -0.59904788317E+01 -0.16978502281E+02  0.20250684023E+02  0.00000000000E+00 0.  1.
</event>
<event>
 8    1  0.3146747E-007  0.9118800E+02  0.7816164E-02  0.1184000E+00
        -11   -1    0    0    0    0  0.00000000000E+00  0.00000000000E+00  0.45593999997E+02  0.45594000000E+02  0.51100000000E-03 0.  1.
         11   -1    0    0    0    0 -0.00000000000E+00 -0.00000000000E+00 -0.45593999997E+02  0.45594000000E+02  0.51100000000E-03 0. -1.
         23    2    1    2    0    0  0.35527136788E-14 -0.35527136788E-14  0.00000000000E+00  0.91188000000E+02  0.91188000000E+02 0.  0.
    9900012    2    3    3    0    0 -0.28414448900E+02  0.23343674060E+02  0.18631168649E+01  0.54367092497E+02  0.40000018965E+02 0.  0.
        -12    1    3    3    0    0  0.28414448900E+02 -0.23343674060E+02 -0.18631168649E+01  0.36820907503E+02  0.00000000000E+00 0.  1.
         11    1    4    4    0    0 -0.17498775662E+02 -0.19648012988E+01 -0.16632620936E+01  0.17687114939E+02  0.51100000000E-03 0. -1.
        -11    1    4    4    0    0 -0.15155200697E+02  0.25628652699E+02 -0.18428683648E+01  0.29831260641E+02  0.51100000000E-03 0.  1.
         12    1    4    4    0    0  0.42395274585E+01 -0.32017734026E+00  0.53692473233E+01  0.68487169177E+01  0.00000000000E+00 0. -1.
</event>
<event>
 8    1  0.3146747E-007  0.9118800E+02  0.7816164E-02  0.1184000E+00
        -11   -1    0    0    0    0  0.00000000000E+00  0.00000000000E+00  0.45593999997E+02  0.45594000000E+02  0.51100000000E-03 0. -1.
         11   -1    0    0    0    0 -0.00000000000E+00 -0.00000000000E+00 -0.45593999997E+02  0.45594000000E+02  0.51100000000E-03 0.  1.
         23    2    1    2    0    0  0.35527136788E-14  0.35527136788E-14  0.00000000000E+00  0.91188000000E+02  0.91188000000E+02 0.  0.
    9900012    2    3    3    0    0 -0.19332505324E+02 -0.19890825606E+02 -0.24215473457E+02  0.54367083932E+02  0.39999999439E+02 0.  0.
         12    1    3    3    0    0  0.19332505324E+02  0.19890825606E+02  0.24215473457E+02  0.36820916068E+02  0.00000000000E+00 0. -1.
         11    1    4    4    0    0 -0.29354747089E+00  0.11993829794E+01 -0.11849098686E+02  0.11913262759E+02  0.51100000000E-03 0.  1.
        -11    1    4    4    0    0 -0.23735160922E+02 -0.23284150770E+02 -0.15186125461E+02  0.36553083971E+02  0.51100000000E-03 0. -1.
         12    1    4    4    0    0  0.46962030680E+01  0.21939421844E+01  0.28197506897E+01  0.59007372011E+01  0.00000000000E+00 0. -1.
</event>
<event>
 8    1  0.3146747E-007  0.9118800E+02  0.7816164E-02  0.1184000E+00
        -11   -1    0    0    0    0  0.00000000000E+00  0.00000000000E+00  0.45593999997E+02  0.45594000000E+02  0.51100000000E-03 0. -1.
         11   -1    0    0    0    0 -0.00000000000E+00 -0.00000000000E+00 -0.45593999997E+02  0.45594000000E+02  0.51100000000E-03 0.  1.
         23    2    1    2    0    0  0.61062266354E-15  0.35527136788E-14  0.71054273576E-14  0.91188000000E+02  0.91188000000E+02 0.  0.
    9900012    2    3    3    0    0  0.39294408397E+00 -0.13489086338E+02 -0.34258885507E+02  0.54367067211E+02  0.39999961320E+02 0.  0.
         12    1    3    3    0    0 -0.39294408397E+00  0.13489086338E+02  0.34258885507E+02  0.36820932789E+02  0.00000000000E+00 0. -1.
         11    1    4    4    0    0 -0.51815422919E+01 -0.11076321884E+02 -0.20989598062E+01  0.12407212399E+02  0.51100000000E-03 0. -1.
        -11    1    4    4    0    0  0.36183002585E+01 -0.11464382802E+02 -0.30185173669E+02  0.32491058455E+02  0.51100000000E-03 0.  1.
        -12    1    4    4    0    0  0.19561861173E+01  0.90516183486E+01 -0.19747520317E+01  0.94687963565E+01  0.00000000000E+00 0.  1.
</event>
<event>
 8    1  0.3146747E-007  0.9118800E+02  0.7816164E-02  0.1184000E+00
        -11   -1    0    0    0    0  0.00000000000E+00  0.00000000000E+00  0.45593999997E+02  0.45594000000E+02  0.51100000000E-03 0. -1.
         11   -1    0    0    0    0 -0.00000000000E+00 -0.00000000000E+00 -0.45593999997E+02  0.45594000000E+02  0.51100000000E-03 0.  1.
         23    2    1    2    0    0  0.00000000000E+00  0.44408920985E-15 -0.35527136788E-14  0.91188000000E+02  0.91188000000E+02 0.  0.
    9900012    2    3    3    0    0  0.32501596865E+02 -0.34617517091E+01  0.16954124190E+02  0.54367084059E+02  0.39999999730E+02 0.  0.
        -12    1    3    3    0    0 -0.32501596865E+02  0.34617517091E+01 -0.16954124190E+02  0.36820915941E+02  0.00000000000E+00 0.  1.
         11    1    4    4    0    0  0.60733644017E+01 -0.57862416982E+01  0.15806103857E+02  0.17894112650E+02  0.51100000000E-03 0.  1.
        -11    1    4    4    0    0  0.24529284774E+02  0.22275975921E+01 -0.89436340067E+01  0.26203751488E+02  0.51100000000E-03 0. -1.
         12    1    4    4    0    0  0.18989476892E+01  0.96892397020E-01  0.10091654340E+02  0.10269219921E+02  0.00000000000E+00 0. -1.
</event>
<event>
 8    1  0.3146747E-007  0.9118800E+02  0.7816164E-02  0.1184000E+00
        -11   -1    0    0    0    0  0.00000000000E+00  0.00000000000E+00  0.45593999997E+02  0.45594000000E+02  0.51100000000E-03 0.  1.
         11   -1    0    0    0    0 -0.00000000000E+00 -0.00000000000E+00 -0.45593999997E+02  0.45594000000E+02  0.51100000000E-03 0. -1.
         23    2    1    2    0    0 -0.35527136788E-14  0.00000000000E+00  0.00000000000E+00  0.91188000000E+02  0.91188000000E+02 0.  0.
    9900012    2    3    3    0    0 -0.31245737404E+02 -0.98320496268E+01  0.16817079487E+02  0.54367089252E+02  0.40000011569E+02 0.  0.
         12    1    3    3    0    0  0.31245737404E+02  0.98320496268E+01 -0.16817079487E+02  0.36820910748E+02  0.00000000000E+00 0. -1.
         11    1    4    4    0    0 -0.24001727327E+02 -0.77356689275E+01  0.81530429260E+01  0.26502746983E+02  0.51100000000E-03 0. -1.
        -11    1    4    4    0    0 -0.12037183592E+02  0.71854580756E+01 -0.41369293159E+00  0.14024825799E+02  0.51100000000E-03 0.  1.
        -12    1    4    4    0    0  0.47931735150E+01 -0.92818387749E+01  0.90777294928E+01  0.13839516470E+02  0.00000000000E+00 0.  1.
</event>
<event>
 8    1  0.3146747E-007  0.9118800E+02  0.7816164E-02  0.1184000E+00
        -11   -1    0    0    0    0  0.00000000000E+00  0.00000000000E+00  0.45593999997E+02  0.45594000000E+02  0.51100000000E-03 0.  1.
         11   -1    0    0    0    0 -0.00000000000E+00 -0.00000000000E+00 -0.45593999997E+02  0.45594000000E+02  0.51100000000E-03 0. -1.
         23    2    1    2    0    0  0.00000000000E+00 -0.35527136788E-14 -0.35527136788E-14  0.91188000000E+02  0.91188000000E+02 0.  0.
    9900012    2    3    3    0    0  0.97894762820E+01  0.28299957337E+02  0.21425656443E+02  0.54367079517E+02  0.39999989375E+02 0.  0.
         12    1    3    3    0    0 -0.97894762820E+01 -0.28299957337E+02 -0.21425656443E+02  0.36820920483E+02  0.00000000000E+00 0. -1.
         11    1    4    4    0    0  0.15186929246E+01  0.23756192311E+02  0.26623074472E+01  0.23953099644E+02  0.51100000000E-03 0. -1.
        -11    1    4    4    0    0 -0.22021660680E+01  0.58293450678E+01  0.18859154480E+02  0.19861986488E+02  0.51100000000E-03 0.  1.
         12    1    4    4    0    0  0.10472949425E+02 -0.12855800417E+01 -0.95805483785E-01  0.10551993385E+02  0.00000000000E+00 0. -1.
</event>
<event>
 8    1  0.3146747E-007  0.9118800E+02  0.7816164E-02  0.1184000E+00
        -11   -1    0    0    0    0  0.00000000000E+00  0.00000000000E+00  0.45593999997E+02  0.45594000000E+02  0.51100000000E-03 0. -1.
         11   -1    0    0    0    0 -0.00000000000E+00 -0.00000000000E+00 -0.45593999997E+02  0.45594000000E+02  0.51100000000E-03 0.  1.
         23    2    1    2    0    0 -0.17763568394E-14  0.00000000000E+00  0.00000000000E+00  0.91188000000E+02  0.91188000000E+02 0.  0.
    9900012    2    3    3    0    0 -0.13253194301E+02  0.26094934827E+02  0.22342494640E+02  0.54367084075E+02  0.39999999765E+02 0.  0.
        -12    1    3    3    0    0  0.13253194301E+02 -0.26094934827E+02 -0.22342494640E+02  0.36820915925E+02  0.00000000000E+00 0.  1.
         11    1    4    4    0    0  0.50301846641E+01  0.35501865759E+01  0.75206021964E+01  0.97193641838E+01  0.51100000000E-03 0. -1.
        -11    1    4    4    0    0 -0.11538626640E+02 -0.10660366444E+01  0.16355722871E+02  0.20044600514E+02  0.51100000000E-03 0.  1.
         12    1    4    4    0    0 -0.67447523256E+01  0.23610784896E+02 -0.15338304270E+01  0.24603119377E+02  0.00000000000E+00 0. -1.
</event>
<event>
 8    1  0.3146747E-007  0.9118800E+02  0.7816164E-02  0.1184000E+00
        -11   -1    0    0    0    0  0.00000000000E+00  0.00000000000E+00  0.45593999997E+02  0.45594000000E+02  0.51100000000E-03 0.  1.
         11   -1    0    0    0    0 -0.00000000000E+00 -0.00000000000E+00 -0.45593999997E+02  0.45594000000E+02  0.51100000000E-03 0. -1.
         23    2    1    2    0    0 -0.35527136788E-14  0.00000000000E+00  0.00000000000E+00  0.91188000000E+02  0.91188000000E+02 0.  0.
    9900012    2    3    3    0    0 -0.23861101267E+02 -0.27567011869E+02  0.51467051378E+01  0.54367070207E+02  0.39999968152E+02 0.  0.
         12    1    3    3    0    0  0.23861101267E+02  0.27567011869E+02 -0.51467051378E+01  0.36820929793E+02  0.00000000000E+00 0. -1.
         11    1    4    4    0    0  0.11282067154E+02 -0.70665290741E+01  0.14301490496E+01  0.13389032788E+02  0.51100000000E-03 0. -1.
        -11    1    4    4    0    0 -0.11493538330E+02 -0.62690966311E+01 -0.24126699520E+00  0.13094319606E+02  0.51100000000E-03 0.  1.
         12    1    4    4    0    0 -0.23649630091E+02 -0.14231386163E+02  0.39578230834E+01  0.27883717814E+02  0.00000000000E+00 0. -1.
</event>
<event>
 8    1  0.3146747E-007  0.9118800E+02  0.7816164E-02  0.1184000E+00
        -11   -1    0    0    0    0  0.00000000000E+00  0.00000000000E+00  0.45593999997E+02  0.45594000000E+02  0.51100000000E-03 0.  1.
         11   -1    0    0    0    0 -0.00000000000E+00 -0.00000000000E+00 -0.45593999997E+02  0.45594000000E+02  0.51100000000E-03 0. -1.
         23    2    1    2    0    0 -0.17763568394E-14 -0.35527136788E-14  0.00000000000E+00  0.91188000000E+02  0.91188000000E+02 0.  0.
    9900012    2    3    3    0    0  0.13655138445E+02  0.20675932524E+02 -0.27236424211E+02  0.54367084809E+02  0.40000001438E+02 0.  0.
        -12    1    3    3    0    0 -0.13655138445E+02 -0.20675932524E+02  0.27236424211E+02  0.36820915191E+02  0.00000000000E+00 0.  1.
         11    1    4    4    0    0 -0.41033088843E+01  0.35610061686E+01 -0.17198161466E+02  0.18035927112E+02  0.51100000000E-03 0.  1.
        -11    1    4    4    0    0  0.55841356070E+01  0.99978002625E+01 -0.17083969995E+02  0.20566978670E+02  0.51100000000E-03 0. -1.
        -12    1    4    4    0    0  0.12174311722E+02  0.71171260933E+01  0.70457072493E+01  0.15764179027E+02  0.00000000000E+00 0.  1.
</event>
<event>
 8    1  0.3146747E-007  0.9118800E+02  0.7816164E-02  0.1184000E+00
        -11   -1    0    0    0    0  0.00000000000E+00  0.00000000000E+00  0.45593999997E+02  0.45594000000E+02  0.51100000000E-03 0.  1.
         11   -1    0    0    0    0 -0.00000000000E+00 -0.00000000000E+00 -0.45593999997E+02  0.45594000000E+02  0.51100000000E-03 0. -1.
         23    2    1    2    0    0  0.00000000000E+00  0.17763568394E-14 -0.44408920985E-15  0.91188000000E+02  0.91188000000E+02 0.  0.
    9900012    2    3    3    0    0 -0.34875556377E+02 -0.11527295295E+02 -0.25685896619E+01  0.54367073582E+02  0.39999975844E+02 0.  0.
        -12    1    3    3    0    0  0.34875556377E+02  0.11527295295E+02  0.25685896619E+01  0.36820926418E+02  0.00000000000E+00 0.  1.
         11    1    4    4    0    0 -0.27629361710E+01 -0.11887121856E+02 -0.87933132768E+01  0.15041936077E+02  0.51100000000E-03 0. -1.
        -11    1    4    4    0    0 -0.34574059102E+02 -0.84144812281E+00  0.24629411250E+01  0.34671885974E+02  0.51100000000E-03 0.  1.
        -12    1    4    4    0    0  0.24614388959E+01  0.12012746840E+01  0.37617824899E+01  0.46532515304E+01  0.00000000000E+00 0.  1.
</event>
<event>
 8    1  0.3146747E-007  0.9118800E+02  0.7816164E-02  0.1184000E+00
        -11   -1    0    0    0    0  0.00000000000E+00  0.00000000000E+00  0.45593999997E+02  0.45594000000E+02  0.51100000000E-03 0.  1.
         11   -1    0    0    0    0 -0.00000000000E+00 -0.00000000000E+00 -0.45593999997E+02  0.45594000000E+02  0.51100000000E-03 0. -1.
         23    2    1    2    0    0  0.00000000000E+00  0.00000000000E+00  0.00000000000E+00  0.91188000000E+02  0.91188000000E+02 0.  0.
    9900012    2    3    3    0    0  0.14723195353E+02  0.30867827428E+02  0.13644919659E+02  0.54367094470E+02  0.40000023464E+02 0.  0.
         12    1    3    3    0    0 -0.14723195353E+02 -0.30867827428E+02 -0.13644919659E+02  0.36820905530E+02  0.00000000000E+00 0. -1.
         11    1    4    4    0    0  0.86657937822E+01  0.17427337244E+02  0.73571231299E+01  0.20807097978E+02  0.51100000000E-03 0. -1.
        -11    1    4    4    0    0 -0.11780607840E+02  0.70954946695E+01  0.49719096237E+00  0.13761393999E+02  0.51100000000E-03 0.  1.
        -12    1    4    4    0    0  0.17838009411E+02  0.63449955148E+01  0.57906055673E+01  0.19798602493E+02  0.00000000000E+00 0.  1.
</event>
<event>
 8    1  0.3146747E-007  0.9118800E+02  0.7816164E-02  0.1184000E+00
        -11   -1    0    0    0    0  0.00000000000E+00  0.00000000000E+00  0.45593999997E+02  0.45594000000E+02  0.51100000000E-03 0.  1.
         11   -1    0    0    0    0 -0.00000000000E+00 -0.00000000000E+00 -0.45593999997E+02  0.45594000000E+02  0.51100000000E-03 0. -1.
         23    2    1    2    0    0  0.00000000000E+00  0.35527136788E-14 -0.35527136788E-14  0.91188000000E+02  0.91188000000E+02 0.  0.
    9900012    2    3    3    0    0 -0.86094651621E+01  0.20306572691E+02  0.29483886428E+02  0.54367090944E+02  0.40000015424E+02 0.  0.
         12    1    3    3    0    0  0.86094651621E+01 -0.20306572691E+02 -0.29483886428E+02  0.36820909056E+02  0.00000000000E+00 0. -1.
         11    1    4    4    0    0  0.88270072700E+01  0.18019458934E+01  0.87397781942E+01  0.12551764398E+02  0.51100000000E-03 0. -1.
        -11    1    4    4    0    0 -0.59032438630E+01 -0.12357204064E+01  0.17763299160E+02  0.18759266785E+02  0.51100000000E-03 0.  1.
         12    1    4    4    0    0 -0.11533228569E+02  0.19740347204E+02  0.29808090743E+01  0.23056059761E+02  0.00000000000E+00 0. -1.
</event>
<event>
 8    1  0.3146747E-007  0.9118800E+02  0.7816164E-02  0.1184000E+00
        -11   -1    0    0    0    0  0.00000000000E+00  0.00000000000E+00  0.45593999997E+02  0.45594000000E+02  0.51100000000E-03 0. -1.
         11   -1    0    0    0    0 -0.00000000000E+00 -0.00000000000E+00 -0.45593999997E+02  0.45594000000E+02  0.51100000000E-03 0.  1.
         23    2    1    2    0    0  0.35527136788E-14  0.00000000000E+00  0.88817841970E-15  0.91188000000E+02  0.91188000000E+02 0.  0.
    9900012    2    3    3    0    0 -0.31675430453E+02 -0.18600483321E+02 -0.25435203331E+01  0.54367077010E+02  0.39999983660E+02 0.  0.
         12    1    3    3    0    0  0.31675430453E+02  0.18600483321E+02  0.25435203331E+01  0.36820922990E+02  0.00000000000E+00 0. -1.
         11    1    4    4    0    0 -0.86175849157E+01  0.45306719379E+01 -0.84901600215E+01  0.12917916838E+02  0.51100000000E-03 0. -1.
        -11    1    4    4    0    0 -0.67586339265E+01  0.46212010004E+01 -0.17147558428E+01  0.83651072378E+01  0.51100000000E-03 0.  1.
        -12    1    4    4    0    0 -0.16299211610E+02 -0.27752356259E+02  0.76613955311E+01  0.33084052934E+02  0.00000000000E+00 0.  1.
</event>
<event>
 8    1  0.3146747E-007  0.9118800E+02  0.7816164E-02  0.1184000E+00
        -11   -1    0    0    0    0  0.00000000000E+00  0.00000000000E+00  0.45593999997E+02  0.45594000000E+02  0.51100000000E-03 0. -1.
         11   -1    0    0    0    0 -0.00000000000E+00 -0.00000000000E+00 -0.45593999997E+02  0.45594000000E+02  0.51100000000E-03 0.  1.
         23    2    1    2    0    0 -0.17763568394E-14  0.35527136788E-14  0.17763568394E-14  0.91188000000E+02  0.91188000000E+02 0.  0.
    9900012    2    3    3    0    0 -0.14324495063E+02 -0.30661296823E+02 -0.14507664141E+02  0.54367101036E+02  0.40000038432E+02 0.  0.
         12    1    3    3    0    0  0.14324495063E+02  0.30661296823E+02  0.14507664141E+02  0.36820898964E+02  0.00000000000E+00 0. -1.
         11    1    4    4    0    0 -0.15253597647E+02 -0.14528547270E+02  0.56491778445E+01  0.21809725756E+02  0.51100000000E-03 0. -1.
        -11    1    4    4    0    0 -0.49062043254E+01 -0.61915273776E+01 -0.19467742106E+02  0.21009493928E+02  0.51100000000E-03 0.  1.
        -12    1    4    4    0    0  0.58353069099E+01 -0.99412221763E+01 -0.68909987963E+00  0.11547881353E+02  0.00000000000E+00 0.  1.
</event>
<event>
 8    1  0.3146747E-007  0.9118800E+02  0.7816164E-02  0.1184000E+00
        -11   -1    0    0    0    0  0.00000000000E+00  0.00000000000E+00  0.45593999997E+02  0.45594000000E+02  0.51100000000E-03 0.  1.
         11   -1    0    0    0    0 -0.00000000000E+00 -0.00000000000E+00 -0.45593999997E+02  0.45594000000E+02  0.51100000000E-03 0. -1.
         23    2    1    2    0    0 -0.35527136788E-14  0.16653345369E-15  0.00000000000E+00  0.91188000000E+02  0.91188000000E+02 0.  0.
    9900012    2    3    3    0    0  0.19880182274E+02 -0.12769450826E+00 -0.30992627145E+02  0.54367069941E+02  0.39999967544E+02 0.  0.
        -12    1    3    3    0    0 -0.19880182274E+02  0.12769450826E+00  0.30992627145E+02  0.36820930059E+02  0.00000000000E+00 0.  1.
         11    1    4    4    0    0  0.94189778665E+01  0.84602757870E+01 -0.16206925603E+02  0.20565939031E+02  0.51100000000E-03 0. -1.
        -11    1    4    4    0    0  0.17885589955E+02 -0.87740709451E+00 -0.34986299375E+01  0.18245672992E+02  0.51100000000E-03 0.  1.
         12    1    4    4    0    0 -0.74243855479E+01 -0.77105632007E+01 -0.11287071604E+02  0.15555457917E+02  0.00000000000E+00 0. -1.
</event>
<event>
 8    1  0.3146747E-007  0.9118800E+02  0.7816164E-02  0.1184000E+00
        -11   -1    0    0    0    0  0.00000000000E+00  0.00000000000E+00  0.45593999997E+02  0.45594000000E+02  0.51100000000E-03 0.  1.
         11   -1    0    0    0    0 -0.00000000000E+00 -0.00000000000E+00 -0.45593999997E+02  0.45594000000E+02  0.51100000000E-03 0. -1.
         23    2    1    2    0    0  0.35527136788E-14  0.35527136788E-14  0.17763568394E-14  0.91188000000E+02  0.91188000000E+02 0.  0.
    9900012    2    3    3    0    0 -0.21444898522E+02 -0.25611001192E+02 -0.15491052962E+02  0.54367085066E+02  0.40000002025E+02 0.  0.
        -12    1    3    3    0    0  0.21444898522E+02  0.25611001192E+02  0.15491052962E+02  0.36820914934E+02  0.00000000000E+00 0.  1.
         11    1    4    4    0    0  0.94754122986E+00 -0.98070104539E+01 -0.16719490704E+02  0.19406613771E+02  0.51100000000E-03 0. -1.
        -11    1    4    4    0    0 -0.13080151709E+02  0.33748463961E+01 -0.87525012916E+00  0.13536839364E+02  0.51100000000E-03 0.  1.
         12    1    4    4    0    0 -0.93122880429E+01 -0.19178837134E+02  0.21036878706E+01  0.21423631930E+02  0.00000000000E+00 0. -1.
</event>
<event>
 8    1  0.3146747E-007  0.9118800E+02  0.7816164E-02  0.1184000E+00
        -11   -1    0    0    0    0  0.00000000000E+00  0.00000000000E+00  0.45593999997E+02  0.45594000000E+02  0.51100000000E-03 0.  1.
         11   -1    0    0    0    0 -0.00000000000E+00 -0.00000000000E+00 -0.45593999997E+02  0.45594000000E+02  0.51100000000E-03 0. -1.
         23    2    1    2    0    0  0.00000000000E+00 -0.17763568394E-14  0.35527136788E-14  0.91188000000E+02  0.91188000000E+02 0.  0.
    9900012    2    3    3    0    0  0.24057045039E+02  0.13325630528E+02 -0.24483913638E+02  0.54367138087E+02  0.40000122897E+02 0.  0.
         12    1    3    3    0    0 -0.24057045039E+02 -0.13325630528E+02  0.24483913638E+02  0.36820861913E+02  0.00000000000E+00 0. -1.
         11    1    4    4    0    0  0.25969810401E+02  0.48101073463E+01 -0.11479349469E+02  0.28798327198E+02  0.51100000000E-03 0.  1.
        -11    1    4    4    0    0 -0.97020061946E+01  0.14321654960E+01 -0.11200029998E+02  0.14886930323E+02  0.51100000000E-03 0. -1.
         12    1    4    4    0    0  0.77892408329E+01  0.70833576856E+01 -0.18045341711E+01  0.10681880566E+02  0.00000000000E+00 0. -1.
</event>
<event>
 8    1  0.3146747E-007  0.9118800E+02  0.7816164E-02  0.1184000E+00
        -11   -1    0    0    0    0  0.00000000000E+00  0.00000000000E+00  0.45593999997E+02  0.45594000000E+02  0.51100000000E-03 0.  1.
         11   -1    0    0    0    0 -0.00000000000E+00 -0.00000000000E+00 -0.45593999997E+02  0.45594000000E+02  0.51100000000E-03 0. -1.
         23    2    1    2    0    0  0.88817841970E-15  0.35527136788E-14 -0.35527136788E-14  0.91188000000E+02  0.91188000000E+02 0.  0.
    9900012    2    3    3    0    0  0.75663860582E+01 -0.29087817879E+02  0.21270375323E+02  0.54367079135E+02  0.39999988505E+02 0.  0.
         12    1    3    3    0    0 -0.75663860582E+01  0.29087817879E+02 -0.21270375323E+02  0.36820920865E+02  0.00000000000E+00 0. -1.
         11    1    4    4    0    0  0.13177322894E+02 -0.35273808209E+01 -0.66835721232E+01  0.15190602052E+02  0.51100000000E-03 0. -1.
        -11    1    4    4    0    0 -0.43099776814E+01 -0.19538086633E+02  0.15597660382E+02  0.25369267757E+02  0.51100000000E-03 0.  1.
        -12    1    4    4    0    0 -0.13009591546E+01 -0.60223504257E+01  0.12356287064E+02  0.13807209326E+02  0.00000000000E+00 0.  1.
</event>
<event>
 8    1  0.3146747E-007  0.9118800E+02  0.7816164E-02  0.1184000E+00
        -11   -1    0    0    0    0  0.00000000000E+00  0.00000000000E+00  0.45593999997E+02  0.45594000000E+02  0.51100000000E-03 0. -1.
         11   -1    0    0    0    0 -0.00000000000E+00 -0.00000000000E+00 -0.45593999997E+02  0.45594000000E+02  0.51100000000E-03 0.  1.
         23    2    1    2    0    0 -0.71054273576E-14  0.00000000000E+00 -0.17763568394E-14  0.91188000000E+02  0.91188000000E+02 0.  0.
    9900012    2    3    3    0    0 -0.33669353238E+02  0.18864153935E+01 -0.14785219098E+02  0.54366992215E+02  0.39999790353E+02 0.  0.
         12    1    3    3    0    0  0.33669353238E+02 -0.18864153935E+01  0.14785219098E+02  0.36821007785E+02  0.00000000000E+00 0. -1.
         11    1    4    4    0    0 -0.29690867358E+02 -0.49826430419E+01  0.67743823894E+01  0.30858817106E+02  0.51100000000E-03 0. -1.
        -11    1    4    4    0    0 -0.62835101187E+00  0.58295908592E+01 -0.13533992169E+02  0.14749505038E+02  0.51100000000E-03 0.  1.
         12    1    4    4    0    0 -0.33501348674E+01  0.10394675762E+01 -0.80256093193E+01  0.87586700713E+01  0.00000000000E+00 0. -1.
</event>
<event>
 8    1  0.3146747E-007  0.9118800E+02  0.7816164E-02  0.1184000E+00
        -11   -1    0    0    0    0  0.00000000000E+00  0.00000000000E+00  0.45593999997E+02  0.45594000000E+02  0.51100000000E-03 0. -1.
         11   -1    0    0    0    0 -0.00000000000E+00 -0.00000000000E+00 -0.45593999997E+02  0.45594000000E+02  0.51100000000E-03 0.  1.
         23    2    1    2    0    0  0.35527136788E-14 -0.71054273576E-14 -0.35527136788E-14  0.91188000000E+02  0.91188000000E+02 0.  0.
    9900012    2    3    3    0    0 -0.18740714340E+02  0.29923985080E+02  0.10446023458E+02  0.54367100186E+02  0.40000036493E+02 0.  0.
        -12    1    3    3    0    0  0.18740714340E+02 -0.29923985080E+02 -0.10446023458E+02  0.36820899814E+02  0.00000000000E+00 0.  1.
         11    1    4    4    0    0 -0.94518547174E+01  0.47542219151E+01  0.19280927723E+02  0.21993052488E+02  0.51100000000E-03 0. -1.
        -11    1    4    4    0    0 -0.12540055987E+02  0.17954223327E+02 -0.10499410301E+02  0.24286719753E+02  0.51100000000E-03 0.  1.
        -12    1    4    4    0    0  0.32511963639E+01  0.72155398381E+01  0.16645060357E+01  0.80873279453E+01  0.00000000000E+00 0.  1.
</event>
<event>
 8    1  0.3146747E-007  0.9118800E+02  0.7816164E-02  0.1184000E+00
        -11   -1    0    0    0    0  0.00000000000E+00  0.00000000000E+00  0.45593999997E+02  0.45594000000E+02  0.51100000000E-03 0. -1.
         11   -1    0    0    0    0 -0.00000000000E+00 -0.00000000000E+00 -0.45593999997E+02  0.45594000000E+02  0.51100000000E-03 0.  1.
         23    2    1    2    0    0  0.00000000000E+00  0.00000000000E+00  0.00000000000E+00  0.91188000000E+02  0.91188000000E+02 0.  0.
    9900012    2    3    3    0    0 -0.11932889703E+02 -0.20731900411E+01 -0.34771921451E+02  0.54367102469E+02  0.40000041699E+02 0.  0.
         12    1    3    3    0    0  0.11932889703E+02  0.20731900411E+01  0.34771921451E+02  0.36820897531E+02  0.00000000000E+00 0. -1.
         11    1    4    4    0    0  0.22562631992E+01 -0.11025298634E+01 -0.14270981318E+02  0.14490245124E+02  0.51100000000E-03 0. -1.
        -11    1    4    4    0    0 -0.11540985236E+01 -0.58411892851E+01  0.69189235538E+01  0.91281399568E+01  0.51100000000E-03 0.  1.
        -12    1    4    4    0    0 -0.13035054378E+02  0.48705291074E+01 -0.27419863687E+02  0.30748717388E+02  0.00000000000E+00 0.  1.
</event>
<event>
 8    1  0.3146747E-007  0.9118800E+02  0.7816164E-02  0.1184000E+00
        -11   -1    0    0    0    0  0.00000000000E+00  0.00000000000E+00  0.45593999997E+02  0.45594000000E+02  0.51100000000E-03 0. -1.
         11   -1    0    0    0    0 -0.00000000000E+00 -0.00000000000E+00 -0.45593999997E+02  0.45594000000E+02  0.51100000000E-03 0.  1.
         23    2    1    2    0    0  0.00000000000E+00  0.00000000000E+00  0.00000000000E+00  0.91188000000E+02  0.91188000000E+02 0.  0.
    9900012    2    3    3    0    0  0.75330902217E+01 -0.79284499736E+01  0.35159242706E+02  0.54367080471E+02  0.39999991551E+02 0.  0.
        -12    1    3    3    0    0 -0.75330902217E+01  0.79284499736E+01 -0.35159242706E+02  0.36820919529E+02  0.00000000000E+00 0.  1.
         11    1    4    4    0    0 -0.20409874416E+01 -0.79008049548E+01 -0.53452983083E+01  0.97550275723E+01  0.51100000000E-03 0. -1.
        -11    1    4    4    0    0  0.10812384201E+02  0.20371943666E+01  0.13124282961E+02  0.17126138400E+02  0.51100000000E-03 0.  1.
         12    1    4    4    0    0 -0.12383065380E+01 -0.20648393855E+01  0.27380258054E+02  0.27485914499E+02  0.00000000000E+00 0. -1.
</event>
<event>
 8    1  0.3146747E-007  0.9118800E+02  0.7816164E-02  0.1184000E+00
        -11   -1    0    0    0    0  0.00000000000E+00  0.00000000000E+00  0.45593999997E+02  0.45594000000E+02  0.51100000000E-03 0. -1.
         11   -1    0    0    0    0 -0.00000000000E+00 -0.00000000000E+00 -0.45593999997E+02  0.45594000000E+02  0.51100000000E-03 0.  1.
         23    2    1    2    0    0  0.35527136788E-14  0.00000000000E+00  0.13322676296E-14  0.91188000000E+02  0.91188000000E+02 0.  0.
    9900012    2    3    3    0    0 -0.21558724532E+02  0.29815103099E+02  0.14364563302E+01  0.54367049672E+02  0.39999921338E+02 0.  0.
        -12    1    3    3    0    0  0.21558724532E+02 -0.29815103099E+02 -0.14364563302E+01  0.36820950328E+02  0.00000000000E+00 0.  1.
         11    1    4    4    0    0 -0.79672787658E+00 -0.17611556170E+01 -0.16359854848E+01  0.25323690853E+01  0.51100000000E-03 0.  1.
        -11    1    4    4    0    0 -0.19996233833E+02  0.98055232023E+01  0.15141398331E+02  0.26930644189E+02  0.51100000000E-03 0. -1.
        -12    1    4    4    0    0 -0.76576282219E+00  0.21770735514E+02 -0.12068956516E+02  0.24904036398E+02  0.00000000000E+00 0.  1.
</event>
<event>
 8    1  0.3146747E-007  0.9118800E+02  0.7816164E-02  0.1184000E+00
        -11   -1    0    0    0    0  0.00000000000E+00  0.00000000000E+00  0.45593999997E+02  0.45594000000E+02  0.51100000000E-03 0. -1.
         11   -1    0    0    0    0 -0.00000000000E+00 -0.00000000000E+00 -0.45593999997E+02  0.45594000000E+02  0.51100000000E-03 0.  1.
         23    2    1    2    0    0  0.17763568394E-14 -0.17763568394E-14  0.00000000000E+00  0.91188000000E+02  0.91188000000E+02 0.  0.
    9900012    2    3    3    0    0  0.96981501796E+01 -0.74485543177E+01 -0.34731019744E+02  0.54367098181E+02  0.40000031922E+02 0.  0.
         12    1    3    3    0    0 -0.96981501796E+01  0.74485543177E+01  0.34731019744E+02  0.36820901819E+02  0.00000000000E+00 0. -1.
         11    1    4    4    0    0 -0.26039857570E+01  0.32174076317E+01 -0.13128138018E+01  0.43423419983E+01  0.51100000000E-03 0. -1.
        -11    1    4    4    0    0  0.89081052533E+00  0.37341852116E+01  0.56620861305E+01  0.68408261341E+01  0.51100000000E-03 0.  1.
        -12    1    4    4    0    0  0.11411325411E+02 -0.14400147161E+02 -0.39080292073E+02  0.43183930048E+02  0.00000000000E+00 0.  1.
</event>
<event>
 8    1  0.3146747E-007  0.9118800E+02  0.7816164E-02  0.1184000E+00
        -11   -1    0    0    0    0  0.00000000000E+00  0.00000000000E+00  0.45593999997E+02  0.45594000000E+02  0.51100000000E-03 0.  1.
         11   -1    0    0    0    0 -0.00000000000E+00 -0.00000000000E+00 -0.45593999997E+02  0.45594000000E+02  0.51100000000E-03 0. -1.
         23    2    1    2    0    0  0.44408920985E-15  0.00000000000E+00  0.00000000000E+00  0.91188000000E+02  0.91188000000E+02 0.  0.
    9900012    2    3    3    0    0  0.29182907729E+01  0.32124291563E+02 -0.17756515455E+02  0.54367077000E+02  0.39999983637E+02 0.  0.
        -12    1    3    3    0    0 -0.29182907729E+01 -0.32124291563E+02  0.17756515455E+02  0.36820923000E+02  0.00000000000E+00 0.  1.
         11    1    4    4    0    0  0.53812644058E+01  0.19718693775E+02 -0.10423697597E+01  0.20466348619E+02  0.51100000000E-03 0. -1.
        -11    1    4    4    0    0 -0.21300358568E+01 -0.36464381834E+01  0.52225058609E+01  0.67162587729E+01  0.51100000000E-03 0.  1.
         12    1    4    4    0    0 -0.33293777614E+00  0.16052035971E+02 -0.21936651557E+02  0.27184469608E+02  0.00000000000E+00 0. -1.
</event>
<event>
 8    1  0.3146747E-007  0.9118800E+02  0.7816164E-02  0.1184000E+00
        -11   -1    0    0    0    0  0.00000000000E+00  0.00000000000E+00  0.45593999997E+02  0.45594000000E+02  0.51100000000E-03 0. -1.
         11   -1    0    0    0    0 -0.00000000000E+00 -0.00000000000E+00 -0.45593999997E+02  0.45594000000E+02  0.51100000000E-03 0.  1.
         23    2    1    2    0    0 -0.35527136788E-14 -0.66613381478E-15  0.71054273576E-14  0.91188000000E+02  0.91188000000E+02 0.  0.
    9900012    2    3    3    0    0 -0.17399778987E+02 -0.11726128158E+01 -0.32429195590E+02  0.54367081268E+02  0.39999993368E+02 0.  0.
         12    1    3    3    0    0  0.17399778987E+02  0.11726128158E+01  0.32429195590E+02  0.36820918732E+02  0.00000000000E+00 0. -1.
         11    1    4    4    0    0  0.28211004195E+01  0.54624945176E+00 -0.81785951158E+00  0.29876228815E+01  0.51100000000E-03 0. -1.
        -11    1    4    4    0    0 -0.96418420137E+01  0.13694493640E+02 -0.27561546187E+02  0.32251249619E+02  0.51100000000E-03 0.  1.
         12    1    4    4    0    0 -0.10579037393E+02 -0.15413355908E+02 -0.40497898911E+01  0.19128208768E+02  0.00000000000E+00 0. -1.
</event>
<event>
 8    1  0.3146747E-007  0.9118800E+02  0.7816164E-02  0.1184000E+00
        -11   -1    0    0    0    0  0.00000000000E+00  0.00000000000E+00  0.45593999997E+02  0.45594000000E+02  0.51100000000E-03 0. -1.
         11   -1    0    0    0    0 -0.00000000000E+00 -0.00000000000E+00 -0.45593999997E+02  0.45594000000E+02  0.51100000000E-03 0.  1.
         23    2    1    2    0    0  0.00000000000E+00  0.00000000000E+00  0.26645352591E-14  0.91188000000E+02  0.91188000000E+02 0.  0.
    9900012    2    3    3    0    0 -0.35269442676E+02 -0.78993023476E+01  0.70318130950E+01  0.54367096159E+02  0.40000027313E+02 0.  0.
        -12    1    3    3    0    0  0.35269442676E+02  0.78993023476E+01 -0.70318130950E+01  0.36820903841E+02  0.00000000000E+00 0.  1.
         11    1    4    4    0    0 -0.25416705394E+02 -0.79530535796E+01  0.20578928394E+02  0.33656385255E+02  0.51100000000E-03 0. -1.
        -11    1    4    4    0    0 -0.99521869977E+01 -0.46034575244E+01 -0.87999235483E+01  0.14059747577E+02  0.51100000000E-03 0.  1.
        -12    1    4    4    0    0  0.99449715683E-01  0.46572087564E+01 -0.47471917509E+01  0.66509633262E+01  0.00000000000E+00 0.  1.
</event>
<event>
 8    1  0.3146747E-007  0.9118800E+02  0.7816164E-02  0.1184000E+00
        -11   -1    0    0    0    0  0.00000000000E+00  0.00000000000E+00  0.45593999997E+02  0.45594000000E+02  0.51100000000E-03 0.  1.
         11   -1    0    0    0    0 -0.00000000000E+00 -0.00000000000E+00 -0.45593999997E+02  0.45594000000E+02  0.51100000000E-03 0. -1.
         23    2    1    2    0    0  0.35527136788E-14  0.35527136788E-14 -0.88817841970E-15  0.91188000000E+02  0.91188000000E+02 0.  0.
    9900012    2    3    3    0    0  0.30864398462E+02 -0.19618969912E+02  0.42736498070E+01  0.54367093500E+02  0.40000021252E+02 0.  0.
        -12    1    3    3    0    0 -0.30864398462E+02  0.19618969912E+02 -0.42736498070E+01  0.36820906500E+02  0.00000000000E+00 0.  1.
         11    1    4    4    0    0 -0.54036040889E+01 -0.21219507200E+01  0.46608667891E+01  0.74448164177E+01  0.51100000000E-03 0. -1.
        -11    1    4    4    0    0  0.10796710141E+01 -0.12474991696E+01  0.72350953480E+01  0.74208185958E+01  0.51100000000E-03 0.  1.
         12    1    4    4    0    0  0.35188331536E+02 -0.16249520023E+02 -0.76223123300E+01  0.39501458486E+02  0.00000000000E+00 0. -1.
</event>
<event>
 8    1  0.3146747E-007  0.9118800E+02  0.7816164E-02  0.1184000E+00
        -11   -1    0    0    0    0  0.00000000000E+00  0.00000000000E+00  0.45593999997E+02  0.45594000000E+02  0.51100000000E-03 0.  1.
         11   -1    0    0    0    0 -0.00000000000E+00 -0.00000000000E+00 -0.45593999997E+02  0.45594000000E+02  0.51100000000E-03 0. -1.
         23    2    1    2    0    0  0.00000000000E+00  0.00000000000E+00  0.00000000000E+00  0.91188000000E+02  0.91188000000E+02 0.  0.
    9900012    2    3    3    0    0 -0.11968723680E+02  0.10383625019E+02  0.33237282998E+02  0.54366987030E+02  0.39999778532E+02 0.  0.
         12    1    3    3    0    0  0.11968723680E+02 -0.10383625019E+02 -0.33237282998E+02  0.36821012970E+02  0.00000000000E+00 0. -1.
         11    1    4    4    0    0 -0.14990284017E+02  0.11737974392E+02  0.98156978728E+01  0.21420471113E+02  0.51100000000E-03 0. -1.
        -11    1    4    4    0    0 -0.90037719794E+00 -0.60992848466E+01 -0.22378587265E+01  0.65589607927E+01  0.51100000000E-03 0.  1.
         12    1    4    4    0    0  0.39219375345E+01  0.47449354735E+01  0.25659443851E+02  0.26387555124E+02  0.00000000000E+00 0. -1.
</event>
<event>
 8    1  0.3146747E-007  0.9118800E+02  0.7816164E-02  0.1184000E+00
        -11   -1    0    0    0    0  0.00000000000E+00  0.00000000000E+00  0.45593999997E+02  0.45594000000E+02  0.51100000000E-03 0. -1.
         11   -1    0    0    0    0 -0.00000000000E+00 -0.00000000000E+00 -0.45593999997E+02  0.45594000000E+02  0.51100000000E-03 0.  1.
         23    2    1    2    0    0  0.00000000000E+00  0.00000000000E+00  0.00000000000E+00  0.91188000000E+02  0.91188000000E+02 0.  0.
    9900012    2    3    3    0    0 -0.19813818059E+02 -0.16512226219E+02 -0.26278278851E+02  0.54366960632E+02  0.39999718351E+02 0.  0.
         12    1    3    3    0    0  0.19813818059E+02  0.16512226219E+02  0.26278278851E+02  0.36821039368E+02  0.00000000000E+00 0. -1.
         11    1    4    4    0    0 -0.23130235656E+01  0.81880011185E+00  0.67086052914E+01  0.71432413409E+01  0.51100000000E-03 0. -1.
        -11    1    4    4    0    0 -0.10387426865E+01 -0.15216407486E+02 -0.79886176547E+01  0.17217318475E+02  0.51100000000E-03 0.  1.
        -12    1    4    4    0    0 -0.16462051807E+02 -0.21146188444E+01 -0.24998266487E+02  0.30006400816E+02  0.00000000000E+00 0.  1.
</event>
<event>
 8    1  0.3146747E-007  0.9118800E+02  0.7816164E-02  0.1184000E+00
        -11   -1    0    0    0    0  0.00000000000E+00  0.00000000000E+00  0.45593999997E+02  0.45594000000E+02  0.51100000000E-03 0. -1.
         11   -1    0    0    0    0 -0.00000000000E+00 -0.00000000000E+00 -0.45593999997E+02  0.45594000000E+02  0.51100000000E-03 0.  1.
         23    2    1    2    0    0  0.00000000000E+00  0.00000000000E+00  0.00000000000E+00  0.91188000000E+02  0.91188000000E+02 0.  0.
    9900012    2    3    3    0    0 -0.16340653834E+02 -0.58987908915E+01 -0.32464883325E+02  0.54367063686E+02  0.39999953285E+02 0.  0.
         12    1    3    3    0    0  0.16340653834E+02  0.58987908915E+01  0.32464883325E+02  0.36820936314E+02  0.00000000000E+00 0. -1.
         11    1    4    4    0    0 -0.84341766278E+01  0.11900930885E+02 -0.15048387943E+02  0.20957611297E+02  0.51100000000E-03 0. -1.
        -11    1    4    4    0    0  0.61825276207E+01 -0.31957297937E+01 -0.91546987854E+01  0.11499775946E+02  0.51100000000E-03 0.  1.
         12    1    4    4    0    0 -0.14089004827E+02 -0.14603991982E+02 -0.82617965966E+01  0.21909676443E+02  0.00000000000E+00 0. -1.
</event>
<event>
 8    1  0.3146747E-007  0.9118800E+02  0.7816164E-02  0.1184000E+00
        -11   -1    0    0    0    0  0.00000000000E+00  0.00000000000E+00  0.45593999997E+02  0.45594000000E+02  0.51100000000E-03 0.  1.
         11   -1    0    0    0    0 -0.00000000000E+00 -0.00000000000E+00 -0.45593999997E+02  0.45594000000E+02  0.51100000000E-03 0. -1.
         23    2    1    2    0    0 -0.35527136788E-14  0.00000000000E+00 -0.35527136788E-14  0.91188000000E+02  0.91188000000E+02 0.  0.
    9900012    2    3    3    0    0 -0.20104462602E+02 -0.24978338289E+02 -0.18101710572E+02  0.54367099335E+02  0.40000034553E+02 0.  0.
        -12    1    3    3    0    0  0.20104462602E+02  0.24978338289E+02  0.18101710572E+02  0.36820900665E+02  0.00000000000E+00 0.  1.
         11    1    4    4    0    0  0.13721580152E+01 -0.25463939294E+02 -0.14697355049E+02  0.29433098166E+02  0.51100000000E-03 0. -1.
        -11    1    4    4    0    0 -0.52819400035E+01 -0.23694434603E+01  0.38585323550E+01  0.69571132453E+01  0.51100000000E-03 0.  1.
         12    1    4    4    0    0 -0.16194680613E+02  0.28550444652E+01 -0.72628878781E+01  0.17976887923E+02  0.00000000000E+00 0. -1.
</event>
<event>
 8    1  0.3146747E-007  0.9118800E+02  0.7816164E-02  0.1184000E+00
        -11   -1    0    0    0    0  0.00000000000E+00  0.00000000000E+00  0.45593999997E+02  0.45594000000E+02  0.51100000000E-03 0.  1.
         11   -1    0    0    0    0 -0.00000000000E+00 -0.00000000000E+00 -0.45593999997E+02  0.45594000000E+02  0.51100000000E-03 0. -1.
         23    2    1    2    0    0 -0.71054273576E-14  0.00000000000E+00  0.13322676296E-14  0.91188000000E+02  0.91188000000E+02 0.  0.
    9900012    2    3    3    0    0 -0.33680806985E+02 -0.14731932733E+02  0.20859856459E+01  0.54367110042E+02  0.40000058962E+02 0.  0.
         12    1    3    3    0    0  0.33680806985E+02  0.14731932733E+02 -0.20859856459E+01  0.36820889958E+02  0.00000000000E+00 0. -1.
         11    1    4    4    0    0 -0.15617815260E+02 -0.32481759391E+01  0.66766827865E+01  0.17292914553E+02  0.51100000000E-03 0. -1.
        -11    1    4    4    0    0 -0.14596956653E+02 -0.15901319659E+02  0.82117770403E+01  0.23094510016E+02  0.51100000000E-03 0.  1.
         12    1    4    4    0    0 -0.34660350710E+01  0.44175628652E+01 -0.12802474181E+02  0.13979685473E+02  0.00000000000E+00 0. -1.
</event>
<event>
 8    1  0.3146747E-007  0.9118800E+02  0.7816164E-02  0.1184000E+00
        -11   -1    0    0    0    0  0.00000000000E+00  0.00000000000E+00  0.45593999997E+02  0.45594000000E+02  0.51100000000E-03 0. -1.
         11   -1    0    0    0    0 -0.00000000000E+00 -0.00000000000E+00 -0.45593999997E+02  0.45594000000E+02  0.51100000000E-03 0.  1.
         23    2    1    2    0    0  0.19984014443E-14  0.17763568394E-14 -0.71054273576E-14  0.91188000000E+02  0.91188000000E+02 0.  0.
    9900012    2    3    3    0    0  0.82626423018E+00 -0.12216661618E+02  0.34725356391E+02  0.54367083252E+02  0.39999997889E+02 0.  0.
        -12    1    3    3    0    0 -0.82626423018E+00  0.12216661618E+02 -0.34725356391E+02  0.36820916748E+02  0.00000000000E+00 0.  1.
         11    1    4    4    0    0 -0.12448420859E+02 -0.45148828487E+01  0.23591136655E+02  0.27053448541E+02  0.51100000000E-03 0. -1.
        -11    1    4    4    0    0 -0.33853558196E+01  0.13664460634E+01 -0.20750628547E+01  0.41992493355E+01  0.51100000000E-03 0.  1.
         12    1    4    4    0    0  0.16660040909E+02 -0.90682248328E+01  0.13209282591E+02  0.23114385376E+02  0.00000000000E+00 0. -1.
</event>
<event>
 8    1  0.3146747E-007  0.9118800E+02  0.7816164E-02  0.1184000E+00
        -11   -1    0    0    0    0  0.00000000000E+00  0.00000000000E+00  0.45593999997E+02  0.45594000000E+02  0.51100000000E-03 0. -1.
         11   -1    0    0    0    0 -0.00000000000E+00 -0.00000000000E+00 -0.45593999997E+02  0.45594000000E+02  0.51100000000E-03 0.  1.
         23    2    1    2    0    0  0.00000000000E+00  0.35527136788E-14  0.00000000000E+00  0.91188000000E+02  0.91188000000E+02 0.  0.
    9900012    2    3    3    0    0 -0.12304611403E+02  0.30099488181E+02  0.17274179951E+02  0.54367082800E+02  0.39999996858E+02 0.  0.
         12    1    3    3    0    0  0.12304611403E+02 -0.30099488181E+02 -0.17274179951E+02  0.36820917200E+02  0.00000000000E+00 0. -1.
         11    1    4    4    0    0  0.18585152383E+01  0.92695426271E+01  0.15156844591E+02  0.17863606512E+02  0.51100000000E-03 0. -1.
        -11    1    4    4    0    0 -0.62073902983E+00 -0.48286097215E+01  0.54405510942E+01  0.73007112843E+01  0.51100000000E-03 0.  1.
        -12    1    4    4    0    0 -0.13542387612E+02  0.25658555275E+02 -0.33232157342E+01  0.29202765003E+02  0.00000000000E+00 0.  1.
</event>
<event>
 8    1  0.3146747E-007  0.9118800E+02  0.7816164E-02  0.1184000E+00
        -11   -1    0    0    0    0  0.00000000000E+00  0.00000000000E+00  0.45593999997E+02  0.45594000000E+02  0.51100000000E-03 0.  1.
         11   -1    0    0    0    0 -0.00000000000E+00 -0.00000000000E+00 -0.45593999997E+02  0.45594000000E+02  0.51100000000E-03 0. -1.
         23    2    1    2    0    0 -0.13322676296E-14  0.00000000000E+00  0.88817841970E-15  0.91188000000E+02  0.91188000000E+02 0.  0.
    9900012    2    3    3    0    0  0.24145833957E+01  0.36329243435E+02  0.54894219324E+01  0.54367110620E+02  0.40000060281E+02 0.  0.
        -12    1    3    3    0    0 -0.24145833957E+01 -0.36329243435E+02 -0.54894219324E+01  0.36820889380E+02  0.00000000000E+00 0.  1.
         11    1    4    4    0    0 -0.86670564207E+01  0.22340713194E+01  0.43710572877E+00  0.89610269132E+01  0.51100000000E-03 0. -1.
        -11    1    4    4    0    0  0.10217763115E+01 -0.11705282770E+00  0.94227286723E+01  0.94786889435E+01  0.51100000000E-03 0.  1.
         12    1    4    4    0    0  0.10059863505E+02  0.34212224944E+02 -0.43704124687E+01  0.35927394763E+02  0.00000000000E+00 0. -1.
</event>
<event>
 8    1  0.3146747E-007  0.9118800E+02  0.7816164E-02  0.1184000E+00
        -11   -1    0    0    0    0  0.00000000000E+00  0.00000000000E+00  0.45593999997E+02  0.45594000000E+02  0.51100000000E-03 0. -1.
         11   -1    0    0    0    0 -0.00000000000E+00 -0.00000000000E+00 -0.45593999997E+02  0.45594000000E+02  0.51100000000E-03 0.  1.
         23    2    1    2    0    0  0.00000000000E+00  0.11102230246E-15 -0.35527136788E-14  0.91188000000E+02  0.91188000000E+02 0.  0.
    9900012    2    3    3    0    0 -0.26302586528E+02  0.81009638837E+00  0.25754521783E+02  0.54367113176E+02  0.40000066108E+02 0.  0.
        -12    1    3    3    0    0  0.26302586528E+02 -0.81009638837E+00 -0.25754521783E+02  0.36820886824E+02  0.00000000000E+00 0.  1.
         11    1    4    4    0    0 -0.67049226165E+01  0.67062550978E+01  0.88051133511E+01  0.12940628505E+02  0.51100000000E-03 0. -1.
        -11    1    4    4    0    0 -0.79693134787E+01 -0.12447959999E+02 -0.51139314753E+01  0.15640139413E+02  0.51100000000E-03 0.  1.
        -12    1    4    4    0    0 -0.11628350432E+02  0.65518012893E+01  0.22063339907E+02  0.25786345258E+02  0.00000000000E+00 0.  1.
</event>
<event>
 8    1  0.3146747E-007  0.9118800E+02  0.7816164E-02  0.1184000E+00
        -11   -1    0    0    0    0  0.00000000000E+00  0.00000000000E+00  0.45593999997E+02  0.45594000000E+02  0.51100000000E-03 0.  1.
         11   -1    0    0    0    0 -0.00000000000E+00 -0.00000000000E+00 -0.45593999997E+02  0.45594000000E+02  0.51100000000E-03 0. -1.
         23    2    1    2    0    0  0.00000000000E+00  0.31086244690E-14  0.71054273576E-14  0.91188000000E+02  0.91188000000E+02 0.  0.
    9900012    2    3    3    0    0  0.16928357853E+02 -0.72190154758E+00  0.32690820168E+02  0.54367079796E+02  0.39999990010E+02 0.  0.
         12    1    3    3    0    0 -0.16928357853E+02  0.72190154758E+00 -0.32690820168E+02  0.36820920204E+02  0.00000000000E+00 0. -1.
         11    1    4    4    0    0 -0.51188257963E+00 -0.13912046090E+02  0.14249067305E+02  0.19920917888E+02  0.51100000000E-03 0. -1.
        -11    1    4    4    0    0  0.99279699771E+01 -0.34964924910E+01  0.45310226997E+01  0.11459503243E+02  0.51100000000E-03 0.  1.
        -12    1    4    4    0    0  0.75122704561E+01  0.16686637033E+02  0.13910730163E+02  0.22986658665E+02  0.00000000000E+00 0.  1.
</event>
<event>
 8    1  0.3146747E-007  0.9118800E+02  0.7816164E-02  0.1184000E+00
        -11   -1    0    0    0    0  0.00000000000E+00  0.00000000000E+00  0.45593999997E+02  0.45594000000E+02  0.51100000000E-03 0. -1.
         11   -1    0    0    0    0 -0.00000000000E+00 -0.00000000000E+00 -0.45593999997E+02  0.45594000000E+02  0.51100000000E-03 0.  1.
         23    2    1    2    0    0 -0.35527136788E-14 -0.35527136788E-14 -0.44408920985E-15  0.91188000000E+02  0.91188000000E+02 0.  0.
    9900012    2    3    3    0    0  0.20608900909E+02  0.30359287979E+02  0.30606610821E+01  0.54367071039E+02  0.39999970047E+02 0.  0.
        -12    1    3    3    0    0 -0.20608900909E+02 -0.30359287979E+02 -0.30606610821E+01  0.36820928961E+02  0.00000000000E+00 0.  1.
         11    1    4    4    0    0 -0.57335692490E+01  0.59754320678E+01 -0.91343185773E+01  0.12329451767E+02  0.51100000000E-03 0. -1.
        -11    1    4    4    0    0 -0.18332858666E+01 -0.53210991209E-01 -0.14346836960E+01  0.23285373192E+01  0.51100000000E-03 0.  1.
         12    1    4    4    0    0  0.28175756025E+02  0.24437066903E+02  0.13629663355E+02  0.39709081953E+02  0.00000000000E+00 0. -1.
</event>
<event>
 8    1  0.3146747E-007  0.9118800E+02  0.7816164E-02  0.1184000E+00
        -11   -1    0    0    0    0  0.00000000000E+00  0.00000000000E+00  0.45593999997E+02  0.45594000000E+02  0.51100000000E-03 0.  1.
         11   -1    0    0    0    0 -0.00000000000E+00 -0.00000000000E+00 -0.45593999997E+02  0.45594000000E+02  0.51100000000E-03 0. -1.
         23    2    1    2    0    0  0.00000000000E+00 -0.17763568394E-14  0.00000000000E+00  0.91188000000E+02  0.91188000000E+02 0.  0.
    9900012    2    3    3    0    0 -0.14532369818E+02 -0.13099992506E+02  0.31192643164E+02  0.54367074377E+02  0.39999977657E+02 0.  0.
         12    1    3    3    0    0  0.14532369818E+02  0.13099992506E+02 -0.31192643164E+02  0.36820925623E+02  0.00000000000E+00 0. -1.
         11    1    4    4    0    0 -0.13331251957E+02 -0.22472113211E+02  0.17752943093E+02  0.31589320024E+02  0.51100000000E-03 0. -1.
        -11    1    4    4    0    0  0.67978606233E+01  0.33155996346E+01  0.25765749580E+01  0.79901720111E+01  0.51100000000E-03 0.  1.
         12    1    4    4    0    0 -0.79989784842E+01  0.60565210701E+01  0.10863125114E+02  0.14787582341E+02  0.00000000000E+00 0. -1.
</event>
<event>
 8    1  0.3146747E-007  0.9118800E+02  0.7816164E-02  0.1184000E+00
        -11   -1    0    0    0    0  0.00000000000E+00  0.00000000000E+00  0.45593999997E+02  0.45594000000E+02  0.51100000000E-03 0.  1.
         11   -1    0    0    0    0 -0.00000000000E+00 -0.00000000000E+00 -0.45593999997E+02  0.45594000000E+02  0.51100000000E-03 0. -1.
         23    2    1    2    0    0  0.00000000000E+00 -0.44408920985E-15  0.00000000000E+00  0.91188000000E+02  0.91188000000E+02 0.  0.
    9900012    2    3    3    0    0 -0.12544293492E+02 -0.20144723560E+01 -0.34559555300E+02  0.54367078493E+02  0.39999987040E+02 0.  0.
        -12    1    3    3    0    0  0.12544293492E+02  0.20144723560E+01  0.34559555300E+02  0.36820921507E+02  0.00000000000E+00 0.  1.
         11    1    4    4    0    0 -0.10530489154E+02  0.19080616488E+00 -0.51908016284E+01  0.11741892122E+02  0.51100000000E-03 0. -1.
        -11    1    4    4    0    0 -0.14970572704E+02  0.22209618371E+00 -0.24218031943E+02  0.28472450636E+02  0.51100000000E-03 0.  1.
        -12    1    4    4    0    0  0.12956768366E+02 -0.24273747046E+01 -0.51507217291E+01  0.14152735734E+02  0.00000000000E+00 0.  1.
</event>
<event>
 8    1  0.3146747E-007  0.9118800E+02  0.7816164E-02  0.1184000E+00
        -11   -1    0    0    0    0  0.00000000000E+00  0.00000000000E+00  0.45593999997E+02  0.45594000000E+02  0.51100000000E-03 0.  1.
         11   -1    0    0    0    0 -0.00000000000E+00 -0.00000000000E+00 -0.45593999997E+02  0.45594000000E+02  0.51100000000E-03 0. -1.
         23    2    1    2    0    0  0.00000000000E+00 -0.44408920985E-15  0.00000000000E+00  0.91188000000E+02  0.91188000000E+02 0.  0.
    9900012    2    3    3    0    0 -0.24414037091E+02 -0.27536100929E+01 -0.27425401989E+02  0.54367078639E+02  0.39999987373E+02 0.  0.
        -12    1    3    3    0    0  0.24414037091E+02  0.27536100929E+01  0.27425401989E+02  0.36820921361E+02  0.00000000000E+00 0.  1.
         11    1    4    4    0    0 -0.14322648688E+02  0.72369084214E+01 -0.27657884833E+02  0.31976080163E+02  0.51100000000E-03 0. -1.
        -11    1    4    4    0    0 -0.23851756831E+01 -0.40171263281E+01  0.84396167522E+01  0.96464241126E+01  0.51100000000E-03 0.  1.
        -12    1    4    4    0    0 -0.77062127202E+01 -0.59733921862E+01 -0.82071339084E+01  0.12744574363E+02  0.00000000000E+00 0.  1.
</event>
<event>
 8    1  0.3146747E-007  0.9118800E+02  0.7816164E-02  0.1184000E+00
        -11   -1    0    0    0    0  0.00000000000E+00  0.00000000000E+00  0.45593999997E+02  0.45594000000E+02  0.51100000000E-03 0. -1.
         11   -1    0    0    0    0 -0.00000000000E+00 -0.00000000000E+00 -0.45593999997E+02  0.45594000000E+02  0.51100000000E-03 0.  1.
         23    2    1    2    0    0  0.00000000000E+00  0.00000000000E+00  0.71054273576E-14  0.91188000000E+02  0.91188000000E+02 0.  0.
    9900012    2    3    3    0    0  0.10766323049E+02  0.91505366977E+01 -0.34001948075E+02  0.54367102310E+02  0.40000041336E+02 0.  0.
         12    1    3    3    0    0 -0.10766323049E+02 -0.91505366977E+01  0.34001948075E+02  0.36820897690E+02  0.00000000000E+00 0. -1.
         11    1    4    4    0    0  0.50972716806E+01 -0.22133147169E+01 -0.14428092684E+02  0.15461267716E+02  0.51100000000E-03 0. -1.
        -11    1    4    4    0    0  0.37341467642E+01  0.16429354929E+01 -0.26501189103E+02  0.26813356993E+02  0.51100000000E-03 0.  1.
         12    1    4    4    0    0  0.19349046039E+01  0.97209159217E+01  0.69273337121E+01  0.12092477601E+02  0.00000000000E+00 0. -1.
</event>
<event>
 8    1  0.3146747E-007  0.9118800E+02  0.7816164E-02  0.1184000E+00
        -11   -1    0    0    0    0  0.00000000000E+00  0.00000000000E+00  0.45593999997E+02  0.45594000000E+02  0.51100000000E-03 0.  1.
         11   -1    0    0    0    0 -0.00000000000E+00 -0.00000000000E+00 -0.45593999997E+02  0.45594000000E+02  0.51100000000E-03 0. -1.
         23    2    1    2    0    0 -0.35527136788E-14  0.00000000000E+00  0.00000000000E+00  0.91188000000E+02  0.91188000000E+02 0.  0.
    9900012    2    3    3    0    0 -0.30176693421E+02 -0.19999880194E+02  0.67194461849E+01  0.54367095739E+02  0.40000026355E+02 0.  0.
        -12    1    3    3    0    0  0.30176693421E+02  0.19999880194E+02 -0.67194461849E+01  0.36820904261E+02  0.00000000000E+00 0.  1.
         11    1    4    4    0    0 -0.20470741322E+02 -0.19175601831E+02  0.13868568034E+01  0.28083417311E+02  0.51100000000E-03 0. -1.
        -11    1    4    4    0    0 -0.11371822419E+02  0.94597740112E+01  0.50315916284E+00  0.14800636435E+02  0.51100000000E-03 0.  1.
         12    1    4    4    0    0  0.16658703196E+01 -0.10284052375E+02  0.48294302187E+01  0.11483041993E+02  0.00000000000E+00 0. -1.
</event>
<event>
 8    1  0.3146747E-007  0.9118800E+02  0.7816164E-02  0.1184000E+00
        -11   -1    0    0    0    0  0.00000000000E+00  0.00000000000E+00  0.45593999997E+02  0.45594000000E+02  0.51100000000E-03 0.  1.
         11   -1    0    0    0    0 -0.00000000000E+00 -0.00000000000E+00 -0.45593999997E+02  0.45594000000E+02  0.51100000000E-03 0. -1.
         23    2    1    2    0    0 -0.17763568394E-14 -0.35527136788E-14  0.00000000000E+00  0.91188000000E+02  0.91188000000E+02 0.  0.
    9900012    2    3    3    0    0 -0.13894457998E+02  0.30672813175E+02  0.14896377687E+02  0.54367088831E+02  0.40000010608E+02 0.  0.
         12    1    3    3    0    0  0.13894457998E+02 -0.30672813175E+02 -0.14896377687E+02  0.36820911169E+02  0.00000000000E+00 0. -1.
         11    1    4    4    0    0 -0.14263747918E+01  0.21605419522E+02  0.60414772442E+01  0.22479505007E+02  0.51100000000E-03 0. -1.
        -11    1    4    4    0    0  0.75026243053E+01  0.19471852063E+01  0.72689444147E+01  0.10626309560E+02  0.51100000000E-03 0.  1.
        -12    1    4    4    0    0 -0.19970707512E+02  0.71202084461E+01  0.15859560280E+01  0.21261274265E+02  0.00000000000E+00 0.  1.
</event>
<event>
 8    1  0.3146747E-007  0.9118800E+02  0.7816164E-02  0.1184000E+00
        -11   -1    0    0    0    0  0.00000000000E+00  0.00000000000E+00  0.45593999997E+02  0.45594000000E+02  0.51100000000E-03 0.  1.
         11   -1    0    0    0    0 -0.00000000000E+00 -0.00000000000E+00 -0.45593999997E+02  0.45594000000E+02  0.51100000000E-03 0. -1.
         23    2    1    2    0    0  0.35527136788E-14  0.71054273576E-14  0.44408920985E-15  0.91188000000E+02  0.91188000000E+02 0.  0.
    9900012    2    3    3    0    0 -0.13806845798E+02  0.34049977067E+02  0.23977566161E+01  0.54367093358E+02  0.40000020929E+02 0.  0.
        -12    1    3    3    0    0  0.13806845798E+02 -0.34049977067E+02 -0.23977566161E+01  0.36820906642E+02  0.00000000000E+00 0.  1.
         11    1    4    4    0    0 -0.61756600835E+00  0.24660094627E+02  0.17498381758E+01  0.24729811740E+02  0.51100000000E-03 0. -1.
        -11    1    4    4    0    0  0.51375021893E+01  0.98986825220E+01  0.16608781402E+01  0.11275476082E+02  0.51100000000E-03 0.  1.
         12    1    4    4    0    0 -0.18326781979E+02 -0.50880008201E+00 -0.10129596999E+01  0.18361805537E+02  0.00000000000E+00 0. -1.
</event>
<event>
 8    1  0.3146747E-007  0.9118800E+02  0.7816164E-02  0.1184000E+00
        -11   -1    0    0    0    0  0.00000000000E+00  0.00000000000E+00  0.45593999997E+02  0.45594000000E+02  0.51100000000E-03 0.  1.
         11   -1    0    0    0    0 -0.00000000000E+00 -0.00000000000E+00 -0.45593999997E+02  0.45594000000E+02  0.51100000000E-03 0. -1.
         23    2    1    2    0    0  0.35527136788E-14  0.17763568394E-14  0.71054273576E-14  0.91188000000E+02  0.91188000000E+02 0.  0.
    9900012    2    3    3    0    0  0.19241084827E+02  0.11387093465E+02  0.29255670298E+02  0.54367088991E+02  0.40000010973E+02 0.  0.
         12    1    3    3    0    0 -0.19241084827E+02 -0.11387093465E+02 -0.29255670298E+02  0.36820911009E+02  0.00000000000E+00 0. -1.
         11    1    4    4    0    0 -0.42796056427E+01  0.35966673303E+01  0.10501289964E+02  0.11896559650E+02  0.51100000000E-03 0. -1.
        -11    1    4    4    0    0  0.35871876195E+01 -0.55667846036E+01 -0.53092322807E+01  0.84879298720E+01  0.51100000000E-03 0.  1.
        -12    1    4    4    0    0  0.19933502850E+02  0.13357210738E+02  0.24063612615E+02  0.33982599469E+02  0.00000000000E+00 0.  1.
</event>
<event>
 8    1  0.3146747E-007  0.9118800E+02  0.7816164E-02  0.1184000E+00
        -11   -1    0    0    0    0  0.00000000000E+00  0.00000000000E+00  0.45593999997E+02  0.45594000000E+02  0.51100000000E-03 0. -1.
         11   -1    0    0    0    0 -0.00000000000E+00 -0.00000000000E+00 -0.45593999997E+02  0.45594000000E+02  0.51100000000E-03 0.  1.
         23    2    1    2    0    0 -0.17763568394E-14 -0.17763568394E-14 -0.71054273576E-14  0.91188000000E+02  0.91188000000E+02 0.  0.
    9900012    2    3    3    0    0  0.81809722507E+01  0.14915479633E+02  0.32655498629E+02  0.54367062609E+02  0.39999950830E+02 0.  0.
        -12    1    3    3    0    0 -0.81809722507E+01 -0.14915479633E+02 -0.32655498629E+02  0.36820937391E+02  0.00000000000E+00 0.  1.
         11    1    4    4    0    0 -0.85828862435E+01 -0.68967883999E+00  0.94880974802E+01  0.12812711939E+02  0.51100000000E-03 0. -1.
        -11    1    4    4    0    0  0.30604680037E+01  0.29599986830E+01 -0.57449868547E+01  0.71507293912E+01  0.51100000000E-03 0.  1.
        -12    1    4    4    0    0  0.13703390490E+02  0.12645159790E+02  0.28912388004E+02  0.34403621279E+02  0.00000000000E+00 0.  1.
</event>
<event>
 8    1  0.3146747E-007  0.9118800E+02  0.7816164E-02  0.1184000E+00
        -11   -1    0    0    0    0  0.00000000000E+00  0.00000000000E+00  0.45593999997E+02  0.45594000000E+02  0.51100000000E-03 0.  1.
         11   -1    0    0    0    0 -0.00000000000E+00 -0.00000000000E+00 -0.45593999997E+02  0.45594000000E+02  0.51100000000E-03 0. -1.
         23    2    1    2    0    0  0.00000000000E+00  0.00000000000E+00  0.88817841970E-15  0.91188000000E+02  0.91188000000E+02 0.  0.
    9900012    2    3    3    0    0 -0.31880168141E+02 -0.17551944438E+02  0.56002804799E+01  0.54367095398E+02  0.40000025578E+02 0.  0.
         12    1    3    3    0    0  0.31880168141E+02  0.17551944438E+02 -0.56002804799E+01  0.36820904602E+02  0.00000000000E+00 0. -1.
         11    1    4    4    0    0 -0.12706083927E+02  0.13782626806E+01 -0.21759214909E+01  0.12964521255E+02  0.51100000000E-03 0. -1.
        -11    1    4    4    0    0 -0.65302613416E+01  0.83258489322E+01  0.28195883925E+01  0.10950532069E+02  0.51100000000E-03 0.  1.
        -12    1    4    4    0    0 -0.12643822873E+02 -0.27256056051E+02  0.49566135782E+01  0.30452042074E+02  0.00000000000E+00 0.  1.
</event>
<event>
 8    1  0.3146747E-007  0.9118800E+02  0.7816164E-02  0.1184000E+00
        -11   -1    0    0    0    0  0.00000000000E+00  0.00000000000E+00  0.45593999997E+02  0.45594000000E+02  0.51100000000E-03 0. -1.
         11   -1    0    0    0    0 -0.00000000000E+00 -0.00000000000E+00 -0.45593999997E+02  0.45594000000E+02  0.51100000000E-03 0.  1.
         23    2    1    2    0    0  0.00000000000E+00  0.35527136788E-14 -0.35527136788E-14  0.91188000000E+02  0.91188000000E+02 0.  0.
    9900012    2    3    3    0    0  0.42257457007E+01 -0.27561570642E+02 -0.24047528778E+02  0.54367071939E+02  0.39999972099E+02 0.  0.
         12    1    3    3    0    0 -0.42257457007E+01  0.27561570642E+02  0.24047528778E+02  0.36820928061E+02  0.00000000000E+00 0. -1.
         11    1    4    4    0    0  0.13334801785E+02 -0.22256485748E+01 -0.14518523538E+02  0.19838295698E+02  0.51100000000E-03 0. -1.
        -11    1    4    4    0    0 -0.50628227245E+01 -0.26552834144E+02 -0.12064318076E+02  0.29601232169E+02  0.51100000000E-03 0.  1.
        -12    1    4    4    0    0 -0.40462333600E+01  0.12169120769E+01  0.25353128358E+01  0.49275440721E+01  0.00000000000E+00 0.  1.
</event>
<event>
 8    1  0.3146747E-007  0.9118800E+02  0.7816164E-02  0.1184000E+00
        -11   -1    0    0    0    0  0.00000000000E+00  0.00000000000E+00  0.45593999997E+02  0.45594000000E+02  0.51100000000E-03 0. -1.
         11   -1    0    0    0    0 -0.00000000000E+00 -0.00000000000E+00 -0.45593999997E+02  0.45594000000E+02  0.51100000000E-03 0.  1.
         23    2    1    2    0    0  0.00000000000E+00  0.35527136788E-14  0.71054273576E-14  0.91188000000E+02  0.91188000000E+02 0.  0.
    9900012    2    3    3    0    0 -0.18154646430E+02  0.23780202985E+02 -0.21463718425E+02  0.54367075926E+02  0.39999981189E+02 0.  0.
         12    1    3    3    0    0  0.18154646430E+02 -0.23780202985E+02  0.21463718425E+02  0.36820924074E+02  0.00000000000E+00 0. -1.
         11    1    4    4    0    0  0.24317970689E+01  0.48570178063E+01  0.90560085489E-01  0.54325371923E+01  0.51100000000E-03 0. -1.
        -11    1    4    4    0    0 -0.62779617572E+01  0.17741901564E+02 -0.27559257980E+02  0.33372152697E+02  0.51100000000E-03 0.  1.
         12    1    4    4    0    0 -0.14308481742E+02  0.11812836151E+01  0.60049794701E+01  0.15562386037E+02  0.00000000000E+00 0. -1.
</event>
<event>
 8    1  0.3146747E-007  0.9118800E+02  0.7816164E-02  0.1184000E+00
        -11   -1    0    0    0    0  0.00000000000E+00  0.00000000000E+00  0.45593999997E+02  0.45594000000E+02  0.51100000000E-03 0. -1.
         11   -1    0    0    0    0 -0.00000000000E+00 -0.00000000000E+00 -0.45593999997E+02  0.45594000000E+02  0.51100000000E-03 0.  1.
         23    2    1    2    0    0  0.00000000000E+00  0.00000000000E+00  0.26645352591E-14  0.91188000000E+02  0.91188000000E+02 0.  0.
    9900012    2    3    3    0    0 -0.74028663437E+01  0.35674130513E+02  0.53230559460E+01  0.54367069232E+02  0.39999965929E+02 0.  0.
        -12    1    3    3    0    0  0.74028663437E+01 -0.35674130513E+02 -0.53230559460E+01  0.36820930768E+02  0.00000000000E+00 0.  1.
         11    1    4    4    0    0 -0.10155619503E+02  0.23392498244E+02  0.11943204879E+02  0.28160002213E+02  0.51100000000E-03 0. -1.
        -11    1    4    4    0    0  0.95284521984E+01  0.10363846181E+02  0.28916471673E+01  0.14372276527E+02  0.51100000000E-03 0.  1.
        -12    1    4    4    0    0 -0.67756990388E+01  0.19177860881E+01 -0.95117961005E+01  0.11834790492E+02  0.00000000000E+00 0.  1.
</event>
<event>
 8    1  0.3146747E-007  0.9118800E+02  0.7816164E-02  0.1184000E+00
        -11   -1    0    0    0    0  0.00000000000E+00  0.00000000000E+00  0.45593999997E+02  0.45594000000E+02  0.51100000000E-03 0.  1.
         11   -1    0    0    0    0 -0.00000000000E+00 -0.00000000000E+00 -0.45593999997E+02  0.45594000000E+02  0.51100000000E-03 0. -1.
         23    2    1    2    0    0  0.00000000000E+00  0.00000000000E+00  0.00000000000E+00  0.91188000000E+02  0.91188000000E+02 0.  0.
    9900012    2    3    3    0    0 -0.11824921519E+02 -0.94952383734E+01  0.33552822454E+02  0.54367079108E+02  0.39999988442E+02 0.  0.
         12    1    3    3    0    0  0.11824921519E+02  0.94952383734E+01 -0.33552822454E+02  0.36820920892E+02  0.00000000000E+00 0. -1.
         11    1    4    4    0    0  0.54931692407E+01  0.44435719527E+00  0.95780213651E+01  0.11050378055E+02  0.51100000000E-03 0. -1.
        -11    1    4    4    0    0  0.41954093670E+01  0.56831353582E+01  0.12501466651E+02  0.14359183680E+02  0.51100000000E-03 0.  1.
        -12    1    4    4    0    0 -0.21513500127E+02 -0.15622730927E+02  0.11473334438E+02  0.28957517374E+02  0.00000000000E+00 0.  1.
</event>
<event>
 8    1  0.3146747E-007  0.9118800E+02  0.7816164E-02  0.1184000E+00
        -11   -1    0    0    0    0  0.00000000000E+00  0.00000000000E+00  0.45593999997E+02  0.45594000000E+02  0.51100000000E-03 0.  1.
         11   -1    0    0    0    0 -0.00000000000E+00 -0.00000000000E+00 -0.45593999997E+02  0.45594000000E+02  0.51100000000E-03 0. -1.
         23    2    1    2    0    0  0.00000000000E+00 -0.35527136788E-14  0.00000000000E+00  0.91188000000E+02  0.91188000000E+02 0.  0.
    9900012    2    3    3    0    0 -0.23879952965E+02  0.20658166519E+02 -0.18941212022E+02  0.54367061522E+02  0.39999948352E+02 0.  0.
        -12    1    3    3    0    0  0.23879952965E+02 -0.20658166519E+02  0.18941212022E+02  0.36820938478E+02  0.00000000000E+00 0.  1.
         11    1    4    4    0    0 -0.58410461543E+01 -0.21437962580E+01 -0.15124451516E+01  0.64032158460E+01  0.51100000000E-03 0. -1.
        -11    1    4    4    0    0 -0.58449517378E+01  0.18890172664E+02  0.65076374103E+01  0.20817094635E+02  0.51100000000E-03 0.  1.
         12    1    4    4    0    0 -0.12193955073E+02  0.39117901126E+01 -0.23936404281E+02  0.27146751041E+02  0.00000000000E+00 0. -1.
</event>
<event>
 8    1  0.3146747E-007  0.9118800E+02  0.7816164E-02  0.1184000E+00
        -11   -1    0    0    0    0  0.00000000000E+00  0.00000000000E+00  0.45593999997E+02  0.45594000000E+02  0.51100000000E-03 0.  1.
         11   -1    0    0    0    0 -0.00000000000E+00 -0.00000000000E+00 -0.45593999997E+02  0.45594000000E+02  0.51100000000E-03 0. -1.
         23    2    1    2    0    0  0.00000000000E+00  0.00000000000E+00  0.35527136788E-14  0.91188000000E+02  0.91188000000E+02 0.  0.
    9900012    2    3    3    0    0 -0.16971806514E+02 -0.12794672943E+02 -0.30067168799E+02  0.54367075084E+02  0.39999979269E+02 0.  0.
        -12    1    3    3    0    0  0.16971806514E+02  0.12794672943E+02  0.30067168799E+02  0.36820924916E+02  0.00000000000E+00 0.  1.
         11    1    4    4    0    0  0.36096000947E+01 -0.98926254290E+01 -0.91486365499E+01  0.13949580700E+02  0.51100000000E-03 0. -1.
        -11    1    4    4    0    0 -0.10029707785E+02  0.81943512597E+01 -0.21493790223E+02  0.25094331018E+02  0.51100000000E-03 0.  1.
        -12    1    4    4    0    0 -0.10551698824E+02 -0.11096398774E+02  0.57525797356E+00  0.15323163366E+02  0.00000000000E+00 0.  1.
</event>
<event>
 8    1  0.3146747E-007  0.9118800E+02  0.7816164E-02  0.1184000E+00
        -11   -1    0    0    0    0  0.00000000000E+00  0.00000000000E+00  0.45593999997E+02  0.45594000000E+02  0.51100000000E-03 0. -1.
         11   -1    0    0    0    0 -0.00000000000E+00 -0.00000000000E+00 -0.45593999997E+02  0.45594000000E+02  0.51100000000E-03 0.  1.
         23    2    1    2    0    0  0.35527136788E-14 -0.17763568394E-14  0.00000000000E+00  0.91188000000E+02  0.91188000000E+02 0.  0.
    9900012    2    3    3    0    0 -0.30699302317E+02  0.99778635644E+01 -0.17713624688E+02  0.54367117017E+02  0.40000074864E+02 0.  0.
        -12    1    3    3    0    0  0.30699302317E+02 -0.99778635644E+01  0.17713624688E+02  0.36820882983E+02  0.00000000000E+00 0.  1.
         11    1    4    4    0    0 -0.49541309201E+01 -0.11785815233E+02 -0.51086900692E+01  0.13767627550E+02  0.51100000000E-03 0. -1.
        -11    1    4    4    0    0  0.93986700697E+00  0.78053721692E+01 -0.56783511814E+01  0.96979821144E+01  0.51100000000E-03 0.  1.
         12    1    4    4    0    0 -0.26685038404E+02  0.13958306628E+02 -0.69265834377E+01  0.30901507352E+02  0.00000000000E+00 0. -1.
</event>
<event>
 8    1  0.3146747E-007  0.9118800E+02  0.7816164E-02  0.1184000E+00
        -11   -1    0    0    0    0  0.00000000000E+00  0.00000000000E+00  0.45593999997E+02  0.45594000000E+02  0.51100000000E-03 0. -1.
         11   -1    0    0    0    0 -0.00000000000E+00 -0.00000000000E+00 -0.45593999997E+02  0.45594000000E+02  0.51100000000E-03 0.  1.
         23    2    1    2    0    0  0.88817841970E-15  0.00000000000E+00  0.00000000000E+00  0.91188000000E+02  0.91188000000E+02 0.  0.
    9900012    2    3    3    0    0  0.42626455611E+01 -0.12556918638E+02 -0.34350162480E+02  0.54367081824E+02  0.39999994635E+02 0.  0.
         12    1    3    3    0    0 -0.42626455611E+01  0.12556918638E+02  0.34350162480E+02  0.36820918176E+02  0.00000000000E+00 0. -1.
         11    1    4    4    0    0 -0.86255658823E+01  0.65950718874E+01  0.10635823258E+01  0.10909929771E+02  0.51100000000E-03 0. -1.
        -11    1    4    4    0    0  0.53036829374E+01 -0.12358569962E+02 -0.27317651740E+02  0.30448602612E+02  0.51100000000E-03 0.  1.
         12    1    4    4    0    0  0.75845285061E+01 -0.67934205635E+01 -0.80960930667E+01  0.13008549441E+02  0.00000000000E+00 0. -1.
</event>
<event>
 8    1  0.3146747E-007  0.9118800E+02  0.7816164E-02  0.1184000E+00
        -11   -1    0    0    0    0  0.00000000000E+00  0.00000000000E+00  0.45593999997E+02  0.45594000000E+02  0.51100000000E-03 0. -1.
         11   -1    0    0    0    0 -0.00000000000E+00 -0.00000000000E+00 -0.45593999997E+02  0.45594000000E+02  0.51100000000E-03 0.  1.
         23    2    1    2    0    0  0.00000000000E+00  0.00000000000E+00  0.13322676296E-14  0.91188000000E+02  0.91188000000E+02 0.  0.
    9900012    2    3    3    0    0  0.38084534598E+01  0.36620135601E+02  0.49081848509E+00  0.54367088116E+02  0.40000008978E+02 0.  0.
         12    1    3    3    0    0 -0.38084534598E+01 -0.36620135601E+02 -0.49081848509E+00  0.36820911884E+02  0.00000000000E+00 0. -1.
         11    1    4    4    0    0  0.31913321091E+01  0.98252885288E+01  0.80550811750E+01  0.13099817873E+02  0.51100000000E-03 0. -1.
        -11    1    4    4    0    0 -0.27135747181E+01  0.23441230641E+02 -0.18086806134E+02  0.29731924561E+02  0.51100000000E-03 0.  1.
        -12    1    4    4    0    0  0.33306960688E+01  0.33536164314E+01  0.10522543445E+02  0.11535345682E+02  0.00000000000E+00 0.  1.
</event>
<event>
 8    1  0.3146747E-007  0.9118800E+02  0.7816164E-02  0.1184000E+00
        -11   -1    0    0    0    0  0.00000000000E+00  0.00000000000E+00  0.45593999997E+02  0.45594000000E+02  0.51100000000E-03 0. -1.
         11   -1    0    0    0    0 -0.00000000000E+00 -0.00000000000E+00 -0.45593999997E+02  0.45594000000E+02  0.51100000000E-03 0.  1.
         23    2    1    2    0    0 -0.35527136788E-14  0.71054273576E-14 -0.44408920985E-15  0.91188000000E+02  0.91188000000E+02 0.  0.
    9900012    2    3    3    0    0 -0.16258402092E+02  0.32875630688E+02 -0.32614845636E+01  0.54367081851E+02  0.39999994696E+02 0.  0.
        -12    1    3    3    0    0  0.16258402092E+02 -0.32875630688E+02  0.32614845636E+01  0.36820918149E+02  0.00000000000E+00 0.  1.
         11    1    4    4    0    0 -0.20012797274E+02  0.28979095651E+02  0.18613350262E+01  0.35267047053E+02  0.51100000000E-03 0. -1.
        -11    1    4    4    0    0  0.52795285462E+01 -0.49787983646E+01  0.21014644468E+01  0.75549988688E+01  0.51100000000E-03 0.  1.
        -12    1    4    4    0    0 -0.15251333643E+01  0.88753334023E+01 -0.72242840366E+01  0.11545035930E+02  0.00000000000E+00 0.  1.
</event>
<event>
 8    1  0.3146747E-007  0.9118800E+02  0.7816164E-02  0.1184000E+00
        -11   -1    0    0    0    0  0.00000000000E+00  0.00000000000E+00  0.45593999997E+02  0.45594000000E+02  0.51100000000E-03 0.  1.
         11   -1    0    0    0    0 -0.00000000000E+00 -0.00000000000E+00 -0.45593999997E+02  0.45594000000E+02  0.51100000000E-03 0. -1.
         23    2    1    2    0    0  0.35527136788E-14  0.71054273576E-14 -0.44408920985E-15  0.91188000000E+02  0.91188000000E+02 0.  0.
    9900012    2    3    3    0    0  0.11481188532E+02  0.34761389660E+02  0.39509060789E+01  0.54367060848E+02  0.39999946815E+02 0.  0.
        -12    1    3    3    0    0 -0.11481188532E+02 -0.34761389660E+02 -0.39509060789E+01  0.36820939152E+02  0.00000000000E+00 0.  1.
         11    1    4    4    0    0  0.32939219370E+01  0.30021834573E+02 -0.45372176683E+01  0.30540904002E+02  0.51100000000E-03 0. -1.
        -11    1    4    4    0    0  0.14369408134E+02  0.66425714677E+00  0.78674526558E+01  0.16395668307E+02  0.51100000000E-03 0.  1.
        -12    1    4    4    0    0 -0.61821415395E+01  0.40752979403E+01  0.62067109136E+00  0.74304885385E+01  0.00000000000E+00 0.  1.
</event>
<event>
 8    1  0.3146747E-007  0.9118800E+02  0.7816164E-02  0.1184000E+00
        -11   -1    0    0    0    0  0.00000000000E+00  0.00000000000E+00  0.45593999997E+02  0.45594000000E+02  0.51100000000E-03 0. -1.
         11   -1    0    0    0    0 -0.00000000000E+00 -0.00000000000E+00 -0.45593999997E+02  0.45594000000E+02  0.51100000000E-03 0.  1.
         23    2    1    2    0    0  0.00000000000E+00  0.00000000000E+00 -0.22204460493E-15  0.91188000000E+02  0.91188000000E+02 0.  0.
    9900012    2    3    3    0    0  0.36635913163E+02 -0.33597631009E+01  0.15169609463E+01  0.54367091376E+02  0.40000016410E+02 0.  0.
        -12    1    3    3    0    0 -0.36635913163E+02  0.33597631009E+01 -0.15169609463E+01  0.36820908624E+02  0.00000000000E+00 0.  1.
         11    1    4    4    0    0  0.92465151510E+01  0.63922334816E+01  0.10914923992E+02  0.15668256359E+02  0.51100000000E-03 0. -1.
        -11    1    4    4    0    0  0.19288019260E+02  0.18916072651E+01 -0.13862616442E+02  0.23828092661E+02  0.51100000000E-03 0.  1.
         12    1    4    4    0    0  0.81013787526E+01 -0.11643603848E+02  0.44646533960E+01  0.14870742355E+02  0.00000000000E+00 0. -1.
</event>
<event>
 8    1  0.3146747E-007  0.9118800E+02  0.7816164E-02  0.1184000E+00
        -11   -1    0    0    0    0  0.00000000000E+00  0.00000000000E+00  0.45593999997E+02  0.45594000000E+02  0.51100000000E-03 0.  1.
         11   -1    0    0    0    0 -0.00000000000E+00 -0.00000000000E+00 -0.45593999997E+02  0.45594000000E+02  0.51100000000E-03 0. -1.
         23    2    1    2    0    0  0.00000000000E+00  0.00000000000E+00  0.35527136788E-14  0.91188000000E+02  0.91188000000E+02 0.  0.
    9900012    2    3    3    0    0 -0.13466714673E+02  0.16692734125E+02 -0.29929583613E+02  0.54367085401E+02  0.40000002789E+02 0.  0.
        -12    1    3    3    0    0  0.13466714673E+02 -0.16692734125E+02  0.29929583613E+02  0.36820914599E+02  0.00000000000E+00 0.  1.
         11    1    4    4    0    0  0.10394718559E+02  0.89417199271E+01 -0.10826569746E+02  0.17470522084E+02  0.51100000000E-03 0. -1.
        -11    1    4    4    0    0 -0.58456028056E+00 -0.46132064328E+01 -0.58953798464E+00  0.46873168881E+01  0.51100000000E-03 0.  1.
         12    1    4    4    0    0 -0.23276872952E+02  0.12364220631E+02 -0.18513475883E+02  0.32209246429E+02  0.00000000000E+00 0. -1.
</event>
<event>
 8    1  0.3146747E-007  0.9118800E+02  0.7816164E-02  0.1184000E+00
        -11   -1    0    0    0    0  0.00000000000E+00  0.00000000000E+00  0.45593999997E+02  0.45594000000E+02  0.51100000000E-03 0.  1.
         11   -1    0    0    0    0 -0.00000000000E+00 -0.00000000000E+00 -0.45593999997E+02  0.45594000000E+02  0.51100000000E-03 0. -1.
         23    2    1    2    0    0 -0.17763568394E-14  0.00000000000E+00  0.00000000000E+00  0.91188000000E+02  0.91188000000E+02 0.  0.
    9900012    2    3    3    0    0 -0.60258103479E+01  0.17642143696E+02 -0.31752837967E+02  0.54366832942E+02  0.39999427254E+02 0.  0.
        -12    1    3    3    0    0  0.60258103479E+01 -0.17642143696E+02  0.31752837967E+02  0.36821167058E+02  0.00000000000E+00 0.  1.
         11    1    4    4    0    0 -0.46686793693E+01 -0.71776536927E+00 -0.92069550616E+01  0.10347935830E+02  0.51100000000E-03 0. -1.
        -11    1    4    4    0    0 -0.11845301815E+02  0.76578000452E+01  0.29831350987E+01  0.14417079174E+02  0.51100000000E-03 0.  1.
        -12    1    4    4    0    0  0.10488170837E+02  0.10702109020E+02 -0.25529018004E+02  0.29601817938E+02  0.00000000000E+00 0.  1.
</event>
<event>
 8    1  0.3146747E-007  0.9118800E+02  0.7816164E-02  0.1184000E+00
        -11   -1    0    0    0    0  0.00000000000E+00  0.00000000000E+00  0.45593999997E+02  0.45594000000E+02  0.51100000000E-03 0. -1.
         11   -1    0    0    0    0 -0.00000000000E+00 -0.00000000000E+00 -0.45593999997E+02  0.45594000000E+02  0.51100000000E-03 0.  1.
         23    2    1    2    0    0  0.35527136788E-14  0.35527136788E-14  0.44408920985E-15  0.91188000000E+02  0.91188000000E+02 0.  0.
    9900012    2    3    3    0    0  0.31613092073E+02  0.18596631220E+02 -0.32492198557E+01  0.54367085932E+02  0.40000003999E+02 0.  0.
        -12    1    3    3    0    0 -0.31613092073E+02 -0.18596631220E+02  0.32492198557E+01  0.36820914068E+02  0.00000000000E+00 0.  1.
         11    1    4    4    0    0  0.70395671663E+01  0.88956941000E-01 -0.76343457016E+01  0.10384924351E+02  0.51100000000E-03 0. -1.
        -11    1    4    4    0    0  0.55888656274E+00 -0.62970614238E+01 -0.51618111640E+01  0.81614723867E+01  0.51100000000E-03 0.  1.
         12    1    4    4    0    0  0.24014638343E+02  0.24804735703E+02  0.95469370098E+01  0.35820689194E+02  0.00000000000E+00 0. -1.
</event>
<event>
 8    1  0.3146747E-007  0.9118800E+02  0.7816164E-02  0.1184000E+00
        -11   -1    0    0    0    0  0.00000000000E+00  0.00000000000E+00  0.45593999997E+02  0.45594000000E+02  0.51100000000E-03 0.  1.
         11   -1    0    0    0    0 -0.00000000000E+00 -0.00000000000E+00 -0.45593999997E+02  0.45594000000E+02  0.51100000000E-03 0. -1.
         23    2    1    2    0    0  0.00000000000E+00 -0.13322676296E-14  0.00000000000E+00  0.91188000000E+02  0.91188000000E+02 0.  0.
    9900012    2    3    3    0    0  0.24196436576E+02  0.22429569870E+01 -0.27663741265E+02  0.54367068728E+02  0.39999964778E+02 0.  0.
        -12    1    3    3    0    0 -0.24196436576E+02 -0.22429569870E+01  0.27663741265E+02  0.36820931272E+02  0.00000000000E+00 0.  1.
         11    1    4    4    0    0  0.20585206438E+02 -0.92989802716E+01 -0.12312699816E+02  0.25725946731E+02  0.51100000000E-03 0. -1.
        -11    1    4    4    0    0  0.16389504450E+01  0.13642563133E+02 -0.19337565530E+02  0.23722291801E+02  0.51100000000E-03 0.  1.
         12    1    4    4    0    0  0.19722796930E+01 -0.21006258747E+01  0.39865240808E+01  0.49188301963E+01  0.00000000000E+00 0. -1.
</event>
<event>
 8    1  0.3146747E-007  0.9118800E+02  0.7816164E-02  0.1184000E+00
        -11   -1    0    0    0    0  0.00000000000E+00  0.00000000000E+00  0.45593999997E+02  0.45594000000E+02  0.51100000000E-03 0.  1.
         11   -1    0    0    0    0 -0.00000000000E+00 -0.00000000000E+00 -0.45593999997E+02  0.45594000000E+02  0.51100000000E-03 0. -1.
         23    2    1    2    0    0  0.00000000000E+00  0.00000000000E+00  0.00000000000E+00  0.91188000000E+02  0.91188000000E+02 0.  0.
    9900012    2    3    3    0    0 -0.16616321826E+02  0.17204867919E+02 -0.27994098289E+02  0.54367093301E+02  0.40000020798E+02 0.  0.
        -12    1    3    3    0    0  0.16616321826E+02 -0.17204867919E+02  0.27994098289E+02  0.36820906699E+02  0.00000000000E+00 0.  1.
         11    1    4    4    0    0 -0.74794341347E+01 -0.10396620550E+02 -0.46361924015E+01  0.13620790509E+02  0.51100000000E-03 0. -1.
        -11    1    4    4    0    0 -0.10931599850E+01  0.68111057439E+01 -0.15745294715E+02  0.17190126996E+02  0.51100000000E-03 0.  1.
         12    1    4    4    0    0 -0.80437277059E+01  0.20790382725E+02 -0.76126111730E+01  0.23556175796E+02  0.00000000000E+00 0. -1.
</event>
<event>
 8    1  0.3146747E-007  0.9118800E+02  0.7816164E-02  0.1184000E+00
        -11   -1    0    0    0    0  0.00000000000E+00  0.00000000000E+00  0.45593999997E+02  0.45594000000E+02  0.51100000000E-03 0. -1.
         11   -1    0    0    0    0 -0.00000000000E+00 -0.00000000000E+00 -0.45593999997E+02  0.45594000000E+02  0.51100000000E-03 0.  1.
         23    2    1    2    0    0 -0.15543122345E-14  0.00000000000E+00 -0.35527136788E-14  0.91188000000E+02  0.91188000000E+02 0.  0.
    9900012    2    3    3    0    0  0.19240760094E+01 -0.30281612781E+02  0.20859102225E+02  0.54367078139E+02  0.39999986233E+02 0.  0.
        -12    1    3    3    0    0 -0.19240760094E+01  0.30281612781E+02 -0.20859102225E+02  0.36820921861E+02  0.00000000000E+00 0.  1.
         11    1    4    4    0    0  0.54110495330E+01 -0.23000902828E+01 -0.27124387043E+01  0.64751213381E+01  0.51100000000E-03 0. -1.
        -11    1    4    4    0    0 -0.96523738281E+01 -0.62075525094E+01 -0.40626932808E+01  0.12174050502E+02  0.51100000000E-03 0.  1.
         12    1    4    4    0    0  0.61654003045E+01 -0.21773969989E+02  0.27634234210E+02  0.35717906298E+02  0.00000000000E+00 0. -1.
</event>
<event>
 8    1  0.3146747E-007  0.9118800E+02  0.7816164E-02  0.1184000E+00
        -11   -1    0    0    0    0  0.00000000000E+00  0.00000000000E+00  0.45593999997E+02  0.45594000000E+02  0.51100000000E-03 0. -1.
         11   -1    0    0    0    0 -0.00000000000E+00 -0.00000000000E+00 -0.45593999997E+02  0.45594000000E+02  0.51100000000E-03 0.  1.
         23    2    1    2    0    0  0.00000000000E+00  0.35527136788E-14 -0.62172489379E-14  0.91188000000E+02  0.91188000000E+02 0.  0.
    9900012    2    3    3    0    0  0.29437112750E+02  0.21700638993E+02  0.42799720787E+01  0.54367088812E+02  0.40000010564E+02 0.  0.
         12    1    3    3    0    0 -0.29437112750E+02 -0.21700638993E+02 -0.42799720787E+01  0.36820911188E+02  0.00000000000E+00 0. -1.
         11    1    4    4    0    0  0.14453012438E+02  0.11942056061E+02  0.20363691710E+02  0.27679996601E+02  0.51100000000E-03 0. -1.
        -11    1    4    4    0    0 -0.16245231997E+01 -0.16980914352E+00 -0.18588053098E+00  0.16439168484E+01  0.51100000000E-03 0.  1.
        -12    1    4    4    0    0  0.16608623512E+02  0.99283920750E+01 -0.15897839101E+02  0.25043175362E+02  0.00000000000E+00 0.  1.
</event>
<event>
 8    1  0.3146747E-007  0.9118800E+02  0.7816164E-02  0.1184000E+00
        -11   -1    0    0    0    0  0.00000000000E+00  0.00000000000E+00  0.45593999997E+02  0.45594000000E+02  0.51100000000E-03 0. -1.
         11   -1    0    0    0    0 -0.00000000000E+00 -0.00000000000E+00 -0.45593999997E+02  0.45594000000E+02  0.51100000000E-03 0.  1.
         23    2    1    2    0    0  0.00000000000E+00  0.00000000000E+00  0.00000000000E+00  0.91188000000E+02  0.91188000000E+02 0.  0.
    9900012    2    3    3    0    0  0.24861146146E+02 -0.17590407208E+02 -0.20694937774E+02  0.54367089325E+02  0.40000011735E+02 0.  0.
         12    1    3    3    0    0 -0.24861146146E+02  0.17590407208E+02  0.20694937774E+02  0.36820910675E+02  0.00000000000E+00 0. -1.
         11    1    4    4    0    0  0.11664652081E+01  0.72428112881E+01 -0.12183883864E+02  0.14222024564E+02  0.51100000000E-03 0. -1.
        -11    1    4    4    0    0  0.34109018835E+01 -0.11041146494E+02  0.44734912181E+01  0.12391662176E+02  0.51100000000E-03 0.  1.
        -12    1    4    4    0    0  0.20283779055E+02 -0.13792072002E+02 -0.12984545128E+02  0.27753402585E+02  0.00000000000E+00 0.  1.
</event>
<event>
 8    1  0.3146747E-007  0.9118800E+02  0.7816164E-02  0.1184000E+00
        -11   -1    0    0    0    0  0.00000000000E+00  0.00000000000E+00  0.45593999997E+02  0.45594000000E+02  0.51100000000E-03 0. -1.
         11   -1    0    0    0    0 -0.00000000000E+00 -0.00000000000E+00 -0.45593999997E+02  0.45594000000E+02  0.51100000000E-03 0.  1.
         23    2    1    2    0    0  0.00000000000E+00  0.00000000000E+00  0.17763568394E-14  0.91188000000E+02  0.91188000000E+02 0.  0.
    9900012    2    3    3    0    0  0.28131643379E+02  0.21620232120E+02  0.98466358759E+01  0.54367081568E+02  0.39999994050E+02 0.  0.
         12    1    3    3    0    0 -0.28131643379E+02 -0.21620232120E+02 -0.98466358759E+01  0.36820918432E+02  0.00000000000E+00 0. -1.
         11    1    4    4    0    0  0.35671161559E+01  0.71227058344E+01  0.76283317671E+01  0.11029447034E+02  0.51100000000E-03 0. -1.
        -11    1    4    4    0    0 -0.20549872087E+01  0.37090212996E+01 -0.10948459498E+02  0.11740893368E+02  0.51100000000E-03 0.  1.
        -12    1    4    4    0    0  0.26619514432E+02  0.10788504986E+02  0.13166763607E+02  0.31596741166E+02  0.00000000000E+00 0.  1.
</event>
<event>
 8    1  0.3146747E-007  0.9118800E+02  0.7816164E-02  0.1184000E+00
        -11   -1    0    0    0    0  0.00000000000E+00  0.00000000000E+00  0.45593999997E+02  0.45594000000E+02  0.51100000000E-03 0. -1.
         11   -1    0    0    0    0 -0.00000000000E+00 -0.00000000000E+00 -0.45593999997E+02  0.45594000000E+02  0.51100000000E-03 0.  1.
         23    2    1    2    0    0  0.71054273576E-14 -0.35527136788E-14  0.00000000000E+00  0.91188000000E+02  0.91188000000E+02 0.  0.
    9900012    2    3    3    0    0  0.30477957426E+02 -0.17905545010E+02  0.10308470211E+02  0.54367095759E+02  0.40000026403E+02 0.  0.
        -12    1    3    3    0    0 -0.30477957426E+02  0.17905545010E+02 -0.10308470211E+02  0.36820904241E+02  0.00000000000E+00 0.  1.
         11    1    4    4    0    0 -0.35659233134E+01 -0.12079475194E+02  0.58714149762E+01  0.13896152134E+02  0.51100000000E-03 0. -1.
        -11    1    4    4    0    0  0.25609112549E+02 -0.87758744382E+01 -0.49400063078E+01  0.27518108225E+02  0.51100000000E-03 0.  1.
        -12    1    4    4    0    0  0.84347681913E+01  0.29498046220E+01  0.93770615427E+01  0.12952835401E+02  0.00000000000E+00 0.  1.
</event>
<event>
 8    1  0.3146747E-007  0.9118800E+02  0.7816164E-02  0.1184000E+00
        -11   -1    0    0    0    0  0.00000000000E+00  0.00000000000E+00  0.45593999997E+02  0.45594000000E+02  0.51100000000E-03 0. -1.
         11   -1    0    0    0    0 -0.00000000000E+00 -0.00000000000E+00 -0.45593999997E+02  0.45594000000E+02  0.51100000000E-03 0.  1.
         23    2    1    2    0    0  0.00000000000E+00 -0.35527136788E-14 -0.88817841970E-15  0.91188000000E+02  0.91188000000E+02 0.  0.
    9900012    2    3    3    0    0 -0.18159692472E+02 -0.31619053143E+02 -0.51225930880E+01  0.54367083223E+02  0.39999997824E+02 0.  0.
         12    1    3    3    0    0  0.18159692472E+02  0.31619053143E+02  0.51225930880E+01  0.36820916777E+02  0.00000000000E+00 0. -1.
         11    1    4    4    0    0 -0.85674882818E+01 -0.17226915301E+02  0.57832543803E+01  0.20090159227E+02  0.51100000000E-03 0.  1.
        -11    1    4    4    0    0 -0.48547440025E+01  0.53774492649E+01 -0.11890608424E+02  0.13923795060E+02  0.51100000000E-03 0. -1.
         12    1    4    4    0    0 -0.47374601879E+01 -0.19769587106E+02  0.98476095530E+00  0.20353128937E+02  0.00000000000E+00 0. -1.
</event>
<event>
 8    1  0.3146747E-007  0.9118800E+02  0.7816164E-02  0.1184000E+00
        -11   -1    0    0    0    0  0.00000000000E+00  0.00000000000E+00  0.45593999997E+02  0.45594000000E+02  0.51100000000E-03 0.  1.
         11   -1    0    0    0    0 -0.00000000000E+00 -0.00000000000E+00 -0.45593999997E+02  0.45594000000E+02  0.51100000000E-03 0. -1.
         23    2    1    2    0    0  0.00000000000E+00  0.35527136788E-14  0.35527136788E-14  0.91188000000E+02  0.91188000000E+02 0.  0.
    9900012    2    3    3    0    0  0.22382654995E+02 -0.23041201575E+02 -0.17997375644E+02  0.54367004023E+02  0.39999817272E+02 0.  0.
         12    1    3    3    0    0 -0.22382654995E+02  0.23041201575E+02  0.17997375644E+02  0.36820995977E+02  0.00000000000E+00 0. -1.
         11    1    4    4    0    0  0.13970068141E+02 -0.79048299715E+01 -0.17273394394E+02  0.23580061384E+02  0.51100000000E-03 0. -1.
        -11    1    4    4    0    0  0.10054045502E+02  0.32821281693E+01  0.46162736431E+01  0.11539765114E+02  0.51100000000E-03 0.  1.
        -12    1    4    4    0    0 -0.16414586476E+01 -0.18418499773E+02 -0.53402548932E+01  0.19247177525E+02  0.00000000000E+00 0.  1.
</event>
<event>
 8    1  0.3146747E-007  0.9118800E+02  0.7816164E-02  0.1184000E+00
        -11   -1    0    0    0    0  0.00000000000E+00  0.00000000000E+00  0.45593999997E+02  0.45594000000E+02  0.51100000000E-03 0.  1.
         11   -1    0    0    0    0 -0.00000000000E+00 -0.00000000000E+00 -0.45593999997E+02  0.45594000000E+02  0.51100000000E-03 0. -1.
         23    2    1    2    0    0 -0.66613381478E-15  0.00000000000E+00  0.00000000000E+00  0.91188000000E+02  0.91188000000E+02 0.  0.
    9900012    2    3    3    0    0  0.48060828595E+00  0.40006573967E+01  0.36599778448E+02  0.54367081674E+02  0.39999994292E+02 0.  0.
         12    1    3    3    0    0 -0.48060828595E+00 -0.40006573967E+01 -0.36599778448E+02  0.36820918326E+02  0.00000000000E+00 0. -1.
         11    1    4    4    0    0  0.11007285201E+02  0.77637928735E+01  0.33973519976E+02  0.36546365990E+02  0.51100000000E-03 0. -1.
        -11    1    4    4    0    0 -0.84882572690E+01  0.29948023621E+00 -0.43125877315E+01  0.95256817646E+01  0.51100000000E-03 0.  1.
         12    1    4    4    0    0 -0.20384196457E+01 -0.40626157130E+01  0.69388462037E+01  0.82950339192E+01  0.00000000000E+00 0. -1.
</event>
<event>
 8    1  0.3146747E-007  0.9118800E+02  0.7816164E-02  0.1184000E+00
        -11   -1    0    0    0    0  0.00000000000E+00  0.00000000000E+00  0.45593999997E+02  0.45594000000E+02  0.51100000000E-03 0.  1.
         11   -1    0    0    0    0 -0.00000000000E+00 -0.00000000000E+00 -0.45593999997E+02  0.45594000000E+02  0.51100000000E-03 0. -1.
         23    2    1    2    0    0 -0.35527136788E-14  0.00000000000E+00  0.00000000000E+00  0.91188000000E+02  0.91188000000E+02 0.  0.
    9900012    2    3    3    0    0  0.23116046176E+02  0.25843175264E+02  0.12391784921E+02  0.54367114187E+02  0.40000068412E+02 0.  0.
         12    1    3    3    0    0 -0.23116046176E+02 -0.25843175264E+02 -0.12391784921E+02  0.36820885813E+02  0.00000000000E+00 0. -1.
         11    1    4    4    0    0  0.18293464994E+02  0.34121097344E+02  0.52445218443E+01  0.39069235405E+02  0.51100000000E-03 0. -1.
        -11    1    4    4    0    0 -0.21177489793E+01  0.63019855705E+00  0.15116600810E+01  0.26771491222E+01  0.51100000000E-03 0.  1.
        -12    1    4    4    0    0  0.69403301609E+01 -0.89081206375E+01  0.56356029957E+01  0.12620729660E+02  0.00000000000E+00 0.  1.
</event>
<event>
 8    1  0.3146747E-007  0.9118800E+02  0.7816164E-02  0.1184000E+00
        -11   -1    0    0    0    0  0.00000000000E+00  0.00000000000E+00  0.45593999997E+02  0.45594000000E+02  0.51100000000E-03 0. -1.
         11   -1    0    0    0    0 -0.00000000000E+00 -0.00000000000E+00 -0.45593999997E+02  0.45594000000E+02  0.51100000000E-03 0.  1.
         23    2    1    2    0    0  0.00000000000E+00  0.35527136788E-14 -0.35527136788E-14  0.91188000000E+02  0.91188000000E+02 0.  0.
    9900012    2    3    3    0    0 -0.16688576111E+02  0.20600570822E+02 -0.25551662687E+02  0.54367088049E+02  0.40000008826E+02 0.  0.
         12    1    3    3    0    0  0.16688576111E+02 -0.20600570822E+02  0.25551662687E+02  0.36820911951E+02  0.00000000000E+00 0. -1.
         11    1    4    4    0    0 -0.24556266671E+02  0.12645814430E+02 -0.18183248962E+02  0.33068979399E+02  0.51100000000E-03 0.  1.
        -11    1    4    4    0    0  0.62295637551E+01 -0.29766527206E+01  0.15727823291E+01  0.70810712829E+01  0.51100000000E-03 0. -1.
        -12    1    4    4    0    0  0.16381268049E+01  0.10931409113E+02 -0.89411960542E+01  0.14217037367E+02  0.00000000000E+00 0.  1.
</event>
<event>
 8    1  0.3146747E-007  0.9118800E+02  0.7816164E-02  0.1184000E+00
        -11   -1    0    0    0    0  0.00000000000E+00  0.00000000000E+00  0.45593999997E+02  0.45594000000E+02  0.51100000000E-03 0. -1.
         11   -1    0    0    0    0 -0.00000000000E+00 -0.00000000000E+00 -0.45593999997E+02  0.45594000000E+02  0.51100000000E-03 0.  1.
         23    2    1    2    0    0 -0.35527136788E-14 -0.17763568394E-14  0.35527136788E-14  0.91188000000E+02  0.91188000000E+02 0.  0.
    9900012    2    3    3    0    0 -0.26092833448E+02 -0.10956189084E+02  0.23556603353E+02  0.54366978855E+02  0.39999759896E+02 0.  0.
        -12    1    3    3    0    0  0.26092833448E+02  0.10956189084E+02 -0.23556603353E+02  0.36821021145E+02  0.00000000000E+00 0.  1.
         11    1    4    4    0    0  0.39970132181E+01  0.13809663835E+01  0.21815376373E+01  0.47583914869E+01  0.51100000000E-03 0. -1.
        -11    1    4    4    0    0 -0.20445806442E+02  0.76972859830E+01  0.62712370047E+01  0.22729004079E+02  0.51100000000E-03 0.  1.
         12    1    4    4    0    0 -0.96440402243E+01 -0.20034441451E+02  0.15103828711E+02  0.26879583290E+02  0.00000000000E+00 0. -1.
</event>
<event>
 8    1  0.3146747E-007  0.9118800E+02  0.7816164E-02  0.1184000E+00
        -11   -1    0    0    0    0  0.00000000000E+00  0.00000000000E+00  0.45593999997E+02  0.45594000000E+02  0.51100000000E-03 0. -1.
         11   -1    0    0    0    0 -0.00000000000E+00 -0.00000000000E+00 -0.45593999997E+02  0.45594000000E+02  0.51100000000E-03 0.  1.
         23    2    1    2    0    0  0.66613381478E-15 -0.35527136788E-14  0.00000000000E+00  0.91188000000E+02  0.91188000000E+02 0.  0.
    9900012    2    3    3    0    0 -0.11592901771E+01 -0.28948836522E+02 -0.22724446197E+02  0.54367088215E+02  0.40000009204E+02 0.  0.
         12    1    3    3    0    0  0.11592901771E+01  0.28948836522E+02  0.22724446197E+02  0.36820911785E+02  0.00000000000E+00 0. -1.
         11    1    4    4    0    0  0.96594669373E+01 -0.26840528964E+02 -0.12478681093E+02  0.31135779718E+02  0.51100000000E-03 0. -1.
        -11    1    4    4    0    0 -0.13703184347E+02 -0.36710702466E+01 -0.12773632117E+02  0.19089779876E+02  0.51100000000E-03 0.  1.
         12    1    4    4    0    0  0.28844272331E+01  0.15627626879E+01  0.25278670126E+01  0.41415286205E+01  0.00000000000E+00 0. -1.
</event>
<event>
 8    1  0.3146747E-007  0.9118800E+02  0.7816164E-02  0.1184000E+00
        -11   -1    0    0    0    0  0.00000000000E+00  0.00000000000E+00  0.45593999997E+02  0.45594000000E+02  0.51100000000E-03 0. -1.
         11   -1    0    0    0    0 -0.00000000000E+00 -0.00000000000E+00 -0.45593999997E+02  0.45594000000E+02  0.51100000000E-03 0.  1.
         23    2    1    2    0    0  0.00000000000E+00 -0.35527136788E-14  0.00000000000E+00  0.91188000000E+02  0.91188000000E+02 0.  0.
    9900012    2    3    3    0    0  0.31285824042E+02  0.18276192262E+02 -0.65528247582E+01  0.54367333223E+02  0.40000567745E+02 0.  0.
         12    1    3    3    0    0 -0.31285824042E+02 -0.18276192262E+02  0.65528247582E+01  0.36820666777E+02  0.00000000000E+00 0. -1.
         11    1    4    4    0    0  0.28692342447E+02  0.50418692512E+01 -0.31985297245E+00  0.29133713578E+02  0.51100000000E-03 0.  1.
        -11    1    4    4    0    0  0.10677062930E+00  0.18097790861E+02 -0.17785414519E+01  0.18185286469E+02  0.51100000000E-03 0. -1.
         12    1    4    4    0    0  0.24867109654E+01 -0.48634678503E+01 -0.44544303339E+01  0.70483331757E+01  0.00000000000E+00 0. -1.
</event>
<event>
 8    1  0.3146747E-007  0.9118800E+02  0.7816164E-02  0.1184000E+00
        -11   -1    0    0    0    0  0.00000000000E+00  0.00000000000E+00  0.45593999997E+02  0.45594000000E+02  0.51100000000E-03 0.  1.
         11   -1    0    0    0    0 -0.00000000000E+00 -0.00000000000E+00 -0.45593999997E+02  0.45594000000E+02  0.51100000000E-03 0. -1.
         23    2    1    2    0    0  0.00000000000E+00 -0.35527136788E-14  0.00000000000E+00  0.91188000000E+02  0.91188000000E+02 0.  0.
    9900012    2    3    3    0    0 -0.26677196251E+02 -0.24803235496E+02  0.53765400649E+01  0.54367075596E+02  0.39999980437E+02 0.  0.
         12    1    3    3    0    0  0.26677196251E+02  0.24803235496E+02 -0.53765400649E+01  0.36820924404E+02  0.00000000000E+00 0. -1.
         11    1    4    4    0    0 -0.74515041442E+01 -0.17177090652E+02  0.16076316092E+02  0.24678437889E+02  0.51100000000E-03 0. -1.
        -11    1    4    4    0    0 -0.39662285343E+01 -0.93641290674E+01 -0.10079019478E+02  0.14317978763E+02  0.51100000000E-03 0.  1.
         12    1    4    4    0    0 -0.15259463573E+02  0.17379842234E+01 -0.62075654935E+00  0.15370658944E+02  0.00000000000E+00 0. -1.
</event>
<event>
 8    1  0.3146747E-007  0.9118800E+02  0.7816164E-02  0.1184000E+00
        -11   -1    0    0    0    0  0.00000000000E+00  0.00000000000E+00  0.45593999997E+02  0.45594000000E+02  0.51100000000E-03 0. -1.
         11   -1    0    0    0    0 -0.00000000000E+00 -0.00000000000E+00 -0.45593999997E+02  0.45594000000E+02  0.51100000000E-03 0.  1.
         23    2    1    2    0    0  0.00000000000E+00 -0.17763568394E-14  0.00000000000E+00  0.91188000000E+02  0.91188000000E+02 0.  0.
    9900012    2    3    3    0    0 -0.84482116646E+01 -0.14346813245E+02 -0.32841692927E+02  0.54367080335E+02  0.39999991240E+02 0.  0.
         12    1    3    3    0    0  0.84482116646E+01  0.14346813245E+02  0.32841692927E+02  0.36820919665E+02  0.00000000000E+00 0. -1.
         11    1    4    4    0    0  0.63824299140E+01 -0.14776380583E+02 -0.11337345082E+02  0.19687870085E+02  0.51100000000E-03 0. -1.
        -11    1    4    4    0    0  0.25823019069E+01 -0.32041936953E+01 -0.15294365376E+02  0.15838331758E+02  0.51100000000E-03 0.  1.
         12    1    4    4    0    0 -0.17412943485E+02  0.36337610327E+01 -0.62099824701E+01  0.18840878492E+02  0.00000000000E+00 0. -1.
</event>
<event>
 8    1  0.3146747E-007  0.9118800E+02  0.7816164E-02  0.1184000E+00
        -11   -1    0    0    0    0  0.00000000000E+00  0.00000000000E+00  0.45593999997E+02  0.45594000000E+02  0.51100000000E-03 0. -1.
         11   -1    0    0    0    0 -0.00000000000E+00 -0.00000000000E+00 -0.45593999997E+02  0.45594000000E+02  0.51100000000E-03 0.  1.
         23    2    1    2    0    0  0.35527136788E-14  0.71054273576E-14 -0.88817841970E-15  0.91188000000E+02  0.91188000000E+02 0.  0.
    9900012    2    3    3    0    0  0.16450639643E+02  0.32694062414E+02 -0.40309627844E+01  0.54367164557E+02  0.40000183239E+02 0.  0.
         12    1    3    3    0    0 -0.16450639643E+02 -0.32694062414E+02  0.40309627844E+01  0.36820835443E+02  0.00000000000E+00 0. -1.
         11    1    4    4    0    0 -0.96132315935E+01  0.10567841083E+02 -0.12574815722E+01  0.14341364893E+02  0.51100000000E-03 0. -1.
        -11    1    4    4    0    0  0.29607190326E+02  0.18980408957E+02 -0.28784861276E+01  0.35286361754E+02  0.51100000000E-03 0.  1.
        -12    1    4    4    0    0 -0.35433190901E+01  0.31458123738E+01  0.10500491533E+00  0.47394379094E+01  0.00000000000E+00 0.  1.
</event>
<event>
 8    1  0.3146747E-007  0.9118800E+02  0.7816164E-02  0.1184000E+00
        -11   -1    0    0    0    0  0.00000000000E+00  0.00000000000E+00  0.45593999997E+02  0.45594000000E+02  0.51100000000E-03 0. -1.
         11   -1    0    0    0    0 -0.00000000000E+00 -0.00000000000E+00 -0.45593999997E+02  0.45594000000E+02  0.51100000000E-03 0.  1.
         23    2    1    2    0    0  0.35527136788E-14  0.00000000000E+00  0.00000000000E+00  0.91188000000E+02  0.91188000000E+02 0.  0.
    9900012    2    3    3    0    0  0.30348477085E+02 -0.11434113085E+02  0.17435945894E+02  0.54367065565E+02  0.39999957569E+02 0.  0.
        -12    1    3    3    0    0 -0.30348477085E+02  0.11434113085E+02 -0.17435945894E+02  0.36820934435E+02  0.00000000000E+00 0.  1.
         11    1    4    4    0    0  0.17417530476E+02 -0.35848649616E+01  0.22053703815E+02  0.28329974884E+02  0.51100000000E-03 0. -1.
        -11    1    4    4    0    0 -0.31044187773E+01 -0.90229013544E+01 -0.19438886689E+01  0.97380115123E+01  0.51100000000E-03 0.  1.
        -12    1    4    4    0    0  0.16035365386E+02  0.11736532313E+01 -0.26738692520E+01  0.16299079169E+02  0.00000000000E+00 0.  1.
</event>
<event>
 8    1  0.3146747E-007  0.9118800E+02  0.7816164E-02  0.1184000E+00
        -11   -1    0    0    0    0  0.00000000000E+00  0.00000000000E+00  0.45593999997E+02  0.45594000000E+02  0.51100000000E-03 0.  1.
         11   -1    0    0    0    0 -0.00000000000E+00 -0.00000000000E+00 -0.45593999997E+02  0.45594000000E+02  0.51100000000E-03 0. -1.
         23    2    1    2    0    0  0.55511151231E-15  0.00000000000E+00  0.00000000000E+00  0.91188000000E+02  0.91188000000E+02 0.  0.
    9900012    2    3    3    0    0  0.18213351094E+00  0.56325658753E+01 -0.36387090381E+02  0.54367091302E+02  0.40000016241E+02 0.  0.
        -12    1    3    3    0    0 -0.18213351094E+00 -0.56325658753E+01  0.36387090381E+02  0.36820908698E+02  0.00000000000E+00 0.  1.
         11    1    4    4    0    0  0.56400389567E+01 -0.16746595615E+01 -0.13780977370E+02  0.14984320525E+02  0.51100000000E-03 0. -1.
        -11    1    4    4    0    0 -0.28535570656E+01  0.32419914155E+01 -0.30132801734E+02  0.30440746326E+02  0.51100000000E-03 0.  1.
        -12    1    4    4    0    0 -0.26043483801E+01  0.40652340213E+01  0.75266887234E+01  0.89420244504E+01  0.00000000000E+00 0.  1.
</event>
<event>
 8    1  0.3146747E-007  0.9118800E+02  0.7816164E-02  0.1184000E+00
        -11   -1    0    0    0    0  0.00000000000E+00  0.00000000000E+00  0.45593999997E+02  0.45594000000E+02  0.51100000000E-03 0. -1.
         11   -1    0    0    0    0 -0.00000000000E+00 -0.00000000000E+00 -0.45593999997E+02  0.45594000000E+02  0.51100000000E-03 0.  1.
         23    2    1    2    0    0  0.00000000000E+00  0.00000000000E+00  0.17763568394E-14  0.91188000000E+02  0.91188000000E+02 0.  0.
    9900012    2    3    3    0    0 -0.30241906751E+02 -0.16169172468E+02 -0.13407479808E+02  0.54367142092E+02  0.40000132028E+02 0.  0.
         12    1    3    3    0    0  0.30241906751E+02  0.16169172468E+02  0.13407479808E+02  0.36820857908E+02  0.00000000000E+00 0. -1.
         11    1    4    4    0    0 -0.20739674612E+02 -0.54455302189E+00 -0.40519281849E+01  0.21138797583E+02  0.51100000000E-03 0. -1.
        -11    1    4    4    0    0  0.44771037742E+00 -0.33796628899E+01  0.86443019188E+01  0.92922829141E+01  0.51100000000E-03 0.  1.
        -12    1    4    4    0    0 -0.99499425169E+01 -0.12244956556E+02 -0.17999853542E+02  0.23936061595E+02  0.00000000000E+00 0.  1.
</event>
<event>
 8    1  0.3146747E-007  0.9118800E+02  0.7816164E-02  0.1184000E+00
        -11   -1    0    0    0    0  0.00000000000E+00  0.00000000000E+00  0.45593999997E+02  0.45594000000E+02  0.51100000000E-03 0. -1.
         11   -1    0    0    0    0 -0.00000000000E+00 -0.00000000000E+00 -0.45593999997E+02  0.45594000000E+02  0.51100000000E-03 0.  1.
         23    2    1    2    0    0  0.88817841970E-15  0.00000000000E+00  0.00000000000E+00  0.91188000000E+02  0.91188000000E+02 0.  0.
    9900012    2    3    3    0    0 -0.58029309498E+01 -0.19807376773E+02  0.30492200413E+02  0.54367075674E+02  0.39999980613E+02 0.  0.
        -12    1    3    3    0    0  0.58029309498E+01  0.19807376773E+02 -0.30492200413E+02  0.36820924326E+02  0.00000000000E+00 0.  1.
         11    1    4    4    0    0  0.16948917831E+01  0.51265107796E+01  0.75802639243E+01  0.93066735385E+01  0.51100000000E-03 0. -1.
        -11    1    4    4    0    0  0.68202239367E+01 -0.46819053798E+01 -0.33615224473E+01  0.89294751222E+01  0.51100000000E-03 0.  1.
        -12    1    4    4    0    0 -0.14318046670E+02 -0.20251982173E+02  0.26273458936E+02  0.36130927013E+02  0.00000000000E+00 0.  1.
</event>
<event>
 8    1  0.3146747E-007  0.9118800E+02  0.7816164E-02  0.1184000E+00
        -11   -1    0    0    0    0  0.00000000000E+00  0.00000000000E+00  0.45593999997E+02  0.45594000000E+02  0.51100000000E-03 0.  1.
         11   -1    0    0    0    0 -0.00000000000E+00 -0.00000000000E+00 -0.45593999997E+02  0.45594000000E+02  0.51100000000E-03 0. -1.
         23    2    1    2    0    0  0.00000000000E+00  0.17763568394E-14 -0.71054273576E-14  0.91188000000E+02  0.91188000000E+02 0.  0.
    9900012    2    3    3    0    0  0.10132342172E+02 -0.15068652705E+02 -0.32032089637E+02  0.54367035608E+02  0.39999889276E+02 0.  0.
        -12    1    3    3    0    0 -0.10132342172E+02  0.15068652705E+02  0.32032089637E+02  0.36820964392E+02  0.00000000000E+00 0.  1.
         11    1    4    4    0    0  0.16517509211E+02 -0.11809949504E+01 -0.78033811763E+01  0.18306163379E+02  0.51100000000E-03 0. -1.
        -11    1    4    4    0    0  0.76910923163E+00 -0.14170395350E+02 -0.25114265179E+02  0.28846454707E+02  0.51100000000E-03 0.  1.
         12    1    4    4    0    0 -0.71542762701E+01  0.28273759536E+00  0.88555671878E+00  0.72144175232E+01  0.00000000000E+00 0. -1.
</event>
<event>
 8    1  0.3146747E-007  0.9118800E+02  0.7816164E-02  0.1184000E+00
        -11   -1    0    0    0    0  0.00000000000E+00  0.00000000000E+00  0.45593999997E+02  0.45594000000E+02  0.51100000000E-03 0.  1.
         11   -1    0    0    0    0 -0.00000000000E+00 -0.00000000000E+00 -0.45593999997E+02  0.45594000000E+02  0.51100000000E-03 0. -1.
         23    2    1    2    0    0  0.00000000000E+00 -0.35527136788E-14  0.44408920985E-15  0.91188000000E+02  0.91188000000E+02 0.  0.
    9900012    2    3    3    0    0  0.29195370626E+02  0.22133334246E+02 -0.36774711903E+01  0.54367109935E+02  0.40000058718E+02 0.  0.
         12    1    3    3    0    0 -0.29195370626E+02 -0.22133334246E+02  0.36774711903E+01  0.36820890065E+02  0.00000000000E+00 0. -1.
         11    1    4    4    0    0  0.86843357901E+01  0.69552320216E+01  0.77868190452E+01  0.13580408377E+02  0.51100000000E-03 0. -1.
        -11    1    4    4    0    0  0.18442562090E+02 -0.47935552217E+01 -0.60080209859E+01  0.19980054668E+02  0.51100000000E-03 0.  1.
         12    1    4    4    0    0  0.20684727454E+01  0.19971657446E+02 -0.54562692496E+01  0.20806646889E+02  0.00000000000E+00 0. -1.
</event>
<event>
 8    1  0.3146747E-007  0.9118800E+02  0.7816164E-02  0.1184000E+00
        -11   -1    0    0    0    0  0.00000000000E+00  0.00000000000E+00  0.45593999997E+02  0.45594000000E+02  0.51100000000E-03 0. -1.
         11   -1    0    0    0    0 -0.00000000000E+00 -0.00000000000E+00 -0.45593999997E+02  0.45594000000E+02  0.51100000000E-03 0.  1.
         23    2    1    2    0    0 -0.88817841970E-15  0.35527136788E-14  0.00000000000E+00  0.91188000000E+02  0.91188000000E+02 0.  0.
    9900012    2    3    3    0    0 -0.40558253669E+01  0.30790256239E+02 -0.19781051051E+02  0.54367087744E+02  0.40000008131E+02 0.  0.
         12    1    3    3    0    0  0.40558253669E+01 -0.30790256239E+02  0.19781051051E+02  0.36820912256E+02  0.00000000000E+00 0. -1.
         11    1    4    4    0    0 -0.27791929895E+01  0.70779011999E+01  0.48926877210E+01  0.90420679308E+01  0.51100000000E-03 0. -1.
        -11    1    4    4    0    0  0.74527117104E+01  0.17895196011E+02 -0.97635506720E+00  0.19409642490E+02  0.51100000000E-03 0.  1.
         12    1    4    4    0    0 -0.87293440879E+01  0.58171590276E+01 -0.23697383705E+02  0.25915377323E+02  0.00000000000E+00 0. -1.
</event>
<event>
 8    1  0.3146747E-007  0.9118800E+02  0.7816164E-02  0.1184000E+00
        -11   -1    0    0    0    0  0.00000000000E+00  0.00000000000E+00  0.45593999997E+02  0.45594000000E+02  0.51100000000E-03 0.  1.
         11   -1    0    0    0    0 -0.00000000000E+00 -0.00000000000E+00 -0.45593999997E+02  0.45594000000E+02  0.51100000000E-03 0. -1.
         23    2    1    2    0    0  0.17763568394E-14  0.35527136788E-14  0.35527136788E-14  0.91188000000E+02  0.91188000000E+02 0.  0.
    9900012    2    3    3    0    0 -0.11378122695E+02 -0.18727881487E+02 -0.29590290498E+02  0.54367075068E+02  0.39999979233E+02 0.  0.
        -12    1    3    3    0    0  0.11378122695E+02  0.18727881487E+02  0.29590290498E+02  0.36820924932E+02  0.00000000000E+00 0.  1.
         11    1    4    4    0    0 -0.29909944134E+01 -0.28989968917E+01  0.63732853103E+01  0.76137373521E+01  0.51100000000E-03 0.  1.
        -11    1    4    4    0    0 -0.10873048511E+02 -0.19152307503E+02 -0.36437457473E+02  0.42576077485E+02  0.51100000000E-03 0. -1.
         12    1    4    4    0    0  0.24859202293E+01  0.33234229078E+01  0.47388166441E+00  0.41772602316E+01  0.00000000000E+00 0. -1.
</event>
<event>
 8    1  0.3146747E-007  0.9118800E+02  0.7816164E-02  0.1184000E+00
        -11   -1    0    0    0    0  0.00000000000E+00  0.00000000000E+00  0.45593999997E+02  0.45594000000E+02  0.51100000000E-03 0.  1.
         11   -1    0    0    0    0 -0.00000000000E+00 -0.00000000000E+00 -0.45593999997E+02  0.45594000000E+02  0.51100000000E-03 0. -1.
         23    2    1    2    0    0 -0.17763568394E-14  0.00000000000E+00  0.00000000000E+00  0.91188000000E+02  0.91188000000E+02 0.  0.
    9900012    2    3    3    0    0 -0.83911473771E+01 -0.17781783408E+02 -0.31131636178E+02  0.54367055599E+02  0.39999934849E+02 0.  0.
        -12    1    3    3    0    0  0.83911473771E+01  0.17781783408E+02  0.31131636178E+02  0.36820944401E+02  0.00000000000E+00 0.  1.
         11    1    4    4    0    0 -0.55309732066E+01  0.31612948108E+01  0.19509638780E+01  0.66627103950E+01  0.51100000000E-03 0.  1.
        -11    1    4    4    0    0 -0.79995835939E+01 -0.25622075087E+02 -0.22404299339E+02  0.34963362232E+02  0.51100000000E-03 0. -1.
        -12    1    4    4    0    0  0.51394094234E+01  0.46789968674E+01 -0.10678300716E+02  0.12740982972E+02  0.00000000000E+00 0.  1.
</event>
<event>
 8    1  0.3146747E-007  0.9118800E+02  0.7816164E-02  0.1184000E+00
        -11   -1    0    0    0    0  0.00000000000E+00  0.00000000000E+00  0.45593999997E+02  0.45594000000E+02  0.51100000000E-03 0.  1.
         11   -1    0    0    0    0 -0.00000000000E+00 -0.00000000000E+00 -0.45593999997E+02  0.45594000000E+02  0.51100000000E-03 0. -1.
         23    2    1    2    0    0  0.00000000000E+00  0.22204460493E-15  0.00000000000E+00  0.91188000000E+02  0.91188000000E+02 0.  0.
    9900012    2    3    3    0    0  0.21406904035E+02  0.18616458731E+01  0.29900793127E+02  0.54367099748E+02  0.40000035496E+02 0.  0.
         12    1    3    3    0    0 -0.21406904035E+02 -0.18616458731E+01 -0.29900793127E+02  0.36820900252E+02  0.00000000000E+00 0. -1.
         11    1    4    4    0    0  0.13815501401E+02  0.52354512465E+01  0.14457256088E+02  0.20671001005E+02  0.51100000000E-03 0. -1.
        -11    1    4    4    0    0 -0.18523877298E+01 -0.53363806402E+01  0.21551353660E+02  0.22279343426E+02  0.51100000000E-03 0.  1.
        -12    1    4    4    0    0  0.94437903639E+01  0.19625752667E+01 -0.61078166204E+01  0.11416755318E+02  0.00000000000E+00 0.  1.
</event>
<event>
 8    1  0.3146747E-007  0.9118800E+02  0.7816164E-02  0.1184000E+00
        -11   -1    0    0    0    0  0.00000000000E+00  0.00000000000E+00  0.45593999997E+02  0.45594000000E+02  0.51100000000E-03 0. -1.
         11   -1    0    0    0    0 -0.00000000000E+00 -0.00000000000E+00 -0.45593999997E+02  0.45594000000E+02  0.51100000000E-03 0.  1.
         23    2    1    2    0    0  0.00000000000E+00 -0.35527136788E-14  0.71054273576E-14  0.91188000000E+02  0.91188000000E+02 0.  0.
    9900012    2    3    3    0    0 -0.20005662713E+02  0.23901743517E+02 -0.19602550093E+02  0.54367084016E+02  0.39999999632E+02 0.  0.
         12    1    3    3    0    0  0.20005662713E+02 -0.23901743517E+02  0.19602550093E+02  0.36820915984E+02  0.00000000000E+00 0. -1.
         11    1    4    4    0    0 -0.11730761012E+02  0.22567964958E+02 -0.16511661410E+02  0.30324227263E+02  0.51100000000E-03 0.  1.
        -11    1    4    4    0    0  0.28113978360E+01 -0.72826267728E+01  0.34721093403E+01  0.85437786743E+01  0.51100000000E-03 0. -1.
         12    1    4    4    0    0 -0.11086299537E+02  0.86164053316E+01 -0.65629980232E+01  0.15499078079E+02  0.00000000000E+00 0. -1.
</event>
<event>
 8    1  0.3146747E-007  0.9118800E+02  0.7816164E-02  0.1184000E+00
        -11   -1    0    0    0    0  0.00000000000E+00  0.00000000000E+00  0.45593999997E+02  0.45594000000E+02  0.51100000000E-03 0. -1.
         11   -1    0    0    0    0 -0.00000000000E+00 -0.00000000000E+00 -0.45593999997E+02  0.45594000000E+02  0.51100000000E-03 0.  1.
         23    2    1    2    0    0  0.88817841970E-15  0.35527136788E-14  0.00000000000E+00  0.91188000000E+02  0.91188000000E+02 0.  0.
    9900012    2    3    3    0    0  0.77284490911E+01 -0.20515633044E+02  0.29583078060E+02  0.54367100608E+02  0.40000037456E+02 0.  0.
        -12    1    3    3    0    0 -0.77284490911E+01  0.20515633044E+02 -0.29583078060E+02  0.36820899392E+02  0.00000000000E+00 0.  1.
         11    1    4    4    0    0  0.14069254315E+02 -0.11908728634E+01  0.26128491308E+02  0.29699497529E+02  0.51100000000E-03 0. -1.
        -11    1    4    4    0    0 -0.10024059400E+02 -0.90540615873E+01  0.21744725471E+01  0.13681598196E+02  0.51100000000E-03 0.  1.
         12    1    4    4    0    0  0.36832541759E+01 -0.10270698593E+02  0.12801142046E+01  0.10986004883E+02  0.00000000000E+00 0. -1.
</event>
<event>
 8    1  0.3146747E-007  0.9118800E+02  0.7816164E-02  0.1184000E+00
        -11   -1    0    0    0    0  0.00000000000E+00  0.00000000000E+00  0.45593999997E+02  0.45594000000E+02  0.51100000000E-03 0.  1.
         11   -1    0    0    0    0 -0.00000000000E+00 -0.00000000000E+00 -0.45593999997E+02  0.45594000000E+02  0.51100000000E-03 0. -1.
         23    2    1    2    0    0 -0.17763568394E-14 -0.71054273576E-14  0.88817841970E-15  0.91188000000E+02  0.91188000000E+02 0.  0.
    9900012    2    3    3    0    0 -0.12810217442E+02 -0.34443631623E+02  0.23054395960E+01  0.54367075486E+02  0.39999980186E+02 0.  0.
         12    1    3    3    0    0  0.12810217442E+02  0.34443631623E+02 -0.23054395960E+01  0.36820924514E+02  0.00000000000E+00 0. -1.
         11    1    4    4    0    0 -0.16117863924E+02 -0.43875371401E+01 -0.90554393615E+01  0.19000973710E+02  0.51100000000E-03 0. -1.
        -11    1    4    4    0    0  0.50859588875E+01 -0.30295150782E+02  0.83042703228E+01  0.31821754266E+02  0.51100000000E-03 0.  1.
         12    1    4    4    0    0 -0.17783124056E+01  0.23905629879E+00  0.30566086346E+01  0.35443475099E+01  0.00000000000E+00 0. -1.
</event>
<event>
 8    1  0.3146747E-007  0.9118800E+02  0.7816164E-02  0.1184000E+00
        -11   -1    0    0    0    0  0.00000000000E+00  0.00000000000E+00  0.45593999997E+02  0.45594000000E+02  0.51100000000E-03 0. -1.
         11   -1    0    0    0    0 -0.00000000000E+00 -0.00000000000E+00 -0.45593999997E+02  0.45594000000E+02  0.51100000000E-03 0.  1.
         23    2    1    2    0    0  0.00000000000E+00  0.71054273576E-14  0.00000000000E+00  0.91188000000E+02  0.91188000000E+02 0.  0.
    9900012    2    3    3    0    0  0.72146910999E+01  0.29640103915E+02  0.20620189031E+02  0.54367085788E+02  0.40000003671E+02 0.  0.
        -12    1    3    3    0    0 -0.72146910999E+01 -0.29640103915E+02 -0.20620189031E+02  0.36820914212E+02  0.00000000000E+00 0.  1.
         11    1    4    4    0    0 -0.35020350336E+01  0.67432322552E-01 -0.69367768049E+01  0.77709503407E+01  0.51100000000E-03 0.  1.
        -11    1    4    4    0    0  0.96414951023E+01  0.27381831176E+02  0.30938844370E+02  0.42425643160E+02  0.51100000000E-03 0. -1.
         12    1    4    4    0    0  0.10752310311E+01  0.21908404158E+01 -0.33818785341E+01  0.41704922871E+01  0.00000000000E+00 0. -1.
</event>
<event>
 8    1  0.3146747E-007  0.9118800E+02  0.7816164E-02  0.1184000E+00
        -11   -1    0    0    0    0  0.00000000000E+00  0.00000000000E+00  0.45593999997E+02  0.45594000000E+02  0.51100000000E-03 0. -1.
         11   -1    0    0    0    0 -0.00000000000E+00 -0.00000000000E+00 -0.45593999997E+02  0.45594000000E+02  0.51100000000E-03 0.  1.
         23    2    1    2    0    0  0.35527136788E-14  0.35527136788E-14  0.00000000000E+00  0.91188000000E+02  0.91188000000E+02 0.  0.
    9900012    2    3    3    0    0 -0.24183743188E+02 -0.17957617174E+02 -0.21176562003E+02  0.54367133261E+02  0.40000111894E+02 0.  0.
         12    1    3    3    0    0  0.24183743188E+02  0.17957617174E+02  0.21176562003E+02  0.36820866739E+02  0.00000000000E+00 0. -1.
         11    1    4    4    0    0 -0.42434122334E+01 -0.39051667778E+01 -0.43542065331E+01  0.72260632255E+01  0.51100000000E-03 0.  1.
        -11    1    4    4    0    0  0.18800977363E+01 -0.19548871672E+01  0.10086882009E+02  0.10445168274E+02  0.51100000000E-03 0. -1.
         12    1    4    4    0    0 -0.21820428691E+02 -0.12097563229E+02 -0.26909237480E+02  0.36695901761E+02  0.00000000000E+00 0. -1.
</event>
<event>
 8    1  0.3146747E-007  0.9118800E+02  0.7816164E-02  0.1184000E+00
        -11   -1    0    0    0    0  0.00000000000E+00  0.00000000000E+00  0.45593999997E+02  0.45594000000E+02  0.51100000000E-03 0. -1.
         11   -1    0    0    0    0 -0.00000000000E+00 -0.00000000000E+00 -0.45593999997E+02  0.45594000000E+02  0.51100000000E-03 0.  1.
         23    2    1    2    0    0  0.11102230246E-14  0.00000000000E+00  0.00000000000E+00  0.91188000000E+02  0.91188000000E+02 0.  0.
    9900012    2    3    3    0    0  0.83468173995E+00  0.25198552598E+02 -0.26834976490E+02  0.54367085972E+02  0.40000004090E+02 0.  0.
         12    1    3    3    0    0 -0.83468173995E+00 -0.25198552598E+02  0.26834976490E+02  0.36820914028E+02  0.00000000000E+00 0. -1.
         11    1    4    4    0    0 -0.72491864752E+01 -0.11471958895E+01 -0.13389365934E+02  0.15268984359E+02  0.51100000000E-03 0.  1.
        -11    1    4    4    0    0 -0.19769756095E+01  0.14697401600E+02  0.44604002333E+01  0.15486032961E+02  0.51100000000E-03 0. -1.
         12    1    4    4    0    0  0.10060843825E+02  0.11648346888E+02 -0.17906010789E+02  0.23612068652E+02  0.00000000000E+00 0. -1.
</event>
<event>
 8    1  0.3146747E-007  0.9118800E+02  0.7816164E-02  0.1184000E+00
        -11   -1    0    0    0    0  0.00000000000E+00  0.00000000000E+00  0.45593999997E+02  0.45594000000E+02  0.51100000000E-03 0. -1.
         11   -1    0    0    0    0 -0.00000000000E+00 -0.00000000000E+00 -0.45593999997E+02  0.45594000000E+02  0.51100000000E-03 0.  1.
         23    2    1    2    0    0  0.35527136788E-14  0.00000000000E+00  0.35527136788E-14  0.91188000000E+02  0.91188000000E+02 0.  0.
    9900012    2    3    3    0    0  0.29659234427E+02  0.16967527016E+02  0.13718690198E+02  0.54367222977E+02  0.40000316420E+02 0.  0.
        -12    1    3    3    0    0 -0.29659234427E+02 -0.16967527016E+02 -0.13718690198E+02  0.36820777023E+02  0.00000000000E+00 0.  1.
         11    1    4    4    0    0 -0.57223921497E+01 -0.14876912565E+00  0.11448020798E+02  0.12799417354E+02  0.51100000000E-03 0. -1.
        -11    1    4    4    0    0  0.25610626856E+02  0.52869627042E+01  0.19166833003E+01  0.26220790562E+02  0.51100000000E-03 0.  1.
        -12    1    4    4    0    0  0.97709997207E+01  0.11829333437E+02  0.35398609978E+00  0.15347015060E+02  0.00000000000E+00 0.  1.
</event>
<event>
 8    1  0.3146747E-007  0.9118800E+02  0.7816164E-02  0.1184000E+00
        -11   -1    0    0    0    0  0.00000000000E+00  0.00000000000E+00  0.45593999997E+02  0.45594000000E+02  0.51100000000E-03 0.  1.
         11   -1    0    0    0    0 -0.00000000000E+00 -0.00000000000E+00 -0.45593999997E+02  0.45594000000E+02  0.51100000000E-03 0. -1.
         23    2    1    2    0    0  0.26645352591E-14  0.00000000000E+00  0.88817841970E-15  0.91188000000E+02  0.91188000000E+02 0.  0.
    9900012    2    3    3    0    0 -0.76858712303E+01 -0.35374583322E+02 -0.67339817319E+01  0.54367078342E+02  0.39999986697E+02 0.  0.
         12    1    3    3    0    0  0.76858712303E+01  0.35374583322E+02  0.67339817319E+01  0.36820921658E+02  0.00000000000E+00 0. -1.
         11    1    4    4    0    0 -0.36721064365E+01 -0.83588048851E+01 -0.16170497806E+02  0.18569840719E+02  0.51100000000E-03 0. -1.
        -11    1    4    4    0    0 -0.80774423691E+01 -0.70639138208E+01  0.11011137545E+02  0.15374950536E+02  0.51100000000E-03 0.  1.
        -12    1    4    4    0    0  0.40636775753E+01 -0.19951864616E+02 -0.15746214707E+01  0.20422287087E+02  0.00000000000E+00 0.  1.
</event>
<event>
 8    1  0.3146747E-007  0.9118800E+02  0.7816164E-02  0.1184000E+00
        -11   -1    0    0    0    0  0.00000000000E+00  0.00000000000E+00  0.45593999997E+02  0.45594000000E+02  0.51100000000E-03 0.  1.
         11   -1    0    0    0    0 -0.00000000000E+00 -0.00000000000E+00 -0.45593999997E+02  0.45594000000E+02  0.51100000000E-03 0. -1.
         23    2    1    2    0    0  0.00000000000E+00  0.00000000000E+00  0.00000000000E+00  0.91188000000E+02  0.91188000000E+02 0.  0.
    9900012    2    3    3    0    0 -0.30434272076E+02 -0.56955315281E+01  0.19927148219E+02  0.54367146774E+02  0.40000142700E+02 0.  0.
         12    1    3    3    0    0  0.30434272076E+02  0.56955315281E+01 -0.19927148219E+02  0.36820853226E+02  0.00000000000E+00 0. -1.
         11    1    4    4    0    0  0.14377414414E+01 -0.15300656064E+01 -0.11879349715E+01  0.24123413875E+01  0.51100000000E-03 0. -1.
        -11    1    4    4    0    0 -0.85803951321E+01 -0.66778856009E+01 -0.87792929609E+01  0.13974738705E+02  0.51100000000E-03 0.  1.
        -12    1    4    4    0    0 -0.23291618385E+02  0.25124196792E+01  0.29894376151E+02  0.37980066681E+02  0.00000000000E+00 0.  1.
</event>
<event>
 8    1  0.3146747E-007  0.9118800E+02  0.7816164E-02  0.1184000E+00
        -11   -1    0    0    0    0  0.00000000000E+00  0.00000000000E+00  0.45593999997E+02  0.45594000000E+02  0.51100000000E-03 0. -1.
         11   -1    0    0    0    0 -0.00000000000E+00 -0.00000000000E+00 -0.45593999997E+02  0.45594000000E+02  0.51100000000E-03 0.  1.
         23    2    1    2    0    0 -0.17763568394E-14  0.00000000000E+00  0.17763568394E-14  0.91188000000E+02  0.91188000000E+02 0.  0.
    9900012    2    3    3    0    0 -0.15463025140E+02 -0.32071213165E+02 -0.93868080191E+01  0.54367081691E+02  0.39999994330E+02 0.  0.
        -12    1    3    3    0    0  0.15463025140E+02  0.32071213165E+02  0.93868080191E+01  0.36820918309E+02  0.00000000000E+00 0.  1.
         11    1    4    4    0    0 -0.10601677912E+02 -0.28373600611E+02  0.13227054618E+01  0.30318415793E+02  0.51100000000E-03 0. -1.
        -11    1    4    4    0    0 -0.20824863879E+00  0.82988769912E+01 -0.63889452861E+01  0.10475368678E+02  0.51100000000E-03 0.  1.
        -12    1    4    4    0    0 -0.46530985894E+01 -0.11996489545E+02 -0.43205681948E+01  0.13573297220E+02  0.00000000000E+00 0.  1.
</event>
<event>
 8    1  0.3146747E-007  0.9118800E+02  0.7816164E-02  0.1184000E+00
        -11   -1    0    0    0    0  0.00000000000E+00  0.00000000000E+00  0.45593999997E+02  0.45594000000E+02  0.51100000000E-03 0. -1.
         11   -1    0    0    0    0 -0.00000000000E+00 -0.00000000000E+00 -0.45593999997E+02  0.45594000000E+02  0.51100000000E-03 0.  1.
         23    2    1    2    0    0  0.00000000000E+00  0.00000000000E+00  0.00000000000E+00  0.91188000000E+02  0.91188000000E+02 0.  0.
    9900012    2    3    3    0    0 -0.80946467668E+01 -0.11264689104E+02  0.34108084628E+02  0.54367109681E+02  0.40000058140E+02 0.  0.
        -12    1    3    3    0    0  0.80946467668E+01  0.11264689104E+02 -0.34108084628E+02  0.36820890319E+02  0.00000000000E+00 0.  1.
         11    1    4    4    0    0  0.42315906017E+01  0.77698480007E+01  0.75918909007E+00  0.88799361096E+01  0.51100000000E-03 0.  1.
        -11    1    4    4    0    0 -0.11681237056E+02 -0.35108967474E+01  0.25075325720E+02  0.27884577374E+02  0.51100000000E-03 0. -1.
         12    1    4    4    0    0 -0.64500031255E+00 -0.15523640357E+02  0.82735698186E+01  0.17602596197E+02  0.00000000000E+00 0. -1.
</event>
<event>
 8    1  0.3146747E-007  0.9118800E+02  0.7816164E-02  0.1184000E+00
        -11   -1    0    0    0    0  0.00000000000E+00  0.00000000000E+00  0.45593999997E+02  0.45594000000E+02  0.51100000000E-03 0.  1.
         11   -1    0    0    0    0 -0.00000000000E+00 -0.00000000000E+00 -0.45593999997E+02  0.45594000000E+02  0.51100000000E-03 0. -1.
         23    2    1    2    0    0  0.00000000000E+00 -0.35527136788E-14  0.17763568394E-14  0.91188000000E+02  0.91188000000E+02 0.  0.
    9900012    2    3    3    0    0  0.26182452825E+02 -0.21495260642E+02  0.14429576943E+02  0.54367085335E+02  0.40000002638E+02 0.  0.
         12    1    3    3    0    0 -0.26182452825E+02  0.21495260642E+02 -0.14429576943E+02  0.36820914665E+02  0.00000000000E+00 0. -1.
         11    1    4    4    0    0  0.13493684370E+02 -0.20533589551E+01 -0.59770550302E+01  0.14900368719E+02  0.51100000000E-03 0. -1.
        -11    1    4    4    0    0  0.19235580657E+02 -0.14436064032E+02  0.19889902142E+02  0.31209224845E+02  0.51100000000E-03 0.  1.
        -12    1    4    4    0    0 -0.65468122013E+01 -0.50058376548E+01  0.51672983078E+00  0.82574917707E+01  0.00000000000E+00 0.  1.
</event>
<event>
 8    1  0.3146747E-007  0.9118800E+02  0.7816164E-02  0.1184000E+00
        -11   -1    0    0    0    0  0.00000000000E+00  0.00000000000E+00  0.45593999997E+02  0.45594000000E+02  0.51100000000E-03 0.  1.
         11   -1    0    0    0    0 -0.00000000000E+00 -0.00000000000E+00 -0.45593999997E+02  0.45594000000E+02  0.51100000000E-03 0. -1.
         23    2    1    2    0    0 -0.17763568394E-14  0.00000000000E+00  0.00000000000E+00  0.91188000000E+02  0.91188000000E+02 0.  0.
    9900012    2    3    3    0    0 -0.14615498591E+02  0.11147309485E+02  0.31904626120E+02  0.54367075573E+02  0.39999980385E+02 0.  0.
        -12    1    3    3    0    0  0.14615498591E+02 -0.11147309485E+02 -0.31904626120E+02  0.36820924427E+02  0.00000000000E+00 0.  1.
         11    1    4    4    0    0  0.82210662360E+01 -0.22193591508E+00  0.24163664788E+02  0.25524848322E+02  0.51100000000E-03 0.  1.
        -11    1    4    4    0    0 -0.22460736785E+02  0.84931005807E+01  0.43910349614E+01  0.24411035265E+02  0.51100000000E-03 0. -1.
         12    1    4    4    0    0 -0.37582804179E+00  0.28761448192E+01  0.33499263700E+01  0.44311919866E+01  0.00000000000E+00 0. -1.
</event>
<event>
 8    1  0.3146747E-007  0.9118800E+02  0.7816164E-02  0.1184000E+00
        -11   -1    0    0    0    0  0.00000000000E+00  0.00000000000E+00  0.45593999997E+02  0.45594000000E+02  0.51100000000E-03 0. -1.
         11   -1    0    0    0    0 -0.00000000000E+00 -0.00000000000E+00 -0.45593999997E+02  0.45594000000E+02  0.51100000000E-03 0.  1.
         23    2    1    2    0    0  0.00000000000E+00 -0.35527136788E-14  0.00000000000E+00  0.91188000000E+02  0.91188000000E+02 0.  0.
    9900012    2    3    3    0    0  0.24604959551E+02 -0.27164506846E+02 -0.35306052348E+01  0.54367086921E+02  0.40000006253E+02 0.  0.
         12    1    3    3    0    0 -0.24604959551E+02  0.27164506846E+02  0.35306052348E+01  0.36820913079E+02  0.00000000000E+00 0. -1.
         11    1    4    4    0    0 -0.27956632537E+00 -0.23507040244E+02 -0.26474723929E+01  0.23657307723E+02  0.51100000000E-03 0. -1.
        -11    1    4    4    0    0  0.19978590739E+02 -0.84181571658E+00  0.68425926810E+01  0.21134659128E+02  0.51100000000E-03 0.  1.
        -12    1    4    4    0    0  0.49059351378E+01 -0.28156508846E+01 -0.77257255229E+01  0.95751200690E+01  0.00000000000E+00 0.  1.
</event>
<event>
 8    1  0.3146747E-007  0.9118800E+02  0.7816164E-02  0.1184000E+00
        -11   -1    0    0    0    0  0.00000000000E+00  0.00000000000E+00  0.45593999997E+02  0.45594000000E+02  0.51100000000E-03 0.  1.
         11   -1    0    0    0    0 -0.00000000000E+00 -0.00000000000E+00 -0.45593999997E+02  0.45594000000E+02  0.51100000000E-03 0. -1.
         23    2    1    2    0    0  0.00000000000E+00  0.00000000000E+00  0.00000000000E+00  0.91188000000E+02  0.91188000000E+02 0.  0.
    9900012    2    3    3    0    0  0.26585293873E+02  0.23001191226E+02 -0.10952009687E+02  0.54367093379E+02  0.40000020977E+02 0.  0.
        -12    1    3    3    0    0 -0.26585293873E+02 -0.23001191226E+02  0.10952009687E+02  0.36820906621E+02  0.00000000000E+00 0.  1.
         11    1    4    4    0    0  0.53295143439E+01  0.27873487545E+02 -0.68994091431E+01  0.29205083082E+02  0.51100000000E-03 0.  1.
        -11    1    4    4    0    0  0.90153221113E+01  0.11337332300E+01 -0.66787567871E+01  0.11276842479E+02  0.51100000000E-03 0. -1.
        -12    1    4    4    0    0  0.12240457418E+02 -0.60060295483E+01  0.26261562429E+01  0.13885167819E+02  0.00000000000E+00 0.  1.
</event>
<event>
 8    1  0.3146747E-007  0.9118800E+02  0.7816164E-02  0.1184000E+00
        -11   -1    0    0    0    0  0.00000000000E+00  0.00000000000E+00  0.45593999997E+02  0.45594000000E+02  0.51100000000E-03 0. -1.
         11   -1    0    0    0    0 -0.00000000000E+00 -0.00000000000E+00 -0.45593999997E+02  0.45594000000E+02  0.51100000000E-03 0.  1.
         23    2    1    2    0    0  0.35527136788E-14 -0.88817841970E-15 -0.35527136788E-14  0.91188000000E+02  0.91188000000E+02 0.  0.
    9900012    2    3    3    0    0  0.26484581348E+02 -0.58595353288E+01  0.24900055053E+02  0.54367082778E+02  0.39999996808E+02 0.  0.
        -12    1    3    3    0    0 -0.26484581348E+02  0.58595353288E+01 -0.24900055053E+02  0.36820917222E+02  0.00000000000E+00 0.  1.
         11    1    4    4    0    0  0.21771250940E+02 -0.12018798522E+02  0.19789024392E+02  0.31781195258E+02  0.51100000000E-03 0. -1.
        -11    1    4    4    0    0  0.95473264202E+01 -0.38265963604E+01  0.51245143165E+01  0.11491515510E+02  0.51100000000E-03 0.  1.
        -12    1    4    4    0    0 -0.48339960114E+01  0.99858595539E+01 -0.13483655554E-01  0.11094372009E+02  0.00000000000E+00 0.  1.
</event>
<event>
 8    1  0.3146747E-007  0.9118800E+02  0.7816164E-02  0.1184000E+00
        -11   -1    0    0    0    0  0.00000000000E+00  0.00000000000E+00  0.45593999997E+02  0.45594000000E+02  0.51100000000E-03 0.  1.
         11   -1    0    0    0    0 -0.00000000000E+00 -0.00000000000E+00 -0.45593999997E+02  0.45594000000E+02  0.51100000000E-03 0. -1.
         23    2    1    2    0    0  0.00000000000E+00  0.00000000000E+00  0.00000000000E+00  0.91188000000E+02  0.91188000000E+02 0.  0.
    9900012    2    3    3    0    0  0.29783134562E+02  0.10612034755E+02 -0.18871386118E+02  0.54367087464E+02  0.40000007491E+02 0.  0.
        -12    1    3    3    0    0 -0.29783134562E+02 -0.10612034755E+02  0.18871386118E+02  0.36820912536E+02  0.00000000000E+00 0.  1.
         11    1    4    4    0    0  0.30281295569E+01 -0.13494008938E+02 -0.55621865656E+01  0.14906232438E+02  0.51100000000E-03 0. -1.
        -11    1    4    4    0    0  0.15970103700E+02  0.83473721397E+01 -0.72907081966E+01  0.19439065309E+02  0.51100000000E-03 0.  1.
         12    1    4    4    0    0  0.10784901305E+02  0.15758671553E+02 -0.60184913560E+01  0.20021789717E+02  0.00000000000E+00 0. -1.
</event>
<event>
 8    1  0.3146747E-007  0.9118800E+02  0.7816164E-02  0.1184000E+00
        -11   -1    0    0    0    0  0.00000000000E+00  0.00000000000E+00  0.45593999997E+02  0.45594000000E+02  0.51100000000E-03 0.  1.
         11   -1    0    0    0    0 -0.00000000000E+00 -0.00000000000E+00 -0.45593999997E+02  0.45594000000E+02  0.51100000000E-03 0. -1.
         23    2    1    2    0    0  0.00000000000E+00 -0.71054273576E-14 -0.44408920985E-15  0.91188000000E+02  0.91188000000E+02 0.  0.
    9900012    2    3    3    0    0  0.23061443385E+02  0.28677799228E+02  0.12324578018E+01  0.54367281759E+02  0.40000450424E+02 0.  0.
         12    1    3    3    0    0 -0.23061443385E+02 -0.28677799228E+02 -0.12324578018E+01  0.36820718241E+02  0.00000000000E+00 0. -1.
         11    1    4    4    0    0  0.13591199856E+01  0.90108419153E+01  0.95597478486E+01  0.13207242647E+02  0.51100000000E-03 0. -1.
        -11    1    4    4    0    0  0.23139439774E+02  0.65897349229E+01  0.24082905685E+01  0.24179705191E+02  0.51100000000E-03 0.  1.
         12    1    4    4    0    0 -0.14371163749E+01  0.13077222390E+02 -0.10735580615E+02  0.16980333920E+02  0.00000000000E+00 0. -1.
</event>
<event>
 8    1  0.3146747E-007  0.9118800E+02  0.7816164E-02  0.1184000E+00
        -11   -1    0    0    0    0  0.00000000000E+00  0.00000000000E+00  0.45593999997E+02  0.45594000000E+02  0.51100000000E-03 0.  1.
         11   -1    0    0    0    0 -0.00000000000E+00 -0.00000000000E+00 -0.45593999997E+02  0.45594000000E+02  0.51100000000E-03 0. -1.
         23    2    1    2    0    0 -0.71054273576E-14 -0.44408920985E-15  0.00000000000E+00  0.91188000000E+02  0.91188000000E+02 0.  0.
    9900012    2    3    3    0    0 -0.32988357504E+02 -0.17971136507E+01  0.16257857952E+02  0.54367091626E+02  0.40000016980E+02 0.  0.
         12    1    3    3    0    0  0.32988357504E+02  0.17971136507E+01 -0.16257857952E+02  0.36820908374E+02  0.00000000000E+00 0. -1.
         11    1    4    4    0    0 -0.16715570472E+02 -0.10307001992E+02  0.12596495224E+02  0.23330586758E+02  0.51100000000E-03 0. -1.
        -11    1    4    4    0    0 -0.95881572569E+01  0.13569452000E+02  0.10973791983E+02  0.19911978754E+02  0.51100000000E-03 0.  1.
         12    1    4    4    0    0 -0.66846297756E+01 -0.50595636590E+01 -0.73124292549E+01  0.11124526114E+02  0.00000000000E+00 0. -1.
</event>
<event>
 8    1  0.3146747E-007  0.9118800E+02  0.7816164E-02  0.1184000E+00
        -11   -1    0    0    0    0  0.00000000000E+00  0.00000000000E+00  0.45593999997E+02  0.45594000000E+02  0.51100000000E-03 0. -1.
         11   -1    0    0    0    0 -0.00000000000E+00 -0.00000000000E+00 -0.45593999997E+02  0.45594000000E+02  0.51100000000E-03 0.  1.
         23    2    1    2    0    0  0.00000000000E+00  0.00000000000E+00  0.35527136788E-14  0.91188000000E+02  0.91188000000E+02 0.  0.
    9900012    2    3    3    0    0  0.20626054177E+02 -0.13365868816E+02 -0.27417104728E+02  0.54367106587E+02  0.40000051085E+02 0.  0.
         12    1    3    3    0    0 -0.20626054177E+02  0.13365868816E+02  0.27417104728E+02  0.36820893413E+02  0.00000000000E+00 0. -1.
         11    1    4    4    0    0  0.68388442683E+01  0.96375621678E+01 -0.25234051303E+01  0.12083872276E+02  0.51100000000E-03 0. -1.
        -11    1    4    4    0    0  0.17834022174E+02 -0.98364468612E+01 -0.13881048418E+02  0.24647343451E+02  0.51100000000E-03 0.  1.
        -12    1    4    4    0    0 -0.40468122658E+01 -0.13166984123E+02 -0.11012651179E+02  0.17635890859E+02  0.00000000000E+00 0.  1.
</event>
<event>
 8    1  0.3146747E-007  0.9118800E+02  0.7816164E-02  0.1184000E+00
        -11   -1    0    0    0    0  0.00000000000E+00  0.00000000000E+00  0.45593999997E+02  0.45594000000E+02  0.51100000000E-03 0.  1.
         11   -1    0    0    0    0 -0.00000000000E+00 -0.00000000000E+00 -0.45593999997E+02  0.45594000000E+02  0.51100000000E-03 0. -1.
         23    2    1    2    0    0  0.00000000000E+00 -0.17763568394E-14  0.00000000000E+00  0.91188000000E+02  0.91188000000E+02 0.  0.
    9900012    2    3    3    0    0 -0.16653417686E+02 -0.80628515521E+01  0.31834481026E+02  0.54367080973E+02  0.39999992694E+02 0.  0.
         12    1    3    3    0    0  0.16653417686E+02  0.80628515521E+01 -0.31834481026E+02  0.36820919027E+02  0.00000000000E+00 0. -1.
         11    1    4    4    0    0 -0.21994523169E+02 -0.16117831966E+02  0.18275938758E+02  0.32826109950E+02  0.51100000000E-03 0. -1.
        -11    1    4    4    0    0  0.42218905911E+01  0.11936621742E+02  0.10881104543E+02  0.16694482175E+02  0.51100000000E-03 0.  1.
        -12    1    4    4    0    0  0.11192148919E+01 -0.38816413282E+01  0.26774377257E+01  0.48464888476E+01  0.00000000000E+00 0.  1.
</event>
<event>
 8    1  0.3146747E-007  0.9118800E+02  0.7816164E-02  0.1184000E+00
        -11   -1    0    0    0    0  0.00000000000E+00  0.00000000000E+00  0.45593999997E+02  0.45594000000E+02  0.51100000000E-03 0. -1.
         11   -1    0    0    0    0 -0.00000000000E+00 -0.00000000000E+00 -0.45593999997E+02  0.45594000000E+02  0.51100000000E-03 0.  1.
         23    2    1    2    0    0 -0.35527136788E-14  0.00000000000E+00 -0.35527136788E-14  0.91188000000E+02  0.91188000000E+02 0.  0.
    9900012    2    3    3    0    0  0.15793151799E+02  0.19661288449E+02  0.26828881230E+02  0.54367098663E+02  0.40000033022E+02 0.  0.
        -12    1    3    3    0    0 -0.15793151799E+02 -0.19661288449E+02 -0.26828881230E+02  0.36820901337E+02  0.00000000000E+00 0.  1.
         11    1    4    4    0    0  0.74861902196E+01  0.10576452863E+02 -0.93601482414E+01  0.15984892071E+02  0.51100000000E-03 0.  1.
        -11    1    4    4    0    0  0.25810222404E+01  0.52767760117E+01  0.18150223396E+02  0.19077123747E+02  0.51100000000E-03 0. -1.
        -12    1    4    4    0    0  0.57259393390E+01  0.38080595750E+01  0.18038806075E+02  0.19305082845E+02  0.00000000000E+00 0.  1.
</event>
<event>
 8    1  0.3146747E-007  0.9118800E+02  0.7816164E-02  0.1184000E+00
        -11   -1    0    0    0    0  0.00000000000E+00  0.00000000000E+00  0.45593999997E+02  0.45594000000E+02  0.51100000000E-03 0. -1.
         11   -1    0    0    0    0 -0.00000000000E+00 -0.00000000000E+00 -0.45593999997E+02  0.45594000000E+02  0.51100000000E-03 0.  1.
         23    2    1    2    0    0 -0.35527136788E-14 -0.26645352591E-14  0.00000000000E+00  0.91188000000E+02  0.91188000000E+02 0.  0.
    9900012    2    3    3    0    0  0.16614817946E+02 -0.78404920115E+00 -0.32849834570E+02  0.54367101860E+02  0.40000040311E+02 0.  0.
         12    1    3    3    0    0 -0.16614817946E+02  0.78404920115E+00  0.32849834570E+02  0.36820898140E+02  0.00000000000E+00 0. -1.
         11    1    4    4    0    0 -0.15446342690E+01  0.42726098925E+01 -0.74895736203E+01  0.87598403863E+01  0.51100000000E-03 0. -1.
        -11    1    4    4    0    0  0.11572412026E+02  0.12683957602E+02 -0.51621329972E+01  0.17929057920E+02  0.51100000000E-03 0.  1.
        -12    1    4    4    0    0  0.65870401890E+01 -0.17740616696E+02 -0.20198127953E+02  0.27678203554E+02  0.00000000000E+00 0.  1.
</event>
<event>
 8    1  0.3146747E-007  0.9118800E+02  0.7816164E-02  0.1184000E+00
        -11   -1    0    0    0    0  0.00000000000E+00  0.00000000000E+00  0.45593999997E+02  0.45594000000E+02  0.51100000000E-03 0.  1.
         11   -1    0    0    0    0 -0.00000000000E+00 -0.00000000000E+00 -0.45593999997E+02  0.45594000000E+02  0.51100000000E-03 0. -1.
         23    2    1    2    0    0  0.00000000000E+00  0.00000000000E+00  0.00000000000E+00  0.91188000000E+02  0.91188000000E+02 0.  0.
    9900012    2    3    3    0    0 -0.12935474643E+02  0.13210964905E+02  0.31842165465E+02  0.54367087471E+02  0.40000007509E+02 0.  0.
        -12    1    3    3    0    0  0.12935474643E+02 -0.13210964905E+02 -0.31842165465E+02  0.36820912529E+02  0.00000000000E+00 0.  1.
         11    1    4    4    0    0  0.55827783549E+01  0.18418722188E+02  0.21119207492E+02  0.28573373384E+02  0.51100000000E-03 0. -1.
        -11    1    4    4    0    0 -0.16215719552E+02  0.15548728038E+01  0.80002591433E+01  0.18148590487E+02  0.51100000000E-03 0.  1.
         12    1    4    4    0    0 -0.23025334457E+01 -0.67626300866E+01  0.27226988295E+01  0.76451236009E+01  0.00000000000E+00 0. -1.
</event>
<event>
 8    1  0.3146747E-007  0.9118800E+02  0.7816164E-02  0.1184000E+00
        -11   -1    0    0    0    0  0.00000000000E+00  0.00000000000E+00  0.45593999997E+02  0.45594000000E+02  0.51100000000E-03 0.  1.
         11   -1    0    0    0    0 -0.00000000000E+00 -0.00000000000E+00 -0.45593999997E+02  0.45594000000E+02  0.51100000000E-03 0. -1.
         23    2    1    2    0    0 -0.35527136788E-14  0.00000000000E+00 -0.14210854715E-13  0.91188000000E+02  0.91188000000E+02 0.  0.
    9900012    2    3    3    0    0  0.98465472168E+01 -0.14294483375E+02  0.32472948394E+02  0.54367093921E+02  0.40000022212E+02 0.  0.
         12    1    3    3    0    0 -0.98465472168E+01  0.14294483375E+02 -0.32472948394E+02  0.36820906079E+02  0.00000000000E+00 0. -1.
         11    1    4    4    0    0  0.22061237962E+02 -0.94647517462E+01  0.23960363144E+02  0.33917233794E+02  0.51100000000E-03 0. -1.
        -11    1    4    4    0    0 -0.13185854324E+02 -0.64857289712E+01  0.10205011793E+02  0.17890603693E+02  0.51100000000E-03 0.  1.
         12    1    4    4    0    0  0.97116357921E+00  0.16559973423E+01 -0.16924265420E+01  0.25592564341E+01  0.00000000000E+00 0. -1.
</event>
<event>
 8    1  0.3146747E-007  0.9118800E+02  0.7816164E-02  0.1184000E+00
        -11   -1    0    0    0    0  0.00000000000E+00  0.00000000000E+00  0.45593999997E+02  0.45594000000E+02  0.51100000000E-03 0. -1.
         11   -1    0    0    0    0 -0.00000000000E+00 -0.00000000000E+00 -0.45593999997E+02  0.45594000000E+02  0.51100000000E-03 0.  1.
         23    2    1    2    0    0 -0.17763568394E-14  0.17763568394E-14  0.00000000000E+00  0.91188000000E+02  0.91188000000E+02 0.  0.
    9900012    2    3    3    0    0  0.14508515592E+02 -0.12426065656E+02 -0.31478138505E+02  0.54367118205E+02  0.40000077572E+02 0.  0.
         12    1    3    3    0    0 -0.14508515592E+02  0.12426065656E+02  0.31478138505E+02  0.36820881795E+02  0.00000000000E+00 0. -1.
         11    1    4    4    0    0 -0.94159646324E+01  0.69631592372E+01 -0.64192955640E+01  0.13354899188E+02  0.51100000000E-03 0. -1.
        -11    1    4    4    0    0  0.20168969468E+02 -0.17365315771E+02 -0.16141675864E+02  0.31127081797E+02  0.51100000000E-03 0.  1.
        -12    1    4    4    0    0  0.37555107566E+01 -0.20239091220E+01 -0.89171670777E+01  0.98851372205E+01  0.00000000000E+00 0.  1.
</event>
<event>
 8    1  0.3146747E-007  0.9118800E+02  0.7816164E-02  0.1184000E+00
        -11   -1    0    0    0    0  0.00000000000E+00  0.00000000000E+00  0.45593999997E+02  0.45594000000E+02  0.51100000000E-03 0.  1.
         11   -1    0    0    0    0 -0.00000000000E+00 -0.00000000000E+00 -0.45593999997E+02  0.45594000000E+02  0.51100000000E-03 0. -1.
         23    2    1    2    0    0  0.00000000000E+00  0.33306690739E-15  0.00000000000E+00  0.91188000000E+02  0.91188000000E+02 0.  0.
    9900012    2    3    3    0    0  0.20507847887E+02 -0.76342451326E+00  0.30571642707E+02  0.54367082307E+02  0.39999995736E+02 0.  0.
         12    1    3    3    0    0 -0.20507847887E+02  0.76342451326E+00 -0.30571642707E+02  0.36820917693E+02  0.00000000000E+00 0. -1.
         11    1    4    4    0    0 -0.12920875673E+01 -0.60978662930E+01  0.56926895437E+01  0.84415743858E+01  0.51100000000E-03 0. -1.
        -11    1    4    4    0    0 -0.58794593829E+01 -0.44231411747E+01  0.11543806240E+02  0.13689108198E+02  0.51100000000E-03 0.  1.
        -12    1    4    4    0    0  0.27679394837E+02  0.97575829545E+01  0.13335146923E+02  0.32236399723E+02  0.00000000000E+00 0.  1.
</event>
<event>
 8    1  0.3146747E-007  0.9118800E+02  0.7816164E-02  0.1184000E+00
        -11   -1    0    0    0    0  0.00000000000E+00  0.00000000000E+00  0.45593999997E+02  0.45594000000E+02  0.51100000000E-03 0.  1.
         11   -1    0    0    0    0 -0.00000000000E+00 -0.00000000000E+00 -0.45593999997E+02  0.45594000000E+02  0.51100000000E-03 0. -1.
         23    2    1    2    0    0 -0.17763568394E-14  0.00000000000E+00  0.35527136788E-14  0.91188000000E+02  0.91188000000E+02 0.  0.
    9900012    2    3    3    0    0 -0.11554683888E+02 -0.22696108006E+02  0.26592379855E+02  0.54367099621E+02  0.40000035205E+02 0.  0.
        -12    1    3    3    0    0  0.11554683888E+02  0.22696108006E+02 -0.26592379855E+02  0.36820900379E+02  0.00000000000E+00 0.  1.
         11    1    4    4    0    0  0.74196535424E+01 -0.94972442370E+01 -0.52285006425E+01  0.13137203889E+02  0.51100000000E-03 0.  1.
        -11    1    4    4    0    0 -0.12363747089E+02 -0.13691345798E+02  0.28139393416E+02  0.33647297869E+02  0.51100000000E-03 0. -1.
        -12    1    4    4    0    0 -0.66105903413E+01  0.49248202875E+00  0.36814870819E+01  0.75825978625E+01  0.00000000000E+00 0.  1.
</event>
<event>
 8    1  0.3146747E-007  0.9118800E+02  0.7816164E-02  0.1184000E+00
        -11   -1    0    0    0    0  0.00000000000E+00  0.00000000000E+00  0.45593999997E+02  0.45594000000E+02  0.51100000000E-03 0.  1.
         11   -1    0    0    0    0 -0.00000000000E+00 -0.00000000000E+00 -0.45593999997E+02  0.45594000000E+02  0.51100000000E-03 0. -1.
         23    2    1    2    0    0  0.00000000000E+00  0.00000000000E+00  0.35527136788E-14  0.91188000000E+02  0.91188000000E+02 0.  0.
    9900012    2    3    3    0    0  0.21466893646E+02  0.65658506166E+01 -0.29186300637E+02  0.54367108349E+02  0.40000055102E+02 0.  0.
        -12    1    3    3    0    0 -0.21466893646E+02 -0.65658506166E+01  0.29186300637E+02  0.36820891651E+02  0.00000000000E+00 0.  1.
         11    1    4    4    0    0  0.16225128788E+02  0.15979484473E+01 -0.11892486146E+02  0.20180175183E+02  0.51100000000E-03 0. -1.
        -11    1    4    4    0    0 -0.88589598917E+01 -0.62684159534E+01 -0.99340165154E+01  0.14712542041E+02  0.51100000000E-03 0.  1.
        -12    1    4    4    0    0  0.14100724750E+02  0.11236318123E+02 -0.73597979761E+01  0.19474391125E+02  0.00000000000E+00 0.  1.
</event>
<event>
 8    1  0.3146747E-007  0.9118800E+02  0.7816164E-02  0.1184000E+00
        -11   -1    0    0    0    0  0.00000000000E+00  0.00000000000E+00  0.45593999997E+02  0.45594000000E+02  0.51100000000E-03 0. -1.
         11   -1    0    0    0    0 -0.00000000000E+00 -0.00000000000E+00 -0.45593999997E+02  0.45594000000E+02  0.51100000000E-03 0.  1.
         23    2    1    2    0    0  0.17763568394E-14  0.00000000000E+00  0.00000000000E+00  0.91188000000E+02  0.91188000000E+02 0.  0.
    9900012    2    3    3    0    0 -0.11638106909E+02 -0.34838125890E+02 -0.25769788372E+01  0.54367063457E+02  0.39999952764E+02 0.  0.
        -12    1    3    3    0    0  0.11638106909E+02  0.34838125890E+02  0.25769788372E+01  0.36820936543E+02  0.00000000000E+00 0.  1.
         11    1    4    4    0    0 -0.24865072686E+01  0.26714765836E+01 -0.54634861520E+01  0.65703262269E+01  0.51100000000E-03 0. -1.
        -11    1    4    4    0    0 -0.15958674476E+02 -0.89695590778E+01 -0.77782020233E-01  0.18306783753E+02  0.51100000000E-03 0.  1.
         12    1    4    4    0    0  0.68070748357E+01 -0.28540043396E+02  0.29642893350E+01  0.29489953478E+02  0.00000000000E+00 0. -1.
</event>
<event>
 8    1  0.3146747E-007  0.9118800E+02  0.7816164E-02  0.1184000E+00
        -11   -1    0    0    0    0  0.00000000000E+00  0.00000000000E+00  0.45593999997E+02  0.45594000000E+02  0.51100000000E-03 0. -1.
         11   -1    0    0    0    0 -0.00000000000E+00 -0.00000000000E+00 -0.45593999997E+02  0.45594000000E+02  0.51100000000E-03 0.  1.
         23    2    1    2    0    0 -0.88817841970E-15  0.00000000000E+00  0.00000000000E+00  0.91188000000E+02  0.91188000000E+02 0.  0.
    9900012    2    3    3    0    0  0.20598320314E+01 -0.75591964883E+01  0.35977791025E+02  0.54367003183E+02  0.39999815357E+02 0.  0.
        -12    1    3    3    0    0 -0.20598320314E+01  0.75591964883E+01 -0.35977791025E+02  0.36820996817E+02  0.00000000000E+00 0.  1.
         11    1    4    4    0    0 -0.12331923610E+02  0.34774668312E+01  0.40739610429E+01  0.13444934894E+02  0.51100000000E-03 0. -1.
        -11    1    4    4    0    0  0.19104843695E+01 -0.15829728444E+01 -0.22505845946E+01  0.33497589213E+01  0.51100000000E-03 0.  1.
         12    1    4    4    0    0  0.12481271271E+02 -0.94536904751E+01  0.34154414577E+02  0.37572309368E+02  0.00000000000E+00 0. -1.
</event>
<event>
 8    1  0.3146747E-007  0.9118800E+02  0.7816164E-02  0.1184000E+00
        -11   -1    0    0    0    0  0.00000000000E+00  0.00000000000E+00  0.45593999997E+02  0.45594000000E+02  0.51100000000E-03 0. -1.
         11   -1    0    0    0    0 -0.00000000000E+00 -0.00000000000E+00 -0.45593999997E+02  0.45594000000E+02  0.51100000000E-03 0.  1.
         23    2    1    2    0    0 -0.22204460493E-15  0.00000000000E+00  0.00000000000E+00  0.91188000000E+02  0.91188000000E+02 0.  0.
    9900012    2    3    3    0    0 -0.13913114422E+01 -0.12351797754E+02  0.34659447746E+02  0.54367082394E+02  0.39999995933E+02 0.  0.
        -12    1    3    3    0    0  0.13913114422E+01  0.12351797754E+02 -0.34659447746E+02  0.36820917606E+02  0.00000000000E+00 0.  1.
         11    1    4    4    0    0  0.62787010743E+01  0.32471457888E+01  0.16412711114E+02  0.17870174295E+02  0.51100000000E-03 0. -1.
        -11    1    4    4    0    0 -0.14507809583E+01  0.43648128204E+01 -0.39059312403E+01  0.60342899716E+01  0.51100000000E-03 0.  1.
        -12    1    4    4    0    0 -0.62192315582E+01 -0.19963756363E+02  0.22152667872E+02  0.30462618127E+02  0.00000000000E+00 0.  1.
</event>
<event>
 8    1  0.3146747E-007  0.9118800E+02  0.7816164E-02  0.1184000E+00
        -11   -1    0    0    0    0  0.00000000000E+00  0.00000000000E+00  0.45593999997E+02  0.45594000000E+02  0.51100000000E-03 0.  1.
         11   -1    0    0    0    0 -0.00000000000E+00 -0.00000000000E+00 -0.45593999997E+02  0.45594000000E+02  0.51100000000E-03 0. -1.
         23    2    1    2    0    0  0.35527136788E-14 -0.35527136788E-14  0.00000000000E+00  0.91188000000E+02  0.91188000000E+02 0.  0.
    9900012    2    3    3    0    0  0.20350586509E+02  0.29662862200E+02  0.78581235149E+01  0.54367056634E+02  0.39999937209E+02 0.  0.
         12    1    3    3    0    0 -0.20350586509E+02 -0.29662862200E+02 -0.78581235149E+01  0.36820943366E+02  0.00000000000E+00 0. -1.
         11    1    4    4    0    0 -0.70888024140E+01  0.70152911432E+01  0.99928771714E+01  0.14118180616E+02  0.51100000000E-03 0. -1.
        -11    1    4    4    0    0  0.10609709518E+02 -0.15322208539E+01 -0.12951296364E+00  0.10720560184E+02  0.51100000000E-03 0.  1.
        -12    1    4    4    0    0  0.16829679406E+02  0.24179791911E+02 -0.20052406929E+01  0.29528315834E+02  0.00000000000E+00 0.  1.
</event>
<event>
 8    1  0.3146747E-007  0.9118800E+02  0.7816164E-02  0.1184000E+00
        -11   -1    0    0    0    0  0.00000000000E+00  0.00000000000E+00  0.45593999997E+02  0.45594000000E+02  0.51100000000E-03 0.  1.
         11   -1    0    0    0    0 -0.00000000000E+00 -0.00000000000E+00 -0.45593999997E+02  0.45594000000E+02  0.51100000000E-03 0. -1.
         23    2    1    2    0    0  0.00000000000E+00  0.71054273576E-14  0.35527136788E-14  0.91188000000E+02  0.91188000000E+02 0.  0.
    9900012    2    3    3    0    0  0.13318534265E+02 -0.20163598970E+02 -0.27781769115E+02  0.54367071528E+02  0.39999971162E+02 0.  0.
        -12    1    3    3    0    0 -0.13318534265E+02  0.20163598970E+02  0.27781769115E+02  0.36820928472E+02  0.00000000000E+00 0.  1.
         11    1    4    4    0    0 -0.59398323924E+01 -0.42796464503E+01  0.22597560465E+01  0.76618196429E+01  0.51100000000E-03 0. -1.
        -11    1    4    4    0    0  0.10774923877E+02 -0.12208666726E+02 -0.10973719406E+01  0.16320378465E+02  0.51100000000E-03 0.  1.
         12    1    4    4    0    0  0.84834427802E+01 -0.36752857936E+01 -0.28944153221E+02  0.30384873420E+02  0.00000000000E+00 0. -1.
</event>
<event>
 8    1  0.3146747E-007  0.9118800E+02  0.7816164E-02  0.1184000E+00
        -11   -1    0    0    0    0  0.00000000000E+00  0.00000000000E+00  0.45593999997E+02  0.45594000000E+02  0.51100000000E-03 0. -1.
         11   -1    0    0    0    0 -0.00000000000E+00 -0.00000000000E+00 -0.45593999997E+02  0.45594000000E+02  0.51100000000E-03 0.  1.
         23    2    1    2    0    0  0.00000000000E+00  0.00000000000E+00  0.00000000000E+00  0.91188000000E+02  0.91188000000E+02 0.  0.
    9900012    2    3    3    0    0  0.24255509591E+02 -0.23485345054E+02  0.14693173764E+02  0.54367074793E+02  0.39999978605E+02 0.  0.
        -12    1    3    3    0    0 -0.24255509591E+02  0.23485345054E+02 -0.14693173764E+02  0.36820925207E+02  0.00000000000E+00 0.  1.
         11    1    4    4    0    0 -0.28260143894E+01  0.78069952174E+01  0.26145284901E+00  0.83068579804E+01  0.51100000000E-03 0. -1.
        -11    1    4    4    0    0  0.66233621934E+01 -0.16444338771E+02  0.18518374150E+01  0.17824547861E+02  0.51100000000E-03 0.  1.
        -12    1    4    4    0    0  0.20458161787E+02 -0.14848001500E+02  0.12579883500E+02  0.28235668952E+02  0.00000000000E+00 0.  1.
</event>
<event>
 8    1  0.3146747E-007  0.9118800E+02  0.7816164E-02  0.1184000E+00
        -11   -1    0    0    0    0  0.00000000000E+00  0.00000000000E+00  0.45593999997E+02  0.45594000000E+02  0.51100000000E-03 0. -1.
         11   -1    0    0    0    0 -0.00000000000E+00 -0.00000000000E+00 -0.45593999997E+02  0.45594000000E+02  0.51100000000E-03 0.  1.
         23    2    1    2    0    0  0.00000000000E+00  0.35527136788E-14 -0.35527136788E-14  0.91188000000E+02  0.91188000000E+02 0.  0.
    9900012    2    3    3    0    0  0.16832723085E+02  0.27748566482E+02 -0.17391279414E+02  0.54367080567E+02  0.39999991768E+02 0.  0.
         12    1    3    3    0    0 -0.16832723085E+02 -0.27748566482E+02  0.17391279414E+02  0.36820919433E+02  0.00000000000E+00 0. -1.
         11    1    4    4    0    0  0.16897802137E+02  0.92903145431E+01  0.18836584296E+01  0.19375082728E+02  0.51100000000E-03 0. -1.
        -11    1    4    4    0    0  0.33194488338E+01  0.11965520163E+02  0.19227406655E+01  0.12565402710E+02  0.51100000000E-03 0.  1.
        -12    1    4    4    0    0 -0.33845278855E+01  0.64927317757E+01 -0.21197678509E+02  0.22426595130E+02  0.00000000000E+00 0.  1.
</event>
<event>
 8    1  0.3146747E-007  0.9118800E+02  0.7816164E-02  0.1184000E+00
        -11   -1    0    0    0    0  0.00000000000E+00  0.00000000000E+00  0.45593999997E+02  0.45594000000E+02  0.51100000000E-03 0. -1.
         11   -1    0    0    0    0 -0.00000000000E+00 -0.00000000000E+00 -0.45593999997E+02  0.45594000000E+02  0.51100000000E-03 0.  1.
         23    2    1    2    0    0  0.00000000000E+00 -0.17763568394E-14  0.35527136788E-14  0.91188000000E+02  0.91188000000E+02 0.  0.
    9900012    2    3    3    0    0  0.29210773219E+02 -0.12790506014E+02  0.18409629461E+02  0.54367071535E+02  0.39999971178E+02 0.  0.
        -12    1    3    3    0    0 -0.29210773219E+02  0.12790506014E+02 -0.18409629461E+02  0.36820928465E+02  0.00000000000E+00 0.  1.
         11    1    4    4    0    0 -0.17831951363E+01  0.74812892449E+01 -0.39350972925E+01  0.86391240657E+01  0.51100000000E-03 0.  1.
        -11    1    4    4    0    0  0.45246381107E+01 -0.96447959903E+01  0.23911919954E+01  0.10918435746E+02  0.51100000000E-03 0. -1.
        -12    1    4    4    0    0  0.26469330245E+02 -0.10626999269E+02  0.19953534758E+02  0.34809511723E+02  0.00000000000E+00 0.  1.
</event>
<event>
 8    1  0.3146747E-007  0.9118800E+02  0.7816164E-02  0.1184000E+00
        -11   -1    0    0    0    0  0.00000000000E+00  0.00000000000E+00  0.45593999997E+02  0.45594000000E+02  0.51100000000E-03 0.  1.
         11   -1    0    0    0    0 -0.00000000000E+00 -0.00000000000E+00 -0.45593999997E+02  0.45594000000E+02  0.51100000000E-03 0. -1.
         23    2    1    2    0    0  0.35527136788E-14  0.00000000000E+00 -0.10658141036E-13  0.91188000000E+02  0.91188000000E+02 0.  0.
    9900012    2    3    3    0    0 -0.20638089827E+02 -0.20165725920E+02  0.22873514330E+02  0.54367015339E+02  0.39999843068E+02 0.  0.
         12    1    3    3    0    0  0.20638089827E+02  0.20165725920E+02 -0.22873514330E+02  0.36820984661E+02  0.00000000000E+00 0. -1.
         11    1    4    4    0    0 -0.20274807398E+02 -0.58842131514E+01  0.29383908616E+02  0.36181568032E+02  0.51100000000E-03 0.  1.
        -11    1    4    4    0    0  0.65461390156E+00 -0.31808228153E+01 -0.62405079790E+01  0.70349195617E+01  0.51100000000E-03 0. -1.
         12    1    4    4    0    0 -0.10178963304E+01 -0.11100689953E+02 -0.26988630722E+00  0.11150527745E+02  0.00000000000E+00 0. -1.
</event>
<event>
 8    1  0.3146747E-007  0.9118800E+02  0.7816164E-02  0.1184000E+00
        -11   -1    0    0    0    0  0.00000000000E+00  0.00000000000E+00  0.45593999997E+02  0.45594000000E+02  0.51100000000E-03 0.  1.
         11   -1    0    0    0    0 -0.00000000000E+00 -0.00000000000E+00 -0.45593999997E+02  0.45594000000E+02  0.51100000000E-03 0. -1.
         23    2    1    2    0    0 -0.35527136788E-14  0.35527136788E-14 -0.35527136788E-14  0.91188000000E+02  0.91188000000E+02 0.  0.
    9900012    2    3    3    0    0  0.21267580248E+02 -0.22723918741E+02  0.19674652171E+02  0.54367103887E+02  0.40000044930E+02 0.  0.
         12    1    3    3    0    0 -0.21267580248E+02  0.22723918741E+02 -0.19674652171E+02  0.36820896113E+02  0.00000000000E+00 0. -1.
         11    1    4    4    0    0  0.90943579314E+01 -0.10447441237E+01  0.13848994541E+02  0.16601008600E+02  0.51100000000E-03 0. -1.
        -11    1    4    4    0    0 -0.47037886543E+01 -0.19187445775E+02  0.52160098001E-01  0.19755668149E+02  0.51100000000E-03 0.  1.
        -12    1    4    4    0    0  0.16877010971E+02 -0.24917288424E+01  0.57734975313E+01  0.18010427138E+02  0.00000000000E+00 0.  1.
</event>
<event>
 8    1  0.3146747E-007  0.9118800E+02  0.7816164E-02  0.1184000E+00
        -11   -1    0    0    0    0  0.00000000000E+00  0.00000000000E+00  0.45593999997E+02  0.45594000000E+02  0.51100000000E-03 0. -1.
         11   -1    0    0    0    0 -0.00000000000E+00 -0.00000000000E+00 -0.45593999997E+02  0.45594000000E+02  0.51100000000E-03 0.  1.
         23    2    1    2    0    0 -0.88817841970E-15  0.00000000000E+00 -0.17763568394E-14  0.91188000000E+02  0.91188000000E+02 0.  0.
    9900012    2    3    3    0    0 -0.74906314169E+01  0.34903337137E+02 -0.90237005540E+01  0.54367086459E+02  0.40000005200E+02 0.  0.
         12    1    3    3    0    0  0.74906314169E+01 -0.34903337137E+02  0.90237005540E+01  0.36820913541E+02  0.00000000000E+00 0. -1.
         11    1    4    4    0    0 -0.12423808854E+02 -0.14243642873E+01  0.43897731792E+01  0.13253299547E+02  0.51100000000E-03 0. -1.
        -11    1    4    4    0    0 -0.11896516806E+01  0.30692290994E+00 -0.28130951901E+01  0.30696868901E+01  0.51100000000E-03 0.  1.
        -12    1    4    4    0    0  0.61228291179E+01  0.36020778514E+02 -0.10600378543E+02  0.38044100021E+02  0.00000000000E+00 0.  1.
</event>
<event>
 8    1  0.3146747E-007  0.9118800E+02  0.7816164E-02  0.1184000E+00
        -11   -1    0    0    0    0  0.00000000000E+00  0.00000000000E+00  0.45593999997E+02  0.45594000000E+02  0.51100000000E-03 0. -1.
         11   -1    0    0    0    0 -0.00000000000E+00 -0.00000000000E+00 -0.45593999997E+02  0.45594000000E+02  0.51100000000E-03 0.  1.
         23    2    1    2    0    0  0.00000000000E+00  0.00000000000E+00  0.00000000000E+00  0.91188000000E+02  0.91188000000E+02 0.  0.
    9900012    2    3    3    0    0  0.11129568864E+02  0.17168861517E+02 -0.30612779465E+02  0.54367090513E+02  0.40000014443E+02 0.  0.
         12    1    3    3    0    0 -0.11129568864E+02 -0.17168861517E+02  0.30612779465E+02  0.36820909487E+02  0.00000000000E+00 0. -1.
         11    1    4    4    0    0 -0.23307067542E+01  0.33264978279E+01 -0.16149912043E+01  0.43710386208E+01  0.51100000000E-03 0. -1.
        -11    1    4    4    0    0  0.13337661522E+02  0.63042712786E+01 -0.36494859565E+02  0.39363839068E+02  0.51100000000E-03 0.  1.
        -12    1    4    4    0    0  0.12261409580E+00  0.75380924103E+01  0.74970713044E+01  0.10632212825E+02  0.00000000000E+00 0.  1.
</event>
<event>
 8    1  0.3146747E-007  0.9118800E+02  0.7816164E-02  0.1184000E+00
        -11   -1    0    0    0    0  0.00000000000E+00  0.00000000000E+00  0.45593999997E+02  0.45594000000E+02  0.51100000000E-03 0. -1.
         11   -1    0    0    0    0 -0.00000000000E+00 -0.00000000000E+00 -0.45593999997E+02  0.45594000000E+02  0.51100000000E-03 0.  1.
         23    2    1    2    0    0  0.17763568394E-14 -0.88817841970E-15  0.71054273576E-14  0.91188000000E+02  0.91188000000E+02 0.  0.
    9900012    2    3    3    0    0 -0.10160859096E+02 -0.48056055975E+01  0.35063413247E+02  0.54367084052E+02  0.39999999712E+02 0.  0.
        -12    1    3    3    0    0  0.10160859096E+02  0.48056055975E+01 -0.35063413247E+02  0.36820915948E+02  0.00000000000E+00 0.  1.
         11    1    4    4    0    0 -0.47763354818E+01 -0.29453683789E+01  0.21197124469E+02  0.21927304019E+02  0.51100000000E-03 0. -1.
        -11    1    4    4    0    0 -0.11007637990E+02  0.90316975721E+01  0.14292438827E+02  0.20174574668E+02  0.51100000000E-03 0.  1.
         12    1    4    4    0    0  0.56231143757E+01 -0.10891934791E+02 -0.42615004872E+00  0.12265205364E+02  0.00000000000E+00 0. -1.
</event>
<event>
 8    1  0.3146747E-007  0.9118800E+02  0.7816164E-02  0.1184000E+00
        -11   -1    0    0    0    0  0.00000000000E+00  0.00000000000E+00  0.45593999997E+02  0.45594000000E+02  0.51100000000E-03 0.  1.
         11   -1    0    0    0    0 -0.00000000000E+00 -0.00000000000E+00 -0.45593999997E+02  0.45594000000E+02  0.51100000000E-03 0. -1.
         23    2    1    2    0    0  0.00000000000E+00 -0.17763568394E-14  0.00000000000E+00  0.91188000000E+02  0.91188000000E+02 0.  0.
    9900012    2    3    3    0    0  0.77740238034E+01 -0.13667061176E+02 -0.33294955698E+02  0.54367108074E+02  0.40000054477E+02 0.  0.
        -12    1    3    3    0    0 -0.77740238034E+01  0.13667061176E+02  0.33294955698E+02  0.36820891926E+02  0.00000000000E+00 0.  1.
         11    1    4    4    0    0  0.18482519460E+02 -0.85983747512E+01 -0.22403738758E+02  0.30289653093E+02  0.51100000000E-03 0. -1.
        -11    1    4    4    0    0 -0.47101819698E+01 -0.11648424140E+02 -0.61142740339E+01  0.13973401388E+02  0.51100000000E-03 0.  1.
         12    1    4    4    0    0 -0.59983136865E+01  0.65797377150E+01 -0.47769429064E+01  0.10104053593E+02  0.00000000000E+00 0. -1.
</event>
<event>
 8    1  0.3146747E-007  0.9118800E+02  0.7816164E-02  0.1184000E+00
        -11   -1    0    0    0    0  0.00000000000E+00  0.00000000000E+00  0.45593999997E+02  0.45594000000E+02  0.51100000000E-03 0.  1.
         11   -1    0    0    0    0 -0.00000000000E+00 -0.00000000000E+00 -0.45593999997E+02  0.45594000000E+02  0.51100000000E-03 0. -1.
         23    2    1    2    0    0  0.00000000000E+00 -0.35527136788E-14  0.00000000000E+00  0.91188000000E+02  0.91188000000E+02 0.  0.
    9900012    2    3    3    0    0  0.20735614245E+02 -0.23109496277E+02 -0.19793059777E+02  0.54367085676E+02  0.40000003416E+02 0.  0.
        -12    1    3    3    0    0 -0.20735614245E+02  0.23109496277E+02  0.19793059777E+02  0.36820914324E+02  0.00000000000E+00 0.  1.
         11    1    4    4    0    0  0.19738280416E+02 -0.57033222801E+01 -0.20540137782E+02  0.29052105933E+02  0.51100000000E-03 0. -1.
        -11    1    4    4    0    0  0.41736536743E+00 -0.57720489458E+01  0.92374777754E+01  0.10900538464E+02  0.51100000000E-03 0.  1.
        -12    1    4    4    0    0  0.57996846194E+00 -0.11634125051E+02 -0.84903997703E+01  0.14414441279E+02  0.00000000000E+00 0.  1.
</event>
<event>
 8    1  0.3146747E-007  0.9118800E+02  0.7816164E-02  0.1184000E+00
        -11   -1    0    0    0    0  0.00000000000E+00  0.00000000000E+00  0.45593999997E+02  0.45594000000E+02  0.51100000000E-03 0.  1.
         11   -1    0    0    0    0 -0.00000000000E+00 -0.00000000000E+00 -0.45593999997E+02  0.45594000000E+02  0.51100000000E-03 0. -1.
         23    2    1    2    0    0  0.00000000000E+00  0.35527136788E-14  0.35527136788E-14  0.91188000000E+02  0.91188000000E+02 0.  0.
    9900012    2    3    3    0    0 -0.10915054066E+02  0.24399020283E+02  0.25324477134E+02  0.54367085588E+02  0.40000003215E+02 0.  0.
        -12    1    3    3    0    0  0.10915054066E+02 -0.24399020283E+02 -0.25324477134E+02  0.36820914412E+02  0.00000000000E+00 0.  1.
         11    1    4    4    0    0 -0.20894421926E+01  0.10296169257E+02  0.17066685896E+02  0.20041173563E+02  0.51100000000E-03 0. -1.
        -11    1    4    4    0    0 -0.99156250990E+00  0.89620255246E+01 -0.10207249478E+02  0.13619436107E+02  0.51100000000E-03 0.  1.
        -12    1    4    4    0    0 -0.78340493632E+01  0.51408255016E+01  0.18465040716E+02  0.20706475917E+02  0.00000000000E+00 0.  1.
</event>
<event>
 8    1  0.3146747E-007  0.9118800E+02  0.7816164E-02  0.1184000E+00
        -11   -1    0    0    0    0  0.00000000000E+00  0.00000000000E+00  0.45593999997E+02  0.45594000000E+02  0.51100000000E-03 0.  1.
         11   -1    0    0    0    0 -0.00000000000E+00 -0.00000000000E+00 -0.45593999997E+02  0.45594000000E+02  0.51100000000E-03 0. -1.
         23    2    1    2    0    0 -0.53290705182E-14  0.35527136788E-14  0.00000000000E+00  0.91188000000E+02  0.91188000000E+02 0.  0.
    9900012    2    3    3    0    0 -0.12233582716E+02  0.21871700956E+02  0.26976796548E+02  0.54367090169E+02  0.40000013658E+02 0.  0.
         12    1    3    3    0    0  0.12233582716E+02 -0.21871700956E+02 -0.26976796548E+02  0.36820909831E+02  0.00000000000E+00 0. -1.
         11    1    4    4    0    0 -0.22946479781E+02  0.16221440190E+02  0.10379694464E+02  0.29956870892E+02  0.51100000000E-03 0. -1.
        -11    1    4    4    0    0  0.11488163679E+01  0.57694978926E+01  0.12859247044E+02  0.14140973084E+02  0.51100000000E-03 0.  1.
         12    1    4    4    0    0  0.95640806969E+01 -0.11923712675E+00  0.37378550399E+01  0.10269246193E+02  0.00000000000E+00 0. -1.
</event>
<event>
 8    1  0.3146747E-007  0.9118800E+02  0.7816164E-02  0.1184000E+00
        -11   -1    0    0    0    0  0.00000000000E+00  0.00000000000E+00  0.45593999997E+02  0.45594000000E+02  0.51100000000E-03 0.  1.
         11   -1    0    0    0    0 -0.00000000000E+00 -0.00000000000E+00 -0.45593999997E+02  0.45594000000E+02  0.51100000000E-03 0. -1.
         23    2    1    2    0    0  0.00000000000E+00  0.00000000000E+00 -0.17763568394E-14  0.91188000000E+02  0.91188000000E+02 0.  0.
    9900012    2    3    3    0    0  0.15883174168E+02 -0.32188624306E+02  0.82096873246E+01  0.54367058644E+02  0.39999941792E+02 0.  0.
         12    1    3    3    0    0 -0.15883174168E+02  0.32188624306E+02 -0.82096873246E+01  0.36820941356E+02  0.00000000000E+00 0. -1.
         11    1    4    4    0    0  0.30528186224E+01 -0.69357311052E+01 -0.36547367249E+01  0.84131544794E+01  0.51100000000E-03 0. -1.
        -11    1    4    4    0    0 -0.50968998230E+01 -0.15238666090E+02 -0.74966369829E+01  0.17731184347E+02  0.51100000000E-03 0.  1.
         12    1    4    4    0    0  0.17927255368E+02 -0.10014227110E+02  0.19361061032E+02  0.28222719818E+02  0.00000000000E+00 0. -1.
</event>
<event>
 8    1  0.3146747E-007  0.9118800E+02  0.7816164E-02  0.1184000E+00
        -11   -1    0    0    0    0  0.00000000000E+00  0.00000000000E+00  0.45593999997E+02  0.45594000000E+02  0.51100000000E-03 0. -1.
         11   -1    0    0    0    0 -0.00000000000E+00 -0.00000000000E+00 -0.45593999997E+02  0.45594000000E+02  0.51100000000E-03 0.  1.
         23    2    1    2    0    0  0.00000000000E+00  0.00000000000E+00  0.00000000000E+00  0.91188000000E+02  0.91188000000E+02 0.  0.
    9900012    2    3    3    0    0 -0.26939709705E+02 -0.21045697032E+02 -0.13678861053E+02  0.54367074397E+02  0.39999977702E+02 0.  0.
         12    1    3    3    0    0  0.26939709705E+02  0.21045697032E+02  0.13678861053E+02  0.36820925603E+02  0.00000000000E+00 0. -1.
         11    1    4    4    0    0 -0.23822498843E+01  0.86151477768E+01 -0.69577387973E+01  0.11327224513E+02  0.51100000000E-03 0. -1.
        -11    1    4    4    0    0 -0.52837190265E+01 -0.20377244805E+02 -0.21199874799E+01  0.21157602411E+02  0.51100000000E-03 0.  1.
        -12    1    4    4    0    0 -0.19273740795E+02 -0.92836000037E+01 -0.46011347760E+01  0.21882247473E+02  0.00000000000E+00 0.  1.
</event>
<event>
 8    1  0.3146747E-007  0.9118800E+02  0.7816164E-02  0.1184000E+00
        -11   -1    0    0    0    0  0.00000000000E+00  0.00000000000E+00  0.45593999997E+02  0.45594000000E+02  0.51100000000E-03 0.  1.
         11   -1    0    0    0    0 -0.00000000000E+00 -0.00000000000E+00 -0.45593999997E+02  0.45594000000E+02  0.51100000000E-03 0. -1.
         23    2    1    2    0    0  0.00000000000E+00 -0.35527136788E-14  0.00000000000E+00  0.91188000000E+02  0.91188000000E+02 0.  0.
    9900012    2    3    3    0    0  0.65591455256E+01  0.28830337300E+02  0.21944673264E+02  0.54367089861E+02  0.40000012955E+02 0.  0.
         12    1    3    3    0    0 -0.65591455256E+01 -0.28830337300E+02 -0.21944673264E+02  0.36820910139E+02  0.00000000000E+00 0. -1.
         11    1    4    4    0    0 -0.13661127733E+01 -0.61167315656E+01  0.56436012188E+01  0.84339139273E+01  0.51100000000E-03 0. -1.
        -11    1    4    4    0    0 -0.44584955458E+00  0.32335245266E+02  0.68791554176E+01  0.33061906293E+02  0.51100000000E-03 0.  1.
        -12    1    4    4    0    0  0.83711078535E+01  0.26118235993E+01  0.94219166274E+01  0.12871269640E+02  0.00000000000E+00 0.  1.
</event>
<event>
 8    1  0.3146747E-007  0.9118800E+02  0.7816164E-02  0.1184000E+00
        -11   -1    0    0    0    0  0.00000000000E+00  0.00000000000E+00  0.45593999997E+02  0.45594000000E+02  0.51100000000E-03 0. -1.
         11   -1    0    0    0    0 -0.00000000000E+00 -0.00000000000E+00 -0.45593999997E+02  0.45594000000E+02  0.51100000000E-03 0.  1.
         23    2    1    2    0    0  0.00000000000E+00 -0.17763568394E-14  0.00000000000E+00  0.91188000000E+02  0.91188000000E+02 0.  0.
    9900012    2    3    3    0    0 -0.21185037756E+02 -0.13650407319E+02  0.26844795906E+02  0.54367047922E+02  0.39999917347E+02 0.  0.
        -12    1    3    3    0    0  0.21185037756E+02  0.13650407319E+02 -0.26844795906E+02  0.36820952078E+02  0.00000000000E+00 0.  1.
         11    1    4    4    0    0 -0.11549980519E+02  0.61603952776E+01  0.13253633622E+02  0.18628239971E+02  0.51100000000E-03 0. -1.
        -11    1    4    4    0    0  0.89448255133E+00 -0.49251078374E+01 -0.67618127694E+01  0.84130195789E+01  0.51100000000E-03 0.  1.
        -12    1    4    4    0    0 -0.10529539789E+02 -0.14885694760E+02  0.20352975053E+02  0.27325788372E+02  0.00000000000E+00 0.  1.
</event>
<event>
 8    1  0.3146747E-007  0.9118800E+02  0.7816164E-02  0.1184000E+00
        -11   -1    0    0    0    0  0.00000000000E+00  0.00000000000E+00  0.45593999997E+02  0.45594000000E+02  0.51100000000E-03 0.  1.
         11   -1    0    0    0    0 -0.00000000000E+00 -0.00000000000E+00 -0.45593999997E+02  0.45594000000E+02  0.51100000000E-03 0. -1.
         23    2    1    2    0    0  0.00000000000E+00  0.35527136788E-14 -0.31086244690E-14  0.91188000000E+02  0.91188000000E+02 0.  0.
    9900012    2    3    3    0    0 -0.22588185451E+02  0.29025238972E+02  0.17577368991E+01  0.54367078524E+02  0.39999987110E+02 0.  0.
         12    1    3    3    0    0  0.22588185451E+02 -0.29025238972E+02 -0.17577368991E+01  0.36820921476E+02  0.00000000000E+00 0. -1.
         11    1    4    4    0    0 -0.11304174537E+02  0.78926618597E+01 -0.95617064394E+01  0.16778101904E+02  0.51100000000E-03 0. -1.
        -11    1    4    4    0    0 -0.18898920181E+01  0.66019604429E+01 -0.87289554872E+01  0.11106405255E+02  0.51100000000E-03 0.  1.
        -12    1    4    4    0    0 -0.93941188961E+01  0.14530616669E+02  0.20048398826E+02  0.26482571365E+02  0.00000000000E+00 0.  1.
</event>
<event>
 8    1  0.3146747E-007  0.9118800E+02  0.7816164E-02  0.1184000E+00
        -11   -1    0    0    0    0  0.00000000000E+00  0.00000000000E+00  0.45593999997E+02  0.45594000000E+02  0.51100000000E-03 0. -1.
         11   -1    0    0    0    0 -0.00000000000E+00 -0.00000000000E+00 -0.45593999997E+02  0.45594000000E+02  0.51100000000E-03 0.  1.
         23    2    1    2    0    0  0.00000000000E+00  0.35527136788E-14 -0.71054273576E-14  0.91188000000E+02  0.91188000000E+02 0.  0.
    9900012    2    3    3    0    0  0.15171486367E+02 -0.19407205977E+02  0.27367246495E+02  0.54367084434E+02  0.40000000583E+02 0.  0.
        -12    1    3    3    0    0 -0.15171486367E+02  0.19407205977E+02 -0.27367246495E+02  0.36820915566E+02  0.00000000000E+00 0.  1.
         11    1    4    4    0    0 -0.11944186633E+01 -0.16392277828E+00 -0.80834292434E+01  0.81728413184E+01  0.51100000000E-03 0.  1.
        -11    1    4    4    0    0  0.56560747610E+01 -0.17678026094E+02  0.25107303514E+02  0.31223076054E+02  0.51100000000E-03 0. -1.
        -12    1    4    4    0    0  0.10709830269E+02 -0.15652571049E+01  0.10343372225E+02  0.14971167061E+02  0.00000000000E+00 0.  1.
</event>
<event>
 8    1  0.3146747E-007  0.9118800E+02  0.7816164E-02  0.1184000E+00
        -11   -1    0    0    0    0  0.00000000000E+00  0.00000000000E+00  0.45593999997E+02  0.45594000000E+02  0.51100000000E-03 0.  1.
         11   -1    0    0    0    0 -0.00000000000E+00 -0.00000000000E+00 -0.45593999997E+02  0.45594000000E+02  0.51100000000E-03 0. -1.
         23    2    1    2    0    0  0.00000000000E+00  0.00000000000E+00  0.71054273576E-14  0.91188000000E+02  0.91188000000E+02 0.  0.
    9900012    2    3    3    0    0 -0.65109445387E+01  0.10649555339E+02 -0.34640653441E+02  0.54367077978E+02  0.39999985867E+02 0.  0.
        -12    1    3    3    0    0  0.65109445387E+01 -0.10649555339E+02  0.34640653441E+02  0.36820922022E+02  0.00000000000E+00 0.  1.
         11    1    4    4    0    0 -0.29829601323E+01  0.36297420576E+01 -0.16710072007E+01  0.49865162069E+01  0.51100000000E-03 0. -1.
        -11    1    4    4    0    0 -0.14577370123E+02 -0.27424454117E+01 -0.31179659529E+02  0.34528131938E+02  0.51100000000E-03 0.  1.
        -12    1    4    4    0    0  0.11049385717E+02  0.97622586933E+01 -0.17899867114E+01  0.14852429833E+02  0.00000000000E+00 0.  1.
</event>
<event>
 8    1  0.3146747E-007  0.9118800E+02  0.7816164E-02  0.1184000E+00
        -11   -1    0    0    0    0  0.00000000000E+00  0.00000000000E+00  0.45593999997E+02  0.45594000000E+02  0.51100000000E-03 0. -1.
         11   -1    0    0    0    0 -0.00000000000E+00 -0.00000000000E+00 -0.45593999997E+02  0.45594000000E+02  0.51100000000E-03 0.  1.
         23    2    1    2    0    0 -0.88817841970E-15 -0.88817841970E-15  0.71054273576E-14  0.91188000000E+02  0.91188000000E+02 0.  0.
    9900012    2    3    3    0    0  0.46453190949E+01  0.46541975274E+01 -0.36229026565E+02  0.54367042517E+02  0.39999905025E+02 0.  0.
         12    1    3    3    0    0 -0.46453190949E+01 -0.46541975274E+01  0.36229026565E+02  0.36820957483E+02  0.00000000000E+00 0. -1.
         11    1    4    4    0    0  0.12987724023E+02  0.10578349700E+02 -0.30321358751E+02  0.34640543507E+02  0.51100000000E-03 0.  1.
        -11    1    4    4    0    0 -0.88215554394E+01 -0.52420399166E+01  0.30694530870E+01  0.10710759327E+02  0.51100000000E-03 0. -1.
        -12    1    4    4    0    0  0.47915051107E+00 -0.68211225638E+00 -0.89771209009E+01  0.90157396819E+01  0.00000000000E+00 0.  1.
</event>
<event>
 8    1  0.3146747E-007  0.9118800E+02  0.7816164E-02  0.1184000E+00
        -11   -1    0    0    0    0  0.00000000000E+00  0.00000000000E+00  0.45593999997E+02  0.45594000000E+02  0.51100000000E-03 0.  1.
         11   -1    0    0    0    0 -0.00000000000E+00 -0.00000000000E+00 -0.45593999997E+02  0.45594000000E+02  0.51100000000E-03 0. -1.
         23    2    1    2    0    0 -0.35527136788E-14  0.00000000000E+00  0.00000000000E+00  0.91188000000E+02  0.91188000000E+02 0.  0.
    9900012    2    3    3    0    0 -0.21005067526E+02 -0.18305582239E+02 -0.24072226354E+02  0.54367091748E+02  0.40000017259E+02 0.  0.
        -12    1    3    3    0    0  0.21005067526E+02  0.18305582239E+02  0.24072226354E+02  0.36820908252E+02  0.00000000000E+00 0.  1.
         11    1    4    4    0    0  0.57428441087E+01 -0.96091477511E+01 -0.12692592223E+02  0.16923884795E+02  0.51100000000E-03 0. -1.
        -11    1    4    4    0    0 -0.41571251515E+01  0.67215950304E+01 -0.50203060471E+01  0.93629590592E+01  0.51100000000E-03 0.  1.
        -12    1    4    4    0    0 -0.22590786483E+02 -0.15418029518E+02 -0.63593280840E+01  0.28080247894E+02  0.00000000000E+00 0.  1.
</event>
<event>
 8    1  0.3146747E-007  0.9118800E+02  0.7816164E-02  0.1184000E+00
        -11   -1    0    0    0    0  0.00000000000E+00  0.00000000000E+00  0.45593999997E+02  0.45594000000E+02  0.51100000000E-03 0.  1.
         11   -1    0    0    0    0 -0.00000000000E+00 -0.00000000000E+00 -0.45593999997E+02  0.45594000000E+02  0.51100000000E-03 0. -1.
         23    2    1    2    0    0  0.88817841970E-15  0.35527136788E-14  0.00000000000E+00  0.91188000000E+02  0.91188000000E+02 0.  0.
    9900012    2    3    3    0    0  0.29948591949E+01  0.21506896716E+02  0.29736600605E+02  0.54367065689E+02  0.39999957852E+02 0.  0.
         12    1    3    3    0    0 -0.29948591949E+01 -0.21506896716E+02 -0.29736600605E+02  0.36820934311E+02  0.00000000000E+00 0. -1.
         11    1    4    4    0    0 -0.57368938896E+00  0.16975701409E+02  0.10603359099E+02  0.20023355920E+02  0.51100000000E-03 0. -1.
        -11    1    4    4    0    0  0.15791284592E+02  0.18309045066E+01  0.12163368411E+02  0.20016603402E+02  0.51100000000E-03 0.  1.
        -12    1    4    4    0    0 -0.12222736008E+02  0.27002907997E+01  0.69698730952E+01  0.14327106368E+02  0.00000000000E+00 0.  1.
</event>
<event>
 8    1  0.3146747E-007  0.9118800E+02  0.7816164E-02  0.1184000E+00
        -11   -1    0    0    0    0  0.00000000000E+00  0.00000000000E+00  0.45593999997E+02  0.45594000000E+02  0.51100000000E-03 0. -1.
         11   -1    0    0    0    0 -0.00000000000E+00 -0.00000000000E+00 -0.45593999997E+02  0.45594000000E+02  0.51100000000E-03 0.  1.
         23    2    1    2    0    0  0.00000000000E+00  0.00000000000E+00  0.00000000000E+00  0.91188000000E+02  0.91188000000E+02 0.  0.
    9900012    2    3    3    0    0 -0.20333590482E+01 -0.69333987585E+01 -0.36104799040E+02  0.54367311779E+02  0.40000518859E+02 0.  0.
         12    1    3    3    0    0  0.20333590482E+01  0.69333987585E+01  0.36104799040E+02  0.36820688221E+02  0.00000000000E+00 0. -1.
         11    1    4    4    0    0  0.17647941725E+01  0.45802717758E+01 -0.29896284091E+02  0.30296554107E+02  0.51100000000E-03 0. -1.
        -11    1    4    4    0    0 -0.31561509435E+01 -0.17170066874E+02 -0.36780897222E+01  0.17840987347E+02  0.51100000000E-03 0.  1.
         12    1    4    4    0    0 -0.64200227719E+00  0.56563963400E+01 -0.25304252264E+01  0.62297703252E+01  0.00000000000E+00 0. -1.
</event>
<event>
 8    1  0.3146747E-007  0.9118800E+02  0.7816164E-02  0.1184000E+00
        -11   -1    0    0    0    0  0.00000000000E+00  0.00000000000E+00  0.45593999997E+02  0.45594000000E+02  0.51100000000E-03 0. -1.
         11   -1    0    0    0    0 -0.00000000000E+00 -0.00000000000E+00 -0.45593999997E+02  0.45594000000E+02  0.51100000000E-03 0.  1.
         23    2    1    2    0    0  0.00000000000E+00 -0.17763568394E-14  0.00000000000E+00  0.91188000000E+02  0.91188000000E+02 0.  0.
    9900012    2    3    3    0    0  0.84521229740E+01 -0.14657594061E+02  0.32703149264E+02  0.54367089933E+02  0.40000013120E+02 0.  0.
        -12    1    3    3    0    0 -0.84521229740E+01  0.14657594061E+02 -0.32703149264E+02  0.36820910067E+02  0.00000000000E+00 0.  1.
         11    1    4    4    0    0 -0.50676330023E+01  0.70413222972E+01  0.33865589584E+01  0.93128892283E+01  0.51100000000E-03 0.  1.
        -11    1    4    4    0    0  0.77432974931E+00 -0.19875164988E+02  0.23879093181E+02  0.31077851620E+02  0.51100000000E-03 0. -1.
        -12    1    4    4    0    0  0.12745426227E+02 -0.18237513700E+01  0.54374971239E+01  0.13976349085E+02  0.00000000000E+00 0.  1.
</event>
<event>
 8    1  0.3146747E-007  0.9118800E+02  0.7816164E-02  0.1184000E+00
        -11   -1    0    0    0    0  0.00000000000E+00  0.00000000000E+00  0.45593999997E+02  0.45594000000E+02  0.51100000000E-03 0. -1.
         11   -1    0    0    0    0 -0.00000000000E+00 -0.00000000000E+00 -0.45593999997E+02  0.45594000000E+02  0.51100000000E-03 0.  1.
         23    2    1    2    0    0  0.00000000000E+00  0.35527136788E-14  0.00000000000E+00  0.91188000000E+02  0.91188000000E+02 0.  0.
    9900012    2    3    3    0    0 -0.10280460951E+02 -0.22787701700E+02 -0.27033568000E+02  0.54367068114E+02  0.39999963380E+02 0.  0.
         12    1    3    3    0    0  0.10280460951E+02  0.22787701700E+02  0.27033568000E+02  0.36820931886E+02  0.00000000000E+00 0. -1.
         11    1    4    4    0    0 -0.62928521699E+01 -0.17648526207E+02 -0.37087718401E+02  0.41552007438E+02  0.51100000000E-03 0.  1.
        -11    1    4    4    0    0  0.25634208976E+00 -0.23598776742E+01  0.13241572471E+01  0.27181108477E+01  0.51100000000E-03 0. -1.
        -12    1    4    4    0    0 -0.42439508714E+01 -0.27792978183E+01  0.87299931541E+01  0.10096949828E+02  0.00000000000E+00 0.  1.
</event>
<event>
 8    1  0.3146747E-007  0.9118800E+02  0.7816164E-02  0.1184000E+00
        -11   -1    0    0    0    0  0.00000000000E+00  0.00000000000E+00  0.45593999997E+02  0.45594000000E+02  0.51100000000E-03 0. -1.
         11   -1    0    0    0    0 -0.00000000000E+00 -0.00000000000E+00 -0.45593999997E+02  0.45594000000E+02  0.51100000000E-03 0.  1.
         23    2    1    2    0    0  0.71054273576E-14 -0.26645352591E-14  0.00000000000E+00  0.91188000000E+02  0.91188000000E+02 0.  0.
    9900012    2    3    3    0    0 -0.35313204112E+02  0.28645660549E+01  0.10027591871E+02  0.54367072227E+02  0.39999972755E+02 0.  0.
        -12    1    3    3    0    0  0.35313204112E+02 -0.28645660549E+01 -0.10027591871E+02  0.36820927773E+02  0.00000000000E+00 0.  1.
         11    1    4    4    0    0 -0.13982232346E+02  0.23518272391E+01  0.10398915486E+02  0.17583269215E+02  0.51100000000E-03 0. -1.
        -11    1    4    4    0    0 -0.64282011434E+01  0.66637514902E+01  0.12915898271E+02  0.15891752020E+02  0.51100000000E-03 0.  1.
        -12    1    4    4    0    0 -0.14902770623E+02 -0.61510126744E+01 -0.13287221887E+02  0.20892050991E+02  0.00000000000E+00 0.  1.
</event>
<event>
 8    1  0.3146747E-007  0.9118800E+02  0.7816164E-02  0.1184000E+00
        -11   -1    0    0    0    0  0.00000000000E+00  0.00000000000E+00  0.45593999997E+02  0.45594000000E+02  0.51100000000E-03 0.  1.
         11   -1    0    0    0    0 -0.00000000000E+00 -0.00000000000E+00 -0.45593999997E+02  0.45594000000E+02  0.51100000000E-03 0. -1.
         23    2    1    2    0    0  0.35527136788E-14 -0.35527136788E-14  0.71054273576E-14  0.91188000000E+02  0.91188000000E+02 0.  0.
    9900012    2    3    3    0    0 -0.98182214488E+01  0.24826015584E+02 -0.25358430877E+02  0.54367101875E+02  0.40000040344E+02 0.  0.
        -12    1    3    3    0    0  0.98182214488E+01 -0.24826015584E+02  0.25358430877E+02  0.36820898125E+02  0.00000000000E+00 0.  1.
         11    1    4    4    0    0 -0.12208419861E+02 -0.19881504599E+01  0.13952398526E+01  0.12447688632E+02  0.51100000000E-03 0. -1.
        -11    1    4    4    0    0 -0.32555268070E+01  0.26312449116E+02 -0.23192897582E+02  0.35225756653E+02  0.51100000000E-03 0.  1.
         12    1    4    4    0    0  0.56457252195E+01  0.50171692729E+00 -0.35607731480E+01  0.66936565897E+01  0.00000000000E+00 0. -1.
</event>
<event>
 8    1  0.3146747E-007  0.9118800E+02  0.7816164E-02  0.1184000E+00
        -11   -1    0    0    0    0  0.00000000000E+00  0.00000000000E+00  0.45593999997E+02  0.45594000000E+02  0.51100000000E-03 0.  1.
         11   -1    0    0    0    0 -0.00000000000E+00 -0.00000000000E+00 -0.45593999997E+02  0.45594000000E+02  0.51100000000E-03 0. -1.
         23    2    1    2    0    0  0.35527136788E-14  0.00000000000E+00  0.00000000000E+00  0.91188000000E+02  0.91188000000E+02 0.  0.
    9900012    2    3    3    0    0  0.25928251957E+02  0.48325959410E+01  0.25693417620E+02  0.54367082819E+02  0.39999996903E+02 0.  0.
         12    1    3    3    0    0 -0.25928251957E+02 -0.48325959410E+01 -0.25693417620E+02  0.36820917181E+02  0.00000000000E+00 0. -1.
         11    1    4    4    0    0  0.66896598293E+01 -0.13109646194E+02  0.11346328243E+02  0.18583690075E+02  0.51100000000E-03 0. -1.
        -11    1    4    4    0    0  0.72838698399E+01  0.45149297319E+00 -0.34892061350E+01  0.80890769228E+01  0.51100000000E-03 0.  1.
        -12    1    4    4    0    0  0.11954722288E+02  0.17490749162E+02  0.17836295512E+02  0.27694315821E+02  0.00000000000E+00 0.  1.
</event>
<event>
 8    1  0.3146747E-007  0.9118800E+02  0.7816164E-02  0.1184000E+00
        -11   -1    0    0    0    0  0.00000000000E+00  0.00000000000E+00  0.45593999997E+02  0.45594000000E+02  0.51100000000E-03 0.  1.
         11   -1    0    0    0    0 -0.00000000000E+00 -0.00000000000E+00 -0.45593999997E+02  0.45594000000E+02  0.51100000000E-03 0. -1.
         23    2    1    2    0    0  0.00000000000E+00  0.17763568394E-14  0.00000000000E+00  0.91188000000E+02  0.91188000000E+02 0.  0.
    9900012    2    3    3    0    0  0.23957478852E+02 -0.14689608474E+02  0.23791559939E+02  0.54367031593E+02  0.39999880123E+02 0.  0.
         12    1    3    3    0    0 -0.23957478852E+02  0.14689608474E+02 -0.23791559939E+02  0.36820968407E+02  0.00000000000E+00 0. -1.
         11    1    4    4    0    0  0.17845446351E+02 -0.48278678175E+01  0.97072483621E+01  0.20880587495E+02  0.51100000000E-03 0.  1.
        -11    1    4    4    0    0 -0.15760125092E+01 -0.34728478560E+01  0.20992065022E+02  0.21335680955E+02  0.51100000000E-03 0. -1.
         12    1    4    4    0    0  0.76880450105E+01 -0.63888928009E+01 -0.69077534452E+01  0.12150763143E+02  0.00000000000E+00 0. -1.
</event>
<event>
 8    1  0.3146747E-007  0.9118800E+02  0.7816164E-02  0.1184000E+00
        -11   -1    0    0    0    0  0.00000000000E+00  0.00000000000E+00  0.45593999997E+02  0.45594000000E+02  0.51100000000E-03 0.  1.
         11   -1    0    0    0    0 -0.00000000000E+00 -0.00000000000E+00 -0.45593999997E+02  0.45594000000E+02  0.51100000000E-03 0. -1.
         23    2    1    2    0    0 -0.88817841970E-15  0.00000000000E+00 -0.17763568394E-14  0.91188000000E+02  0.91188000000E+02 0.  0.
    9900012    2    3    3    0    0 -0.39063369892E+01  0.35207755234E+02  0.10046646039E+02  0.54367073967E+02  0.39999976722E+02 0.  0.
         12    1    3    3    0    0  0.39063369892E+01 -0.35207755234E+02 -0.10046646039E+02  0.36820926033E+02  0.00000000000E+00 0. -1.
         11    1    4    4    0    0  0.52146188976E+01  0.24245208167E+02 -0.14587466434E+01  0.24842510166E+02  0.51100000000E-03 0.  1.
        -11    1    4    4    0    0 -0.11327983011E+02 -0.33634352451E+01  0.89090350503E+01  0.14798878388E+02  0.51100000000E-03 0. -1.
         12    1    4    4    0    0  0.22070271241E+01  0.14325982312E+02  0.25963576318E+01  0.14725685413E+02  0.00000000000E+00 0. -1.
</event>
<event>
 8    1  0.3146747E-007  0.9118800E+02  0.7816164E-02  0.1184000E+00
        -11   -1    0    0    0    0  0.00000000000E+00  0.00000000000E+00  0.45593999997E+02  0.45594000000E+02  0.51100000000E-03 0.  1.
         11   -1    0    0    0    0 -0.00000000000E+00 -0.00000000000E+00 -0.45593999997E+02  0.45594000000E+02  0.51100000000E-03 0. -1.
         23    2    1    2    0    0 -0.17763568394E-14  0.00000000000E+00  0.00000000000E+00  0.91188000000E+02  0.91188000000E+02 0.  0.
    9900012    2    3    3    0    0  0.13666272552E+02  0.23856129368E+02  0.24492792288E+02  0.54367098491E+02  0.40000032630E+02 0.  0.
         12    1    3    3    0    0 -0.13666272552E+02 -0.23856129368E+02 -0.24492792288E+02  0.36820901509E+02  0.00000000000E+00 0. -1.
         11    1    4    4    0    0  0.10919406068E+01  0.76785747749E+01  0.33442192691E+01  0.84461025120E+01  0.51100000000E-03 0.  1.
        -11    1    4    4    0    0  0.12393351610E+02 -0.55964370119E+01 -0.24434290672E+01  0.13816136118E+02  0.51100000000E-03 0. -1.
         12    1    4    4    0    0  0.18098033496E+00  0.21773991605E+02  0.23592002086E+02  0.32104859861E+02  0.00000000000E+00 0. -1.
</event>
<event>
 8    1  0.3146747E-007  0.9118800E+02  0.7816164E-02  0.1184000E+00
        -11   -1    0    0    0    0  0.00000000000E+00  0.00000000000E+00  0.45593999997E+02  0.45594000000E+02  0.51100000000E-03 0.  1.
         11   -1    0    0    0    0 -0.00000000000E+00 -0.00000000000E+00 -0.45593999997E+02  0.45594000000E+02  0.51100000000E-03 0. -1.
         23    2    1    2    0    0  0.35527136788E-14  0.35527136788E-14  0.00000000000E+00  0.91188000000E+02  0.91188000000E+02 0.  0.
    9900012    2    3    3    0    0 -0.26501559266E+02  0.23893545029E+02 -0.90854942853E+01  0.54367077360E+02  0.39999984458E+02 0.  0.
        -12    1    3    3    0    0  0.26501559266E+02 -0.23893545029E+02  0.90854942853E+01  0.36820922640E+02  0.00000000000E+00 0.  1.
         11    1    4    4    0    0 -0.28963793328E+01 -0.45697166317E+01 -0.11071506197E+02  0.12322725878E+02  0.51100000000E-03 0. -1.
        -11    1    4    4    0    0 -0.17266748750E+02  0.22674293303E+02 -0.72777778287E+01  0.29414796269E+02  0.51100000000E-03 0.  1.
        -12    1    4    4    0    0 -0.63384311839E+01  0.57889683583E+01  0.92637897405E+01  0.12629555213E+02  0.00000000000E+00 0.  1.
</event>
<event>
 8    1  0.3146747E-007  0.9118800E+02  0.7816164E-02  0.1184000E+00
        -11   -1    0    0    0    0  0.00000000000E+00  0.00000000000E+00  0.45593999997E+02  0.45594000000E+02  0.51100000000E-03 0. -1.
         11   -1    0    0    0    0 -0.00000000000E+00 -0.00000000000E+00 -0.45593999997E+02  0.45594000000E+02  0.51100000000E-03 0.  1.
         23    2    1    2    0    0  0.00000000000E+00 -0.88817841970E-15  0.17763568394E-14  0.91188000000E+02  0.91188000000E+02 0.  0.
    9900012    2    3    3    0    0 -0.34514310464E+02 -0.34002244098E+01  0.12368553209E+02  0.54367078483E+02  0.39999987018E+02 0.  0.
         12    1    3    3    0    0  0.34514310464E+02  0.34002244098E+01 -0.12368553209E+02  0.36820921517E+02  0.00000000000E+00 0. -1.
         11    1    4    4    0    0 -0.11332721808E+02  0.11010426116E+02  0.13159958283E+02  0.20563184800E+02  0.51100000000E-03 0. -1.
        -11    1    4    4    0    0 -0.18566570803E+02 -0.16164287923E+01 -0.54660783804E+01  0.19421853839E+02  0.51100000000E-03 0.  1.
        -12    1    4    4    0    0 -0.46150178530E+01 -0.12794221734E+02  0.46746733060E+01  0.14382039844E+02  0.00000000000E+00 0.  1.
</event>
<event>
 8    1  0.3146747E-007  0.9118800E+02  0.7816164E-02  0.1184000E+00
        -11   -1    0    0    0    0  0.00000000000E+00  0.00000000000E+00  0.45593999997E+02  0.45594000000E+02  0.51100000000E-03 0. -1.
         11   -1    0    0    0    0 -0.00000000000E+00 -0.00000000000E+00 -0.45593999997E+02  0.45594000000E+02  0.51100000000E-03 0.  1.
         23    2    1    2    0    0  0.71054273576E-14  0.00000000000E+00  0.44408920985E-15  0.91188000000E+02  0.91188000000E+02 0.  0.
    9900012    2    3    3    0    0  0.36470768062E+02 -0.37999809887E+01 -0.33501129984E+01  0.54367081548E+02  0.39999994005E+02 0.  0.
         12    1    3    3    0    0 -0.36470768062E+02  0.37999809887E+01  0.33501129984E+01  0.36820918452E+02  0.00000000000E+00 0. -1.
         11    1    4    4    0    0  0.23037810340E+01 -0.10843430964E+02 -0.13256619637E+02  0.17280780266E+02  0.51100000000E-03 0. -1.
        -11    1    4    4    0    0  0.81997161050E+01  0.51924424412E+01  0.26657675382E+01  0.10064945084E+02  0.51100000000E-03 0.  1.
        -12    1    4    4    0    0  0.25967270923E+02  0.18510075344E+01  0.72407391006E+01  0.27021356198E+02  0.00000000000E+00 0.  1.
</event>
<event>
 8    1  0.3146747E-007  0.9118800E+02  0.7816164E-02  0.1184000E+00
        -11   -1    0    0    0    0  0.00000000000E+00  0.00000000000E+00  0.45593999997E+02  0.45594000000E+02  0.51100000000E-03 0.  1.
         11   -1    0    0    0    0 -0.00000000000E+00 -0.00000000000E+00 -0.45593999997E+02  0.45594000000E+02  0.51100000000E-03 0. -1.
         23    2    1    2    0    0  0.00000000000E+00  0.88817841970E-15  0.00000000000E+00  0.91188000000E+02  0.91188000000E+02 0.  0.
    9900012    2    3    3    0    0 -0.29566738409E+01  0.77440726448E+01 -0.35875675574E+02  0.54367127126E+02  0.40000097909E+02 0.  0.
        -12    1    3    3    0    0  0.29566738409E+01 -0.77440726448E+01  0.35875675574E+02  0.36820872874E+02  0.00000000000E+00 0.  1.
         11    1    4    4    0    0  0.40853930642E+01 -0.10669900486E+02 -0.14503910685E+02  0.18463494748E+02  0.51100000000E-03 0. -1.
        -11    1    4    4    0    0 -0.11375425321E+02  0.20746011273E+02 -0.15702874028E+02  0.28396787459E+02  0.51100000000E-03 0.  1.
        -12    1    4    4    0    0  0.43333584161E+01 -0.23320381423E+01 -0.56688908609E+01  0.75068449199E+01  0.00000000000E+00 0.  1.
</event>
<event>
 8    1  0.3146747E-007  0.9118800E+02  0.7816164E-02  0.1184000E+00
        -11   -1    0    0    0    0  0.00000000000E+00  0.00000000000E+00  0.45593999997E+02  0.45594000000E+02  0.51100000000E-03 0. -1.
         11   -1    0    0    0    0 -0.00000000000E+00 -0.00000000000E+00 -0.45593999997E+02  0.45594000000E+02  0.51100000000E-03 0.  1.
         23    2    1    2    0    0 -0.88817841970E-15  0.00000000000E+00  0.44408920985E-15  0.91188000000E+02  0.91188000000E+02 0.  0.
    9900012    2    3    3    0    0  0.76479328167E+01  0.35907030314E+02  0.28240217007E+01  0.54367071157E+02  0.39999970316E+02 0.  0.
        -12    1    3    3    0    0 -0.76479328167E+01 -0.35907030314E+02 -0.28240217007E+01  0.36820928843E+02  0.00000000000E+00 0.  1.
         11    1    4    4    0    0  0.31471357126E+01  0.31619785928E+02 -0.10291708090E+02  0.33401116464E+02  0.51100000000E-03 0. -1.
        -11    1    4    4    0    0  0.26209679306E+01 -0.56539735976E+01  0.53113398016E+01  0.81882367507E+01  0.51100000000E-03 0.  1.
        -12    1    4    4    0    0  0.18798291734E+01  0.99412179830E+01  0.78043899892E+01  0.12777717942E+02  0.00000000000E+00 0.  1.
</event>
<event>
 8    1  0.3146747E-007  0.9118800E+02  0.7816164E-02  0.1184000E+00
        -11   -1    0    0    0    0  0.00000000000E+00  0.00000000000E+00  0.45593999997E+02  0.45594000000E+02  0.51100000000E-03 0.  1.
         11   -1    0    0    0    0 -0.00000000000E+00 -0.00000000000E+00 -0.45593999997E+02  0.45594000000E+02  0.51100000000E-03 0. -1.
         23    2    1    2    0    0  0.00000000000E+00  0.00000000000E+00  0.17763568394E-14  0.91188000000E+02  0.91188000000E+02 0.  0.
    9900012    2    3    3    0    0  0.76641420069E+01 -0.34318606170E+02  0.10921282592E+02  0.54367079105E+02  0.39999988435E+02 0.  0.
        -12    1    3    3    0    0 -0.76641420069E+01  0.34318606170E+02 -0.10921282592E+02  0.36820920895E+02  0.00000000000E+00 0.  1.
         11    1    4    4    0    0  0.11237617046E+02 -0.11791824867E+02 -0.33140869874E+01  0.16622705658E+02  0.51100000000E-03 0. -1.
        -11    1    4    4    0    0  0.19992393833E+01 -0.27418230475E+02  0.10364947538E+02  0.29380069064E+02  0.51100000000E-03 0.  1.
         12    1    4    4    0    0 -0.55727144222E+01  0.48914491723E+01  0.38704220410E+01  0.83643043830E+01  0.00000000000E+00 0. -1.
</event>
<event>
 8    1  0.3146747E-007  0.9118800E+02  0.7816164E-02  0.1184000E+00
        -11   -1    0    0    0    0  0.00000000000E+00  0.00000000000E+00  0.45593999997E+02  0.45594000000E+02  0.51100000000E-03 0. -1.
         11   -1    0    0    0    0 -0.00000000000E+00 -0.00000000000E+00 -0.45593999997E+02  0.45594000000E+02  0.51100000000E-03 0.  1.
         23    2    1    2    0    0  0.00000000000E+00  0.00000000000E+00  0.35527136788E-14  0.91188000000E+02  0.91188000000E+02 0.  0.
    9900012    2    3    3    0    0  0.40586062617E+01  0.33347620580E+02  0.15074594059E+02  0.54367089240E+02  0.40000011540E+02 0.  0.
        -12    1    3    3    0    0 -0.40586062617E+01 -0.33347620580E+02 -0.15074594059E+02  0.36820910760E+02  0.00000000000E+00 0.  1.
         11    1    4    4    0    0  0.13983453994E+02  0.40005669448E+01 -0.29657806960E+00  0.14547490516E+02  0.51100000000E-03 0. -1.
        -11    1    4    4    0    0 -0.52507013868E+01  0.16264978993E+02  0.18904498209E+02  0.25485279270E+02  0.51100000000E-03 0.  1.
         12    1    4    4    0    0 -0.46741463459E+01  0.13082074643E+02 -0.35333260801E+01  0.14334319454E+02  0.00000000000E+00 0. -1.
</event>
<event>
 8    1  0.3146747E-007  0.9118800E+02  0.7816164E-02  0.1184000E+00
        -11   -1    0    0    0    0  0.00000000000E+00  0.00000000000E+00  0.45593999997E+02  0.45594000000E+02  0.51100000000E-03 0.  1.
         11   -1    0    0    0    0 -0.00000000000E+00 -0.00000000000E+00 -0.45593999997E+02  0.45594000000E+02  0.51100000000E-03 0. -1.
         23    2    1    2    0    0  0.35527136788E-14 -0.35527136788E-14 -0.26645352591E-14  0.91188000000E+02  0.91188000000E+02 0.  0.
    9900012    2    3    3    0    0 -0.26382601535E+02  0.25216906784E+02  0.48832895139E+01  0.54367074320E+02  0.39999977527E+02 0.  0.
        -12    1    3    3    0    0  0.26382601535E+02 -0.25216906784E+02 -0.48832895139E+01  0.36820925680E+02  0.00000000000E+00 0.  1.
         11    1    4    4    0    0 -0.40813570304E+01 -0.23625410109E+01  0.44703766678E+01  0.64979491419E+01  0.51100000000E-03 0.  1.
        -11    1    4    4    0    0 -0.60561388690E+01 -0.62468581427E+01  0.50480703160E+01  0.10058979512E+02  0.51100000000E-03 0. -1.
         12    1    4    4    0    0 -0.16245105636E+02  0.33826305937E+02 -0.46351574698E+01  0.37810145665E+02  0.00000000000E+00 0. -1.
</event>
<event>
 8    1  0.3146747E-007  0.9118800E+02  0.7816164E-02  0.1184000E+00
        -11   -1    0    0    0    0  0.00000000000E+00  0.00000000000E+00  0.45593999997E+02  0.45594000000E+02  0.51100000000E-03 0.  1.
         11   -1    0    0    0    0 -0.00000000000E+00 -0.00000000000E+00 -0.45593999997E+02  0.45594000000E+02  0.51100000000E-03 0. -1.
         23    2    1    2    0    0  0.35527136788E-14 -0.35527136788E-14  0.35527136788E-14  0.91188000000E+02  0.91188000000E+02 0.  0.
    9900012    2    3    3    0    0  0.18833716120E+02 -0.25855582626E+02  0.18236234968E+02  0.54367078208E+02  0.39999986390E+02 0.  0.
         12    1    3    3    0    0 -0.18833716120E+02  0.25855582626E+02 -0.18236234968E+02  0.36820921792E+02  0.00000000000E+00 0. -1.
         11    1    4    4    0    0  0.72882704613E+01 -0.15686044746E+02  0.27056340686E+02  0.32112559189E+02  0.51100000000E-03 0. -1.
        -11    1    4    4    0    0 -0.49461421745E-01 -0.53672925424E+01  0.19560064558E+01  0.57128134211E+01  0.51100000000E-03 0.  1.
        -12    1    4    4    0    0  0.11594907081E+02 -0.48022453380E+01 -0.10776112174E+02  0.16541705598E+02  0.00000000000E+00 0.  1.
</event>
<event>
 8    1  0.3146747E-007  0.9118800E+02  0.7816164E-02  0.1184000E+00
        -11   -1    0    0    0    0  0.00000000000E+00  0.00000000000E+00  0.45593999997E+02  0.45594000000E+02  0.51100000000E-03 0.  1.
         11   -1    0    0    0    0 -0.00000000000E+00 -0.00000000000E+00 -0.45593999997E+02  0.45594000000E+02  0.51100000000E-03 0. -1.
         23    2    1    2    0    0  0.17763568394E-14  0.00000000000E+00  0.35527136788E-14  0.91188000000E+02  0.91188000000E+02 0.  0.
    9900012    2    3    3    0    0  0.10667336171E+01  0.29530810307E+02  0.21967555520E+02  0.54367079676E+02  0.39999989736E+02 0.  0.
         12    1    3    3    0    0 -0.10667336171E+01 -0.29530810307E+02 -0.21967555520E+02  0.36820920324E+02  0.00000000000E+00 0. -1.
         11    1    4    4    0    0 -0.38026043936E+01  0.56654534248E+01 -0.48979508924E+01  0.83992312677E+01  0.51100000000E-03 0. -1.
        -11    1    4    4    0    0  0.12788624514E+02  0.31974771511E+01  0.31998890782E+01  0.13565104772E+02  0.51100000000E-03 0.  1.
        -12    1    4    4    0    0 -0.79192865037E+01  0.20667879731E+02  0.23665617334E+02  0.32402743636E+02  0.00000000000E+00 0.  1.
</event>
<event>
 8    1  0.3146747E-007  0.9118800E+02  0.7816164E-02  0.1184000E+00
        -11   -1    0    0    0    0  0.00000000000E+00  0.00000000000E+00  0.45593999997E+02  0.45594000000E+02  0.51100000000E-03 0.  1.
         11   -1    0    0    0    0 -0.00000000000E+00 -0.00000000000E+00 -0.45593999997E+02  0.45594000000E+02  0.51100000000E-03 0. -1.
         23    2    1    2    0    0  0.00000000000E+00 -0.35527136788E-14 -0.35527136788E-14  0.91188000000E+02  0.91188000000E+02 0.  0.
    9900012    2    3    3    0    0  0.23590595891E+02 -0.19216097703E+02 -0.20736572071E+02  0.54367081398E+02  0.39999993663E+02 0.  0.
        -12    1    3    3    0    0 -0.23590595891E+02  0.19216097703E+02  0.20736572071E+02  0.36820918602E+02  0.00000000000E+00 0.  1.
         11    1    4    4    0    0  0.30180230442E+01  0.68929538399E+01  0.32331486609E+00  0.75316537691E+01  0.51100000000E-03 0. -1.
        -11    1    4    4    0    0 -0.13975287852E+00 -0.18703510776E+02 -0.43272567260E+01  0.19198072749E+02  0.51100000000E-03 0.  1.
         12    1    4    4    0    0  0.20712325725E+02 -0.74055407671E+01 -0.16732630211E+02  0.27637354880E+02  0.00000000000E+00 0. -1.
</event>
<event>
 8    1  0.3146747E-007  0.9118800E+02  0.7816164E-02  0.1184000E+00
        -11   -1    0    0    0    0  0.00000000000E+00  0.00000000000E+00  0.45593999997E+02  0.45594000000E+02  0.51100000000E-03 0. -1.
         11   -1    0    0    0    0 -0.00000000000E+00 -0.00000000000E+00 -0.45593999997E+02  0.45594000000E+02  0.51100000000E-03 0.  1.
         23    2    1    2    0    0 -0.17763568394E-14  0.00000000000E+00  0.00000000000E+00  0.91188000000E+02  0.91188000000E+02 0.  0.
    9900012    2    3    3    0    0 -0.88303390425E+01 -0.32968599127E+02 -0.13815843695E+02  0.54367069091E+02  0.39999965606E+02 0.  0.
         12    1    3    3    0    0  0.88303390425E+01  0.32968599127E+02  0.13815843695E+02  0.36820930909E+02  0.00000000000E+00 0. -1.
         11    1    4    4    0    0  0.94831496181E+01 -0.24111323906E+02  0.43426492991E+01  0.26270604682E+02  0.51100000000E-03 0. -1.
        -11    1    4    4    0    0 -0.58407089615E+01 -0.23193497207E+00 -0.26902820723E+01  0.64346944677E+01  0.51100000000E-03 0.  1.
         12    1    4    4    0    0 -0.12472779699E+02 -0.86253402493E+01 -0.15468210922E+02  0.21661769941E+02  0.00000000000E+00 0. -1.
</event>
<event>
 8    1  0.3146747E-007  0.9118800E+02  0.7816164E-02  0.1184000E+00
        -11   -1    0    0    0    0  0.00000000000E+00  0.00000000000E+00  0.45593999997E+02  0.45594000000E+02  0.51100000000E-03 0.  1.
         11   -1    0    0    0    0 -0.00000000000E+00 -0.00000000000E+00 -0.45593999997E+02  0.45594000000E+02  0.51100000000E-03 0. -1.
         23    2    1    2    0    0  0.17763568394E-14 -0.35527136788E-14  0.00000000000E+00  0.91188000000E+02  0.91188000000E+02 0.  0.
    9900012    2    3    3    0    0 -0.99433525460E+01 -0.24786138107E+02  0.25348707114E+02  0.54367084009E+02  0.39999999614E+02 0.  0.
         12    1    3    3    0    0  0.99433525460E+01  0.24786138107E+02 -0.25348707114E+02  0.36820915991E+02  0.00000000000E+00 0. -1.
         11    1    4    4    0    0  0.52503580672E+01 -0.25376073484E+02  0.13601470364E+02  0.29266215362E+02  0.51100000000E-03 0. -1.
        -11    1    4    4    0    0 -0.62645571565E+01 -0.16651499657E+01 -0.34408640506E+01  0.73387292123E+01  0.51100000000E-03 0.  1.
        -12    1    4    4    0    0 -0.89291534567E+01  0.22550853427E+01  0.15188100801E+02  0.17762139434E+02  0.00000000000E+00 0.  1.
</event>
<event>
 8    1  0.3146747E-007  0.9118800E+02  0.7816164E-02  0.1184000E+00
        -11   -1    0    0    0    0  0.00000000000E+00  0.00000000000E+00  0.45593999997E+02  0.45594000000E+02  0.51100000000E-03 0.  1.
         11   -1    0    0    0    0 -0.00000000000E+00 -0.00000000000E+00 -0.45593999997E+02  0.45594000000E+02  0.51100000000E-03 0. -1.
         23    2    1    2    0    0 -0.17763568394E-14 -0.88817841970E-15 -0.71054273576E-14  0.91188000000E+02  0.91188000000E+02 0.  0.
    9900012    2    3    3    0    0  0.12466001112E+02  0.51982599815E+01  0.34254321419E+02  0.54367059947E+02  0.39999944761E+02 0.  0.
         12    1    3    3    0    0 -0.12466001112E+02 -0.51982599815E+01 -0.34254321419E+02  0.36820940053E+02  0.00000000000E+00 0. -1.
         11    1    4    4    0    0 -0.36272229249E+00 -0.90412133797E+01  0.20855373121E+02  0.22733712744E+02  0.51100000000E-03 0. -1.
        -11    1    4    4    0    0 -0.40716153709E+00  0.13647048259E+02  0.12235123783E+02  0.18333192873E+02  0.51100000000E-03 0.  1.
         12    1    4    4    0    0  0.13235884942E+02  0.59242510255E+00  0.11638245148E+01  0.13300154330E+02  0.00000000000E+00 0. -1.
</event>
<event>
 8    1  0.3146747E-007  0.9118800E+02  0.7816164E-02  0.1184000E+00
        -11   -1    0    0    0    0  0.00000000000E+00  0.00000000000E+00  0.45593999997E+02  0.45594000000E+02  0.51100000000E-03 0. -1.
         11   -1    0    0    0    0 -0.00000000000E+00 -0.00000000000E+00 -0.45593999997E+02  0.45594000000E+02  0.51100000000E-03 0.  1.
         23    2    1    2    0    0  0.00000000000E+00  0.00000000000E+00  0.00000000000E+00  0.91188000000E+02  0.91188000000E+02 0.  0.
    9900012    2    3    3    0    0 -0.21033267385E+02  0.29210347350E+02 -0.77545071232E+01  0.54367148436E+02  0.40000146489E+02 0.  0.
        -12    1    3    3    0    0  0.21033267385E+02 -0.29210347350E+02  0.77545071232E+01  0.36820851564E+02  0.00000000000E+00 0.  1.
         11    1    4    4    0    0 -0.21921882806E+02  0.30032727221E+02  0.35539426902E+01  0.37351896324E+02  0.51100000000E-03 0. -1.
        -11    1    4    4    0    0 -0.36110478631E+01  0.22992144304E+01 -0.10676141358E+02  0.11502436621E+02  0.51100000000E-03 0.  1.
         12    1    4    4    0    0  0.44996632843E+01 -0.31215943015E+01 -0.63230845562E+00  0.55128154910E+01  0.00000000000E+00 0. -1.
</event>
<event>
 8    1  0.3146747E-007  0.9118800E+02  0.7816164E-02  0.1184000E+00
        -11   -1    0    0    0    0  0.00000000000E+00  0.00000000000E+00  0.45593999997E+02  0.45594000000E+02  0.51100000000E-03 0.  1.
         11   -1    0    0    0    0 -0.00000000000E+00 -0.00000000000E+00 -0.45593999997E+02  0.45594000000E+02  0.51100000000E-03 0. -1.
         23    2    1    2    0    0 -0.35527136788E-14 -0.35527136788E-14  0.00000000000E+00  0.91188000000E+02  0.91188000000E+02 0.  0.
    9900012    2    3    3    0    0  0.17556736914E+02 -0.28704755989E+02 -0.14952524362E+02  0.54367081866E+02  0.39999994729E+02 0.  0.
        -12    1    3    3    0    0 -0.17556736914E+02  0.28704755989E+02  0.14952524362E+02  0.36820918134E+02  0.00000000000E+00 0.  1.
         11    1    4    4    0    0 -0.27578471998E+01 -0.12779341074E+02 -0.34926851766E+01  0.13532040846E+02  0.51100000000E-03 0.  1.
        -11    1    4    4    0    0  0.25677584980E+02 -0.16297212419E+02 -0.26676249464E+01  0.30529554961E+02  0.51100000000E-03 0. -1.
         12    1    4    4    0    0 -0.53630008663E+01  0.37179750330E+00 -0.87922142389E+01  0.10305486058E+02  0.00000000000E+00 0. -1.
</event>
<event>
 8    1  0.3146747E-007  0.9118800E+02  0.7816164E-02  0.1184000E+00
        -11   -1    0    0    0    0  0.00000000000E+00  0.00000000000E+00  0.45593999997E+02  0.45594000000E+02  0.51100000000E-03 0.  1.
         11   -1    0    0    0    0 -0.00000000000E+00 -0.00000000000E+00 -0.45593999997E+02  0.45594000000E+02  0.51100000000E-03 0. -1.
         23    2    1    2    0    0 -0.35527136788E-14  0.00000000000E+00 -0.17763568394E-14  0.91188000000E+02  0.91188000000E+02 0.  0.
    9900012    2    3    3    0    0 -0.27447232504E+02  0.23647665362E+02 -0.65739094648E+01  0.54367096496E+02  0.40000028083E+02 0.  0.
        -12    1    3    3    0    0  0.27447232504E+02 -0.23647665362E+02  0.65739094648E+01  0.36820903504E+02  0.00000000000E+00 0.  1.
         11    1    4    4    0    0 -0.71614127091E+01  0.15051671790E+02 -0.10636417454E+02  0.19773012724E+02  0.51100000000E-03 0. -1.
        -11    1    4    4    0    0  0.12593522126E+01  0.44783903191E+01  0.10707593014E+02  0.11674523385E+02  0.51100000000E-03 0.  1.
         12    1    4    4    0    0 -0.21545172007E+02  0.41176032529E+01 -0.66450850247E+01  0.22919560388E+02  0.00000000000E+00 0. -1.
</event>
<event>
 8    1  0.3146747E-007  0.9118800E+02  0.7816164E-02  0.1184000E+00
        -11   -1    0    0    0    0  0.00000000000E+00  0.00000000000E+00  0.45593999997E+02  0.45594000000E+02  0.51100000000E-03 0.  1.
         11   -1    0    0    0    0 -0.00000000000E+00 -0.00000000000E+00 -0.45593999997E+02  0.45594000000E+02  0.51100000000E-03 0. -1.
         23    2    1    2    0    0  0.35527136788E-14  0.00000000000E+00  0.00000000000E+00  0.91188000000E+02  0.91188000000E+02 0.  0.
    9900012    2    3    3    0    0  0.22395816367E+02 -0.26731865556E+02 -0.11816076184E+02  0.54367015722E+02  0.39999843941E+02 0.  0.
        -12    1    3    3    0    0 -0.22395816367E+02  0.26731865556E+02  0.11816076184E+02  0.36820984278E+02  0.00000000000E+00 0.  1.
         11    1    4    4    0    0  0.11430431628E+02 -0.11754163794E+02 -0.12509457880E+02  0.20622843412E+02  0.51100000000E-03 0. -1.
        -11    1    4    4    0    0  0.50108321761E+01  0.38857883992E+01  0.10033262773E+02  0.11869041778E+02  0.51100000000E-03 0.  1.
        -12    1    4    4    0    0  0.59545525628E+01 -0.18863490161E+02 -0.93398810777E+01  0.21875130533E+02  0.00000000000E+00 0.  1.
</event>
<event>
 8    1  0.3146747E-007  0.9118800E+02  0.7816164E-02  0.1184000E+00
        -11   -1    0    0    0    0  0.00000000000E+00  0.00000000000E+00  0.45593999997E+02  0.45594000000E+02  0.51100000000E-03 0.  1.
         11   -1    0    0    0    0 -0.00000000000E+00 -0.00000000000E+00 -0.45593999997E+02  0.45594000000E+02  0.51100000000E-03 0. -1.
         23    2    1    2    0    0 -0.35527136788E-14  0.00000000000E+00 -0.17763568394E-14  0.91188000000E+02  0.91188000000E+02 0.  0.
    9900012    2    3    3    0    0 -0.18715005702E+02  0.28208782846E+02 -0.14484219068E+02  0.54367089228E+02  0.40000011513E+02 0.  0.
         12    1    3    3    0    0  0.18715005702E+02 -0.28208782846E+02  0.14484219068E+02  0.36820910772E+02  0.00000000000E+00 0. -1.
         11    1    4    4    0    0 -0.86079707835E+01  0.35537959088E+01 -0.90840985002E+01  0.13009514679E+02  0.51100000000E-03 0.  1.
        -11    1    4    4    0    0 -0.87315126790E+01  0.41858793787E+01  0.11316658557E+02  0.14893879984E+02  0.51100000000E-03 0. -1.
         12    1    4    4    0    0 -0.13755222393E+01  0.20469107559E+02 -0.16716779125E+02  0.26463694564E+02  0.00000000000E+00 0. -1.
</event>
<event>
 8    1  0.3146747E-007  0.9118800E+02  0.7816164E-02  0.1184000E+00
        -11   -1    0    0    0    0  0.00000000000E+00  0.00000000000E+00  0.45593999997E+02  0.45594000000E+02  0.51100000000E-03 0.  1.
         11   -1    0    0    0    0 -0.00000000000E+00 -0.00000000000E+00 -0.45593999997E+02  0.45594000000E+02  0.51100000000E-03 0. -1.
         23    2    1    2    0    0 -0.71054273576E-14  0.00000000000E+00  0.13322676296E-14  0.91188000000E+02  0.91188000000E+02 0.  0.
    9900012    2    3    3    0    0 -0.34414516429E+02  0.12764898704E+02  0.29118208534E+01  0.54367078221E+02  0.39999986420E+02 0.  0.
         12    1    3    3    0    0  0.34414516429E+02 -0.12764898704E+02 -0.29118208534E+01  0.36820921779E+02  0.00000000000E+00 0. -1.
         11    1    4    4    0    0 -0.20151413918E+02  0.97548146840E+01  0.21188735961E+02  0.30825288715E+02  0.51100000000E-03 0.  1.
        -11    1    4    4    0    0 -0.69046165315E+01  0.22611063454E+01 -0.72500994852E+01  0.10264028164E+02  0.51100000000E-03 0. -1.
        -12    1    4    4    0    0 -0.73584859793E+01  0.74897767497E+00 -0.11026815623E+02  0.13277761342E+02  0.00000000000E+00 0.  1.
</event>
<event>
 8    1  0.3146747E-007  0.9118800E+02  0.7816164E-02  0.1184000E+00
        -11   -1    0    0    0    0  0.00000000000E+00  0.00000000000E+00  0.45593999997E+02  0.45594000000E+02  0.51100000000E-03 0.  1.
         11   -1    0    0    0    0 -0.00000000000E+00 -0.00000000000E+00 -0.45593999997E+02  0.45594000000E+02  0.51100000000E-03 0. -1.
         23    2    1    2    0    0  0.00000000000E+00  0.00000000000E+00 -0.17763568394E-14  0.91188000000E+02  0.91188000000E+02 0.  0.
    9900012    2    3    3    0    0 -0.24385724353E+02  0.25429151512E+02  0.10699198192E+02  0.54367107278E+02  0.40000052663E+02 0.  0.
         12    1    3    3    0    0  0.24385724353E+02 -0.25429151512E+02 -0.10699198192E+02  0.36820892722E+02  0.00000000000E+00 0. -1.
         11    1    4    4    0    0 -0.93556783508E+01  0.15843548928E+02 -0.30376810967E+01  0.18648706838E+02  0.51100000000E-03 0. -1.
        -11    1    4    4    0    0 -0.55184442946E+01 -0.51126988209E+01 -0.57894661132E+01  0.94926726902E+01  0.51100000000E-03 0.  1.
        -12    1    4    4    0    0 -0.95116017075E+01  0.14698301405E+02  0.19526345402E+02  0.26225727750E+02  0.00000000000E+00 0.  1.
</event>
<event>
 8    1  0.3146747E-007  0.9118800E+02  0.7816164E-02  0.1184000E+00
        -11   -1    0    0    0    0  0.00000000000E+00  0.00000000000E+00  0.45593999997E+02  0.45594000000E+02  0.51100000000E-03 0. -1.
         11   -1    0    0    0    0 -0.00000000000E+00 -0.00000000000E+00 -0.45593999997E+02  0.45594000000E+02  0.51100000000E-03 0.  1.
         23    2    1    2    0    0 -0.17763568394E-14  0.17763568394E-14  0.00000000000E+00  0.91188000000E+02  0.91188000000E+02 0.  0.
    9900012    2    3    3    0    0 -0.12817927574E+02 -0.11955440472E+02 -0.32381333807E+02  0.54367046681E+02  0.39999914518E+02 0.  0.
         12    1    3    3    0    0  0.12817927574E+02  0.11955440472E+02  0.32381333807E+02  0.36820953319E+02  0.00000000000E+00 0. -1.
         11    1    4    4    0    0 -0.22103635523E+02 -0.40471506637E+01 -0.13472796648E+02  0.26200503461E+02  0.51100000000E-03 0. -1.
        -11    1    4    4    0    0  0.63698166962E+01 -0.97495586875E+01 -0.31911302941E+01  0.12075254538E+02  0.51100000000E-03 0.  1.
         12    1    4    4    0    0  0.29158912522E+01  0.18412688787E+01 -0.15717406865E+02  0.16091288682E+02  0.00000000000E+00 0. -1.
</event>
<event>
 8    1  0.3146747E-007  0.9118800E+02  0.7816164E-02  0.1184000E+00
        -11   -1    0    0    0    0  0.00000000000E+00  0.00000000000E+00  0.45593999997E+02  0.45594000000E+02  0.51100000000E-03 0. -1.
         11   -1    0    0    0    0 -0.00000000000E+00 -0.00000000000E+00 -0.45593999997E+02  0.45594000000E+02  0.51100000000E-03 0.  1.
         23    2    1    2    0    0 -0.17763568394E-14  0.00000000000E+00  0.00000000000E+00  0.91188000000E+02  0.91188000000E+02 0.  0.
    9900012    2    3    3    0    0 -0.13600583215E+02 -0.24079030547E+02 -0.24310416716E+02  0.54367191524E+02  0.40000244717E+02 0.  0.
         12    1    3    3    0    0  0.13600583215E+02  0.24079030547E+02  0.24310416716E+02  0.36820808476E+02  0.00000000000E+00 0. -1.
         11    1    4    4    0    0 -0.12504156735E+02 -0.10729537552E+02 -0.10828762916E+02  0.19716465664E+02  0.51100000000E-03 0.  1.
        -11    1    4    4    0    0 -0.34935945251E+01  0.41719708794E+01  0.61610139569E+01  0.82200144137E+01  0.51100000000E-03 0. -1.
         12    1    4    4    0    0  0.23971680450E+01 -0.17521463875E+02 -0.19642667757E+02  0.26430711446E+02  0.00000000000E+00 0. -1.
</event>
<event>
 8    1  0.3146747E-007  0.9118800E+02  0.7816164E-02  0.1184000E+00
        -11   -1    0    0    0    0  0.00000000000E+00  0.00000000000E+00  0.45593999997E+02  0.45594000000E+02  0.51100000000E-03 0. -1.
         11   -1    0    0    0    0 -0.00000000000E+00 -0.00000000000E+00 -0.45593999997E+02  0.45594000000E+02  0.51100000000E-03 0.  1.
         23    2    1    2    0    0  0.00000000000E+00  0.00000000000E+00  0.00000000000E+00  0.91188000000E+02  0.91188000000E+02 0.  0.
    9900012    2    3    3    0    0 -0.24529519268E+02 -0.14430665332E+02 -0.23363194411E+02  0.54367078359E+02  0.39999986734E+02 0.  0.
         12    1    3    3    0    0  0.24529519268E+02  0.14430665332E+02  0.23363194411E+02  0.36820921641E+02  0.00000000000E+00 0. -1.
         11    1    4    4    0    0 -0.14090428946E+02 -0.22001229827E+02 -0.55797551699E+01  0.26715687709E+02  0.51100000000E-03 0. -1.
        -11    1    4    4    0    0 -0.14307273115E+01  0.48168636650E+01 -0.17521629198E+02  0.18227908443E+02  0.51100000000E-03 0.  1.
         12    1    4    4    0    0 -0.90083630107E+01  0.27537008299E+01 -0.26181004377E+00  0.94234822063E+01  0.00000000000E+00 0. -1.
</event>
<event>
 8    1  0.3146747E-007  0.9118800E+02  0.7816164E-02  0.1184000E+00
        -11   -1    0    0    0    0  0.00000000000E+00  0.00000000000E+00  0.45593999997E+02  0.45594000000E+02  0.51100000000E-03 0.  1.
         11   -1    0    0    0    0 -0.00000000000E+00 -0.00000000000E+00 -0.45593999997E+02  0.45594000000E+02  0.51100000000E-03 0. -1.
         23    2    1    2    0    0  0.00000000000E+00 -0.35527136788E-14 -0.17763568394E-14  0.91188000000E+02  0.91188000000E+02 0.  0.
    9900012    2    3    3    0    0  0.22446242962E+02 -0.27226609939E+02 -0.10519524805E+02  0.54367047894E+02  0.39999917284E+02 0.  0.
        -12    1    3    3    0    0 -0.22446242962E+02  0.27226609939E+02  0.10519524805E+02  0.36820952106E+02  0.00000000000E+00 0.  1.
         11    1    4    4    0    0  0.74433145933E+01  0.66683049936E+00  0.21818387578E+01  0.77851150072E+01  0.51100000000E-03 0. -1.
        -11    1    4    4    0    0  0.15094182784E+02  0.14778127958E+01 -0.68118838444E+01  0.16625884829E+02  0.51100000000E-03 0.  1.
         12    1    4    4    0    0 -0.91254415119E-01 -0.29371253234E+02 -0.58894797181E+01  0.29956048058E+02  0.00000000000E+00 0. -1.
</event>
<event>
 8    1  0.3146747E-007  0.9118800E+02  0.7816164E-02  0.1184000E+00
        -11   -1    0    0    0    0  0.00000000000E+00  0.00000000000E+00  0.45593999997E+02  0.45594000000E+02  0.51100000000E-03 0.  1.
         11   -1    0    0    0    0 -0.00000000000E+00 -0.00000000000E+00 -0.45593999997E+02  0.45594000000E+02  0.51100000000E-03 0. -1.
         23    2    1    2    0    0  0.00000000000E+00  0.00000000000E+00  0.00000000000E+00  0.91188000000E+02  0.91188000000E+02 0.  0.
    9900012    2    3    3    0    0 -0.36674480114E+02 -0.31134848711E+01 -0.10347145482E+01  0.54367056043E+02  0.39999935861E+02 0.  0.
        -12    1    3    3    0    0  0.36674480114E+02  0.31134848711E+01  0.10347145482E+01  0.36820943957E+02  0.00000000000E+00 0.  1.
         11    1    4    4    0    0 -0.31814542352E+02 -0.92679676463E+01  0.63516369923E+01  0.33740237434E+02  0.51100000000E-03 0. -1.
        -11    1    4    4    0    0 -0.34468344138E+01 -0.56408414790E+01 -0.54977456485E+01  0.85979629881E+01  0.51100000000E-03 0.  1.
         12    1    4    4    0    0 -0.14131033483E+01  0.11795324254E+02 -0.18886058920E+01  0.12028855621E+02  0.00000000000E+00 0. -1.
</event>
<event>
 8    1  0.3146747E-007  0.9118800E+02  0.7816164E-02  0.1184000E+00
        -11   -1    0    0    0    0  0.00000000000E+00  0.00000000000E+00  0.45593999997E+02  0.45594000000E+02  0.51100000000E-03 0. -1.
         11   -1    0    0    0    0 -0.00000000000E+00 -0.00000000000E+00 -0.45593999997E+02  0.45594000000E+02  0.51100000000E-03 0.  1.
         23    2    1    2    0    0 -0.71054273576E-14  0.23071822230E-15  0.35527136788E-14  0.91188000000E+02  0.91188000000E+02 0.  0.
    9900012    2    3    3    0    0 -0.32926428619E+02  0.54718887069E-02  0.16481162461E+02  0.54367103112E+02  0.40000043165E+02 0.  0.
        -12    1    3    3    0    0  0.32926428619E+02 -0.54718887069E-02 -0.16481162461E+02  0.36820896888E+02  0.00000000000E+00 0.  1.
         11    1    4    4    0    0 -0.79398443803E+01 -0.35020054993E+01  0.23773094632E+02  0.25307413932E+02  0.51100000000E-03 0. -1.
        -11    1    4    4    0    0 -0.11430250340E+02  0.60309657430E+01 -0.80906798295E+01  0.15247369314E+02  0.51100000000E-03 0.  1.
        -12    1    4    4    0    0 -0.13556333899E+02 -0.25234883550E+01  0.79874765872E+00  0.13812319866E+02  0.00000000000E+00 0.  1.
</event>
<event>
 8    1  0.3146747E-007  0.9118800E+02  0.7816164E-02  0.1184000E+00
        -11   -1    0    0    0    0  0.00000000000E+00  0.00000000000E+00  0.45593999997E+02  0.45594000000E+02  0.51100000000E-03 0. -1.
         11   -1    0    0    0    0 -0.00000000000E+00 -0.00000000000E+00 -0.45593999997E+02  0.45594000000E+02  0.51100000000E-03 0.  1.
         23    2    1    2    0    0 -0.17763568394E-14  0.00000000000E+00  0.35527136788E-14  0.91188000000E+02  0.91188000000E+02 0.  0.
    9900012    2    3    3    0    0 -0.15266472019E+02  0.21005401657E+02 -0.26105340242E+02  0.54367070411E+02  0.39999968616E+02 0.  0.
         12    1    3    3    0    0  0.15266472019E+02 -0.21005401657E+02  0.26105340242E+02  0.36820929589E+02  0.00000000000E+00 0. -1.
         11    1    4    4    0    0 -0.51142598985E+01  0.17858729072E+01  0.45934717560E+00  0.54365426917E+01  0.51100000000E-03 0. -1.
        -11    1    4    4    0    0 -0.15421533088E+02  0.27227231508E+02 -0.18142703955E+02  0.36170478645E+02  0.51100000000E-03 0.  1.
         12    1    4    4    0    0  0.52693209676E+01 -0.80077027585E+01 -0.84219834623E+01  0.12760049074E+02  0.00000000000E+00 0. -1.
</event>
<event>
 8    1  0.3146747E-007  0.9118800E+02  0.7816164E-02  0.1184000E+00
        -11   -1    0    0    0    0  0.00000000000E+00  0.00000000000E+00  0.45593999997E+02  0.45594000000E+02  0.51100000000E-03 0.  1.
         11   -1    0    0    0    0 -0.00000000000E+00 -0.00000000000E+00 -0.45593999997E+02  0.45594000000E+02  0.51100000000E-03 0. -1.
         23    2    1    2    0    0  0.35527136788E-14  0.00000000000E+00  0.00000000000E+00  0.91188000000E+02  0.91188000000E+02 0.  0.
    9900012    2    3    3    0    0  0.23243451649E+02  0.25761864465E+02 -0.12322662065E+02  0.54367086030E+02  0.40000004222E+02 0.  0.
        -12    1    3    3    0    0 -0.23243451649E+02 -0.25761864465E+02  0.12322662065E+02  0.36820913970E+02  0.00000000000E+00 0.  1.
         11    1    4    4    0    0  0.63196711078E+01 -0.10102362259E+01 -0.19385126917E+02  0.20414258889E+02  0.51100000000E-03 0. -1.
        -11    1    4    4    0    0  0.12068392335E+01  0.79821401838E+01  0.47029014714E+01  0.93428210601E+01  0.51100000000E-03 0.  1.
        -12    1    4    4    0    0  0.15716941308E+02  0.18789960507E+02  0.23595633813E+01  0.24610006080E+02  0.00000000000E+00 0.  1.
</event>
<event>
 8    1  0.3146747E-007  0.9118800E+02  0.7816164E-02  0.1184000E+00
        -11   -1    0    0    0    0  0.00000000000E+00  0.00000000000E+00  0.45593999997E+02  0.45594000000E+02  0.51100000000E-03 0.  1.
         11   -1    0    0    0    0 -0.00000000000E+00 -0.00000000000E+00 -0.45593999997E+02  0.45594000000E+02  0.51100000000E-03 0. -1.
         23    2    1    2    0    0  0.00000000000E+00 -0.44408920985E-15  0.00000000000E+00  0.91188000000E+02  0.91188000000E+02 0.  0.
    9900012    2    3    3    0    0 -0.17337993158E+02  0.39351889368E+01  0.32244226962E+02  0.54367056353E+02  0.39999936567E+02 0.  0.
         12    1    3    3    0    0  0.17337993158E+02 -0.39351889368E+01 -0.32244226962E+02  0.36820943647E+02  0.00000000000E+00 0. -1.
         11    1    4    4    0    0  0.30500430259E+01 -0.74879965118E+01 -0.13656995141E+01  0.81998774164E+01  0.51100000000E-03 0. -1.
        -11    1    4    4    0    0 -0.33716871296E+01  0.11924907761E+02  0.22947849917E+02  0.26080174755E+02  0.51100000000E-03 0.  1.
         12    1    4    4    0    0 -0.17016349054E+02 -0.50172231212E+00  0.10662076559E+02  0.20087004181E+02  0.00000000000E+00 0. -1.
</event>
<event>
 8    1  0.3146747E-007  0.9118800E+02  0.7816164E-02  0.1184000E+00
        -11   -1    0    0    0    0  0.00000000000E+00  0.00000000000E+00  0.45593999997E+02  0.45594000000E+02  0.51100000000E-03 0.  1.
         11   -1    0    0    0    0 -0.00000000000E+00 -0.00000000000E+00 -0.45593999997E+02  0.45594000000E+02  0.51100000000E-03 0. -1.
         23    2    1    2    0    0  0.00000000000E+00  0.00000000000E+00  0.00000000000E+00  0.91188000000E+02  0.91188000000E+02 0.  0.
    9900012    2    3    3    0    0  0.46567482652E+01 -0.36417919351E+02 -0.27980858826E+01  0.54367089652E+02  0.40000012480E+02 0.  0.
         12    1    3    3    0    0 -0.46567482652E+01  0.36417919351E+02  0.27980858826E+01  0.36820910348E+02  0.00000000000E+00 0. -1.
         11    1    4    4    0    0 -0.35115925226E+01  0.27865563461E+01  0.10475521513E+01  0.46036446524E+01  0.51100000000E-03 0. -1.
        -11    1    4    4    0    0  0.10951383295E+01 -0.41943683231E+02 -0.22895937462E+01  0.42020401363E+02  0.51100000000E-03 0.  1.
         12    1    4    4    0    0  0.70732024583E+01  0.27392075341E+01 -0.15560442877E+01  0.77430436365E+01  0.00000000000E+00 0. -1.
</event>
<event>
 8    1  0.3146747E-007  0.9118800E+02  0.7816164E-02  0.1184000E+00
        -11   -1    0    0    0    0  0.00000000000E+00  0.00000000000E+00  0.45593999997E+02  0.45594000000E+02  0.51100000000E-03 0. -1.
         11   -1    0    0    0    0 -0.00000000000E+00 -0.00000000000E+00 -0.45593999997E+02  0.45594000000E+02  0.51100000000E-03 0.  1.
         23    2    1    2    0    0  0.00000000000E+00  0.00000000000E+00  0.17763568394E-14  0.91188000000E+02  0.91188000000E+02 0.  0.
    9900012    2    3    3    0    0 -0.20055727453E+02  0.29322613208E+02  0.96815059357E+01  0.54367090095E+02  0.40000013490E+02 0.  0.
         12    1    3    3    0    0  0.20055727453E+02 -0.29322613208E+02 -0.96815059357E+01  0.36820909905E+02  0.00000000000E+00 0. -1.
         11    1    4    4    0    0 -0.20610007750E+02  0.20597734364E+02  0.14219394344E+02  0.32422681199E+02  0.51100000000E-03 0. -1.
        -11    1    4    4    0    0  0.24149132458E+01  0.12987055474E+02  0.25631193817E+01  0.13456039428E+02  0.51100000000E-03 0.  1.
         12    1    4    4    0    0 -0.18606329490E+01 -0.42621766294E+01 -0.71010077899E+01  0.84883694679E+01  0.00000000000E+00 0. -1.
</event>
<event>
 8    1  0.3146747E-007  0.9118800E+02  0.7816164E-02  0.1184000E+00
        -11   -1    0    0    0    0  0.00000000000E+00  0.00000000000E+00  0.45593999997E+02  0.45594000000E+02  0.51100000000E-03 0. -1.
         11   -1    0    0    0    0 -0.00000000000E+00 -0.00000000000E+00 -0.45593999997E+02  0.45594000000E+02  0.51100000000E-03 0.  1.
         23    2    1    2    0    0  0.00000000000E+00  0.44408920985E-15  0.35527136788E-14  0.91188000000E+02  0.91188000000E+02 0.  0.
    9900012    2    3    3    0    0 -0.29932621554E+02 -0.12577361749E+01 -0.21406476275E+02  0.54367068998E+02  0.39999965394E+02 0.  0.
         12    1    3    3    0    0  0.29932621554E+02  0.12577361749E+01  0.21406476275E+02  0.36820931002E+02  0.00000000000E+00 0. -1.
         11    1    4    4    0    0 -0.14456344841E+02 -0.13841602601E+02 -0.20301143021E+02  0.28508108968E+02  0.51100000000E-03 0.  1.
        -11    1    4    4    0    0 -0.65161840030E+01  0.72750099164E+01  0.75280011915E+01  0.12331148586E+02  0.51100000000E-03 0. -1.
        -12    1    4    4    0    0 -0.89600927095E+01  0.53088565096E+01 -0.86333344462E+01  0.13527811444E+02  0.00000000000E+00 0.  1.
</event>
<event>
 8    1  0.3146747E-007  0.9118800E+02  0.7816164E-02  0.1184000E+00
        -11   -1    0    0    0    0  0.00000000000E+00  0.00000000000E+00  0.45593999997E+02  0.45594000000E+02  0.51100000000E-03 0. -1.
         11   -1    0    0    0    0 -0.00000000000E+00 -0.00000000000E+00 -0.45593999997E+02  0.45594000000E+02  0.51100000000E-03 0.  1.
         23    2    1    2    0    0 -0.17763568394E-14  0.00000000000E+00  0.00000000000E+00  0.91188000000E+02  0.91188000000E+02 0.  0.
    9900012    2    3    3    0    0  0.13729395782E+02  0.25121597348E+02 -0.23155757267E+02  0.54367081265E+02  0.39999993360E+02 0.  0.
         12    1    3    3    0    0 -0.13729395782E+02 -0.25121597348E+02  0.23155757267E+02  0.36820918735E+02  0.00000000000E+00 0. -1.
         11    1    4    4    0    0  0.19678561227E+01  0.37350762154E+01  0.77727545241E+01  0.88452792612E+01  0.51100000000E-03 0. -1.
        -11    1    4    4    0    0  0.25435317441E+01  0.10687493561E+01  0.35242806654E+01  0.44757494779E+01  0.51100000000E-03 0.  1.
         12    1    4    4    0    0  0.92180079153E+01  0.20317771777E+02 -0.34452792457E+02  0.41046052526E+02  0.00000000000E+00 0. -1.
</event>
<event>
 8    1  0.3146747E-007  0.9118800E+02  0.7816164E-02  0.1184000E+00
        -11   -1    0    0    0    0  0.00000000000E+00  0.00000000000E+00  0.45593999997E+02  0.45594000000E+02  0.51100000000E-03 0.  1.
         11   -1    0    0    0    0 -0.00000000000E+00 -0.00000000000E+00 -0.45593999997E+02  0.45594000000E+02  0.51100000000E-03 0. -1.
         23    2    1    2    0    0 -0.35527136788E-14  0.00000000000E+00 -0.71054273576E-14  0.91188000000E+02  0.91188000000E+02 0.  0.
    9900012    2    3    3    0    0  0.19006800491E+02  0.17205247294E+02  0.26429168815E+02  0.54367082526E+02  0.39999996235E+02 0.  0.
         12    1    3    3    0    0 -0.19006800491E+02 -0.17205247294E+02 -0.26429168815E+02  0.36820917474E+02  0.00000000000E+00 0. -1.
         11    1    4    4    0    0 -0.21788323330E+01  0.55237686923E+01 -0.33734466367E+01  0.68293098753E+01  0.51100000000E-03 0. -1.
        -11    1    4    4    0    0  0.56243503758E+01 -0.37648664837E+01  0.23887835264E+02  0.24828133451E+02  0.51100000000E-03 0.  1.
        -12    1    4    4    0    0  0.15561282448E+02  0.15446345086E+02  0.59147801873E+01  0.22709639200E+02  0.00000000000E+00 0.  1.
</event>
<event>
 8    1  0.3146747E-007  0.9118800E+02  0.7816164E-02  0.1184000E+00
        -11   -1    0    0    0    0  0.00000000000E+00  0.00000000000E+00  0.45593999997E+02  0.45594000000E+02  0.51100000000E-03 0. -1.
         11   -1    0    0    0    0 -0.00000000000E+00 -0.00000000000E+00 -0.45593999997E+02  0.45594000000E+02  0.51100000000E-03 0.  1.
         23    2    1    2    0    0  0.00000000000E+00 -0.17763568394E-14  0.35527136788E-14  0.91188000000E+02  0.91188000000E+02 0.  0.
    9900012    2    3    3    0    0  0.27260372663E+02 -0.15795878432E+02  0.19056303550E+02  0.54367076626E+02  0.39999982783E+02 0.  0.
        -12    1    3    3    0    0 -0.27260372663E+02  0.15795878432E+02 -0.19056303550E+02  0.36820923374E+02  0.00000000000E+00 0.  1.
         11    1    4    4    0    0  0.16497567415E+02 -0.13950411433E+02  0.17573241719E+02  0.27849641551E+02  0.51100000000E-03 0. -1.
        -11    1    4    4    0    0 -0.31939334308E+01  0.84489528254E+01  0.16073237584E+01  0.91743939600E+01  0.51100000000E-03 0.  1.
        -12    1    4    4    0    0  0.13956738679E+02 -0.10294419825E+02 -0.12426192750E+00  0.17343041114E+02  0.00000000000E+00 0.  1.
</event>
<event>
 8    1  0.3146747E-007  0.9118800E+02  0.7816164E-02  0.1184000E+00
        -11   -1    0    0    0    0  0.00000000000E+00  0.00000000000E+00  0.45593999997E+02  0.45594000000E+02  0.51100000000E-03 0.  1.
         11   -1    0    0    0    0 -0.00000000000E+00 -0.00000000000E+00 -0.45593999997E+02  0.45594000000E+02  0.51100000000E-03 0. -1.
         23    2    1    2    0    0  0.35527136788E-14  0.17763568394E-14 -0.35527136788E-14  0.91188000000E+02  0.91188000000E+02 0.  0.
    9900012    2    3    3    0    0  0.19514438940E+02 -0.90697452777E+01  0.29878211890E+02  0.54367066385E+02  0.39999959437E+02 0.  0.
         12    1    3    3    0    0 -0.19514438940E+02  0.90697452777E+01 -0.29878211890E+02  0.36820933615E+02  0.00000000000E+00 0. -1.
         11    1    4    4    0    0 -0.55779579386E+00  0.11858367421E+01 -0.30520629270E+01  0.33215106951E+01  0.51100000000E-03 0. -1.
        -11    1    4    4    0    0  0.24264194783E+02 -0.96357043657E+01  0.10371282394E+02  0.28092017476E+02  0.51100000000E-03 0.  1.
        -12    1    4    4    0    0 -0.41919600495E+01 -0.61987765415E+00  0.22558992423E+02  0.22953538213E+02  0.00000000000E+00 0.  1.
</event>
<event>
 8    1  0.3146747E-007  0.9118800E+02  0.7816164E-02  0.1184000E+00
        -11   -1    0    0    0    0  0.00000000000E+00  0.00000000000E+00  0.45593999997E+02  0.45594000000E+02  0.51100000000E-03 0. -1.
         11   -1    0    0    0    0 -0.00000000000E+00 -0.00000000000E+00 -0.45593999997E+02  0.45594000000E+02  0.51100000000E-03 0.  1.
         23    2    1    2    0    0 -0.35527136788E-14 -0.35527136788E-14 -0.35527136788E-14  0.91188000000E+02  0.91188000000E+02 0.  0.
    9900012    2    3    3    0    0 -0.19913459073E+02 -0.23324079524E+02 -0.20376953877E+02  0.54367098502E+02  0.40000032654E+02 0.  0.
         12    1    3    3    0    0  0.19913459073E+02  0.23324079524E+02  0.20376953877E+02  0.36820901498E+02  0.00000000000E+00 0. -1.
         11    1    4    4    0    0  0.54234631108E+01 -0.15011478640E+01 -0.23422586403E+01  0.60953730668E+01  0.51100000000E-03 0. -1.
        -11    1    4    4    0    0  0.45443144158E+01 -0.12697971297E+02 -0.64505261457E+01  0.14949868106E+02  0.51100000000E-03 0.  1.
        -12    1    4    4    0    0 -0.29881236599E+02 -0.91249603628E+01 -0.11584169091E+02  0.33321857329E+02  0.00000000000E+00 0.  1.
</event>
<event>
 8    1  0.3146747E-007  0.9118800E+02  0.7816164E-02  0.1184000E+00
        -11   -1    0    0    0    0  0.00000000000E+00  0.00000000000E+00  0.45593999997E+02  0.45594000000E+02  0.51100000000E-03 0.  1.
         11   -1    0    0    0    0 -0.00000000000E+00 -0.00000000000E+00 -0.45593999997E+02  0.45594000000E+02  0.51100000000E-03 0. -1.
         23    2    1    2    0    0  0.00000000000E+00  0.00000000000E+00 -0.55511151231E-15  0.91188000000E+02  0.91188000000E+02 0.  0.
    9900012    2    3    3    0    0 -0.33654712742E+01  0.36663552019E+02  0.48732320243E+00  0.54367083017E+02  0.39999997355E+02 0.  0.
         12    1    3    3    0    0  0.33654712742E+01 -0.36663552019E+02 -0.48732320243E+00  0.36820916983E+02  0.00000000000E+00 0. -1.
         11    1    4    4    0    0 -0.30930905695E+01  0.16883032769E+02  0.13260125678E+02  0.21689512166E+02  0.51100000000E-03 0. -1.
        -11    1    4    4    0    0 -0.56917935386E+01 -0.10831891444E+01  0.24474771686E+01  0.62896706719E+01  0.51100000000E-03 0.  1.
         12    1    4    4    0    0  0.54194128339E+01  0.20863708394E+02 -0.15220279644E+02  0.26387900179E+02  0.00000000000E+00 0. -1.
</event>
<event>
 8    1  0.3146747E-007  0.9118800E+02  0.7816164E-02  0.1184000E+00
        -11   -1    0    0    0    0  0.00000000000E+00  0.00000000000E+00  0.45593999997E+02  0.45594000000E+02  0.51100000000E-03 0. -1.
         11   -1    0    0    0    0 -0.00000000000E+00 -0.00000000000E+00 -0.45593999997E+02  0.45594000000E+02  0.51100000000E-03 0.  1.
         23    2    1    2    0    0  0.00000000000E+00  0.00000000000E+00  0.00000000000E+00  0.91188000000E+02  0.91188000000E+02 0.  0.
    9900012    2    3    3    0    0 -0.13185095314E+02 -0.32088993226E+02  0.12338135035E+02  0.54367084737E+02  0.40000001274E+02 0.  0.
        -12    1    3    3    0    0  0.13185095314E+02  0.32088993226E+02 -0.12338135035E+02  0.36820915263E+02  0.00000000000E+00 0.  1.
         11    1    4    4    0    0  0.10462113028E+02  0.18212228489E+01  0.45931667829E+01  0.11570213612E+02  0.51100000000E-03 0.  1.
        -11    1    4    4    0    0 -0.77941458282E+01 -0.16385010257E+02  0.59592349020E+01  0.19097899130E+02  0.51100000000E-03 0. -1.
         12    1    4    4    0    0 -0.15853062513E+02 -0.17525205818E+02  0.17857333506E+01  0.23698971995E+02  0.00000000000E+00 0. -1.
</event>
<event>
 8    1  0.3146747E-007  0.9118800E+02  0.7816164E-02  0.1184000E+00
        -11   -1    0    0    0    0  0.00000000000E+00  0.00000000000E+00  0.45593999997E+02  0.45594000000E+02  0.51100000000E-03 0.  1.
         11   -1    0    0    0    0 -0.00000000000E+00 -0.00000000000E+00 -0.45593999997E+02  0.45594000000E+02  0.51100000000E-03 0. -1.
         23    2    1    2    0    0 -0.88817841970E-15 -0.17763568394E-14  0.00000000000E+00  0.91188000000E+02  0.91188000000E+02 0.  0.
    9900012    2    3    3    0    0 -0.63027537811E+01 -0.13233553118E+02 -0.33777623872E+02  0.54367088716E+02  0.40000010346E+02 0.  0.
        -12    1    3    3    0    0  0.63027537811E+01  0.13233553118E+02  0.33777623872E+02  0.36820911284E+02  0.00000000000E+00 0.  1.
         11    1    4    4    0    0  0.91862224707E+01  0.42721798810E+01 -0.14686571133E+02  0.17841905059E+02  0.51100000000E-03 0. -1.
        -11    1    4    4    0    0 -0.49900733405E+01 -0.12228243416E+02 -0.20812200360E+02  0.24649106537E+02  0.51100000000E-03 0.  1.
        -12    1    4    4    0    0 -0.10498902911E+02 -0.52774895829E+01  0.17211476210E+01  0.11876077121E+02  0.00000000000E+00 0.  1.
</event>
<event>
 8    1  0.3146747E-007  0.9118800E+02  0.7816164E-02  0.1184000E+00
        -11   -1    0    0    0    0  0.00000000000E+00  0.00000000000E+00  0.45593999997E+02  0.45594000000E+02  0.51100000000E-03 0.  1.
         11   -1    0    0    0    0 -0.00000000000E+00 -0.00000000000E+00 -0.45593999997E+02  0.45594000000E+02  0.51100000000E-03 0. -1.
         23    2    1    2    0    0  0.17763568394E-14 -0.17763568394E-14  0.00000000000E+00  0.91188000000E+02  0.91188000000E+02 0.  0.
    9900012    2    3    3    0    0  0.11447907318E+02 -0.12558712411E+02  0.32665035611E+02  0.54367076725E+02  0.39999983010E+02 0.  0.
         12    1    3    3    0    0 -0.11447907318E+02  0.12558712411E+02 -0.32665035611E+02  0.36820923275E+02  0.00000000000E+00 0. -1.
         11    1    4    4    0    0 -0.12783710606E+01  0.19036462083E+01  0.16125912827E+02  0.16288129611E+02  0.51100000000E-03 0. -1.
        -11    1    4    4    0    0 -0.79178941249E+00  0.35087179969E+01  0.15124980284E+02  0.15546802286E+02  0.51100000000E-03 0.  1.
        -12    1    4    4    0    0  0.13518067791E+02 -0.17971076616E+02  0.14141424994E+01  0.22532144828E+02  0.00000000000E+00 0.  1.
</event>
<event>
 8    1  0.3146747E-007  0.9118800E+02  0.7816164E-02  0.1184000E+00
        -11   -1    0    0    0    0  0.00000000000E+00  0.00000000000E+00  0.45593999997E+02  0.45594000000E+02  0.51100000000E-03 0.  1.
         11   -1    0    0    0    0 -0.00000000000E+00 -0.00000000000E+00 -0.45593999997E+02  0.45594000000E+02  0.51100000000E-03 0. -1.
         23    2    1    2    0    0  0.00000000000E+00 -0.17763568394E-14 -0.35527136788E-14  0.91188000000E+02  0.91188000000E+02 0.  0.
    9900012    2    3    3    0    0 -0.27478724330E+02 -0.13636363563E+02 -0.20365399309E+02  0.54367079438E+02  0.39999989194E+02 0.  0.
        -12    1    3    3    0    0  0.27478724330E+02  0.13636363563E+02  0.20365399309E+02  0.36820920562E+02  0.00000000000E+00 0.  1.
         11    1    4    4    0    0 -0.39164116345E+01 -0.19138095800E+02 -0.12276415046E+02  0.23071960419E+02  0.51100000000E-03 0. -1.
        -11    1    4    4    0    0 -0.24420055154E+02  0.18333984569E+00 -0.45267517130E+01  0.24836750765E+02  0.51100000000E-03 0.  1.
        -12    1    4    4    0    0  0.85774245811E+00  0.53183923919E+01 -0.35622325503E+01  0.64583682537E+01  0.00000000000E+00 0.  1.
</event>
<event>
 8    1  0.3146747E-007  0.9118800E+02  0.7816164E-02  0.1184000E+00
        -11   -1    0    0    0    0  0.00000000000E+00  0.00000000000E+00  0.45593999997E+02  0.45594000000E+02  0.51100000000E-03 0. -1.
         11   -1    0    0    0    0 -0.00000000000E+00 -0.00000000000E+00 -0.45593999997E+02  0.45594000000E+02  0.51100000000E-03 0.  1.
         23    2    1    2    0    0  0.00000000000E+00  0.00000000000E+00  0.00000000000E+00  0.91188000000E+02  0.91188000000E+02 0.  0.
    9900012    2    3    3    0    0 -0.21413875031E+02 -0.29680208217E+02  0.40387190569E+01  0.54367081282E+02  0.39999993398E+02 0.  0.
         12    1    3    3    0    0  0.21413875031E+02  0.29680208217E+02 -0.40387190569E+01  0.36820918718E+02  0.00000000000E+00 0. -1.
         11    1    4    4    0    0 -0.21682610719E+02 -0.86505933399E+01  0.18053383214E+01  0.23414261027E+02  0.51100000000E-03 0. -1.
        -11    1    4    4    0    0  0.47142054422E+01  0.32997502705E+01 -0.14846339838E+01  0.59427454199E+01  0.51100000000E-03 0.  1.
         12    1    4    4    0    0 -0.44454697541E+01 -0.24329365147E+02  0.37180147192E+01  0.25010074835E+02  0.00000000000E+00 0. -1.
</event>
<event>
 8    1  0.3146747E-007  0.9118800E+02  0.7816164E-02  0.1184000E+00
        -11   -1    0    0    0    0  0.00000000000E+00  0.00000000000E+00  0.45593999997E+02  0.45594000000E+02  0.51100000000E-03 0. -1.
         11   -1    0    0    0    0 -0.00000000000E+00 -0.00000000000E+00 -0.45593999997E+02  0.45594000000E+02  0.51100000000E-03 0.  1.
         23    2    1    2    0    0 -0.35527136788E-14  0.00000000000E+00  0.17763568394E-14  0.91188000000E+02  0.91188000000E+02 0.  0.
    9900012    2    3    3    0    0  0.31238237648E+02  0.12280142065E+02 -0.15137708744E+02  0.54367087375E+02  0.40000007289E+02 0.  0.
         12    1    3    3    0    0 -0.31238237648E+02 -0.12280142065E+02  0.15137708744E+02  0.36820912625E+02  0.00000000000E+00 0. -1.
         11    1    4    4    0    0  0.11481642022E+02  0.87219391312E+01 -0.18869198500E+02  0.23747567834E+02  0.51100000000E-03 0. -1.
        -11    1    4    4    0    0  0.19306028392E+02  0.11289236738E+02  0.92861022802E+00  0.22383742217E+02  0.51100000000E-03 0.  1.
         12    1    4    4    0    0  0.45056723320E+00 -0.77310338035E+01  0.28028795272E+01  0.82357773250E+01  0.00000000000E+00 0. -1.
</event>
<event>
 8    1  0.3146747E-007  0.9118800E+02  0.7816164E-02  0.1184000E+00
        -11   -1    0    0    0    0  0.00000000000E+00  0.00000000000E+00  0.45593999997E+02  0.45594000000E+02  0.51100000000E-03 0.  1.
         11   -1    0    0    0    0 -0.00000000000E+00 -0.00000000000E+00 -0.45593999997E+02  0.45594000000E+02  0.51100000000E-03 0. -1.
         23    2    1    2    0    0  0.00000000000E+00 -0.35527136788E-14  0.17763568394E-14  0.91188000000E+02  0.91188000000E+02 0.  0.
    9900012    2    3    3    0    0  0.20791371392E+02  0.27708708509E+02 -0.12478964659E+02  0.54367106331E+02  0.40000050503E+02 0.  0.
        -12    1    3    3    0    0 -0.20791371392E+02 -0.27708708509E+02  0.12478964659E+02  0.36820893669E+02  0.00000000000E+00 0.  1.
         11    1    4    4    0    0  0.49416328076E+01 -0.88407943392E+01  0.39383912604E+00  0.10135802330E+02  0.51100000000E-03 0.  1.
        -11    1    4    4    0    0  0.11664860997E+02  0.18082663241E+02 -0.13289658147E+02  0.25291633120E+02  0.51100000000E-03 0. -1.
        -12    1    4    4    0    0  0.41848775877E+01  0.18466839608E+02  0.41685436269E+00  0.18939670881E+02  0.00000000000E+00 0.  1.
</event>
<event>
 8    1  0.3146747E-007  0.9118800E+02  0.7816164E-02  0.1184000E+00
        -11   -1    0    0    0    0  0.00000000000E+00  0.00000000000E+00  0.45593999997E+02  0.45594000000E+02  0.51100000000E-03 0.  1.
         11   -1    0    0    0    0 -0.00000000000E+00 -0.00000000000E+00 -0.45593999997E+02  0.45594000000E+02  0.51100000000E-03 0. -1.
         23    2    1    2    0    0  0.00000000000E+00  0.00000000000E+00  0.88817841970E-15  0.91188000000E+02  0.91188000000E+02 0.  0.
    9900012    2    3    3    0    0 -0.30871951326E+02  0.19427060735E+02  0.50290581589E+01  0.54367088911E+02  0.40000010790E+02 0.  0.
         12    1    3    3    0    0  0.30871951326E+02 -0.19427060735E+02 -0.50290581589E+01  0.36820911089E+02  0.00000000000E+00 0. -1.
         11    1    4    4    0    0 -0.71256206961E+01  0.16098922200E+02 -0.20784260359E+01  0.17727651321E+02  0.51100000000E-03 0. -1.
        -11    1    4    4    0    0 -0.16859957750E+02 -0.10044100081E+02 -0.80976997111E+00  0.19641737434E+02  0.51100000000E-03 0.  1.
         12    1    4    4    0    0 -0.68863728801E+01  0.13372238616E+02  0.79172541659E+01  0.16997700155E+02  0.00000000000E+00 0. -1.
</event>
<event>
 8    1  0.3146747E-007  0.9118800E+02  0.7816164E-02  0.1184000E+00
        -11   -1    0    0    0    0  0.00000000000E+00  0.00000000000E+00  0.45593999997E+02  0.45594000000E+02  0.51100000000E-03 0. -1.
         11   -1    0    0    0    0 -0.00000000000E+00 -0.00000000000E+00 -0.45593999997E+02  0.45594000000E+02  0.51100000000E-03 0.  1.
         23    2    1    2    0    0  0.71054273576E-14 -0.26645352591E-14  0.00000000000E+00  0.91188000000E+02  0.91188000000E+02 0.  0.
    9900012    2    3    3    0    0  0.27136672642E+02  0.78765473392E+01  0.23608088863E+02  0.54367070356E+02  0.39999968491E+02 0.  0.
        -12    1    3    3    0    0 -0.27136672642E+02 -0.78765473392E+01 -0.23608088863E+02  0.36820929644E+02  0.00000000000E+00 0.  1.
         11    1    4    4    0    0  0.20206518696E+02 -0.11542905167E+02  0.71153750466E+01  0.24334556084E+02  0.51100000000E-03 0. -1.
        -11    1    4    4    0    0 -0.23634897658E+01 -0.28213012938E+00  0.46840028246E+01  0.52540997331E+01  0.51100000000E-03 0.  1.
        -12    1    4    4    0    0  0.92936437122E+01  0.19701582636E+02  0.11808710992E+02  0.24778414539E+02  0.00000000000E+00 0.  1.
</event>
<event>
 8    1  0.3146747E-007  0.9118800E+02  0.7816164E-02  0.1184000E+00
        -11   -1    0    0    0    0  0.00000000000E+00  0.00000000000E+00  0.45593999997E+02  0.45594000000E+02  0.51100000000E-03 0. -1.
         11   -1    0    0    0    0 -0.00000000000E+00 -0.00000000000E+00 -0.45593999997E+02  0.45594000000E+02  0.51100000000E-03 0.  1.
         23    2    1    2    0    0  0.00000000000E+00 -0.26645352591E-14  0.00000000000E+00  0.91188000000E+02  0.91188000000E+02 0.  0.
    9900012    2    3    3    0    0  0.32900729993E+02  0.33499503069E+01  0.16189472137E+02  0.54367092770E+02  0.40000019588E+02 0.  0.
        -12    1    3    3    0    0 -0.32900729993E+02 -0.33499503069E+01 -0.16189472137E+02  0.36820907230E+02  0.00000000000E+00 0.  1.
         11    1    4    4    0    0  0.75510704148E+01  0.18827388350E+02  0.45702271241E+01  0.20793657512E+02  0.51100000000E-03 0. -1.
        -11    1    4    4    0    0  0.54719124358E+01 -0.88624070490E+01  0.24194731246E+01  0.10692891792E+02  0.51100000000E-03 0.  1.
         12    1    4    4    0    0  0.19877747143E+02 -0.66150309940E+01  0.91997718885E+01  0.22880543467E+02  0.00000000000E+00 0. -1.
</event>
<event>
 8    1  0.3146747E-007  0.9118800E+02  0.7816164E-02  0.1184000E+00
        -11   -1    0    0    0    0  0.00000000000E+00  0.00000000000E+00  0.45593999997E+02  0.45594000000E+02  0.51100000000E-03 0.  1.
         11   -1    0    0    0    0 -0.00000000000E+00 -0.00000000000E+00 -0.45593999997E+02  0.45594000000E+02  0.51100000000E-03 0. -1.
         23    2    1    2    0    0  0.17763568394E-14 -0.22204460493E-15  0.00000000000E+00  0.91188000000E+02  0.91188000000E+02 0.  0.
    9900012    2    3    3    0    0 -0.74866274508E+01 -0.18364424142E+01  0.36004960010E+02  0.54367092126E+02  0.40000018120E+02 0.  0.
         12    1    3    3    0    0  0.74866274508E+01  0.18364424142E+01 -0.36004960010E+02  0.36820907874E+02  0.00000000000E+00 0. -1.
         11    1    4    4    0    0  0.73487871345E+01  0.15262498707E+01  0.15691238063E+02  0.17393937542E+02  0.51100000000E-03 0. -1.
        -11    1    4    4    0    0  0.44061819585E+01 -0.70754030333E+01  0.14163638653E+02  0.16434245577E+02  0.51100000000E-03 0.  1.
         12    1    4    4    0    0 -0.19241596544E+02  0.37127107484E+01  0.61500832943E+01  0.20538909007E+02  0.00000000000E+00 0. -1.
</event>
